<event>
 7    1  0.2900135E-009  0.1113907E+03  0.7561462E-02  0.1258016E+00
          1   -1    0    0  501    0  0.00000000000E+00  0.00000000000E+00  0.24721909073E+03  0.24721909073E+03  0.00000000000E+00 0. -1.
         -1   -1    0    0    0  501 -0.00000000000E+00 -0.00000000000E+00 -0.88460026855E+02  0.88460026855E+02  0.00000000000E+00 0.  1.
         25    2    1    2    0    0 -0.29250550770E+02 -0.88009224660E+02  0.44621181727E+02  0.16198889202E+03  0.12509249751E+03 0.  0.
          5    1    3    3  502    0 -0.22349806439E+02 -0.58774072225E+02 -0.38266376897E+02  0.73727155205E+02  0.41800000000E+01 0. -1.
         -5    1    3    3    0  502 -0.69007443312E+01 -0.29235152435E+02  0.82887558624E+02  0.88261736811E+02  0.41800000000E+01 0. -1.
        -11    1    1    2    0    0 -0.13190759970E+02  0.85936243139E+02  0.63942296629E+02  0.10792428518E+03  0.00000000000E+00 0.  1.
         11    1    1    2    0    0  0.42441310741E+02  0.20729815209E+01  0.50195585522E+02  0.65765940392E+02  0.00000000000E+00 0. -1.
</event>
<event>
 7    1  0.2900135E-009  0.1202886E+03  0.7561462E-02  0.1242622E+00
          2   -1    0    0  501    0  0.00000000000E+00  0.00000000000E+00  0.45094231308E+03  0.45094231308E+03  0.00000000000E+00 0. -1.
         -2   -1    0    0    0  501 -0.00000000000E+00 -0.00000000000E+00 -0.39593596656E+02  0.39593596656E+02  0.00000000000E+00 0.  1.
         25    2    1    2    0    0  0.72579702776E+02  0.22924608595E+02  0.19971596103E+03  0.24764199875E+03  0.12508694385E+03 0.  0.
          5    1    3    3  502    0 -0.21033920919E+02 -0.30985744726E+02  0.62124443844E+02  0.72659900415E+02  0.41800000000E+01 0. -1.
         -5    1    3    3    0  502  0.93613623695E+02  0.53910353321E+02  0.13759151719E+03  0.17498209834E+03  0.41800000000E+01 0. -1.
        -11    1    1    2    0    0 -0.44108062122E+02 -0.41685345910E+02  0.52800481704E+02  0.80443023787E+02  0.00000000000E+00 0.  1.
         11    1    1    2    0    0 -0.28471640653E+02  0.18760737315E+02  0.15883227369E+03  0.16245088720E+03  0.00000000000E+00 0. -1.
</event>
<event>
 7    1  0.2900135E-009  0.2347617E+03  0.7561462E-02  0.1123332E+00
          2   -1    0    0  501    0  0.00000000000E+00  0.00000000000E+00  0.15980805675E+04  0.15980805675E+04  0.00000000000E+00 0. -1.
         -2   -1    0    0    0  501 -0.00000000000E+00 -0.00000000000E+00 -0.41912193520E+02  0.41912193520E+02  0.00000000000E+00 0.  1.
         25    2    1    2    0    0  0.19970540758E+03  0.93103530881E+02  0.54433602454E+03  0.60041560466E+03  0.12508666365E+03 0.  0.
          5    1    3    3  502    0  0.42142888429E+01  0.43379624602E+02  0.16561093118E+03  0.17130091940E+03  0.41800000000E+01 0. -1.
         -5    1    3    3    0  502  0.19549111874E+03  0.49723906279E+02  0.37872509336E+03  0.42911468526E+03  0.41800000000E+01 0. -1.
        -11    1    1    2    0    0 -0.13906925098E+03 -0.43722134916E+02  0.81211838463E+03  0.82509887426E+03  0.00000000000E+00 0.  1.
         11    1    1    2    0    0 -0.60636156603E+02 -0.49381395965E+02  0.19971396484E+03  0.21447828213E+03  0.00000000000E+00 0. -1.
</event>
<event>
 7    1  0.2900135E-009  0.1155223E+03  0.7561462E-02  0.1250672E+00
         -2   -1    0    0    0  501 -0.00000000000E+00  0.00000000000E+00  0.26616376254E+02  0.26616376254E+02  0.00000000000E+00 0.  1.
          2   -1    0    0  501    0  0.00000000000E+00 -0.00000000000E+00 -0.93380971341E+03  0.93380971341E+03  0.00000000000E+00 0. -1.
         25    2    1    2    0    0  0.92062764658E+02 -0.19325219230E+02 -0.68220929406E+03  0.69993244724E+03  0.12508754163E+03 0.  0.
          5    1    3    3  502    0  0.66716289695E+02  0.21049073547E+02 -0.60534932282E+03  0.60939264998E+03  0.41800000000E+01 0. -1.
         -5    1    3    3    0  502  0.25346474962E+02 -0.40374292777E+02 -0.76859971239E+02  0.90539797267E+02  0.41800000000E+01 0. -1.
        -11    1    1    2    0    0 -0.88072518801E+02 -0.52328377871E+01 -0.10131246712E+03  0.13434421146E+03  0.00000000000E+00 0.  1.
         11    1    1    2    0    0 -0.39902458563E+01  0.24558057017E+02 -0.12367157598E+03  0.12614943096E+03  0.00000000000E+00 0. -1.
</event>
<event>
 7    1  0.2900135E-009  0.7994121E+02  0.7561462E-02  0.1329218E+00
         -3   -1    0    0    0  501 -0.00000000000E+00  0.00000000000E+00  0.88635751012E+02  0.88635751012E+02  0.00000000000E+00 0.  1.
          3   -1    0    0  501    0  0.00000000000E+00 -0.00000000000E+00 -0.18846589857E+03  0.18846589857E+03  0.00000000000E+00 0. -1.
         25    2    1    2    0    0 -0.46105395817E+02 -0.33318044464E+02 -0.12145462344E+02  0.13795670198E+03  0.12509492298E+03 0.  0.
          5    1    3    3  502    0 -0.22938872522E+02 -0.68767276254E+01  0.56063879848E+02  0.61107383179E+02  0.41800000000E+01 0.  1.
         -5    1    3    3    0  502 -0.23166523295E+02 -0.26441316839E+02 -0.68209342192E+02  0.76849318800E+02  0.41800000000E+01 0.  1.
        -11    1    1    2    0    0  0.49954718077E+02  0.57221743544E+02 -0.40430061955E+02  0.86048775134E+02  0.00000000000E+00 0.  1.
         11    1    1    2    0    0 -0.38493222601E+01 -0.23903699080E+02 -0.47254623254E+02  0.53096172465E+02  0.00000000000E+00 0. -1.
</event>
<event>
 7    1  0.2900135E-009  0.7778572E+02  0.7561462E-02  0.1335455E+00
         -1   -1    0    0    0  501 -0.00000000000E+00  0.00000000000E+00  0.90549360918E+02  0.90549360918E+02  0.00000000000E+00 0.  1.
          1   -1    0    0  501    0  0.00000000000E+00 -0.00000000000E+00 -0.18280635067E+03  0.18280635067E+03  0.00000000000E+00 0. -1.
         25    2    1    2    0    0 -0.64468027023E+02  0.20704404368E+02 -0.71011665392E+02  0.15898023130E+03  0.12508900213E+03 0.  0.
          5    1    3    3  502    0 -0.80950602143E+01  0.14198108161E+01  0.35601925927E+02  0.36776560366E+02  0.41800000000E+01 0. -1.
         -5    1    3    3    0  502 -0.56372966809E+02  0.19284593552E+02 -0.10661359132E+03  0.12220367093E+03  0.41800000000E+01 0. -1.
        -11    1    1    2    0    0  0.67324759860E+02 -0.32307017226E+02 -0.45423928813E+02  0.87405377186E+02  0.00000000000E+00 0. -1.
         11    1    1    2    0    0 -0.28567328370E+01  0.11602612858E+02  0.24178604458E+02  0.26970103099E+02  0.00000000000E+00 0.  1.
</event>
<event>
 7    1  0.2900135E-009  0.1654427E+03  0.7561462E-02  0.1182685E+00
         -4   -1    0    0    0  501 -0.00000000000E+00  0.00000000000E+00  0.48848336311E+03  0.48848336311E+03  0.00000000000E+00 0.  1.
          4   -1    0    0  501    0  0.00000000000E+00 -0.00000000000E+00 -0.84674914797E+02  0.84674914797E+02  0.00000000000E+00 0. -1.
         25    2    1    2    0    0 -0.14242399250E+03 -0.55751984185E+02  0.31740342876E+03  0.37387947459E+03  0.12509215625E+03 0.  0.
          5    1    3    3  502    0 -0.11302523846E+03 -0.40933406026E+02  0.10734670296E+03  0.16121735420E+03  0.41800000000E+01 0. -1.
         -5    1    3    3    0  502 -0.29398754033E+02 -0.14818578159E+02  0.21005672579E+03  0.21266212039E+03  0.41800000000E+01 0. -1.
        -11    1    1    2    0    0  0.10988458323E+03  0.80766393297E+02  0.52818956935E+02  0.14624525336E+03  0.00000000000E+00 0. -1.
         11    1    1    2    0    0  0.32539409261E+02 -0.25014409113E+02  0.33586062618E+02  0.53033549952E+02  0.00000000000E+00 0.  1.
</event>
<event>
 7    1  0.2900135E-009  0.6164569E+02  0.7561462E-02  0.1391052E+00
          1   -1    0    0  501    0  0.00000000000E+00  0.00000000000E+00  0.64905455415E+02  0.64905455415E+02  0.00000000000E+00 0. -1.
         -1   -1    0    0    0  501 -0.00000000000E+00 -0.00000000000E+00 -0.25659636851E+03  0.25659636851E+03  0.00000000000E+00 0.  1.
         25    2    1    2    0    0 -0.20754965365E+02 -0.56545368926E+01 -0.18366954096E+03  0.22325801787E+03  0.12508756891E+03 0.  0.
          5    1    3    3  502    0 -0.21352571512E+02  0.19076416296E+01  0.13645148357E+02  0.25753327561E+02  0.41800000000E+01 0. -1.
         -5    1    3    3    0  502  0.59760614657E+00 -0.75621785222E+01 -0.19731468931E+03  0.19750469031E+03  0.41800000000E+01 0. -1.
        -11    1    1    2    0    0  0.54511691982E+02  0.17122108668E+02 -0.20149060962E+02  0.60586102578E+02  0.00000000000E+00 0.  1.
         11    1    1    2    0    0 -0.33756726617E+02 -0.11467571775E+02  0.12127688827E+02  0.37657703469E+02  0.00000000000E+00 0. -1.
</event>
<event>
 7    1  0.2900135E-009  0.8600812E+02  0.7561462E-02  0.1312817E+00
         -1   -1    0    0    0  501 -0.00000000000E+00  0.00000000000E+00  0.18080182933E+02  0.18080182933E+02  0.00000000000E+00 0.  1.
          1   -1    0    0  501    0  0.00000000000E+00 -0.00000000000E+00 -0.10345611069E+04  0.10345611069E+04  0.00000000000E+00 0. -1.
         25    2    1    2    0    0  0.43912317713E+02 -0.30084273782E+02 -0.69632965924E+03  0.70947675154E+03  0.12509560926E+03 0.  0.
          5    1    3    3  502    0 -0.56834152544E+01 -0.27058652060E+02 -0.28996456228E+02  0.40283231425E+02  0.41800000000E+01 0.  1.
         -5    1    3    3    0  502  0.49595732968E+02 -0.30256217224E+01 -0.66733320301E+03  0.66919352011E+03  0.41800000000E+01 0.  1.
        -11    1    1    2    0    0 -0.35271974108E+02  0.56383546632E+02 -0.30384086786E+03  0.31103454707E+03  0.00000000000E+00 0. -1.
         11    1    1    2    0    0 -0.86403436055E+01 -0.26299272850E+02 -0.16310396854E+02  0.32129991216E+02  0.00000000000E+00 0.  1.
</event>
<event>
 7    1  0.2900135E-009  0.2401309E+03  0.7561462E-02  0.1119706E+00
          2   -1    0    0  501    0  0.00000000000E+00  0.00000000000E+00  0.15366285565E+04  0.15366285565E+04  0.00000000000E+00 0. -1.
         -2   -1    0    0    0  501 -0.00000000000E+00 -0.00000000000E+00 -0.40536331269E+02  0.40536331269E+02  0.00000000000E+00 0.  1.
         25    2    1    2    0    0  0.16041301279E+03 -0.15174856495E+03  0.63797098283E+03  0.68659741250E+03  0.12509624405E+03 0.  0.
          5    1    3    3  502    0  0.23526972180E+02  0.13879325958E+02  0.16221355286E+03  0.16455048843E+03  0.41800000000E+01 0. -1.
         -5    1    3    3    0  502  0.13688604061E+03 -0.16562789091E+03  0.47575742997E+03  0.52204692407E+03  0.41800000000E+01 0. -1.
        -11    1    1    2    0    0 -0.10747833237E+03  0.41123894016E+02  0.44381832886E+03  0.45849479345E+03  0.00000000000E+00 0.  1.
         11    1    1    2    0    0 -0.52934680419E+02  0.11062467094E+03  0.41430291354E+03  0.43207268182E+03  0.00000000000E+00 0. -1.
</event>
<event>
 7    1  0.2900135E-009  0.1114435E+03  0.7561462E-02  0.1257920E+00
         -2   -1    0    0    0  501 -0.00000000000E+00  0.00000000000E+00  0.11894246259E+03  0.11894246259E+03  0.00000000000E+00 0.  1.
          2   -1    0    0  501    0  0.00000000000E+00 -0.00000000000E+00 -0.15549578977E+03  0.15549578977E+03  0.00000000000E+00 0. -1.
         25    2    1    2    0    0 -0.64284746926E+02  0.50019080703E+02  0.17893196019E+01  0.14928127231E+03  0.12508900621E+03 0.  0.
          5    1    3    3  502    0 -0.90862072180E+02  0.61250446455E+02 -0.21768947897E+02  0.11179844741E+03  0.41800000000E+01 0.  1.
         -5    1    3    3    0  502  0.26577325255E+02 -0.11231365752E+02  0.23558267499E+02  0.37482824892E+02  0.41800000000E+01 0.  1.
        -11    1    1    2    0    0  0.52243254510E+02 -0.28746443749E+02 -0.65527825407E+02  0.88598033683E+02  0.00000000000E+00 0.  1.
         11    1    1    2    0    0  0.12041492416E+02 -0.21272636954E+02  0.27185178631E+02  0.36558946371E+02  0.00000000000E+00 0. -1.
</event>
<event>
 7    1  0.2900135E-009  0.1476234E+03  0.7561462E-02  0.1203424E+00
          2   -1    0    0  501    0  0.00000000000E+00  0.00000000000E+00  0.11215934529E+04  0.11215934529E+04  0.00000000000E+00 0. -1.
         -2   -1    0    0    0  501 -0.00000000000E+00 -0.00000000000E+00 -0.27612301993E+02  0.27612301993E+02  0.00000000000E+00 0.  1.
         25    2    1    2    0    0 -0.70924684657E+02  0.75206774140E+02  0.87186262420E+03  0.88683611477E+03  0.12508992452E+03 0.  0.
          5    1    3    3  502    0 -0.60666040673E+02  0.10937732102E+03  0.71899068980E+03  0.72980055581E+03  0.41800000000E+01 0.  1.
         -5    1    3    3    0  502 -0.10258643985E+02 -0.34170546880E+02  0.15287193440E+03  0.15703555896E+03  0.41800000000E+01 0.  1.
        -11    1    1    2    0    0  0.29152373525E+02 -0.86191467995E+02  0.18173148965E+03  0.20323672003E+03  0.00000000000E+00 0.  1.
         11    1    1    2    0    0  0.41772311132E+02  0.10984693855E+02  0.40387037050E+02  0.59132920088E+02  0.00000000000E+00 0. -1.
</event>
<event>
 7    1  0.2900135E-009  0.2267152E+03  0.7561462E-02  0.1128973E+00
          1   -1    0    0  501    0  0.00000000000E+00  0.00000000000E+00  0.62888851335E+03  0.62888851335E+03  0.00000000000E+00 0. -1.
         -1   -1    0    0    0  501 -0.00000000000E+00 -0.00000000000E+00 -0.10252843359E+03  0.10252843359E+03  0.00000000000E+00 0.  1.
         25    2    1    2    0    0  0.22496405704E+03  0.15671324718E+02  0.20729938611E+03  0.33086988502E+03  0.12508967965E+03 0.  0.
          5    1    3    3  502    0  0.15069642488E+03 -0.13527113702E+00  0.20541767175E+03  0.25480055541E+03  0.41800000000E+01 0. -1.
         -5    1    3    3    0  502  0.74267632157E+02  0.15806595855E+02  0.18817143601E+01  0.76069329613E+02  0.41800000000E+01 0. -1.
        -11    1    1    2    0    0 -0.12108371772E+03 -0.19678227755E+02  0.24141071489E+03  0.27079075429E+03  0.00000000000E+00 0.  1.
         11    1    1    2    0    0 -0.10388033932E+03  0.40069030371E+01  0.77649978763E+02  0.12975630763E+03  0.00000000000E+00 0. -1.
</event>
<event>
 7    1  0.2900135E-009  0.8571355E+02  0.7561462E-02  0.1313577E+00
         -2   -1    0    0    0  501 -0.00000000000E+00  0.00000000000E+00  0.41387271629E+02  0.41387271629E+02  0.00000000000E+00 0.  1.
          2   -1    0    0  501    0  0.00000000000E+00 -0.00000000000E+00 -0.49438145998E+03  0.49438145998E+03  0.00000000000E+00 0. -1.
         25    2    1    2    0    0 -0.17561406537E+02 -0.61657894470E+01 -0.42957989293E+03  0.44780708774E+03  0.12508350596E+03 0.  0.
          5    1    3    3  502    0 -0.56380921158E+02 -0.31959570420E+02 -0.13826402755E+03  0.15275678750E+03  0.41800000000E+01 0. -1.
         -5    1    3    3    0  502  0.38819514622E+02  0.25793780973E+02 -0.29131586538E+03  0.29505030024E+03  0.41800000000E+01 0. -1.
        -11    1    1    2    0    0  0.30684041352E+02  0.22997627782E+02  0.17241935780E+02  0.42043853614E+02  0.00000000000E+00 0.  1.
         11    1    1    2    0    0 -0.13122634816E+02 -0.16831838335E+02 -0.40656231200E+02  0.45917790252E+02  0.00000000000E+00 0. -1.
</event>
<event>
 7    1  0.2900135E-009  0.9326464E+02  0.7561462E-02  0.1295133E+00
         -4   -1    0    0    0  501 -0.00000000000E+00  0.00000000000E+00  0.77310477785E+02  0.77310477785E+02  0.00000000000E+00 0.  1.
          4   -1    0    0  501    0  0.00000000000E+00 -0.00000000000E+00 -0.18722133127E+03  0.18722133127E+03  0.00000000000E+00 0. -1.
         25    2    1    2    0    0  0.48228697022E+02 -0.88491323246E+01 -0.65978047863E+02  0.14968229871E+03  0.12508946154E+03 0.  0.
          5    1    3    3  502    0  0.58530649644E+02  0.42618488608E+02 -0.64422434258E+02  0.97004613059E+02  0.41800000000E+01 0. -1.
         -5    1    3    3    0  502 -0.10301952623E+02 -0.51467620933E+02 -0.15556136049E+01  0.52677685656E+02  0.41800000000E+01 0. -1.
        -11    1    1    2    0    0 -0.27657961678E+02 -0.13669261708E+02 -0.68862471652E+02  0.75457614340E+02  0.00000000000E+00 0. -1.
         11    1    1    2    0    0 -0.20570735344E+02  0.22518394033E+02  0.24929666028E+02  0.39391896002E+02  0.00000000000E+00 0.  1.
</event>
<event>
 7    1  0.2900135E-009  0.1008893E+03  0.7561462E-02  0.1278437E+00
         -1   -1    0    0    0  501 -0.00000000000E+00  0.00000000000E+00  0.16298711786E+02  0.16298711786E+02  0.00000000000E+00 0. -1.
          1   -1    0    0  501    0  0.00000000000E+00 -0.00000000000E+00 -0.23099937575E+04  0.23099937575E+04  0.00000000000E+00 0.  1.
         25    2    1    2    0    0  0.47693523761E+02  0.70504079421E+02 -0.20045067123E+04  0.20102096255E+04  0.12510028409E+03 0.  0.
          5    1    3    3  502    0  0.11555095936E+02  0.30972271140E+02 -0.17391487524E+04  0.17394679236E+04  0.41800000000E+01 0.  1.
         -5    1    3    3    0  502  0.36138427825E+02  0.39531808281E+02 -0.26535795992E+03  0.27074170186E+03  0.41800000000E+01 0.  1.
        -11    1    1    2    0    0  0.70707427526E+01 -0.58170166227E+02 -0.77987715904E+02  0.97549205399E+02  0.00000000000E+00 0. -1.
         11    1    1    2    0    0 -0.54764266513E+02 -0.12333913194E+02 -0.21120061743E+03  0.21853363838E+03  0.00000000000E+00 0.  1.
</event>
<event>
 7    1  0.2900135E-009  0.1183598E+03  0.7561462E-02  0.1245828E+00
          1   -1    0    0  501    0  0.00000000000E+00  0.00000000000E+00  0.19715299056E+02  0.19715299056E+02  0.00000000000E+00 0. -1.
         -1   -1    0    0    0  501 -0.00000000000E+00 -0.00000000000E+00 -0.83125560191E+03  0.83125560191E+03  0.00000000000E+00 0.  1.
         25    2    1    2    0    0  0.47825521563E+02 -0.41052531205E+02 -0.53741226238E+03  0.55536594574E+03  0.12508718200E+03 0.  0.
          5    1    3    3  502    0  0.55591571073E+02  0.23903386068E+02 -0.13988108835E+03  0.15246634355E+03  0.41800000000E+01 0. -1.
         -5    1    3    3    0  502 -0.77660495100E+01 -0.64955917272E+02 -0.39753117404E+03  0.40289960219E+03  0.41800000000E+01 0. -1.
        -11    1    1    2    0    0  0.61623847478E+00  0.58887066839E+02 -0.13960348073E+03  0.15151632988E+03  0.00000000000E+00 0. -1.
         11    1    1    2    0    0 -0.48441760038E+02 -0.17834535634E+02 -0.13452455974E+03  0.14408862533E+03  0.00000000000E+00 0.  1.
</event>
<event>
 7    1  0.2900135E-009  0.1031485E+03  0.7561462E-02  0.1273811E+00
          2   -1    0    0  501    0  0.00000000000E+00  0.00000000000E+00  0.14513139456E+03  0.14513139456E+03  0.00000000000E+00 0. -1.
         -2   -1    0    0    0  501 -0.00000000000E+00 -0.00000000000E+00 -0.87331148798E+02  0.87331148798E+02  0.00000000000E+00 0.  1.
         25    2    1    2    0    0 -0.21394991416E+02  0.21270035797E+02  0.45111853953E+02  0.13635728601E+03  0.12509224596E+03 0.  0.
          5    1    3    3  502    0  0.45871650146E+02  0.32814082253E+02  0.42818147293E+01  0.56716652040E+02  0.41800000000E+01 0.  1.
         -5    1    3    3    0  502 -0.67266641562E+02 -0.11544046457E+02  0.40830039224E+02  0.79640633967E+02  0.41800000000E+01 0.  1.
        -11    1    1    2    0    0 -0.28524518661E+02 -0.58578727897E+01 -0.19216695295E+02  0.34889027165E+02  0.00000000000E+00 0.  1.
         11    1    1    2    0    0  0.49919510077E+02 -0.15412163007E+02  0.31905087098E+02  0.61216230181E+02  0.00000000000E+00 0. -1.
</event>
<event>
 7    1  0.2900135E-009  0.1256516E+03  0.7561462E-02  0.1234054E+00
         -2   -1    0    0    0  501 -0.00000000000E+00  0.00000000000E+00  0.46809042678E+02  0.46809042678E+02  0.00000000000E+00 0.  1.
          2   -1    0    0  501    0  0.00000000000E+00 -0.00000000000E+00 -0.61750114708E+03  0.61750114708E+03  0.00000000000E+00 0. -1.
         25    2    1    2    0    0 -0.12007121720E+03 -0.31102071384E+02 -0.38104342941E+03  0.41980844385E+03  0.12514231254E+03 0.  0.
          5    1    3    3  502    0 -0.42368257376E+02 -0.16929511908E+02 -0.19635854353E+02  0.49846933534E+02  0.41800000000E+01 0. -1.
         -5    1    3    3    0  502 -0.77702959825E+02 -0.14172559476E+02 -0.36140757506E+03  0.36996151032E+03  0.41800000000E+01 0. -1.
        -11    1    1    2    0    0  0.90902021392E+02  0.34057920442E+02 -0.65902175739E+02  0.11732951975E+03  0.00000000000E+00 0.  1.
         11    1    1    2    0    0  0.29169195809E+02 -0.29558490582E+01 -0.12374649925E+03  0.12717222615E+03  0.00000000000E+00 0. -1.
</event>
<event>
 7    1  0.2900135E-009  0.1184063E+03  0.7561462E-02  0.1245750E+00
          2   -1    0    0  501    0  0.00000000000E+00  0.00000000000E+00  0.12265567620E+04  0.12265567620E+04  0.00000000000E+00 0. -1.
         -2   -1    0    0    0  501 -0.00000000000E+00 -0.00000000000E+00 -0.15750162270E+02  0.15750162270E+02  0.00000000000E+00 0.  1.
         25    2    1    2    0    0 -0.60633958127E+02 -0.46140733660E+02  0.84370023911E+03  0.85632013898E+03  0.12509453532E+03 0.  0.
          5    1    3    3  502    0 -0.75420950964E+02  0.39200581117E+01  0.68589938728E+03  0.69005733716E+03  0.41800000000E+01 0.  1.
         -5    1    3    3    0  502  0.14786992837E+02 -0.50060791772E+02  0.15780085183E+03  0.16626280182E+03  0.41800000000E+01 0.  1.
        -11    1    1    2    0    0 -0.45336123724E+01  0.43344164916E+02  0.75508465091E+02  0.87182558885E+02  0.00000000000E+00 0. -1.
         11    1    1    2    0    0  0.65167570499E+02  0.27965687436E+01  0.29159789556E+03  0.29880422644E+03  0.00000000000E+00 0.  1.
</event>
<event>
 7    1  0.2900135E-009  0.1365275E+03  0.7561462E-02  0.1218079E+00
          2   -1    0    0  501    0  0.00000000000E+00  0.00000000000E+00  0.32639284551E+03  0.32639284551E+03  0.00000000000E+00 0. -1.
         -2   -1    0    0    0  501 -0.00000000000E+00 -0.00000000000E+00 -0.57435100880E+02  0.57435100880E+02  0.00000000000E+00 0.  1.
         25    2    1    2    0    0  0.64384825725E+02  0.53078428096E+02  0.14180999588E+03  0.20668753622E+03  0.12508771876E+03 0.  0.
          5    1    3    3  502    0 -0.37386555500E+02  0.20919064608E+02  0.48615851130E+02  0.64933313310E+02  0.41800000000E+01 0.  1.
         -5    1    3    3    0  502  0.10177138123E+03  0.32159363488E+02  0.93194144752E+02  0.14175422291E+03  0.41800000000E+01 0.  1.
        -11    1    1    2    0    0 -0.87467816132E+02 -0.47141648131E+02  0.10580386525E+03  0.14514617373E+03  0.00000000000E+00 0.  1.
         11    1    1    2    0    0  0.23082990406E+02 -0.59367799648E+01  0.21343883497E+02  0.31994236437E+02  0.00000000000E+00 0. -1.
</event>
<event>
 7    1  0.2900135E-009  0.8170956E+02  0.7561462E-02  0.1324269E+00
          2   -1    0    0  501    0  0.00000000000E+00  0.00000000000E+00  0.11052214367E+04  0.11052214367E+04  0.00000000000E+00 0. -1.
         -2   -1    0    0    0  501 -0.00000000000E+00 -0.00000000000E+00 -0.18490072317E+02  0.18490072317E+02  0.00000000000E+00 0.  1.
         25    2    1    2    0    0 -0.18916042300E+02  0.44527822031E+02  0.90536640087E+03  0.91524945257E+03  0.12511073898E+03 0.  0.
          5    1    3    3  502    0 -0.42148948013E+02  0.34247259231E+02  0.86892137899E+03  0.87062692576E+03  0.41800000000E+01 0.  1.
         -5    1    3    3    0  502  0.23232905713E+02  0.10280562801E+02  0.36445021884E+02  0.44622526816E+02  0.41800000000E+01 0.  1.
        -11    1    1    2    0    0 -0.25067253729E+02 -0.89016144848E+01  0.10728507156E+02  0.28682866240E+02  0.00000000000E+00 0.  1.
         11    1    1    2    0    0  0.43983296029E+02 -0.35626207547E+02  0.17063645630E+03  0.17977919016E+03  0.00000000000E+00 0. -1.
</event>
<event>
 7    1  0.2900135E-009  0.8341295E+02  0.7561462E-02  0.1319636E+00
          2   -1    0    0  501    0  0.00000000000E+00  0.00000000000E+00  0.90712515703E+02  0.90712515703E+02  0.00000000000E+00 0. -1.
         -2   -1    0    0    0  501 -0.00000000000E+00 -0.00000000000E+00 -0.15630549700E+03  0.15630549700E+03  0.00000000000E+00 0.  1.
         25    2    1    2    0    0 -0.19900343360E+02 -0.22811491323E+02 -0.19140680665E+02  0.13011786170E+03  0.12509158435E+03 0.  0.
          5    1    3    3  502    0 -0.40205974867E+02 -0.23844172751E+02  0.43584133734E+02  0.64047748614E+02  0.41800000000E+01 0.  1.
         -5    1    3    3    0  502  0.20305631507E+02  0.10326814274E+01 -0.62724814399E+02  0.66070113086E+02  0.41800000000E+01 0.  1.
        -11    1    1    2    0    0  0.36063539910E+02  0.53460807952E+02 -0.77474912601E+01  0.64951216452E+02  0.00000000000E+00 0.  1.
         11    1    1    2    0    0 -0.16163196550E+02 -0.30649316628E+02 -0.38704809371E+02  0.51948934550E+02  0.00000000000E+00 0. -1.
</event>
<event>
 7    1  0.2900135E-009  0.1134514E+03  0.7561462E-02  0.1254309E+00
          2   -1    0    0  501    0  0.00000000000E+00  0.00000000000E+00  0.91223116601E+03  0.91223116601E+03  0.00000000000E+00 0. -1.
         -2   -1    0    0    0  501 -0.00000000000E+00 -0.00000000000E+00 -0.17723498563E+02  0.17723498563E+02  0.00000000000E+00 0.  1.
         25    2    1    2    0    0 -0.55324206745E+02 -0.12794242799E+02  0.62652591541E+03  0.64140989746E+03  0.12508986121E+03 0.  0.
          5    1    3    3  502    0  0.32946994300E+02  0.68335418484E+00  0.33093014125E+03  0.33259314814E+03  0.41800000000E+01 0.  1.
         -5    1    3    3    0  502 -0.88271201045E+02 -0.13477596984E+02  0.29559577416E+03  0.30881674931E+03  0.41800000000E+01 0.  1.
        -11    1    1    2    0    0 -0.20563490900E+02  0.19202002572E+02  0.46656097033E+02  0.54482707818E+02  0.00000000000E+00 0.  1.
         11    1    1    2    0    0  0.75887697645E+02 -0.64077597728E+01  0.22132565501E+03  0.23406205930E+03  0.00000000000E+00 0. -1.
</event>
<event>
 7    1  0.2900135E-009  0.1949226E+03  0.7561462E-02  0.1154095E+00
         -1   -1    0    0    0  501 -0.00000000000E+00  0.00000000000E+00  0.65888595950E+02  0.65888595950E+02  0.00000000000E+00 0.  1.
          1   -1    0    0  501    0  0.00000000000E+00 -0.00000000000E+00 -0.64768539416E+03  0.64768539416E+03  0.00000000000E+00 0. -1.
         25    2    1    2    0    0 -0.74678975008E+02  0.15513386742E+03 -0.36552426068E+03  0.42296437671E+03  0.12508961863E+03 0.  0.
          5    1    3    3  502    0 -0.88648867720E+02  0.53685821527E+02 -0.23606026912E+03  0.25784241746E+03  0.41800000000E+01 0.  1.
         -5    1    3    3    0  502  0.13969892712E+02  0.10144804589E+03 -0.12946399155E+03  0.16512195925E+03  0.41800000000E+01 0.  1.
        -11    1    1    2    0    0 -0.66115790226E+01 -0.51487477587E+02 -0.23139942498E+02  0.56834234967E+02  0.00000000000E+00 0.  1.
         11    1    1    2    0    0  0.81290554031E+02 -0.10364638983E+03 -0.19313259504E+03  0.23377537844E+03  0.00000000000E+00 0. -1.
</event>
<event>
 7    1  0.2900135E-009  0.1482584E+03  0.7561462E-02  0.1202630E+00
          2   -1    0    0  501    0  0.00000000000E+00  0.00000000000E+00  0.46516546003E+03  0.46516546003E+03  0.00000000000E+00 0.  1.
         -2   -1    0    0    0  501 -0.00000000000E+00 -0.00000000000E+00 -0.69244702241E+02  0.69244702241E+02  0.00000000000E+00 0. -1.
         25    2    1    2    0    0 -0.12327135716E+03  0.23313072745E+02  0.31081393970E+03  0.35776244367E+03  0.12509729866E+03 0.  0.
          5    1    3    3  502    0 -0.22500557102E+02  0.58832926781E+02  0.69911723548E+02  0.94195062678E+02  0.41800000000E+01 0. -1.
         -5    1    3    3    0  502 -0.10077080006E+03 -0.35519854036E+02  0.24090221615E+03  0.26356738099E+03  0.41800000000E+01 0. -1.
        -11    1    1    2    0    0  0.72642380906E+02 -0.21665172069E+02  0.98460970897E+02  0.12426124889E+03  0.00000000000E+00 0.  1.
         11    1    1    2    0    0  0.50628976253E+02 -0.16479006767E+01 -0.13354152801E+02  0.52386469724E+02  0.00000000000E+00 0. -1.
</event>
<event>
 7    1  0.2900135E-009  0.8697626E+02  0.7561462E-02  0.1310344E+00
          2   -1    0    0  501    0  0.00000000000E+00  0.00000000000E+00  0.64422691500E+02  0.64422691500E+02  0.00000000000E+00 0.  1.
         -2   -1    0    0    0  501 -0.00000000000E+00 -0.00000000000E+00 -0.18904668513E+03  0.18904668513E+03  0.00000000000E+00 0. -1.
         25    2    1    2    0    0  0.81771873555E+01 -0.21116422747E+02 -0.73984300450E+02  0.14703519337E+03  0.12503160270E+03 0.  0.
          5    1    3    3  502    0  0.44865835299E+02  0.11013470725E+02 -0.85027343932E+02  0.96857427854E+02  0.41800000000E+01 0.  1.
         -5    1    3    3    0  502 -0.36688647944E+02 -0.32129893472E+02  0.11043043482E+02  0.50177765512E+02  0.41800000000E+01 0.  1.
        -11    1    1    2    0    0 -0.19731618469E+02  0.46617733991E+02 -0.24240599205E+01  0.50679640452E+02  0.00000000000E+00 0.  1.
         11    1    1    2    0    0  0.11554431114E+02 -0.25501311244E+02 -0.48215633257E+02  0.55754542809E+02  0.00000000000E+00 0. -1.
</event>
<event>
 7    1  0.2900135E-009  0.6726529E+02  0.7561462E-02  0.1369647E+00
         -4   -1    0    0    0  501 -0.00000000000E+00  0.00000000000E+00  0.15119766155E+03  0.15119766155E+03  0.00000000000E+00 0.  1.
          4   -1    0    0  501    0  0.00000000000E+00 -0.00000000000E+00 -0.19123781378E+03  0.19123781378E+03  0.00000000000E+00 0. -1.
         25    2    1    2    0    0 -0.19368387079E+02 -0.13526355195E+02 -0.15020199581E+03  0.19688925540E+03  0.12508654062E+03 0.  0.
          5    1    3    3  502    0 -0.33552560739E+02 -0.12399810621E+02  0.89002062803E+01  0.37097381409E+02  0.41800000000E+01 0.  1.
         -5    1    3    3    0  502  0.14184173660E+02 -0.11265445738E+01 -0.15910220209E+03  0.15979187399E+03  0.41800000000E+01 0.  1.
        -11    1    1    2    0    0  0.46293206947E+02 -0.10647619250E+02  0.95194769582E+02  0.10638833094E+03  0.00000000000E+00 0.  1.
         11    1    1    2    0    0 -0.26924819868E+02  0.24173974445E+02  0.14967073995E+02  0.39157888980E+02  0.00000000000E+00 0. -1.
</event>
<event>
 7    1  0.2900135E-009  0.1761199E+03  0.7561462E-02  0.1171612E+00
          2   -1    0    0  501    0  0.00000000000E+00  0.00000000000E+00  0.11963916757E+04  0.11963916757E+04  0.00000000000E+00 0. -1.
         -2   -1    0    0    0  501 -0.00000000000E+00 -0.00000000000E+00 -0.29082704267E+02  0.29082704267E+02  0.00000000000E+00 0.  1.
         25    2    1    2    0    0 -0.56969530716E+02  0.14020316658E+03  0.65813050254E+03  0.68679274246E+03  0.12508420112E+03 0.  0.
          5    1    3    3  502    0  0.19702321624E+02  0.81497160946E+02  0.17506907903E+03  0.19415618340E+03  0.41800000000E+01 0.  1.
         -5    1    3    3    0  502 -0.76671852341E+02  0.58706005637E+02  0.48306142351E+03  0.49263655906E+03  0.41800000000E+01 0.  1.
        -11    1    1    2    0    0  0.12181793170E+01 -0.10645993432E+03  0.36979430565E+03  0.38481557929E+03  0.00000000000E+00 0. -1.
         11    1    1    2    0    0  0.55751351399E+02 -0.33743232263E+02  0.13938416323E+03  0.15386605820E+03  0.00000000000E+00 0.  1.
</event>
<event>
 7    1  0.2900135E-009  0.8428504E+02  0.7561462E-02  0.1317313E+00
          1   -1    0    0  501    0  0.00000000000E+00  0.00000000000E+00  0.61212035905E+02  0.61212035905E+02  0.00000000000E+00 0. -1.
         -1   -1    0    0    0  501 -0.00000000000E+00 -0.00000000000E+00 -0.21994529765E+03  0.21994529765E+03  0.00000000000E+00 0.  1.
         25    2    1    2    0    0  0.34182805179E+02  0.42764371213E+01 -0.61431047585E+02  0.14355486560E+03  0.12508986269E+03 0.  0.
          5    1    3    3  502    0 -0.16031640702E+02  0.54199924142E+02 -0.40298622928E+02  0.69542049801E+02  0.41800000000E+01 0.  1.
         -5    1    3    3    0  502  0.50214445881E+02 -0.49923487020E+02 -0.21132424656E+02  0.74012815804E+02  0.41800000000E+01 0.  1.
        -11    1    1    2    0    0 -0.20084803414E+02 -0.13423255193E+02 -0.11242708544E+03  0.11499318522E+03  0.00000000000E+00 0.  1.
         11    1    1    2    0    0 -0.14098001765E+02  0.91468180714E+01  0.15124871272E+02  0.22609282731E+02  0.00000000000E+00 0. -1.
</event>
<event>
 7    1  0.2900135E-009  0.1791419E+03  0.7561462E-02  0.1168636E+00
          1   -1    0    0  501    0  0.00000000000E+00  0.00000000000E+00  0.95792886334E+03  0.95792886334E+03  0.00000000000E+00 0. -1.
         -1   -1    0    0    0  501 -0.00000000000E+00 -0.00000000000E+00 -0.35267913907E+02  0.35267913907E+02  0.00000000000E+00 0.  1.
         25    2    1    2    0    0  0.12561180314E+03  0.75695402047E+02  0.44490314671E+03  0.48486466982E+03  0.12508724599E+03 0.  0.
          5    1    3    3  502    0  0.11317654422E+03  0.10740591167E+03  0.39054512966E+03  0.42058046879E+03  0.41800000000E+01 0.  1.
         -5    1    3    3    0  502  0.12435258926E+02 -0.31710509624E+02  0.54358017049E+02  0.64284201035E+02  0.41800000000E+01 0.  1.
        -11    1    1    2    0    0 -0.10754590206E+03 -0.20078168532E+02  0.36864879896E+03  0.38454023310E+03  0.00000000000E+00 0. -1.
         11    1    1    2    0    0 -0.18065901082E+02 -0.55617233516E+02  0.10910900377E+03  0.12379187433E+03  0.00000000000E+00 0.  1.
</event>
<event>
 7    1  0.2900135E-009  0.8491737E+02  0.7561462E-02  0.1315649E+00
          3   -1    0    0  501    0  0.00000000000E+00  0.00000000000E+00  0.20729645064E+03  0.20729645064E+03  0.00000000000E+00 0. -1.
         -3   -1    0    0    0  501 -0.00000000000E+00 -0.00000000000E+00 -0.61352231872E+02  0.61352231872E+02  0.00000000000E+00 0.  1.
         25    2    1    2    0    0 -0.17216968229E+02  0.17232572340E+02  0.55518296367E+02  0.13900619908E+03  0.12508819531E+03 0.  0.
          5    1    3    3  502    0 -0.41831444181E+02  0.45820818784E+02  0.74109072159E+02  0.96742152822E+02  0.41800000000E+01 0.  1.
         -5    1    3    3    0  502  0.24614475952E+02 -0.28588246444E+02 -0.18590775793E+02  0.42264046253E+02  0.41800000000E+01 0.  1.
        -11    1    1    2    0    0 -0.23514456745E+02  0.38548365814E+01 -0.44694822840E+01  0.24243879907E+02  0.00000000000E+00 0.  1.
         11    1    1    2    0    0  0.40731424974E+02 -0.21087408921E+02  0.94895404685E+02  0.10539860353E+03  0.00000000000E+00 0. -1.
</event>
<event>
 7    1  0.2900135E-009  0.8018152E+02  0.7561462E-02  0.1328537E+00
         -2   -1    0    0    0  501 -0.00000000000E+00  0.00000000000E+00  0.24497137306E+02  0.24497137306E+02  0.00000000000E+00 0.  1.
          2   -1    0    0  501    0  0.00000000000E+00 -0.00000000000E+00 -0.66921190349E+03  0.66921190349E+03  0.00000000000E+00 0. -1.
         25    2    1    2    0    0  0.54692588759E+02 -0.26535664638E+02 -0.33581901853E+03  0.36348056148E+03  0.12509310374E+03 0.  0.
          5    1    3    3  502    0  0.60333508683E+02 -0.31102169034E+02 -0.34465824202E+03  0.35130364841E+03  0.41800000000E+01 0.  1.
         -5    1    3    3    0  502 -0.56409199242E+01  0.45665043959E+01  0.88392234946E+01  0.12176913073E+02  0.41800000000E+01 0.  1.
        -11    1    1    2    0    0  0.69827454952E+01  0.20915017677E+02 -0.86887107316E+01  0.23700008297E+02  0.00000000000E+00 0.  1.
         11    1    1    2    0    0 -0.61675334254E+02  0.56206469606E+01 -0.30020703692E+03  0.30652847102E+03  0.00000000000E+00 0. -1.
</event>
<event>
 7    1  0.2900135E-009  0.1223666E+03  0.7561462E-02  0.1239243E+00
          1   -1    0    0  501    0  0.00000000000E+00  0.00000000000E+00  0.63114277646E+03  0.63114277646E+03  0.00000000000E+00 0. -1.
         -1   -1    0    0    0  501 -0.00000000000E+00 -0.00000000000E+00 -0.30259414397E+02  0.30259414397E+02  0.00000000000E+00 0.  1.
         25    2    1    2    0    0  0.38636525075E+02  0.69378603975E+02  0.40606733823E+03  0.43225628026E+03  0.12509451181E+03 0.  0.
          5    1    3    3  502    0  0.75391174729E+02  0.40524458169E+02  0.34365227657E+03  0.35417569161E+03  0.41800000000E+01 0.  1.
         -5    1    3    3    0  502 -0.36754649654E+02  0.28854145806E+02  0.62415061664E+02  0.78080588650E+02  0.41800000000E+01 0.  1.
        -11    1    1    2    0    0 -0.53626340691E+02 -0.14952221593E+02  0.54536292437E+02  0.77933051649E+02  0.00000000000E+00 0.  1.
         11    1    1    2    0    0  0.14989815616E+02 -0.54426382382E+02  0.14027973139E+03  0.15121285895E+03  0.00000000000E+00 0. -1.
</event>
<event>
 7    1  0.2900135E-009  0.8892261E+02  0.7561462E-02  0.1305482E+00
         -1   -1    0    0    0  501 -0.00000000000E+00  0.00000000000E+00  0.15543247693E+03  0.15543247693E+03  0.00000000000E+00 0.  1.
          1   -1    0    0  501    0  0.00000000000E+00 -0.00000000000E+00 -0.99856107691E+02  0.99856107691E+02  0.00000000000E+00 0. -1.
         25    2    1    2    0    0  0.31378434606E+02  0.14911963838E+01 -0.49762406443E+01  0.12907267377E+03  0.12509261497E+03 0.  0.
          5    1    3    3  502    0 -0.22691583354E+02 -0.48006261605E+02  0.98515425595E+01  0.54166727787E+02  0.41800000000E+01 0. -1.
         -5    1    3    3    0  502  0.54070017959E+02  0.49497457989E+02 -0.14827783204E+02  0.74905945987E+02  0.41800000000E+01 0. -1.
        -11    1    1    2    0    0 -0.15045811906E+02 -0.20924961767E+02 -0.25645031147E+02  0.36357916654E+02  0.00000000000E+00 0. -1.
         11    1    1    2    0    0 -0.16332622700E+02  0.19433765383E+02  0.86197641031E+02  0.89857994194E+02  0.00000000000E+00 0.  1.
</event>
<event>
 7    1  0.2900135E-009  0.1488105E+03  0.7561462E-02  0.1201942E+00
          2   -1    0    0  501    0  0.00000000000E+00  0.00000000000E+00  0.39659041757E+03  0.39659041757E+03  0.00000000000E+00 0. -1.
         -2   -1    0    0    0  501 -0.00000000000E+00 -0.00000000000E+00 -0.71601163514E+02  0.71601163514E+02  0.00000000000E+00 0.  1.
         25    2    1    2    0    0 -0.10516835781E+03  0.50680466092E+02  0.99288841682E+02  0.19781756014E+03  0.12507845494E+03 0.  0.
          5    1    3    3  502    0 -0.13315239919E+03  0.47680315543E+02  0.73636180914E+02  0.15950778489E+03  0.41800000000E+01 0.  1.
         -5    1    3    3    0  502  0.27984041383E+02  0.30001505492E+01  0.25652660768E+02  0.38309775253E+02  0.41800000000E+01 0.  1.
        -11    1    1    2    0    0  0.94629527533E+01 -0.27667390427E+02  0.12941988542E+03  0.13268209642E+03  0.00000000000E+00 0. -1.
         11    1    1    2    0    0  0.95705405055E+02 -0.23013075665E+02  0.96280526952E+02  0.13769192452E+03  0.00000000000E+00 0.  1.
</event>
<event>
 7    1  0.2900135E-009  0.7628293E+02  0.7561462E-02  0.1339944E+00
         -3   -1    0    0    0  501 -0.00000000000E+00  0.00000000000E+00  0.55792003692E+03  0.55792003692E+03  0.00000000000E+00 0.  1.
          3   -1    0    0  501    0  0.00000000000E+00 -0.00000000000E+00 -0.26901659903E+02  0.26901659903E+02  0.00000000000E+00 0. -1.
         25    2    1    2    0    0 -0.46522181897E+02 -0.76089492497E+01  0.22421284904E+03  0.26103974789E+03  0.12509252090E+03 0.  0.
          5    1    3    3  502    0 -0.10056902150E+02 -0.69682899569E+01 -0.14553842041E+02  0.19467538723E+02  0.41800000000E+01 0.  1.
         -5    1    3    3    0  502 -0.36465279747E+02 -0.64065929279E+00  0.23876669108E+03  0.24157220916E+03  0.41800000000E+01 0.  1.
        -11    1    1    2    0    0  0.74151405559E+02 -0.42694933024E+00  0.20550428356E+03  0.21847339379E+03  0.00000000000E+00 0. -1.
         11    1    1    2    0    0 -0.27629223662E+02  0.80358985799E+01  0.10130124442E+03  0.10530855515E+03  0.00000000000E+00 0.  1.
</event>
<event>
 7    1  0.2900135E-009  0.1697344E+03  0.7561462E-02  0.1178125E+00
          2   -1    0    0  501    0  0.00000000000E+00  0.00000000000E+00  0.10433021752E+04  0.10433021752E+04  0.00000000000E+00 0. -1.
         -2   -1    0    0    0  501 -0.00000000000E+00 -0.00000000000E+00 -0.32077609646E+02  0.32077609646E+02  0.00000000000E+00 0.  1.
         25    2    1    2    0    0 -0.52981445258E+02 -0.12651252339E+03  0.68032158730E+03  0.70519354342E+03  0.12509204382E+03 0.  0.
          5    1    3    3  502    0 -0.76161039917E+02 -0.43993827533E+02  0.46753540537E+03  0.47575496691E+03  0.41800000000E+01 0. -1.
         -5    1    3    3    0  502  0.23179594659E+02 -0.82518695854E+02  0.21278618193E+03  0.22943857652E+03  0.41800000000E+01 0. -1.
        -11    1    1    2    0    0  0.45429780023E+02  0.71373451823E+01  0.10303681521E+03  0.11283346976E+03  0.00000000000E+00 0.  1.
         11    1    1    2    0    0  0.75516652352E+01  0.11937517821E+03  0.22786616299E+03  0.25735277161E+03  0.00000000000E+00 0. -1.
</event>
<event>
 7    1  0.2900135E-009  0.1125399E+03  0.7561462E-02  0.1255937E+00
          1   -1    0    0  501    0  0.00000000000E+00  0.00000000000E+00  0.48650296916E+03  0.48650296916E+03  0.00000000000E+00 0. -1.
         -1   -1    0    0    0  501 -0.00000000000E+00 -0.00000000000E+00 -0.36849214927E+02  0.36849214927E+02  0.00000000000E+00 0.  1.
         25    2    1    2    0    0 -0.40906998292E+02 -0.44438644903E+02  0.34405910755E+03  0.37104277553E+03  0.12509155094E+03 0.  0.
          5    1    3    3  502    0 -0.26644655117E+02 -0.85803778735E+02  0.27353404398E+03  0.28794195893E+03  0.41800000000E+01 0.  1.
         -5    1    3    3    0  502 -0.14262343175E+02  0.41365133832E+02  0.70525063562E+02  0.83100816604E+02  0.41800000000E+01 0.  1.
        -11    1    1    2    0    0  0.56066237740E+02  0.49913805253E+02  0.40590687513E+02  0.85337066284E+02  0.00000000000E+00 0.  1.
         11    1    1    2    0    0 -0.15159239448E+02 -0.54751603499E+01  0.65003959170E+02  0.66972342271E+02  0.00000000000E+00 0. -1.
</event>
<event>
 7    1  0.2900135E-009  0.1043293E+03  0.7561462E-02  0.1271447E+00
         -2   -1    0    0    0  501 -0.00000000000E+00  0.00000000000E+00  0.85963455842E+02  0.85963455842E+02  0.00000000000E+00 0.  1.
          2   -1    0    0  501    0  0.00000000000E+00 -0.00000000000E+00 -0.14260586685E+03  0.14260586685E+03  0.00000000000E+00 0. -1.
         25    2    1    2    0    0  0.15626358510E+02 -0.17722128806E+02 -0.46892827832E+02  0.13566521746E+03  0.12509139457E+03 0.  0.
          5    1    3    3  502    0  0.69115485448E+02  0.22730520404E+01 -0.33049660922E+02  0.76758514716E+02  0.41800000000E+01 0.  1.
         -5    1    3    3    0  502 -0.53489126938E+02 -0.19995180847E+02 -0.13843166910E+02  0.58906702741E+02  0.41800000000E+01 0.  1.
        -11    1    1    2    0    0 -0.20622992937E+02  0.47575975493E+02 -0.26581659207E+02  0.58269768217E+02  0.00000000000E+00 0.  1.
         11    1    1    2    0    0  0.49966344265E+01 -0.29853846687E+02  0.16832076028E+02  0.34634337023E+02  0.00000000000E+00 0. -1.
</event>
<event>
 7    1  0.2900135E-009  0.9497133E+02  0.7561462E-02  0.1291241E+00
         -4   -1    0    0    0  501 -0.00000000000E+00  0.00000000000E+00  0.43279638133E+02  0.43279638133E+02  0.00000000000E+00 0.  1.
          4   -1    0    0  501    0  0.00000000000E+00 -0.00000000000E+00 -0.28034335901E+03  0.28034335901E+03  0.00000000000E+00 0. -1.
         25    2    1    2    0    0 -0.14605804135E+02  0.84144754174E+01 -0.14205635644E+03  0.19003311454E+03  0.12509373808E+03 0.  0.
          5    1    3    3  502    0  0.38065255355E+02  0.25439566409E+02 -0.12304954295E+03  0.13135751834E+03  0.41800000000E+01 0. -1.
         -5    1    3    3    0  502 -0.52671059490E+02 -0.17025090991E+02 -0.19006813491E+02  0.58675596206E+02  0.41800000000E+01 0. -1.
        -11    1    1    2    0    0 -0.36599272029E+02 -0.21833180214E+00 -0.62374505965E+02  0.72319661063E+02  0.00000000000E+00 0. -1.
         11    1    1    2    0    0  0.51205076164E+02 -0.81961436152E+01 -0.32632858479E+02  0.61270221541E+02  0.00000000000E+00 0.  1.
</event>
<event>
 7    1  0.2900135E-009  0.1068260E+03  0.7561462E-02  0.1266563E+00
          1   -1    0    0  501    0  0.00000000000E+00  0.00000000000E+00  0.23723320884E+02  0.23723320884E+02  0.00000000000E+00 0. -1.
         -1   -1    0    0    0  501 -0.00000000000E+00 -0.00000000000E+00 -0.72782331363E+03  0.72782331363E+03  0.00000000000E+00 0.  1.
         25    2    1    2    0    0  0.38459879809E+02 -0.36673127323E+02 -0.24070243891E+03  0.27642316612E+03  0.12509205429E+03 0.  0.
          5    1    3    3  502    0  0.43370407235E+02  0.23250534607E+02 -0.19396912005E+03  0.20015761669E+03  0.41800000000E+01 0. -1.
         -5    1    3    3    0  502 -0.49105274259E+01 -0.59923661930E+02 -0.46733318859E+02  0.76265549433E+02  0.41800000000E+01 0. -1.
        -11    1    1    2    0    0  0.80625996988E+01 -0.25271388664E+02 -0.14744279511E+03  0.14980996773E+03  0.00000000000E+00 0.  1.
         11    1    1    2    0    0 -0.46522479508E+02  0.61944515987E+02 -0.31595475872E+03  0.32531350067E+03  0.00000000000E+00 0. -1.
</event>
<event>
 7    1  0.2900135E-009  0.3445880E+03  0.7561462E-02  0.1064858E+00
         -2   -1    0    0    0  501 -0.00000000000E+00  0.00000000000E+00  0.98367803312E+02  0.98367803312E+02  0.00000000000E+00 0.  1.
          2   -1    0    0  501    0  0.00000000000E+00 -0.00000000000E+00 -0.19596154225E+04  0.19596154225E+04  0.00000000000E+00 0. -1.
         25    2    1    2    0    0  0.15781722783E+03 -0.28780848993E+03 -0.30610561607E+03  0.46592871312E+03  0.12509561643E+03 0.  0.
          5    1    3    3  502    0  0.74572798697E+01  0.11124284562E+02 -0.28419459185E+01  0.14314670330E+02  0.41800000000E+01 0. -1.
         -5    1    3    3    0  502  0.15035994796E+03 -0.29893277449E+03 -0.30326367015E+03  0.45161404279E+03  0.41800000000E+01 0. -1.
        -11    1    1    2    0    0 -0.12318737566E+03  0.27867567134E+03 -0.13686505326E+04  0.14021553194E+04  0.00000000000E+00 0. -1.
         11    1    1    2    0    0 -0.34629852167E+02  0.91328185876E+01 -0.18649147056E+03  0.18989919333E+03  0.00000000000E+00 0.  1.
</event>
<event>
 7    1  0.2900135E-009  0.1052179E+03  0.7561462E-02  0.1269691E+00
         -2   -1    0    0    0  501 -0.00000000000E+00  0.00000000000E+00  0.24180062411E+02  0.24180062411E+02  0.00000000000E+00 0.  1.
          2   -1    0    0  501    0  0.00000000000E+00 -0.00000000000E+00 -0.55296196476E+03  0.55296196476E+03  0.00000000000E+00 0. -1.
         25    2    1    2    0    0  0.19619989098E+02  0.13831294051E+02 -0.20262020756E+03  0.23934000235E+03  0.12510971004E+03 0.  0.
          5    1    3    3  502    0  0.31242683401E+02  0.65740628566E+02 -0.10102778156E+03  0.12458740128E+03  0.41800000000E+01 0.  1.
         -5    1    3    3    0  502 -0.11622694303E+02 -0.51909334515E+02 -0.10159242600E+03  0.11475260107E+03  0.41800000000E+01 0.  1.
        -11    1    1    2    0    0 -0.12559668286E+02 -0.47827324414E+02 -0.23730748008E+03  0.24240469948E+03  0.00000000000E+00 0. -1.
         11    1    1    2    0    0 -0.70603208120E+01  0.33996030362E+02 -0.88854214710E+02  0.95397325341E+02  0.00000000000E+00 0.  1.
</event>
<event>
 7    1  0.2900135E-009  0.1024690E+03  0.7561462E-02  0.1275188E+00
         -2   -1    0    0    0  501 -0.00000000000E+00  0.00000000000E+00  0.73294217852E+02  0.73294217852E+02  0.00000000000E+00 0.  1.
          2   -1    0    0  501    0  0.00000000000E+00 -0.00000000000E+00 -0.21573153459E+03  0.21573153459E+03  0.00000000000E+00 0. -1.
         25    2    1    2    0    0 -0.64285218174E+02 -0.30010574761E+02 -0.97628541382E+02  0.17381511031E+03  0.12508851508E+03 0.  0.
          5    1    3    3  502    0 -0.38160909345E+02 -0.57625216428E+02 -0.11305841417E+03  0.13257676261E+03  0.41800000000E+01 0.  1.
         -5    1    3    3    0  502 -0.26124308829E+02  0.27614641667E+02  0.15429872787E+02  0.41238347693E+02  0.41800000000E+01 0.  1.
        -11    1    1    2    0    0  0.21423569994E+02  0.46761060090E+02 -0.46247998021E+02  0.69169671194E+02  0.00000000000E+00 0.  1.
         11    1    1    2    0    0  0.42861648180E+02 -0.16750485329E+02  0.14392226674E+01  0.46040970942E+02  0.00000000000E+00 0. -1.
</event>
<event>
 7    1  0.2900135E-009  0.1026987E+03  0.7561462E-02  0.1274721E+00
          1   -1    0    0  501    0  0.00000000000E+00  0.00000000000E+00  0.87608498846E+02  0.87608498846E+02  0.00000000000E+00 0. -1.
         -1   -1    0    0    0  501 -0.00000000000E+00 -0.00000000000E+00 -0.19359915728E+03  0.19359915728E+03  0.00000000000E+00 0.  1.
         25    2    1    2    0    0  0.66049741326E+02  0.81470473036E+01 -0.80079819903E+02  0.16275551016E+03  0.12509051053E+03 0.  0.
          5    1    3    3  502    0  0.69717265379E+02 -0.23340300908E+02  0.30356900537E+01  0.73701794771E+02  0.41800000000E+01 0.  1.
         -5    1    3    3    0  502 -0.36675240531E+01  0.31487348211E+02 -0.83115509956E+02  0.89053715393E+02  0.41800000000E+01 0.  1.
        -11    1    1    2    0    0 -0.75528107601E+02 -0.25745007910E+02 -0.44320667789E+02  0.91277719425E+02  0.00000000000E+00 0.  1.
         11    1    1    2    0    0  0.94783662751E+01  0.17597960606E+02  0.18409829253E+02  0.27174426541E+02  0.00000000000E+00 0. -1.
</event>
<event>
 7    1  0.2900135E-009  0.2517023E+03  0.7561462E-02  0.1112234E+00
         -2   -1    0    0    0  501 -0.00000000000E+00  0.00000000000E+00  0.17866716122E+03  0.17866716122E+03  0.00000000000E+00 0. -1.
          2   -1    0    0  501    0  0.00000000000E+00 -0.00000000000E+00 -0.44149473261E+03  0.44149473261E+03  0.00000000000E+00 0.  1.
         25    2    1    2    0    0 -0.17903372944E+03 -0.15920391649E+03 -0.27066164684E+02  0.27161978058E+03  0.12508303096E+03 0.  0.
          5    1    3    3  502    0 -0.18366939035E+03 -0.17048986323E+03 -0.39470607569E+02  0.25372552035E+03  0.41800000000E+01 0.  1.
         -5    1    3    3    0  502  0.46356609108E+01  0.11285946745E+02  0.12404442885E+02  0.17894260233E+02  0.41800000000E+01 0.  1.
        -11    1    1    2    0    0  0.15596059683E+03  0.13313451868E+03 -0.23738842679E+03  0.31369056888E+03  0.00000000000E+00 0.  1.
         11    1    1    2    0    0  0.23073132609E+02  0.26069397810E+02  0.16270200791E+01  0.34851544369E+02  0.00000000000E+00 0. -1.
</event>
<event>
 7    1  0.2900135E-009  0.3885580E+03  0.7561462E-02  0.1047815E+00
         -2   -1    0    0    0  501 -0.00000000000E+00  0.00000000000E+00  0.65976914169E+02  0.65976914169E+02  0.00000000000E+00 0. -1.
          2   -1    0    0  501    0  0.00000000000E+00 -0.00000000000E+00 -0.24655755474E+04  0.24655755474E+04  0.00000000000E+00 0.  1.
         25    2    1    2    0    0  0.39853306861E+02  0.38423939664E+03 -0.13338414452E+04  0.13942772452E+04  0.12509130932E+03 0.  0.
          5    1    3    3  502    0  0.45065593988E+02  0.16154830797E+03 -0.39103998813E+03  0.42550970410E+03  0.41800000000E+01 0.  1.
         -5    1    3    3    0  502 -0.52122871273E+01  0.22269108867E+03 -0.94280145708E+03  0.96876754114E+03  0.41800000000E+01 0.  1.
        -11    1    1    2    0    0 -0.14795382749E+02 -0.85754811596E+02 -0.36414499002E+03  0.37439867096E+03  0.00000000000E+00 0.  1.
         11    1    1    2    0    0 -0.25057924112E+02 -0.29848458505E+03 -0.70161219805E+03  0.76287654540E+03  0.00000000000E+00 0. -1.
</event>
<event>
 7    1  0.2900135E-009  0.1268843E+03  0.7561462E-02  0.1232153E+00
          1   -1    0    0  501    0  0.00000000000E+00  0.00000000000E+00  0.91263555086E+02  0.91263555086E+02  0.00000000000E+00 0. -1.
         -1   -1    0    0    0  501 -0.00000000000E+00 -0.00000000000E+00 -0.25606027570E+03  0.25606027570E+03  0.00000000000E+00 0.  1.
         25    2    1    2    0    0 -0.75860764748E+02 -0.30808105050E+02 -0.16664177865E+03  0.22387992120E+03  0.12509493100E+03 0.  0.
          5    1    3    3  502    0 -0.10594511255E+03 -0.24928858287E+02 -0.15773488617E+03  0.19168615382E+03  0.41800000000E+01 0.  1.
         -5    1    3    3    0  502  0.30084347801E+02 -0.58792467628E+01 -0.89068924735E+01  0.32193767388E+02  0.41800000000E+01 0.  1.
        -11    1    1    2    0    0  0.77666777655E+02 -0.52175727404E+01  0.23574827240E+02  0.81333411929E+02  0.00000000000E+00 0.  1.
         11    1    1    2    0    0 -0.18060129072E+01  0.36025677791E+02 -0.21729769212E+02  0.42110497657E+02  0.00000000000E+00 0. -1.
</event>
<event>
 7    1  0.2900135E-009  0.1189281E+03  0.7561462E-02  0.1244876E+00
         -2   -1    0    0    0  501 -0.00000000000E+00  0.00000000000E+00  0.24539748689E+02  0.24539748689E+02  0.00000000000E+00 0.  1.
          2   -1    0    0  501    0  0.00000000000E+00 -0.00000000000E+00 -0.69548433006E+03  0.69548433006E+03  0.00000000000E+00 0. -1.
         25    2    1    2    0    0 -0.14911799187E+02  0.53068711871E+02 -0.49513768076E+03  0.51366109874E+03  0.12509097296E+03 0.  0.
          5    1    3    3  502    0 -0.63349655713E+02 -0.12551730029E+00 -0.19904486189E+03  0.20892468518E+03  0.41800000000E+01 0.  1.
         -5    1    3    3    0  502  0.48437856526E+02  0.53194229171E+02 -0.29609281888E+03  0.30473641356E+03  0.41800000000E+01 0.  1.
        -11    1    1    2    0    0  0.37648975492E+02 -0.66119822476E+02 -0.15579242916E+03  0.17337980639E+03  0.00000000000E+00 0. -1.
         11    1    1    2    0    0 -0.22737176306E+02  0.13051110606E+02 -0.20014471442E+02  0.32983173612E+02  0.00000000000E+00 0.  1.
</event>
<event>
 7    1  0.2900135E-009  0.1779618E+03  0.7561462E-02  0.1169790E+00
          3   -1    0    0  501    0  0.00000000000E+00  0.00000000000E+00  0.53859180668E+03  0.53859180668E+03  0.00000000000E+00 0. -1.
         -3   -1    0    0    0  501 -0.00000000000E+00 -0.00000000000E+00 -0.73000341972E+02  0.73000341972E+02  0.00000000000E+00 0.  1.
         25    2    1    2    0    0 -0.14059856983E+03 -0.67576523422E+02  0.31107161186E+03  0.36979317869E+03  0.12508758108E+03 0.  0.
          5    1    3    3  502    0  0.15981496016E+02  0.29780420995E+01  0.29879605357E+01  0.17049259744E+02  0.41800000000E+01 0. -1.
         -5    1    3    3    0  502 -0.15658006584E+03 -0.70554565521E+02  0.30808365133E+03  0.35274391894E+03  0.41800000000E+01 0. -1.
        -11    1    1    2    0    0  0.12565705403E+03  0.79096442877E+02  0.87872585762E+02  0.17253270366E+03  0.00000000000E+00 0.  1.
         11    1    1    2    0    0  0.14941515801E+02 -0.11519919455E+02  0.66647267079E+02  0.69266266305E+02  0.00000000000E+00 0. -1.
</event>
<event>
 7    1  0.2900135E-009  0.8450762E+02  0.7561462E-02  0.1316725E+00
         -1   -1    0    0    0  501 -0.00000000000E+00  0.00000000000E+00  0.29584119861E+02  0.29584119861E+02  0.00000000000E+00 0.  1.
          1   -1    0    0  501    0  0.00000000000E+00 -0.00000000000E+00 -0.40984735338E+03  0.40984735338E+03  0.00000000000E+00 0. -1.
         25    2    1    2    0    0  0.14171936919E+02  0.62896213051E+01 -0.18837333918E+03  0.22665468184E+03  0.12508967484E+03 0.  0.
          5    1    3    3  502    0  0.28332057535E+02 -0.39007688362E+02 -0.16801398886E+03  0.17484415372E+03  0.41800000000E+01 0.  1.
         -5    1    3    3    0  502 -0.14160120616E+02  0.45297309668E+02 -0.20359350323E+02  0.51810528125E+02  0.41800000000E+01 0.  1.
        -11    1    1    2    0    0  0.15423128598E+02  0.25339828075E+02 -0.14861855883E+03  0.15155017589E+03  0.00000000000E+00 0. -1.
         11    1    1    2    0    0 -0.29595065517E+02 -0.31629449380E+02 -0.43271335510E+02  0.61226615518E+02  0.00000000000E+00 0.  1.
</event>
<event>
 7    1  0.2900135E-009  0.1165118E+03  0.7561462E-02  0.1248965E+00
          2   -1    0    0  501    0  0.00000000000E+00  0.00000000000E+00  0.97253396882E+02  0.97253396882E+02  0.00000000000E+00 0. -1.
         -2   -1    0    0    0  501 -0.00000000000E+00 -0.00000000000E+00 -0.20076816144E+03  0.20076816144E+03  0.00000000000E+00 0.  1.
         25    2    1    2    0    0 -0.49061614600E+02  0.57271229162E+02 -0.10571398138E+03  0.18030349815E+03  0.12508744889E+03 0.  0.
          5    1    3    3  502    0 -0.32282464389E+02 -0.30199669227E+02 -0.33172746629E+01  0.44527005734E+02  0.41800000000E+01 0. -1.
         -5    1    3    3    0  502 -0.16779150211E+02  0.87470898389E+02 -0.10239670672E+03  0.13577649242E+03  0.41800000000E+01 0. -1.
        -11    1    1    2    0    0  0.19297060127E+02 -0.65737595672E+02  0.31224030519E+02  0.75291089088E+02  0.00000000000E+00 0.  1.
         11    1    1    2    0    0  0.29764554473E+02  0.84663665096E+01 -0.29024813690E+02  0.42426971075E+02  0.00000000000E+00 0. -1.
</event>
<event>
 7    1  0.2900135E-009  0.8934201E+02  0.7561462E-02  0.1304453E+00
         -1   -1    0    0    0  501 -0.00000000000E+00  0.00000000000E+00  0.91572354141E+02  0.91572354141E+02  0.00000000000E+00 0.  1.
          1   -1    0    0  501    0  0.00000000000E+00 -0.00000000000E+00 -0.16606685322E+03  0.16606685322E+03  0.00000000000E+00 0. -1.
         25    2    1    2    0    0  0.94904272090E+00 -0.51132036766E+02 -0.17046728482E+02  0.13621395726E+03  0.12509302673E+03 0.  0.
          5    1    3    3  502    0  0.38903313331E+02 -0.10616605586E+02 -0.55369986527E+02  0.68625708815E+02  0.41800000000E+01 0.  1.
         -5    1    3    3    0  502 -0.37954270610E+02 -0.40515431180E+02  0.38323258045E+02  0.67588248449E+02  0.41800000000E+01 0.  1.
        -11    1    1    2    0    0 -0.32067125053E+02  0.34813467995E+02  0.71703783312E+01  0.47871624042E+02  0.00000000000E+00 0.  1.
         11    1    1    2    0    0  0.31118082332E+02  0.16318568771E+02 -0.64618148927E+02  0.73553626053E+02  0.00000000000E+00 0. -1.
</event>
<event>
 7    1  0.2900135E-009  0.1103579E+03  0.7561462E-02  0.1259908E+00
         -2   -1    0    0    0  501 -0.00000000000E+00  0.00000000000E+00  0.32672016249E+02  0.32672016249E+02  0.00000000000E+00 0.  1.
          2   -1    0    0  501    0  0.00000000000E+00 -0.00000000000E+00 -0.39275671974E+03  0.39275671974E+03  0.00000000000E+00 0. -1.
         25    2    1    2    0    0 -0.78869780376E+01  0.35830478358E+02 -0.20882109900E+03  0.24617088683E+03  0.12509127282E+03 0.  0.
          5    1    3    3  502    0 -0.62842203082E+02  0.88120689264E+01 -0.71102468445E+02  0.95393021054E+02  0.41800000000E+01 0. -1.
         -5    1    3    3    0  502  0.54955225044E+02  0.27018409432E+02 -0.13771863055E+03  0.15077786578E+03  0.41800000000E+01 0. -1.
        -11    1    1    2    0    0 -0.38221462538E+02 -0.14915398729E+01 -0.52090797630E+02  0.64626280161E+02  0.00000000000E+00 0. -1.
         11    1    1    2    0    0  0.46108440576E+02 -0.34338938486E+02 -0.99172806870E+02  0.11463156900E+03  0.00000000000E+00 0.  1.
</event>
<event>
 7    1  0.2900135E-009  0.2050844E+03  0.7561462E-02  0.1145519E+00
          2   -1    0    0  501    0  0.00000000000E+00  0.00000000000E+00  0.26353205853E+04  0.26353205853E+04  0.00000000000E+00 0. -1.
         -2   -1    0    0    0  501 -0.00000000000E+00 -0.00000000000E+00 -0.21096095954E+02  0.21096095954E+02  0.00000000000E+00 0.  1.
         25    2    1    2    0    0  0.18260875800E+03  0.76485402046E+02  0.17300066799E+04  0.17457853480E+04  0.12508954269E+03 0.  0.
          5    1    3    3  502    0  0.17382180189E+03  0.74667813629E+02  0.11327385403E+04  0.11484351851E+04  0.41800000000E+01 0. -1.
         -5    1    3    3    0  502  0.87869561125E+01  0.18175884169E+01  0.59726813952E+03  0.59735016289E+03  0.41800000000E+01 0. -1.
        -11    1    1    2    0    0 -0.12876842910E+03 -0.88025333775E+02  0.73997530516E+03  0.75623621969E+03  0.00000000000E+00 0. -1.
         11    1    1    2    0    0 -0.53840328897E+02  0.11539931729E+02  0.14424250430E+03  0.15439511354E+03  0.00000000000E+00 0.  1.
</event>
<event>
 7    1  0.2900135E-009  0.8735829E+02  0.7561462E-02  0.1309378E+00
          1   -1    0    0  501    0  0.00000000000E+00  0.00000000000E+00  0.46641316219E+03  0.46641316219E+03  0.00000000000E+00 0. -1.
         -1   -1    0    0    0  501 -0.00000000000E+00 -0.00000000000E+00 -0.27871628393E+02  0.27871628393E+02  0.00000000000E+00 0.  1.
         25    2    1    2    0    0 -0.79443154061E+01 -0.37533581051E+02  0.27096325801E+03  0.30089938283E+03  0.12508984588E+03 0.  0.
          5    1    3    3  502    0 -0.80131592336E+01  0.26867263018E+02  0.70503488247E+01  0.29210278354E+02  0.41800000000E+01 0.  1.
         -5    1    3    3    0  502  0.68843827446E-01 -0.64400844068E+02  0.26391290919E+03  0.27168910448E+03  0.41800000000E+01 0.  1.
        -11    1    1    2    0    0 -0.42877288026E+01  0.57909484823E+02  0.61118300282E+02  0.84305039470E+02  0.00000000000E+00 0.  1.
         11    1    1    2    0    0  0.12232044209E+02 -0.20375903772E+02  0.10645997550E+03  0.10908036828E+03  0.00000000000E+00 0. -1.
</event>
<event>
 7    1  0.2900135E-009  0.3712477E+03  0.7561462E-02  0.1054217E+00
         -2   -1    0    0    0  501 -0.00000000000E+00  0.00000000000E+00  0.10472323265E+03  0.10472323265E+03  0.00000000000E+00 0.  1.
          2   -1    0    0  501    0  0.00000000000E+00 -0.00000000000E+00 -0.17360406372E+04  0.17360406372E+04  0.00000000000E+00 0. -1.
         25    2    1    2    0    0 -0.30889631036E+03  0.19430348614E+03 -0.12400049647E+04  0.12986264503E+04  0.12509024662E+03 0.  0.
          5    1    3    3  502    0 -0.76985802199E+02  0.26658615294E+02 -0.47268820072E+03  0.47967603965E+03  0.41800000000E+01 0.  1.
         -5    1    3    3    0  502 -0.23191050816E+03  0.16764487085E+03 -0.76731676397E+03  0.81895041070E+03  0.41800000000E+01 0.  1.
        -11    1    1    2    0    0  0.39247042443E+02  0.47958690155E+01 -0.50212270215E+02  0.63910897195E+02  0.00000000000E+00 0. -1.
         11    1    1    2    0    0  0.26964926792E+03 -0.19909935516E+03 -0.34110016964E+03  0.47822652231E+03  0.00000000000E+00 0.  1.
</event>
<event>
 7    1  0.2900135E-009  0.1135233E+03  0.7561462E-02  0.1254181E+00
         -1   -1    0    0    0  501 -0.00000000000E+00  0.00000000000E+00  0.46653089113E+03  0.46653089113E+03  0.00000000000E+00 0.  1.
          1   -1    0    0  501    0  0.00000000000E+00 -0.00000000000E+00 -0.32314772478E+02  0.32314772478E+02  0.00000000000E+00 0. -1.
         25    2    1    2    0    0  0.44466211999E+02 -0.34282506190E+02  0.31560498005E+03  0.34410081748E+03  0.12508531056E+03 0.  0.
          5    1    3    3  502    0  0.64759731215E+02  0.24447393575E+02  0.21372425900E+03  0.22469318887E+03  0.41800000000E+01 0.  1.
         -5    1    3    3    0  502 -0.20293519216E+02 -0.58729899765E+02  0.10188072104E+03  0.11940762860E+03  0.41800000000E+01 0.  1.
        -11    1    1    2    0    0 -0.43378790512E+02  0.57584408604E+02  0.68398965010E+02  0.99378579155E+02  0.00000000000E+00 0.  1.
         11    1    1    2    0    0 -0.10874214874E+01 -0.23301902414E+02  0.50212173595E+02  0.55366266975E+02  0.00000000000E+00 0. -1.
</event>
<event>
 7    1  0.2900135E-009  0.2440912E+03  0.7561462E-02  0.1117097E+00
         -1   -1    0    0    0  501 -0.00000000000E+00  0.00000000000E+00  0.40670904186E+02  0.40670904186E+02  0.00000000000E+00 0.  1.
          1   -1    0    0  501    0  0.00000000000E+00 -0.00000000000E+00 -0.15771430865E+04  0.15771430865E+04  0.00000000000E+00 0. -1.
         25    2    1    2    0    0  0.45598467314E+02  0.22333964453E+03 -0.84396905559E+03  0.88311418111E+03  0.12508826098E+03 0.  0.
          5    1    3    3  502    0  0.69094609808E+02  0.13278964501E+03 -0.35553442892E+03  0.38578408141E+03  0.41800000000E+01 0. -1.
         -5    1    3    3    0  502 -0.23496142494E+02  0.90549999520E+02 -0.48843462667E+03  0.49733009969E+03  0.41800000000E+01 0. -1.
        -11    1    1    2    0    0 -0.14151907932E+02 -0.21025638593E+03 -0.57690235639E+03  0.61418592717E+03  0.00000000000E+00 0. -1.
         11    1    1    2    0    0 -0.31446559381E+02 -0.13083258603E+02 -0.11560077036E+03  0.12051388244E+03  0.00000000000E+00 0.  1.
</event>
<event>
 7    1  0.2900135E-009  0.1104962E+03  0.7561462E-02  0.1259654E+00
          1   -1    0    0  501    0  0.00000000000E+00  0.00000000000E+00  0.25553589389E+03  0.25553589389E+03  0.00000000000E+00 0. -1.
         -1   -1    0    0    0  501 -0.00000000000E+00 -0.00000000000E+00 -0.62396116087E+02  0.62396116087E+02  0.00000000000E+00 0.  1.
         25    2    1    2    0    0  0.15240017104E+02 -0.58218831856E+02  0.13890682063E+03  0.19637884557E+03  0.12509138925E+03 0.  0.
          5    1    3    3  502    0  0.12276014702E+02  0.36172838841E+02  0.68380587589E+02  0.78438204760E+02  0.41800000000E+01 0. -1.
         -5    1    3    3    0  502  0.29640024020E+01 -0.94391670698E+02  0.70526233039E+02  0.11794064081E+03  0.41800000000E+01 0. -1.
        -11    1    1    2    0    0 -0.40333799222E+02  0.29968665262E+02 -0.58375850529E+01  0.50586694461E+02  0.00000000000E+00 0.  1.
         11    1    1    2    0    0  0.25093782118E+02  0.28250166594E+02  0.60070542224E+02  0.70966469947E+02  0.00000000000E+00 0. -1.
</event>
<event>
 7    1  0.2900135E-009  0.7933353E+02  0.7561462E-02  0.1330953E+00
         -1   -1    0    0    0  501 -0.00000000000E+00  0.00000000000E+00  0.35442582770E+02  0.35442582770E+02  0.00000000000E+00 0. -1.
          1   -1    0    0  501    0  0.00000000000E+00 -0.00000000000E+00 -0.41287518713E+03  0.41287518713E+03  0.00000000000E+00 0.  1.
         25    2    1    2    0    0 -0.31022858963E+02  0.12219418395E+02 -0.28839377296E+03  0.31611784736E+03  0.12509113948E+03 0.  0.
          5    1    3    3  502    0  0.40429374876E+02  0.24183531612E+02 -0.17670364153E+03  0.18292355475E+03  0.41800000000E+01 0. -1.
         -5    1    3    3    0  502 -0.71452233839E+02 -0.11964113217E+02 -0.11169013143E+03  0.13319429261E+03  0.41800000000E+01 0. -1.
        -11    1    1    2    0    0  0.17056953318E+02 -0.16961948977E+02 -0.10659212679E+03  0.10927272698E+03  0.00000000000E+00 0.  1.
         11    1    1    2    0    0  0.13965905645E+02  0.47425305822E+01  0.17553295387E+02  0.22927195549E+02  0.00000000000E+00 0. -1.
</event>
<event>
 7    1  0.3976815E-009  0.1109113E+03  0.7561462E-02  0.1258892E+00
         -2   -1    0    0    0  501 -0.00000000000E+00  0.00000000000E+00  0.94227232842E+01  0.94227232842E+01  0.00000000000E+00 0.  1.
          2   -1    0    0  501    0  0.00000000000E+00 -0.00000000000E+00 -0.25076601912E+04  0.25076601912E+04  0.00000000000E+00 0. -1.
         25    2    1    2    0    0  0.45520472474E+02 -0.48901645948E+02 -0.20447660073E+04  0.20496776093E+04  0.12508714312E+03 0.  0.
          5    1    3    3  502    0 -0.24969547687E+02 -0.20321911004E+02 -0.15434037514E+03  0.15771772943E+03  0.41800000000E+01 0. -1.
         -5    1    3    3    0  502  0.70490020161E+02 -0.28579734944E+02 -0.18904256321E+04  0.18919598799E+04  0.41800000000E+01 0. -1.
        -11    1    1    2    0    0 -0.72900660881E+02  0.25721300880E+02 -0.30066178308E+03  0.31044097584E+03  0.00000000000E+00 0.  1.
         11    1    1    2    0    0  0.27380188407E+02  0.23180345067E+02 -0.15280967762E+03  0.15696432935E+03  0.00000000000E+00 0. -1.
</event>
<event>
 7    1  0.2900135E-009  0.2266150E+03  0.7561462E-02  0.1129045E+00
          1   -1    0    0  501    0  0.00000000000E+00  0.00000000000E+00  0.40843143492E+03  0.40843143492E+03  0.00000000000E+00 0. -1.
         -1   -1    0    0    0  501 -0.00000000000E+00 -0.00000000000E+00 -0.14556943329E+03  0.14556943329E+03  0.00000000000E+00 0.  1.
         25    2    1    2    0    0 -0.20476714824E+03 -0.75476748985E+02  0.15687836034E+03  0.29645349995E+03  0.12509009975E+03 0.  0.
          5    1    3    3  502    0 -0.19235090849E+03 -0.55035603360E+02  0.79450482777E+02  0.21530824705E+03  0.41800000000E+01 0. -1.
         -5    1    3    3    0  502 -0.12416239745E+02 -0.20441145625E+02  0.77427877563E+02  0.81145252898E+02  0.41800000000E+01 0. -1.
        -11    1    1    2    0    0  0.13312642193E+02 -0.12387081943E+02  0.27043587624E+02  0.32588677064E+02  0.00000000000E+00 0.  1.
         11    1    1    2    0    0  0.19145450605E+03  0.87863830927E+02  0.78940053663E+02  0.22495869119E+03  0.00000000000E+00 0. -1.
</event>
<event>
 7    1  0.4570599E-009  0.9684223E+02  0.7561462E-02  0.1287080E+00
          2   -1    0    0  501    0  0.00000000000E+00  0.00000000000E+00  0.57274836272E+03  0.57274836272E+03  0.00000000000E+00 0. -1.
         -2   -1    0    0    0  501 -0.00000000000E+00 -0.00000000000E+00 -0.26178956541E+02  0.26178956541E+02  0.00000000000E+00 0.  1.
         25    2    1    2    0    0  0.33986490535E+02  0.53006029329E+00  0.41733904920E+03  0.43700484719E+03  0.12508393972E+03 0.  0.
          5    1    3    3  502    0  0.41889391699E+02  0.40746554499E+02  0.92022168386E+02  0.10908966365E+03  0.41800000000E+01 0.  1.
         -5    1    3    3    0  502 -0.79029011643E+01 -0.40216494206E+02  0.32531688082E+03  0.32791518354E+03  0.41800000000E+01 0.  1.
        -11    1    1    2    0    0  0.15456582430E+01 -0.40436573301E+02  0.34567351939E+02  0.53220365837E+02  0.00000000000E+00 0. -1.
         11    1    1    2    0    0 -0.35532148778E+02  0.39906513008E+02  0.94663005043E+02  0.10870210624E+03  0.00000000000E+00 0.  1.
</event>
<event>
 7    1  0.2900135E-009  0.1314492E+03  0.7561462E-02  0.1225321E+00
         -3   -1    0    0    0  501 -0.00000000000E+00  0.00000000000E+00  0.37813368827E+03  0.37813368827E+03  0.00000000000E+00 0.  1.
          3   -1    0    0  501    0  0.00000000000E+00 -0.00000000000E+00 -0.47254643893E+02  0.47254643893E+02  0.00000000000E+00 0. -1.
         25    2    1    2    0    0 -0.19749440823E+02 -0.77575603761E+02  0.19030147462E+03  0.24139259041E+03  0.12509083400E+03 0.  0.
          5    1    3    3  502    0 -0.60444724461E+02 -0.86872217460E+02  0.12581090476E+03  0.16445729852E+03  0.41800000000E+01 0. -1.
         -5    1    3    3    0  502  0.40695283637E+02  0.92966136989E+01  0.64490569860E+02  0.76935291885E+02  0.41800000000E+01 0. -1.
        -11    1    1    2    0    0  0.48099529814E+02  0.71280589274E+02  0.12290536244E+03  0.15000071764E+03  0.00000000000E+00 0.  1.
         11    1    1    2    0    0 -0.28350088991E+02  0.62950144870E+01  0.17672207322E+02  0.33995024119E+02  0.00000000000E+00 0. -1.
</event>
<event>
 7    1  0.2900135E-009  0.1168845E+03  0.7561462E-02  0.1248327E+00
          1   -1    0    0  501    0  0.00000000000E+00  0.00000000000E+00  0.31102997405E+02  0.31102997405E+02  0.00000000000E+00 0. -1.
         -1   -1    0    0    0  501 -0.00000000000E+00 -0.00000000000E+00 -0.62787719038E+03  0.62787719038E+03  0.00000000000E+00 0.  1.
         25    2    1    2    0    0 -0.46646479086E+02 -0.63623968394E+01 -0.48921065587E+03  0.50714017694E+03  0.12509084357E+03 0.  0.
          5    1    3    3  502    0  0.37576970813E+02  0.22823758900E+02 -0.14745500479E+03  0.15392661740E+03  0.41800000000E+01 0. -1.
         -5    1    3    3    0  502 -0.84223449899E+02 -0.29186155739E+02 -0.34175565108E+03  0.35321355954E+03  0.41800000000E+01 0. -1.
        -11    1    1    2    0    0  0.67556820894E+02 -0.16340731177E+02 -0.47119578321E+02  0.83971413027E+02  0.00000000000E+00 0. -1.
         11    1    1    2    0    0 -0.20910341808E+02  0.22703128016E+02 -0.60443958786E+02  0.67868597820E+02  0.00000000000E+00 0.  1.
</event>
<event>
 7    1  0.2900135E-009  0.6519369E+02  0.7561462E-02  0.1377244E+00
         -2   -1    0    0    0  501 -0.00000000000E+00  0.00000000000E+00  0.38341422339E+02  0.38341422339E+02  0.00000000000E+00 0.  1.
          2   -1    0    0  501    0  0.00000000000E+00 -0.00000000000E+00 -0.49692449436E+03  0.49692449436E+03  0.00000000000E+00 0. -1.
         25    2    1    2    0    0  0.53712683571E+02 -0.64017679833E+01 -0.37683552659E+03  0.40071851442E+03  0.12507709099E+03 0.  0.
          5    1    3    3  502    0  0.55958708172E+02  0.67629868841E+01 -0.38173132081E+03  0.38589297570E+03  0.41800000000E+01 0.  1.
         -5    1    3    3    0  502 -0.22460246004E+01 -0.13164754867E+02  0.48957942197E+01  0.14825538718E+02  0.41800000000E+01 0.  1.
        -11    1    1    2    0    0 -0.35283074007E+02  0.16397277773E+02 -0.99651347299E+02  0.10697736699E+03  0.00000000000E+00 0. -1.
         11    1    1    2    0    0 -0.18429609564E+02 -0.99955097900E+01  0.17903801864E+02  0.27570035289E+02  0.00000000000E+00 0.  1.
</event>
<event>
 7    1  0.2900135E-009  0.1146396E+03  0.7561462E-02  0.1252212E+00
         -1   -1    0    0    0  501 -0.00000000000E+00  0.00000000000E+00  0.10041322679E+02  0.10041322679E+02  0.00000000000E+00 0.  1.
          1   -1    0    0  501    0  0.00000000000E+00 -0.00000000000E+00 -0.29482224722E+04  0.29482224722E+04  0.00000000000E+00 0. -1.
         25    2    1    2    0    0  0.37367582881E+02 -0.15185026820E+02 -0.26394919249E+04  0.26427599710E+04  0.12504287860E+03 0.  0.
          5    1    3    3  502    0  0.78466222329E+02 -0.31132945243E+02 -0.19642641799E+04  0.19660817504E+04  0.41800000000E+01 0.  1.
         -5    1    3    3    0  502 -0.41098639448E+02  0.15947918423E+02 -0.67522774494E+03  0.67667822058E+03  0.41800000000E+01 0.  1.
        -11    1    1    2    0    0 -0.65073122015E+01 -0.38234321366E+02 -0.13908561587E+03  0.14439188684E+03  0.00000000000E+00 0. -1.
         11    1    1    2    0    0 -0.30860270680E+02  0.53419348186E+02 -0.15960360874E+03  0.17111193702E+03  0.00000000000E+00 0.  1.
</event>
<event>
 7    1  0.2900135E-009  0.8312399E+02  0.7561462E-02  0.1320413E+00
          1   -1    0    0  501    0  0.00000000000E+00  0.00000000000E+00  0.13563692010E+03  0.13563692010E+03  0.00000000000E+00 0. -1.
         -1   -1    0    0    0  501 -0.00000000000E+00 -0.00000000000E+00 -0.94810075842E+02  0.94810075842E+02  0.00000000000E+00 0.  1.
         25    2    1    2    0    0  0.17184647068E+02 -0.38314431319E+01  0.48780989033E+02  0.13541558230E+03  0.12509117869E+03 0.  0.
          5    1    3    3  502    0  0.39551149839E+02  0.51000782534E+02  0.12593077104E+02  0.65889538347E+02  0.41800000000E+01 0. -1.
         -5    1    3    3    0  502 -0.22366502771E+02 -0.54832225666E+02  0.36187911929E+02  0.69526043951E+02  0.41800000000E+01 0. -1.
        -11    1    1    2    0    0 -0.66524379891E+01  0.21020500087E+02 -0.46539112118E+02  0.51497624332E+02  0.00000000000E+00 0.  1.
         11    1    1    2    0    0 -0.10532209079E+02 -0.17189056955E+02  0.38584967341E+02  0.43533789311E+02  0.00000000000E+00 0. -1.
</event>
<event>
 7    1  0.2900135E-009  0.1622237E+03  0.7561462E-02  0.1186209E+00
         -2   -1    0    0    0  501 -0.00000000000E+00  0.00000000000E+00  0.63788679807E+02  0.63788679807E+02  0.00000000000E+00 0.  1.
          2   -1    0    0  501    0  0.00000000000E+00 -0.00000000000E+00 -0.54510833286E+03  0.54510833286E+03  0.00000000000E+00 0. -1.
         25    2    1    2    0    0 -0.78521922898E+02 -0.97496457485E+02 -0.11353284727E+03  0.21025717275E+03  0.12508844745E+03 0.  0.
          5    1    3    3  502    0  0.16015678772E+02 -0.71133096667E+02 -0.22740297721E+02  0.76491914268E+02  0.41800000000E+01 0.  1.
         -5    1    3    3    0  502 -0.94537601669E+02 -0.26363360818E+02 -0.90792549546E+02  0.13376525848E+03  0.41800000000E+01 0.  1.
        -11    1    1    2    0    0 -0.13923373716E+02  0.44487039508E+02 -0.12860022695E+03  0.13678806743E+03  0.00000000000E+00 0.  1.
         11    1    1    2    0    0  0.92445296613E+02  0.53009417977E+02 -0.23918657884E+03  0.26185177250E+03  0.00000000000E+00 0. -1.
</event>
<event>
 7    1  0.2900135E-009  0.1136099E+03  0.7561462E-02  0.1254027E+00
          2   -1    0    0  501    0  0.00000000000E+00  0.00000000000E+00  0.59141494485E+03  0.59141494485E+03  0.00000000000E+00 0. -1.
         -2   -1    0    0    0  501 -0.00000000000E+00 -0.00000000000E+00 -0.28130731218E+02  0.28130731218E+02  0.00000000000E+00 0.  1.
         25    2    1    2    0    0  0.45147974740E+02  0.15321500220E+02  0.43554499391E+03  0.45565288156E+03  0.12508804402E+03 0.  0.
          5    1    3    3  502    0  0.49793589224E+02 -0.44245231759E+02  0.15454771266E+03  0.16834342860E+03  0.41800000000E+01 0. -1.
         -5    1    3    3    0  502 -0.46456144848E+01  0.59566731980E+02  0.28099728125E+03  0.28730945296E+03  0.41800000000E+01 0. -1.
        -11    1    1    2    0    0 -0.96051762557E+01 -0.50007137038E+02  0.81114942885E+02  0.95773728782E+02  0.00000000000E+00 0. -1.
         11    1    1    2    0    0 -0.35542798484E+02  0.34685636817E+02  0.46624276839E+02  0.68119065733E+02  0.00000000000E+00 0.  1.
</event>
<event>
 7    1  0.2900135E-009  0.2617588E+03  0.7561462E-02  0.1106091E+00
          2   -1    0    0  501    0  0.00000000000E+00  0.00000000000E+00  0.69123521351E+03  0.69123521351E+03  0.00000000000E+00 0. -1.
         -2   -1    0    0    0  501 -0.00000000000E+00 -0.00000000000E+00 -0.10999513721E+03  0.10999513721E+03  0.00000000000E+00 0.  1.
         25    2    1    2    0    0  0.23350963465E+03 -0.93431609806E+02  0.27895590140E+03  0.39587818835E+03  0.12508768882E+03 0.  0.
          5    1    3    3  502    0  0.86065566006E+02 -0.89042832394E+02  0.77474443904E+02  0.14613579134E+03  0.41800000000E+01 0. -1.
         -5    1    3    3    0  502  0.14744406865E+03 -0.43887774115E+01  0.20148145750E+03  0.24974239701E+03  0.41800000000E+01 0. -1.
        -11    1    1    2    0    0 -0.15771534282E+03  0.54767942282E+02  0.12452615079E+03  0.20827966557E+03  0.00000000000E+00 0.  1.
         11    1    1    2    0    0 -0.75794291835E+02  0.38663667524E+02  0.17775802411E+03  0.19707249680E+03  0.00000000000E+00 0. -1.
</event>
<event>
 7    1  0.2900135E-009  0.1579564E+03  0.7561462E-02  0.1191024E+00
         -1   -1    0    0    0  501 -0.00000000000E+00  0.00000000000E+00  0.47346750949E+02  0.47346750949E+02  0.00000000000E+00 0.  1.
          1   -1    0    0  501    0  0.00000000000E+00 -0.00000000000E+00 -0.57399668855E+03  0.57399668855E+03  0.00000000000E+00 0. -1.
         25    2    1    2    0    0  0.10214795674E+03  0.70375370544E+02 -0.28656343583E+03  0.33638260014E+03  0.12509097921E+03 0.  0.
          5    1    3    3  502    0  0.40977000872E+02  0.99884667391E+02 -0.18064718109E+03  0.21049213244E+03  0.41800000000E+01 0.  1.
         -5    1    3    3    0  502  0.61170955870E+02 -0.29509296848E+02 -0.10591625474E+03  0.12589046771E+03  0.41800000000E+01 0.  1.
        -11    1    1    2    0    0 -0.27018793285E+02  0.10907827270E+02 -0.11175073095E+03  0.11548688997E+03  0.00000000000E+00 0. -1.
         11    1    1    2    0    0 -0.75129163457E+02 -0.81283197814E+02 -0.12833577082E+03  0.16947394938E+03  0.00000000000E+00 0.  1.
</event>
<event>
 7    1  0.2900135E-009  0.1084406E+03  0.7561462E-02  0.1263485E+00
         -2   -1    0    0    0  501 -0.00000000000E+00  0.00000000000E+00  0.34684755977E+02  0.34684755977E+02  0.00000000000E+00 0.  1.
          2   -1    0    0  501    0  0.00000000000E+00 -0.00000000000E+00 -0.54751412863E+03  0.54751412863E+03  0.00000000000E+00 0. -1.
         25    2    1    2    0    0 -0.65302519828E+02 -0.95326335691E+01 -0.39105026365E+03  0.41583975685E+03  0.12508838667E+03 0.  0.
          5    1    3    3  502    0 -0.50401312435E+02 -0.54909497382E+02 -0.32933752984E+03  0.33769220625E+03  0.41800000000E+01 0. -1.
         -5    1    3    3    0  502 -0.14901207393E+02  0.45376863813E+02 -0.61712733809E+02  0.78147550605E+02  0.41800000000E+01 0. -1.
        -11    1    1    2    0    0  0.38960371699E+02  0.38748294457E+02 -0.22149786869E+02  0.59244864289E+02  0.00000000000E+00 0.  1.
         11    1    1    2    0    0  0.26342148128E+02 -0.29215660888E+02 -0.99629322134E+02  0.10711426347E+03  0.00000000000E+00 0. -1.
</event>
<event>
 6    1  0.2900135E-009  0.1310498E+03  0.7561462E-02  0.1225906E+00
         -2   -1    0    0    0  501 -0.00000000000E+00  0.00000000000E+00  0.10266274569E+03  0.10266274569E+03  0.00000000000E+00 0.  1.
          2   -1    0    0  501    0  0.00000000000E+00 -0.00000000000E+00 -0.20344223510E+03  0.20344223510E+03  0.00000000000E+00 0. -1.
          5    1    1    2  502    0 -0.14131836665E+02  0.90927467491E+02 -0.34313390853E+01  0.92177869577E+02  0.41800000000E+01 0. -1.
         -5    1    1    2    0  502  0.42475105429E+02 -0.22142829428E+01 -0.66039463353E+02  0.78662066780E+02  0.41800000000E+01 0. -1.
        -11    1    1    2    0    0  0.27501659908E+02 -0.71804315022E+01 -0.22115934516E+02  0.36014086880E+02  0.00000000000E+00 0. -1.
         11    1    1    2    0    0 -0.55844928672E+02 -0.81532753046E+02 -0.91927524611E+01  0.99250957554E+02  0.00000000000E+00 0.  1.
</event>
<event>
 7    1  0.2900135E-009  0.1955799E+03  0.7561462E-02  0.1153523E+00
          1   -1    0    0  501    0  0.00000000000E+00  0.00000000000E+00  0.23762188474E+04  0.23762188474E+04  0.00000000000E+00 0. -1.
         -1   -1    0    0    0  501 -0.00000000000E+00 -0.00000000000E+00 -0.18843198033E+02  0.18843198033E+02  0.00000000000E+00 0.  1.
         25    2    1    2    0    0 -0.15749753282E+03  0.61516530014E+02  0.15980755251E+04  0.16118569875E+04  0.12509119850E+03 0.  0.
          5    1    3    3  502    0 -0.16784358974E+03  0.75814173748E+02  0.15409235816E+04  0.15518963291E+04  0.41800000000E+01 0. -1.
         -5    1    3    3    0  502  0.10346056918E+02 -0.14297643734E+02  0.57151943480E+02  0.59960658383E+02  0.41800000000E+01 0. -1.
        -11    1    1    2    0    0  0.10719854276E+03  0.27011146735E+01  0.35875249729E+03  0.37443581279E+03  0.00000000000E+00 0.  1.
         11    1    1    2    0    0  0.50298990061E+02 -0.64217644688E+02  0.40054762699E+03  0.40876924515E+03  0.00000000000E+00 0. -1.
</event>
<event>
 7    1  0.2900135E-009  0.1025956E+03  0.7561462E-02  0.1274931E+00
          1   -1    0    0  501    0  0.00000000000E+00  0.00000000000E+00  0.19723218366E+03  0.19723218366E+03  0.00000000000E+00 0. -1.
         -1   -1    0    0    0  501 -0.00000000000E+00 -0.00000000000E+00 -0.94145462555E+02  0.94145462555E+02  0.00000000000E+00 0.  1.
         25    2    1    2    0    0 -0.56144382999E+02  0.49318947006E+02  0.20210850322E+02  0.14710731281E+03  0.12509009847E+03 0.  0.
          5    1    3    3  502    0  0.63783458388E+01  0.43644586252E+02  0.58552849648E+02  0.73426438063E+02  0.41800000000E+01 0.  1.
         -5    1    3    3    0  502 -0.62522728838E+02  0.56743607533E+01 -0.38341999326E+02  0.73680874748E+02  0.41800000000E+01 0.  1.
        -11    1    1    2    0    0  0.32288208689E+02  0.10186742845E+02  0.71566131545E+02  0.79170760603E+02  0.00000000000E+00 0. -1.
         11    1    1    2    0    0  0.23856174310E+02 -0.59505689851E+02  0.11309739239E+02  0.65099572802E+02  0.00000000000E+00 0.  1.
</event>
<event>
 7    1  0.2900135E-009  0.1920089E+03  0.7561462E-02  0.1156662E+00
         -1   -1    0    0    0  501 -0.00000000000E+00  0.00000000000E+00  0.70044775742E+03  0.70044775742E+03  0.00000000000E+00 0.  1.
          1   -1    0    0  501    0  0.00000000000E+00 -0.00000000000E+00 -0.59391743831E+02  0.59391743831E+02  0.00000000000E+00 0. -1.
         25    2    1    2    0    0 -0.12026773826E+03 -0.12300741950E+03  0.29669831925E+03  0.36506503387E+03  0.12508969658E+03 0.  0.
          5    1    3    3  502    0  0.23667336325E+02 -0.33333140479E+02  0.79294382598E+02  0.89310204201E+02  0.41800000000E+01 0.  1.
         -5    1    3    3    0  502 -0.14393507459E+03 -0.89674279019E+02  0.21740393665E+03  0.27575482967E+03  0.41800000000E+01 0.  1.
        -11    1    1    2    0    0  0.24236002434E+02  0.13902098541E+02  0.91318245513E+01  0.29394597760E+02  0.00000000000E+00 0. -1.
         11    1    1    2    0    0  0.96031735829E+02  0.10910532096E+03  0.33522586979E+03  0.36537986962E+03  0.00000000000E+00 0.  1.
</event>
<event>
 7    1  0.2900135E-009  0.7069923E+02  0.7561462E-02  0.1357731E+00
         -1   -1    0    0    0  501 -0.00000000000E+00  0.00000000000E+00  0.52329561169E+02  0.52329561169E+02  0.00000000000E+00 0.  1.
          1   -1    0    0  501    0  0.00000000000E+00 -0.00000000000E+00 -0.53880160237E+03  0.53880160237E+03  0.00000000000E+00 0. -1.
         25    2    1    2    0    0 -0.19609082605E+02 -0.22925204015E+02 -0.49570852874E+03  0.51213821939E+03  0.12509408137E+03 0.  0.
          5    1    3    3  502    0  0.29898678540E+02 -0.11294902369E+02 -0.41758194084E+03  0.41882413435E+03  0.41800000000E+01 0. -1.
         -5    1    3    3    0  502 -0.49507761145E+02 -0.11630301646E+02 -0.78126587900E+02  0.93314085040E+02  0.41800000000E+01 0. -1.
        -11    1    1    2    0    0  0.34686150266E+02  0.25222615290E+02 -0.18994946695E+02  0.46905408455E+02  0.00000000000E+00 0. -1.
         11    1    1    2    0    0 -0.15077067662E+02 -0.22974112750E+01  0.28231434236E+02  0.32087535693E+02  0.00000000000E+00 0.  1.
</event>
<event>
 7    1  0.2900135E-009  0.4316956E+03  0.7561462E-02  0.1033326E+00
         -2   -1    0    0    0  501 -0.00000000000E+00  0.00000000000E+00  0.11247620962E+03  0.11247620962E+03  0.00000000000E+00 0. -1.
          2   -1    0    0  501    0  0.00000000000E+00 -0.00000000000E+00 -0.19106669550E+04  0.19106669550E+04  0.00000000000E+00 0.  1.
         25    2    1    2    0    0 -0.19880471458E+03 -0.38198742529E+03 -0.61719793402E+03  0.76290103708E+03  0.12508794910E+03 0.  0.
          5    1    3    3  502    0 -0.12816453548E+03 -0.20510525390E+03 -0.24231072230E+03  0.34238322370E+03  0.41800000000E+01 0. -1.
         -5    1    3    3    0  502 -0.70640179096E+02 -0.17688217139E+03 -0.37488721172E+03  0.42051781338E+03  0.41800000000E+01 0. -1.
        -11    1    1    2    0    0  0.76712838555E+02  0.12915930716E+03 -0.29860395449E+03  0.33426233389E+03  0.00000000000E+00 0. -1.
         11    1    1    2    0    0  0.12209187603E+03  0.25282811813E+03 -0.88238885692E+03  0.92597979369E+03  0.00000000000E+00 0.  1.
</event>
<event>
 7    1  0.2900135E-009  0.1191133E+03  0.7561462E-02  0.1244567E+00
          1   -1    0    0  501    0  0.00000000000E+00  0.00000000000E+00  0.31346839813E+03  0.31346839813E+03  0.00000000000E+00 0.  1.
         -1   -1    0    0    0  501 -0.00000000000E+00 -0.00000000000E+00 -0.74445860020E+02  0.74445860020E+02  0.00000000000E+00 0. -1.
         25    2    1    2    0    0  0.21839255380E+02  0.49747980704E+02  0.24635588008E+03  0.28158563411E+03  0.12508970792E+03 0.  0.
          5    1    3    3  502    0  0.74127676869E+02  0.33279170816E+02  0.14379982795E+03  0.16522190716E+03  0.41800000000E+01 0. -1.
         -5    1    3    3    0  502 -0.52288421489E+02  0.16468809889E+02  0.10255605213E+03  0.11636372695E+03  0.41800000000E+01 0. -1.
        -11    1    1    2    0    0  0.47175977154E+01 -0.68950760990E+02  0.90283200413E+01  0.69699165935E+02  0.00000000000E+00 0.  1.
         11    1    1    2    0    0 -0.26556853095E+02  0.19202780286E+02 -0.16361662012E+02  0.36629458102E+02  0.00000000000E+00 0. -1.
</event>
<event>
 7    1  0.2900135E-009  0.1093318E+03  0.7561462E-02  0.1261812E+00
         -2   -1    0    0    0  501 -0.00000000000E+00  0.00000000000E+00  0.49056600765E+03  0.49056600765E+03  0.00000000000E+00 0.  1.
          2   -1    0    0  501    0  0.00000000000E+00 -0.00000000000E+00 -0.41347326468E+02  0.41347326468E+02  0.00000000000E+00 0. -1.
         25    2    1    2    0    0  0.82059723934E+02  0.38228258178E+02  0.21989302553E+03  0.26869297777E+03  0.12509106927E+03 0.  0.
          5    1    3    3  502    0  0.15972247248E+02  0.13373777561E+02 -0.13261450746E+02  0.25046139109E+02  0.41800000000E+01 0. -1.
         -5    1    3    3    0  502  0.66087476686E+02  0.24854480617E+02  0.23315447627E+03  0.24364683866E+03  0.41800000000E+01 0. -1.
        -11    1    1    2    0    0 -0.92643640489E+02 -0.60827452240E+01  0.14297914387E+03  0.17047838424E+03  0.00000000000E+00 0. -1.
         11    1    1    2    0    0  0.10583916555E+02 -0.32145512954E+02  0.86346511785E+02  0.92741972106E+02  0.00000000000E+00 0.  1.
</event>
<event>
 7    1  0.2900135E-009  0.1022889E+03  0.7561462E-02  0.1275555E+00
         -1   -1    0    0    0  501 -0.00000000000E+00  0.00000000000E+00  0.12442836501E+03  0.12442836501E+03  0.00000000000E+00 0.  1.
          1   -1    0    0  501    0  0.00000000000E+00 -0.00000000000E+00 -0.12560851337E+03  0.12560851337E+03  0.00000000000E+00 0. -1.
         25    2    1    2    0    0 -0.38599840612E+02  0.15081771532E+02 -0.48378692751E+02  0.14035737733E+03  0.12506913261E+03 0.  0.
          5    1    3    3  502    0 -0.72407223700E+02  0.13791941999E+02 -0.68551766076E+02  0.10074641800E+03  0.41800000000E+01 0. -1.
         -5    1    3    3    0  502  0.33807383088E+02  0.12898295330E+01  0.20173073325E+02  0.39610959328E+02  0.41800000000E+01 0. -1.
        -11    1    1    2    0    0 -0.18941667117E+02  0.21361453839E+02  0.25265282527E+02  0.38123915912E+02  0.00000000000E+00 0.  1.
         11    1    1    2    0    0  0.57541507729E+02 -0.36443225371E+02  0.21933261864E+02  0.71555585129E+02  0.00000000000E+00 0. -1.
</event>
<event>
 7    1  0.2900135E-009  0.1204794E+03  0.7561462E-02  0.1242308E+00
          3   -1    0    0  501    0  0.00000000000E+00  0.00000000000E+00  0.10159951109E+03  0.10159951109E+03  0.00000000000E+00 0. -1.
         -3   -1    0    0    0  501 -0.00000000000E+00 -0.00000000000E+00 -0.21666915071E+03  0.21666915071E+03  0.00000000000E+00 0.  1.
         25    2    1    2    0    0  0.64438333888E+02 -0.74908180245E+02 -0.13915140001E+02  0.16001519464E+03  0.12509075527E+03 0.  0.
          5    1    3    3  502    0  0.19362590744E+02 -0.71203430996E+02  0.44307751217E+02  0.86171269712E+02  0.41800000000E+01 0.  1.
         -5    1    3    3    0  502  0.45075743144E+02 -0.37047492490E+01 -0.58222891219E+02  0.73843924929E+02  0.41800000000E+01 0.  1.
        -11    1    1    2    0    0 -0.34779202670E+02 -0.61483830616E+01 -0.31892631009E+02  0.47587135502E+02  0.00000000000E+00 0.  1.
         11    1    1    2    0    0 -0.29659131219E+02  0.81056563306E+02 -0.69261868612E+02  0.11066633166E+03  0.00000000000E+00 0. -1.
</event>
<event>
 7    1  0.2900135E-009  0.1279344E+03  0.7561462E-02  0.1230553E+00
         -1   -1    0    0    0  501 -0.00000000000E+00  0.00000000000E+00  0.50197310396E+02  0.50197310396E+02  0.00000000000E+00 0.  1.
          1   -1    0    0  501    0  0.00000000000E+00 -0.00000000000E+00 -0.62417383001E+03  0.62417383001E+03  0.00000000000E+00 0. -1.
         25    2    1    2    0    0 -0.84815962872E+02 -0.86305587118E+02 -0.17217961738E+03  0.24481798289E+03  0.12509045598E+03 0.  0.
          5    1    3    3  502    0 -0.74383685105E+02 -0.93889886957E+02 -0.18863749512E+03  0.22349456470E+03  0.41800000000E+01 0. -1.
         -5    1    3    3    0  502 -0.10432277767E+02  0.75842998399E+01  0.16457877741E+02  0.21323418188E+02  0.41800000000E+01 0. -1.
        -11    1    1    2    0    0  0.20364054519E+02  0.33170853943E+02 -0.31850270296E+02  0.50293538210E+02  0.00000000000E+00 0.  1.
         11    1    1    2    0    0  0.64451908353E+02  0.53134733175E+02 -0.36994663193E+03  0.37925961931E+03  0.00000000000E+00 0. -1.
</event>
<event>
 7    1  0.2900135E-009  0.1018752E+03  0.7561462E-02  0.1276401E+00
         -2   -1    0    0    0  501 -0.00000000000E+00  0.00000000000E+00  0.42793464413E+02  0.42793464413E+02  0.00000000000E+00 0.  1.
          2   -1    0    0  501    0  0.00000000000E+00 -0.00000000000E+00 -0.37924717642E+03  0.37924717642E+03  0.00000000000E+00 0. -1.
         25    2    1    2    0    0 -0.62851080567E+02 -0.17934735018E+02 -0.16878327386E+03  0.22001614632E+03  0.12508956014E+03 0.  0.
          5    1    3    3  502    0 -0.12850971087E+02  0.41840187780E+02 -0.13118246821E+02  0.45883652546E+02  0.41800000000E+01 0.  1.
         -5    1    3    3    0  502 -0.50000109479E+02 -0.59774922798E+02 -0.15566502704E+03  0.17413249377E+03  0.41800000000E+01 0.  1.
        -11    1    1    2    0    0  0.35072892875E+02 -0.15437335704E+02 -0.15055082584E+03  0.15535111944E+03  0.00000000000E+00 0. -1.
         11    1    1    2    0    0  0.27778187691E+02  0.33372070722E+02 -0.17119612301E+02  0.46673375077E+02  0.00000000000E+00 0.  1.
</event>
<event>
 7    1  0.2900135E-009  0.1616831E+03  0.7561462E-02  0.1186810E+00
         -2   -1    0    0    0  501 -0.00000000000E+00  0.00000000000E+00  0.82768759092E+02  0.82768759092E+02  0.00000000000E+00 0.  1.
          2   -1    0    0  501    0  0.00000000000E+00 -0.00000000000E+00 -0.32575518287E+03  0.32575518287E+03  0.00000000000E+00 0. -1.
         25    2    1    2    0    0 -0.58529254668E+02  0.10977808014E+03 -0.12630151427E+03  0.21696778065E+03  0.12508415089E+03 0.  0.
          5    1    3    3  502    0 -0.75594873183E+02  0.11540871399E+02 -0.52672049190E+02  0.92949414899E+02  0.41800000000E+01 0. -1.
         -5    1    3    3    0  502  0.17065618514E+02  0.98237208740E+02 -0.73629465075E+02  0.12401836575E+03  0.41800000000E+01 0. -1.
        -11    1    1    2    0    0  0.66824090298E+02 -0.42492060002E+02 -0.38441385694E+02  0.88027122760E+02  0.00000000000E+00 0.  1.
         11    1    1    2    0    0 -0.82948356296E+01 -0.67286020137E+02 -0.78243523819E+02  0.10352903855E+03  0.00000000000E+00 0. -1.
</event>
<event>
 7    1  0.2900135E-009  0.1271912E+03  0.7561462E-02  0.1231684E+00
          2   -1    0    0  501    0  0.00000000000E+00  0.00000000000E+00  0.72676262040E+02  0.72676262040E+02  0.00000000000E+00 0. -1.
         -2   -1    0    0    0  501 -0.00000000000E+00 -0.00000000000E+00 -0.37699543815E+03  0.37699543815E+03  0.00000000000E+00 0.  1.
         25    2    1    2    0    0  0.88409946841E+02 -0.15477698377E+02 -0.26260589691E+03  0.30441010171E+03  0.12509106714E+03 0.  0.
          5    1    3    3  502    0  0.22197541677E+02 -0.66105811302E+02 -0.13363469217E+03  0.15079261420E+03  0.41800000000E+01 0. -1.
         -5    1    3    3    0  502  0.66212405164E+02  0.50628112924E+02 -0.12897120474E+03  0.15361748751E+03  0.41800000000E+01 0. -1.
        -11    1    1    2    0    0 -0.87731012629E+02  0.21843471887E+01 -0.71135876762E+02  0.11296820310E+03  0.00000000000E+00 0.  1.
         11    1    1    2    0    0 -0.67893421223E+00  0.13293351189E+02  0.29422597568E+02  0.32293395380E+02  0.00000000000E+00 0. -1.
</event>
<event>
 7    1  0.2900135E-009  0.9528887E+02  0.7561462E-02  0.1290527E+00
          2   -1    0    0  501    0  0.00000000000E+00  0.00000000000E+00  0.22535040061E+03  0.22535040061E+03  0.00000000000E+00 0. -1.
         -2   -1    0    0    0  501 -0.00000000000E+00 -0.00000000000E+00 -0.59369963110E+02  0.59369963110E+02  0.00000000000E+00 0.  1.
         25    2    1    2    0    0 -0.21943986528E+02 -0.52681701727E+01  0.53504732447E+02  0.13791110307E+03  0.12508966302E+03 0.  0.
          5    1    3    3  502    0 -0.56334079542E+02 -0.18090315042E+02  0.74650890435E+02  0.95346818819E+02  0.41800000000E+01 0.  1.
         -5    1    3    3    0  502  0.34390093014E+02  0.12822144869E+02 -0.21146157988E+02  0.42564284256E+02  0.41800000000E+01 0.  1.
        -11    1    1    2    0    0  0.53303300457E+02 -0.16901201064E+02  0.64902979064E+02  0.85669651151E+02  0.00000000000E+00 0. -1.
         11    1    1    2    0    0 -0.31359313929E+02  0.22169371237E+02  0.47572725987E+02  0.61139609493E+02  0.00000000000E+00 0.  1.
</event>
<event>
 7    1  0.2900135E-009  0.8154036E+02  0.7561462E-02  0.1324736E+00
         -2   -1    0    0    0  501 -0.00000000000E+00  0.00000000000E+00  0.28491556585E+02  0.28491556585E+02  0.00000000000E+00 0.  1.
          2   -1    0    0  501    0  0.00000000000E+00 -0.00000000000E+00 -0.51602676209E+03  0.51602676209E+03  0.00000000000E+00 0. -1.
         25    2    1    2    0    0  0.33030351468E+02 -0.70649931715E+01 -0.35105252953E+03  0.37420089501E+03  0.12509001996E+03 0.  0.
          5    1    3    3  502    0  0.37363400761E+02  0.50204911847E+02 -0.11257024804E+03  0.12886461901E+03  0.41800000000E+01 0. -1.
         -5    1    3    3    0  502 -0.43330492928E+01 -0.57269905019E+02 -0.23848228149E+03  0.24533627600E+03  0.41800000000E+01 0. -1.
        -11    1    1    2    0    0 -0.26494070731E+02  0.16561773235E+02 -0.14961496535E+03  0.15284261832E+03  0.00000000000E+00 0. -1.
         11    1    1    2    0    0 -0.65362807364E+01 -0.94967800632E+01  0.13132289378E+02  0.17474805342E+02  0.00000000000E+00 0.  1.
</event>
<event>
 7    1  0.2900135E-009  0.1244351E+03  0.7561462E-02  0.1235955E+00
         -1   -1    0    0    0  501 -0.00000000000E+00  0.00000000000E+00  0.35907326122E+02  0.35907326122E+02  0.00000000000E+00 0.  1.
          1   -1    0    0  501    0  0.00000000000E+00 -0.00000000000E+00 -0.80041492475E+03  0.80041492475E+03  0.00000000000E+00 0. -1.
         25    2    1    2    0    0 -0.92188311505E+02 -0.21496221696E+02 -0.62674032066E+03  0.64607416508E+03  0.12509046694E+03 0.  0.
          5    1    3    3  502    0 -0.76992410366E+02 -0.65886818235E+02 -0.51362201422E+03  0.52353982652E+03  0.41800000000E+01 0.  1.
         -5    1    3    3    0  502 -0.15195901139E+02  0.44390596540E+02 -0.11311830644E+03  0.12253433855E+03  0.41800000000E+01 0.  1.
        -11    1    1    2    0    0  0.12081119722E+02  0.15998302824E+02  0.97506704844E+01  0.22292929863E+02  0.00000000000E+00 0.  1.
         11    1    1    2    0    0  0.80107191783E+02  0.54979188720E+01 -0.14751794845E+03  0.16795515593E+03  0.00000000000E+00 0. -1.
</event>
<event>
 7    1  0.2900135E-009  0.1323798E+03  0.7561462E-02  0.1223967E+00
          1   -1    0    0  501    0  0.00000000000E+00  0.00000000000E+00  0.28816509025E+02  0.28816509025E+02  0.00000000000E+00 0. -1.
         -1   -1    0    0    0  501 -0.00000000000E+00 -0.00000000000E+00 -0.74573309484E+03  0.74573309484E+03  0.00000000000E+00 0.  1.
         25    2    1    2    0    0  0.87528765153E+01 -0.78706083127E+02 -0.53834255469E+03  0.55833170969E+03  0.12510128491E+03 0.  0.
          5    1    3    3  502    0 -0.47392615942E+02 -0.72148437610E+02 -0.25127457841E+03  0.26572136394E+03  0.41800000000E+01 0.  1.
         -5    1    3    3    0  502  0.56145492457E+02 -0.65576455163E+01 -0.28706797627E+03  0.29261034575E+03  0.41800000000E+01 0.  1.
        -11    1    1    2    0    0 -0.35662208187E+01  0.99835145420E+02 -0.15173963227E+03  0.18167193012E+03  0.00000000000E+00 0. -1.
         11    1    1    2    0    0 -0.51866556966E+01 -0.21129062293E+02 -0.26834398857E+02  0.34545964058E+02  0.00000000000E+00 0.  1.
</event>
<event>
 7    1  0.2900135E-009  0.1451394E+03  0.7561462E-02  0.1206576E+00
         -1   -1    0    0    0  501 -0.00000000000E+00  0.00000000000E+00  0.49822241692E+02  0.49822241692E+02  0.00000000000E+00 0.  1.
          1   -1    0    0  501    0  0.00000000000E+00 -0.00000000000E+00 -0.46257728264E+03  0.46257728264E+03  0.00000000000E+00 0. -1.
         25    2    1    2    0    0 -0.67888395053E+02  0.79797105561E+02 -0.19344517533E+03  0.25307072805E+03  0.12508934926E+03 0.  0.
          5    1    3    3  502    0 -0.39169814563E+02 -0.28393544720E+02 -0.80408096199E+02  0.93932965934E+02  0.41800000000E+01 0.  1.
         -5    1    3    3    0  502 -0.28718580490E+02  0.10819065028E+03 -0.11303707913E+03  0.15913776212E+03  0.41800000000E+01 0.  1.
        -11    1    1    2    0    0 -0.29777990307E+01 -0.54314620156E+02 -0.49410553398E+02  0.73487060336E+02  0.00000000000E+00 0.  1.
         11    1    1    2    0    0  0.70866194084E+02 -0.25482485404E+02 -0.16989931221E+03  0.18584173594E+03  0.00000000000E+00 0. -1.
</event>
<event>
 7    1  0.2900135E-009  0.1557854E+03  0.7561462E-02  0.1193539E+00
          1   -1    0    0  501    0  0.00000000000E+00  0.00000000000E+00  0.62818057816E+02  0.62818057816E+02  0.00000000000E+00 0. -1.
         -1   -1    0    0    0  501 -0.00000000000E+00 -0.00000000000E+00 -0.39678808557E+03  0.39678808557E+03  0.00000000000E+00 0.  1.
         25    2    1    2    0    0  0.88460033696E+01 -0.11312582362E+03 -0.18605843184E+03  0.25128019193E+03  0.12509312951E+03 0.  0.
          5    1    3    3  502    0  0.58676340721E+02 -0.97784252643E+02 -0.10665322875E+03  0.15619557173E+03  0.41800000000E+01 0.  1.
         -5    1    3    3    0  502 -0.49830337351E+02 -0.15341570980E+02 -0.79405203097E+02  0.95084620205E+02  0.41800000000E+01 0.  1.
        -11    1    1    2    0    0 -0.41510572106E+02  0.19255343691E+02 -0.33135853474E+02  0.56496731256E+02  0.00000000000E+00 0. -1.
         11    1    1    2    0    0  0.32664568736E+02  0.93870479933E+02 -0.11477574243E+03  0.15182922019E+03  0.00000000000E+00 0.  1.
</event>
<event>
 7    1  0.2900135E-009  0.1212770E+03  0.7561462E-02  0.1241005E+00
         -3   -1    0    0    0  501 -0.00000000000E+00  0.00000000000E+00  0.80873772167E+02  0.80873772167E+02  0.00000000000E+00 0.  1.
          3   -1    0    0  501    0  0.00000000000E+00 -0.00000000000E+00 -0.24073310617E+03  0.24073310617E+03  0.00000000000E+00 0. -1.
         25    2    1    2    0    0  0.46226545813E+02 -0.72533021059E+02 -0.79227205326E+02  0.17123665033E+03  0.12508839943E+03 0.  0.
          5    1    3    3  502    0 -0.44400758986E+01  0.25947821722E+02 -0.49932366350E+02  0.56601389872E+02  0.41800000000E+01 0.  1.
         -5    1    3    3    0  502  0.50666621712E+02 -0.98480842782E+02 -0.29294838976E+02  0.11463526046E+03  0.41800000000E+01 0.  1.
        -11    1    1    2    0    0 -0.56906738357E+02  0.36784226227E+02 -0.73765690359E+01  0.68160618691E+02  0.00000000000E+00 0.  1.
         11    1    1    2    0    0  0.10680192544E+02  0.35748794832E+02 -0.73255559642E+02  0.82209609312E+02  0.00000000000E+00 0. -1.
</event>
<event>
 7    1  0.2900135E-009  0.7631206E+02  0.7561462E-02  0.1339855E+00
         -1   -1    0    0    0  501 -0.00000000000E+00  0.00000000000E+00  0.19303174686E+02  0.19303174686E+02  0.00000000000E+00 0.  1.
          1   -1    0    0  501    0  0.00000000000E+00 -0.00000000000E+00 -0.70476203496E+03  0.70476203496E+03  0.00000000000E+00 0. -1.
         25    2    1    2    0    0 -0.24998989129E+02  0.54710918497E+01 -0.49843884253E+03  0.51453204298E+03  0.12508821368E+03 0.  0.
          5    1    3    3  502    0 -0.13489144198E+02 -0.23145211495E+02 -0.47447651898E+03  0.47525056264E+03  0.41800000000E+01 0. -1.
         -5    1    3    3    0  502 -0.11509844931E+02  0.28616303345E+02 -0.23962323555E+02  0.39281480339E+02  0.41800000000E+01 0. -1.
        -11    1    1    2    0    0  0.34906978509E+02 -0.43106007923E+02 -0.11465540015E+03  0.12736752275E+03  0.00000000000E+00 0. -1.
         11    1    1    2    0    0 -0.99079893805E+01  0.37634916074E+02 -0.72364617581E+02  0.82165643909E+02  0.00000000000E+00 0.  1.
</event>
<event>
 7    1  0.2900135E-009  0.2310605E+03  0.7561462E-02  0.1125896E+00
          2   -1    0    0  501    0  0.00000000000E+00  0.00000000000E+00  0.29564335898E+03  0.29564335898E+03  0.00000000000E+00 0. -1.
         -2   -1    0    0    0  501 -0.00000000000E+00 -0.00000000000E+00 -0.19336607121E+03  0.19336607121E+03  0.00000000000E+00 0.  1.
         25    2    1    2    0    0  0.20069282708E+03  0.69337336063E+02  0.33550415085E+02  0.24871486222E+03  0.12509266693E+03 0.  0.
          5    1    3    3  502    0  0.60388695352E+02  0.69046871982E+02  0.54520279044E+02  0.10679044098E+03  0.41800000000E+01 0. -1.
         -5    1    3    3    0  502  0.14030413173E+03  0.29046408028E+00 -0.20969863960E+02  0.14192442124E+03  0.41800000000E+01 0. -1.
        -11    1    1    2    0    0 -0.68175325634E+02  0.18871632265E+02  0.15274224038E+02  0.72369299082E+02  0.00000000000E+00 0.  1.
         11    1    1    2    0    0 -0.13251750145E+03 -0.88208968328E+02  0.53452648650E+02  0.16792526889E+03  0.00000000000E+00 0. -1.
</event>
<event>
 7    1  0.2900135E-009  0.1414787E+03  0.7561462E-02  0.1211353E+00
         -1   -1    0    0    0  501 -0.00000000000E+00  0.00000000000E+00  0.77645479583E+02  0.77645479583E+02  0.00000000000E+00 0.  1.
          1   -1    0    0  501    0  0.00000000000E+00 -0.00000000000E+00 -0.29335372183E+03  0.29335372183E+03  0.00000000000E+00 0. -1.
         25    2    1    2    0    0  0.69898938025E+02 -0.79046791804E+02 -0.12932558101E+03  0.20858355192E+03  0.12509090853E+03 0.  0.
          5    1    3    3  502    0 -0.22159654746E+02 -0.40116559892E+02 -0.90017322697E+02  0.10109885984E+03  0.41800000000E+01 0. -1.
         -5    1    3    3    0  502  0.92058592771E+02 -0.38930231913E+02 -0.39308258311E+02  0.10748469208E+03  0.41800000000E+01 0. -1.
        -11    1    1    2    0    0 -0.76369567754E+01  0.74042465416E+02 -0.54732519105E+02  0.92391874325E+02  0.00000000000E+00 0.  1.
         11    1    1    2    0    0 -0.62261981250E+02  0.50043263881E+01 -0.31650142135E+02  0.70023775169E+02  0.00000000000E+00 0. -1.
</event>
<event>
 7    1  0.2900135E-009  0.1873746E+03  0.7561462E-02  0.1160851E+00
         -1   -1    0    0    0  501 -0.00000000000E+00  0.00000000000E+00  0.53022233427E+02  0.53022233427E+02  0.00000000000E+00 0.  1.
          1   -1    0    0  501    0  0.00000000000E+00 -0.00000000000E+00 -0.70049586395E+03  0.70049586395E+03  0.00000000000E+00 0. -1.
         25    2    1    2    0    0 -0.87488649031E+02  0.13403891859E+03 -0.31673940021E+03  0.37628668629E+03  0.12508847759E+03 0.  0.
          5    1    3    3  502    0 -0.40305323503E+02  0.14718662791E+03 -0.22008694140E+03  0.26785099722E+03  0.41800000000E+01 0.  1.
         -5    1    3    3    0  502 -0.47183325528E+02 -0.13147709324E+02 -0.96652458816E+02  0.10843568907E+03  0.41800000000E+01 0.  1.
        -11    1    1    2    0    0  0.51782241178E+02 -0.23687026937E+02 -0.60106173354E+02  0.82796303189E+02  0.00000000000E+00 0.  1.
         11    1    1    2    0    0  0.35706407854E+02 -0.11035189165E+03 -0.27062805695E+03  0.29443510790E+03  0.00000000000E+00 0. -1.
</event>
<event>
 7    1  0.2900135E-009  0.9712183E+02  0.7561462E-02  0.1286467E+00
          2   -1    0    0  501    0  0.00000000000E+00  0.00000000000E+00  0.31137354700E+03  0.31137354700E+03  0.00000000000E+00 0. -1.
         -2   -1    0    0    0  501 -0.00000000000E+00 -0.00000000000E+00 -0.40894117342E+02  0.40894117342E+02  0.00000000000E+00 0.  1.
         25    2    1    2    0    0 -0.27879650014E+02 -0.25306553829E+00  0.21464534491E+03  0.25000634239E+03  0.12511278199E+03 0.  0.
          5    1    3    3  502    0  0.27418554473E+02  0.46450010614E+02  0.72746060384E+02  0.90657830974E+02  0.41800000000E+01 0. -1.
         -5    1    3    3    0  502 -0.55298204488E+02 -0.46703076152E+02  0.14189928453E+03  0.15934851142E+03  0.41800000000E+01 0. -1.
        -11    1    1    2    0    0  0.38086573420E+02  0.21739117055E+02  0.63586584770E+02  0.77242669866E+02  0.00000000000E+00 0. -1.
         11    1    1    2    0    0 -0.10206923406E+02 -0.21486051517E+02 -0.77525000289E+01  0.25018652080E+02  0.00000000000E+00 0.  1.
</event>
<event>
 7    1  0.2900135E-009  0.2085356E+03  0.7561462E-02  0.1142731E+00
          1   -1    0    0  501    0  0.00000000000E+00  0.00000000000E+00  0.71513261451E+03  0.71513261451E+03  0.00000000000E+00 0. -1.
         -1   -1    0    0    0  501 -0.00000000000E+00 -0.00000000000E+00 -0.78804114248E+02  0.78804114248E+02  0.00000000000E+00 0.  1.
         25    2    1    2    0    0  0.39452403684E+02  0.19432097335E+03  0.44858960912E+03  0.50615990960E+03  0.12509230125E+03 0.  0.
          5    1    3    3  502    0  0.35871537672E+02  0.18370077697E+03  0.45540982450E+03  0.49239041758E+03  0.41800000000E+01 0.  1.
         -5    1    3    3    0  502  0.35808660126E+01  0.10620196384E+02 -0.68202153789E+01  0.13769492019E+02  0.41800000000E+01 0.  1.
        -11    1    1    2    0    0  0.26650604602E+02 -0.26774674017E+02  0.27860588747E+02  0.46939858326E+02  0.00000000000E+00 0.  1.
         11    1    1    2    0    0 -0.66103008286E+02 -0.16754629934E+03  0.15987830239E+03  0.24083696083E+03  0.00000000000E+00 0. -1.
</event>
<event>
 7    1  0.2900135E-009  0.1882773E+03  0.7561462E-02  0.1160024E+00
          1   -1    0    0  501    0  0.00000000000E+00  0.00000000000E+00  0.40345105048E+03  0.40345105048E+03  0.00000000000E+00 0. -1.
         -1   -1    0    0    0  501 -0.00000000000E+00 -0.00000000000E+00 -0.96183101056E+02  0.96183101056E+02  0.00000000000E+00 0.  1.
         25    2    1    2    0    0  0.71950810746E+02 -0.14933112327E+03  0.16961992289E+03  0.26813298564E+03  0.12509067193E+03 0.  0.
          5    1    3    3  502    0  0.64320462239E+02 -0.16539108923E+03  0.11741859347E+03  0.21282841153E+03  0.41800000000E+01 0.  1.
         -5    1    3    3    0  502  0.76303485070E+01  0.16059965964E+02  0.52201329420E+02  0.55304574117E+02  0.41800000000E+01 0.  1.
        -11    1    1    2    0    0 -0.58788040145E+01  0.95161821579E+02  0.44863438792E+02  0.10537106227E+03  0.00000000000E+00 0. -1.
         11    1    1    2    0    0 -0.66072006732E+02  0.54169301688E+02  0.92784587741E+02  0.12613010363E+03  0.00000000000E+00 0.  1.
</event>
<event>
 7    1  0.2900135E-009  0.1527464E+03  0.7561462E-02  0.1197138E+00
         -1   -1    0    0    0  501 -0.00000000000E+00  0.00000000000E+00  0.47727795281E+03  0.47727795281E+03  0.00000000000E+00 0.  1.
          1   -1    0    0  501    0  0.00000000000E+00 -0.00000000000E+00 -0.60432011003E+02  0.60432011003E+02  0.00000000000E+00 0. -1.
         25    2    1    2    0    0  0.58280167374E+02 -0.11601445819E+03  0.23351445077E+03  0.29501050140E+03  0.12508503028E+03 0.  0.
          5    1    3    3  502    0  0.46898987305E+02 -0.20302189103E+02  0.10944868102E+02  0.52430491418E+02  0.41800000000E+01 0.  1.
         -5    1    3    3    0  502  0.11381180069E+02 -0.95712269084E+02  0.22256958267E+03  0.24258000998E+03  0.41800000000E+01 0.  1.
        -11    1    1    2    0    0 -0.56058875006E+02  0.16829738924E+02  0.53462924225E+02  0.79272453260E+02  0.00000000000E+00 0. -1.
         11    1    1    2    0    0 -0.22212923680E+01  0.99184719262E+02  0.12986856681E+03  0.16342700915E+03  0.00000000000E+00 0.  1.
</event>
<event>
 7    1  0.2900135E-009  0.8875680E+02  0.7561462E-02  0.1305891E+00
          1   -1    0    0  501    0  0.00000000000E+00  0.00000000000E+00  0.35445035909E+03  0.35445035909E+03  0.00000000000E+00 0. -1.
         -1   -1    0    0    0  501 -0.00000000000E+00 -0.00000000000E+00 -0.40062045780E+02  0.40062045780E+02  0.00000000000E+00 0.  1.
         25    2    1    2    0    0 -0.16179583447E+02 -0.54997437788E+02  0.17177764999E+03  0.22009510381E+03  0.12509115318E+03 0.  0.
          5    1    3    3  502    0 -0.59284954499E+01  0.18522141693E+02  0.13624971711E+03  0.13769413424E+03  0.41800000000E+01 0.  1.
         -5    1    3    3    0  502 -0.10251087997E+02 -0.73519579481E+02  0.35527932875E+02  0.82400969573E+02  0.41800000000E+01 0.  1.
        -11    1    1    2    0    0  0.12444277448E+02  0.68316332562E+02  0.14463151015E+03  0.16043769839E+03  0.00000000000E+00 0. -1.
         11    1    1    2    0    0  0.37353059994E+01 -0.13318894774E+02 -0.20208468262E+01  0.13979602670E+02  0.00000000000E+00 0.  1.
</event>
<event>
 7    1  0.2900135E-009  0.1039286E+03  0.7561462E-02  0.1272245E+00
          1   -1    0    0  501    0  0.00000000000E+00  0.00000000000E+00  0.78058211454E+02  0.78058211454E+02  0.00000000000E+00 0. -1.
         -1   -1    0    0    0  501 -0.00000000000E+00 -0.00000000000E+00 -0.17427975152E+03  0.17427975152E+03  0.00000000000E+00 0.  1.
         25    2    1    2    0    0  0.14357720941E+02  0.21299105217E+02 -0.22409558294E+02  0.12966713093E+03  0.12510627685E+03 0.  0.
          5    1    3    3  502    0  0.24152504984E+02 -0.48892545174E+02 -0.21211951922E+02  0.58662115330E+02  0.41800000000E+01 0.  1.
         -5    1    3    3    0  502 -0.97947840429E+01  0.70191650391E+02 -0.11976063719E+01  0.71005015598E+02  0.41800000000E+01 0.  1.
        -11    1    1    2    0    0  0.26543610923E+02  0.12283348969E+02  0.29907373771E+01  0.29400483887E+02  0.00000000000E+00 0. -1.
         11    1    1    2    0    0 -0.40901331864E+02 -0.33582454185E+02 -0.76802719151E+02  0.93270348163E+02  0.00000000000E+00 0.  1.
</event>
<event>
 7    1  0.2900135E-009  0.9958793E+02  0.7561462E-02  0.1281165E+00
          2   -1    0    0  501    0  0.00000000000E+00  0.00000000000E+00  0.93123177699E+03  0.93123177699E+03  0.00000000000E+00 0.  1.
         -2   -1    0    0    0  501 -0.00000000000E+00 -0.00000000000E+00 -0.15907537841E+02  0.15907537841E+02  0.00000000000E+00 0. -1.
         25    2    1    2    0    0  0.36479977239E+01 -0.46420259909E+02  0.63040668584E+03  0.64438423121E+03  0.12510115691E+03 0.  0.
          5    1    3    3  502    0  0.39792334118E+02 -0.60235268010E+02  0.20845668774E+03  0.22064310647E+03  0.41800000000E+01 0. -1.
         -5    1    3    3    0  502 -0.36144336394E+02  0.13815008101E+02  0.42194999810E+03  0.42374112474E+03  0.41800000000E+01 0. -1.
        -11    1    1    2    0    0 -0.32316628523E+02  0.49493885169E+02  0.25269254738E+03  0.25951403170E+03  0.00000000000E+00 0.  1.
         11    1    1    2    0    0  0.28668630799E+02 -0.30736252597E+01  0.32225005925E+02  0.43241051918E+02  0.00000000000E+00 0. -1.
</event>
<event>
 7    1  0.2900135E-009  0.2024937E+03  0.7561462E-02  0.1147652E+00
         -2   -1    0    0    0  501 -0.00000000000E+00  0.00000000000E+00  0.19782693982E+03  0.19782693982E+03  0.00000000000E+00 0.  1.
          2   -1    0    0  501    0  0.00000000000E+00 -0.00000000000E+00 -0.25060111978E+03  0.25060111978E+03  0.00000000000E+00 0. -1.
         25    2    1    2    0    0  0.18247306494E+03  0.73281865636E+01  0.37540990054E+02  0.22451354108E+03  0.12508749917E+03 0.  0.
          5    1    3    3  502    0 -0.12417580267E+02  0.20994647853E+02 -0.30301260247E+01  0.24932420699E+02  0.41800000000E+01 0. -1.
         -5    1    3    3    0  502  0.19489064521E+03 -0.13666461290E+02  0.40571116079E+02  0.19958112038E+03  0.41800000000E+01 0. -1.
        -11    1    1    2    0    0 -0.68553917177E+02  0.11034588652E+02  0.11068596309E+02  0.70312982666E+02  0.00000000000E+00 0.  1.
         11    1    1    2    0    0 -0.11391914776E+03 -0.18362775215E+02 -0.10138376633E+03  0.15360153585E+03  0.00000000000E+00 0. -1.
</event>
<event>
 6    1  0.2900135E-009  0.9475193E+02  0.7561462E-02  0.1291736E+00
         -3   -1    0    0    0  501 -0.00000000000E+00  0.00000000000E+00  0.81086818639E+03  0.81086818639E+03  0.00000000000E+00 0.  1.
          3   -1    0    0  501    0  0.00000000000E+00 -0.00000000000E+00 -0.22430744200E+02  0.22430744200E+02  0.00000000000E+00 0. -1.
          5    1    1    2  502    0 -0.15908428792E+02  0.21896079888E+02  0.23820434155E+02  0.36296031525E+02  0.41800000000E+01 0. -1.
         -5    1    1    2    0  502  0.55071533944E+02  0.21042304884E+02  0.58460600396E+03  0.58758599771E+03  0.41800000000E+01 0. -1.
        -11    1    1    2    0    0 -0.65594280479E+02 -0.38944004478E+02  0.10500159634E+03  0.12978667247E+03  0.00000000000E+00 0. -1.
         11    1    1    2    0    0  0.26431175327E+02 -0.39943802934E+01  0.75009407738E+02  0.79630228885E+02  0.00000000000E+00 0.  1.
</event>
<event>
 7    1  0.4910063E-009  0.1203382E+03  0.7561462E-02  0.1242540E+00
         -2   -1    0    0    0  501 -0.00000000000E+00  0.00000000000E+00  0.30207236839E+02  0.30207236839E+02  0.00000000000E+00 0.  1.
          2   -1    0    0  501    0  0.00000000000E+00 -0.00000000000E+00 -0.77687911948E+03  0.77687911948E+03  0.00000000000E+00 0. -1.
         25    2    1    2    0    0 -0.68156697093E+02  0.59274683820E+02 -0.24791355786E+03  0.29200148504E+03  0.12507962103E+03 0.  0.
          5    1    3    3  502    0  0.20373208147E+02  0.20035215661E+02 -0.35235949951E+01  0.29092363233E+02  0.41800000000E+01 0.  1.
         -5    1    3    3    0  502 -0.88529905240E+02  0.39239468159E+02 -0.24438996286E+03  0.26290912181E+03  0.41800000000E+01 0.  1.
        -11    1    1    2    0    0  0.43960964099E+02  0.68204845716E+01 -0.90949794432E+02  0.10124697764E+03  0.00000000000E+00 0.  1.
         11    1    1    2    0    0  0.24195732994E+02 -0.66095168392E+02 -0.40780853035E+03  0.41383789363E+03  0.00000000000E+00 0. -1.
</event>
<event>
 7    1  0.2900135E-009  0.1217097E+03  0.7561462E-02  0.1240303E+00
         -2   -1    0    0    0  501 -0.00000000000E+00  0.00000000000E+00  0.16962648538E+03  0.16962648538E+03  0.00000000000E+00 0.  1.
          2   -1    0    0  501    0  0.00000000000E+00 -0.00000000000E+00 -0.10845564591E+03  0.10845564591E+03  0.00000000000E+00 0. -1.
         25    2    1    2    0    0 -0.71166435989E+02  0.14039643203E+02  0.68899577618E+02  0.16017567359E+03  0.12508925383E+03 0.  0.
          5    1    3    3  502    0 -0.20987252289E+02  0.58098135923E+02 -0.29672623044E+01  0.61984959481E+02  0.41800000000E+01 0.  1.
         -5    1    3    3    0  502 -0.50179183700E+02 -0.44058492720E+02  0.71866839923E+02  0.98190714113E+02  0.41800000000E+01 0.  1.
        -11    1    1    2    0    0 -0.20436135154E+02 -0.10383489441E+02  0.91656201125E+01  0.24687265241E+02  0.00000000000E+00 0.  1.
         11    1    1    2    0    0  0.91602571143E+02 -0.36561537613E+01 -0.16894358267E+02  0.93219192453E+02  0.00000000000E+00 0. -1.
</event>
<event>
 7    1  0.2900135E-009  0.1284959E+03  0.7561462E-02  0.1229705E+00
          2   -1    0    0  501    0  0.00000000000E+00  0.00000000000E+00  0.93432649020E+03  0.93432649020E+03  0.00000000000E+00 0. -1.
         -2   -1    0    0    0  501 -0.00000000000E+00 -0.00000000000E+00 -0.22978651939E+02  0.22978651939E+02  0.00000000000E+00 0.  1.
         25    2    1    2    0    0  0.72898113721E+02 -0.36472528790E+02  0.67530638408E+03  0.69161444743E+03  0.12508977241E+03 0.  0.
          5    1    3    3  502    0  0.66311476045E+02 -0.79408850233E+02  0.41793005540E+03  0.43056472331E+03  0.41800000000E+01 0.  1.
         -5    1    3    3    0  502  0.65866376756E+01  0.42936321443E+02  0.25737632868E+03  0.26104972412E+03  0.41800000000E+01 0.  1.
        -11    1    1    2    0    0 -0.81755211036E+02  0.10567090322E+02  0.21757258166E+03  0.23266586819E+03  0.00000000000E+00 0. -1.
         11    1    1    2    0    0  0.88570973148E+01  0.25905438468E+02  0.18468872521E+02  0.33024826529E+02  0.00000000000E+00 0.  1.
</event>
<event>
 7    1  0.2900135E-009  0.1010159E+03  0.7561462E-02  0.1278174E+00
          1   -1    0    0  501    0  0.00000000000E+00  0.00000000000E+00  0.25744253342E+03  0.25744253342E+03  0.00000000000E+00 0. -1.
         -1   -1    0    0    0  501 -0.00000000000E+00 -0.00000000000E+00 -0.52199320007E+02  0.52199320007E+02  0.00000000000E+00 0.  1.
         25    2    1    2    0    0 -0.48632347825E+01 -0.30579878902E+02  0.78341798927E+02  0.15081203252E+03  0.12509217261E+03 0.  0.
          5    1    3    3  502    0 -0.78216363730E+01 -0.78781541450E+02  0.38840963884E+02  0.88282513241E+02  0.41800000000E+01 0. -1.
         -5    1    3    3    0  502  0.29584015905E+01  0.48201662548E+02  0.39500835043E+02  0.62529519281E+02  0.41800000000E+01 0. -1.
        -11    1    1    2    0    0 -0.22282987035E+02 -0.10821962337E+02  0.98892952497E+02  0.10194833218E+03  0.00000000000E+00 0. -1.
         11    1    1    2    0    0  0.27146221817E+02  0.41401841239E+02  0.28008461988E+02  0.56881488727E+02  0.00000000000E+00 0.  1.
</event>
<event>
 7    1  0.2900135E-009  0.2673638E+03  0.7561462E-02  0.1102798E+00
         -2   -1    0    0    0  501 -0.00000000000E+00  0.00000000000E+00  0.53781569468E+03  0.53781569468E+03  0.00000000000E+00 0.  1.
          2   -1    0    0  501    0  0.00000000000E+00 -0.00000000000E+00 -0.16649399066E+03  0.16649399066E+03  0.00000000000E+00 0. -1.
         25    2    1    2    0    0  0.94352207238E+02 -0.23180172643E+03  0.45453076384E+02  0.28345723460E+03  0.12509053644E+03 0.  0.
          5    1    3    3  502    0 -0.10789919366E+02  0.64922622623E+01 -0.10623571910E+02  0.16997191219E+02  0.41800000000E+01 0. -1.
         -5    1    3    3    0  502  0.10514212660E+03 -0.23829398869E+03  0.56076648294E+02  0.26646004338E+03  0.41800000000E+01 0. -1.
        -11    1    1    2    0    0  0.31393563904E+01  0.83078192722E+02  0.14540199843E+03  0.16749203806E+03  0.00000000000E+00 0.  1.
         11    1    1    2    0    0 -0.97491563628E+02  0.14872353370E+03  0.18046662921E+03  0.25336041268E+03  0.00000000000E+00 0. -1.
</event>
<event>
 7    1  0.2900135E-009  0.1313845E+03  0.7561462E-02  0.1225416E+00
         -1   -1    0    0    0  501 -0.00000000000E+00  0.00000000000E+00  0.15654945338E+03  0.15654945338E+03  0.00000000000E+00 0.  1.
          1   -1    0    0  501    0  0.00000000000E+00 -0.00000000000E+00 -0.17695735091E+03  0.17695735091E+03  0.00000000000E+00 0. -1.
         25    2    1    2    0    0  0.26158942277E+02 -0.79038041091E+02 -0.10565919472E+03  0.18368209615E+03  0.12507575631E+03 0.  0.
          5    1    3    3  502    0  0.46876702779E+02 -0.10278746572E+03 -0.10091359055E+03  0.15153782871E+03  0.41800000000E+01 0.  1.
         -5    1    3    3    0  502 -0.20717760502E+02  0.23749424627E+02 -0.47456041681E+01  0.32144267440E+02  0.41800000000E+01 0.  1.
        -11    1    1    2    0    0 -0.47894695261E+02  0.83005945878E+02  0.49665995671E+02  0.10793794519E+03  0.00000000000E+00 0.  1.
         11    1    1    2    0    0  0.21735752984E+02 -0.39679047868E+01  0.35585301518E+02  0.41886762948E+02  0.00000000000E+00 0. -1.
</event>
<event>
 7    1  0.2900135E-009  0.1448989E+03  0.7561462E-02  0.1206885E+00
         -1   -1    0    0    0  501 -0.00000000000E+00  0.00000000000E+00  0.17865609487E+03  0.17865609487E+03  0.00000000000E+00 0.  1.
          1   -1    0    0  501    0  0.00000000000E+00 -0.00000000000E+00 -0.13022028535E+03  0.13022028535E+03  0.00000000000E+00 0. -1.
         25    2    1    2    0    0 -0.19140444178E+02 -0.96724367761E+02  0.59127317527E+02  0.16987774879E+03  0.12506178446E+03 0.  0.
          5    1    3    3  502    0 -0.65226327273E+02 -0.77132251913E+02  0.13492034657E+02  0.10199688943E+03  0.41800000000E+01 0. -1.
         -5    1    3    3    0  502  0.46085883095E+02 -0.19592115848E+02  0.45635282870E+02  0.67880859354E+02  0.41800000000E+01 0. -1.
        -11    1    1    2    0    0  0.49449400628E+02  0.15612046417E+02 -0.70456953832E+01  0.52331835810E+02  0.00000000000E+00 0. -1.
         11    1    1    2    0    0 -0.30308956449E+02  0.81112321344E+02 -0.36458126212E+01  0.86666795628E+02  0.00000000000E+00 0.  1.
</event>
<event>
 7    1  0.2900135E-009  0.9907140E+02  0.7561462E-02  0.1282261E+00
         -1   -1    0    0    0  501 -0.00000000000E+00  0.00000000000E+00  0.46400261821E+02  0.46400261821E+02  0.00000000000E+00 0.  1.
          1   -1    0    0  501    0  0.00000000000E+00 -0.00000000000E+00 -0.63755135663E+03  0.63755135663E+03  0.00000000000E+00 0. -1.
         25    2    1    2    0    0  0.92765026195E+01 -0.35010745234E+02 -0.56653203544E+03  0.58130735151E+03  0.12509150234E+03 0.  0.
          5    1    3    3  502    0  0.56853710090E+02 -0.13047828730E+01 -0.41485596425E+03  0.41875648088E+03  0.41800000000E+01 0.  1.
         -5    1    3    3    0  502 -0.47577207471E+02 -0.33705962361E+02 -0.15167607119E+03  0.16255087062E+03  0.41800000000E+01 0.  1.
        -11    1    1    2    0    0 -0.29904008988E+02 -0.11299632044E+02 -0.38538573646E+02  0.50071479872E+02  0.00000000000E+00 0. -1.
         11    1    1    2    0    0  0.20627506369E+02  0.46310377277E+02  0.13919514276E+02  0.52572787070E+02  0.00000000000E+00 0.  1.
</event>
<event>
 7    1  0.2900135E-009  0.8265059E+02  0.7561462E-02  0.1321693E+00
          4   -1    0    0  501    0  0.00000000000E+00  0.00000000000E+00  0.24936457006E+03  0.24936457006E+03  0.00000000000E+00 0. -1.
         -4   -1    0    0    0  501 -0.00000000000E+00 -0.00000000000E+00 -0.54451878112E+02  0.54451878112E+02  0.00000000000E+00 0.  1.
         25    2    1    2    0    0  0.13357222723E+02 -0.30489084955E+02  0.83582761744E+02  0.15408342362E+03  0.12509046196E+03 0.  0.
          5    1    3    3  502    0  0.22257530357E+01 -0.54085772891E+02  0.10621878739E+03  0.11929010018E+03  0.41800000000E+01 0. -1.
         -5    1    3    3    0  502  0.11131469687E+02  0.23596687937E+02 -0.22636025648E+02  0.34793323442E+02  0.41800000000E+01 0. -1.
        -11    1    1    2    0    0 -0.33050165993E+01  0.56553316037E+02  0.30769971665E+02  0.64466982601E+02  0.00000000000E+00 0.  1.
         11    1    1    2    0    0 -0.10052206124E+02 -0.26064231082E+02  0.80559958542E+02  0.85266041952E+02  0.00000000000E+00 0. -1.
</event>
<event>
 7    1  0.2900135E-009  0.1082467E+03  0.7561462E-02  0.1263852E+00
          2   -1    0    0  501    0  0.00000000000E+00  0.00000000000E+00  0.12390744735E+04  0.12390744735E+04  0.00000000000E+00 0. -1.
         -2   -1    0    0    0  501 -0.00000000000E+00 -0.00000000000E+00 -0.24603665504E+02  0.24603665504E+02  0.00000000000E+00 0.  1.
         25    2    1    2    0    0 -0.19481961463E+02  0.47599345383E+02  0.10994451432E+04  0.11077324199E+04  0.12508495757E+03 0.  0.
          5    1    3    3  502    0 -0.64026274285E+02  0.60006510935E+02  0.65392510363E+03  0.65979971106E+03  0.41800000000E+01 0.  1.
         -5    1    3    3    0  502  0.44544312822E+02 -0.12407165552E+02  0.44552003961E+03  0.44793270885E+03  0.41800000000E+01 0.  1.
        -11    1    1    2    0    0 -0.19836138119E+02 -0.36198769482E+02  0.89387598611E+01  0.42234165262E+02  0.00000000000E+00 0.  1.
         11    1    1    2    0    0  0.39318099582E+02 -0.11400575901E+02  0.10608690487E+03  0.11371155381E+03  0.00000000000E+00 0. -1.
</event>
<event>
 7    1  0.2900135E-009  0.7584683E+02  0.7561462E-02  0.1341269E+00
         -2   -1    0    0    0  501 -0.00000000000E+00  0.00000000000E+00  0.47805501730E+02  0.47805501730E+02  0.00000000000E+00 0.  1.
          2   -1    0    0  501    0  0.00000000000E+00 -0.00000000000E+00 -0.33072422929E+03  0.33072422929E+03  0.00000000000E+00 0. -1.
         25    2    1    2    0    0  0.27885070809E+02 -0.26078256131E+02 -0.75140907112E+02  0.15083392400E+03  0.12508822523E+03 0.  0.
          5    1    3    3  502    0  0.45096699553E+01 -0.51005385907E+02  0.15673912366E+02  0.53712479402E+02  0.41800000000E+01 0.  1.
         -5    1    3    3    0  502  0.23375400854E+02  0.24927129776E+02 -0.90814819478E+02  0.97121444598E+02  0.41800000000E+01 0.  1.
        -11    1    1    2    0    0  0.65580246693E+01 -0.12536228577E+02 -0.60707289417E+00  0.14160976379E+02  0.00000000000E+00 0.  1.
         11    1    1    2    0    0 -0.34443095478E+02  0.38614484708E+02 -0.20717074755E+03  0.21353483064E+03  0.00000000000E+00 0. -1.
</event>
<event>
 7    1  0.2900135E-009  0.1878163E+03  0.7561462E-02  0.1160446E+00
         -1   -1    0    0    0  501 -0.00000000000E+00  0.00000000000E+00  0.59581073597E+02  0.59581073597E+02  0.00000000000E+00 0. -1.
          1   -1    0    0  501    0  0.00000000000E+00 -0.00000000000E+00 -0.93264892833E+03  0.93264892833E+03  0.00000000000E+00 0.  1.
         25    2    1    2    0    0 -0.10557759059E+03  0.12253775686E+03 -0.17283814812E+03  0.26774089138E+03  0.12510007987E+03 0.  0.
          5    1    3    3  502    0 -0.12667750367E+03  0.93503957238E+02 -0.10037774349E+03  0.18677083215E+03  0.41800000000E+01 0. -1.
         -5    1    3    3    0  502  0.21099913083E+02  0.29033799624E+02 -0.72460404629E+02  0.80970059230E+02  0.41800000000E+01 0. -1.
        -11    1    1    2    0    0  0.91421278098E+02 -0.13506165541E+03 -0.66262950789E+03  0.68240557265E+03  0.00000000000E+00 0.  1.
         11    1    1    2    0    0  0.14156312488E+02  0.12523898547E+02 -0.37600198721E+02  0.42083537897E+02  0.00000000000E+00 0. -1.
</event>
<event>
 7    1  0.2900135E-009  0.7424415E+02  0.7561462E-02  0.1346228E+00
         -2   -1    0    0    0  501 -0.00000000000E+00  0.00000000000E+00  0.26625892034E+03  0.26625892034E+03  0.00000000000E+00 0.  1.
          2   -1    0    0  501    0  0.00000000000E+00 -0.00000000000E+00 -0.64089975354E+02  0.64089975354E+02  0.00000000000E+00 0. -1.
         25    2    1    2    0    0 -0.36419908889E+02 -0.44748669569E+02  0.16759455723E+03  0.21694415878E+03  0.12509188313E+03 0.  0.
          5    1    3    3  502    0 -0.15665913954E+02 -0.15236576972E+02 -0.17507870690E+02  0.28312048211E+02  0.41800000000E+01 0.  1.
         -5    1    3    3    0  502 -0.20753994935E+02 -0.29512092597E+02  0.18510242792E+03  0.18863211057E+03  0.41800000000E+01 0.  1.
        -11    1    1    2    0    0 -0.26917887210E+01 -0.16788920300E+02  0.36711959947E+02  0.40458393128E+02  0.00000000000E+00 0.  1.
         11    1    1    2    0    0  0.39111697610E+02  0.61537589869E+02 -0.21375721917E+01  0.72946343786E+02  0.00000000000E+00 0. -1.
</event>
<event>
 7    1  0.2900135E-009  0.1297902E+03  0.7561462E-02  0.1227767E+00
          2   -1    0    0  501    0  0.00000000000E+00  0.00000000000E+00  0.51399048881E+03  0.51399048881E+03  0.00000000000E+00 0. -1.
         -2   -1    0    0    0  501 -0.00000000000E+00 -0.00000000000E+00 -0.40381473924E+02  0.40381473924E+02  0.00000000000E+00 0.  1.
         25    2    1    2    0    0 -0.79388856479E+02  0.48894696509E+02  0.26952509051E+03  0.31142347702E+03  0.12509007053E+03 0.  0.
          5    1    3    3  502    0 -0.58205190535E+02  0.90880494741E+02  0.20150751962E+03  0.22862602956E+03  0.41800000000E+01 0. -1.
         -5    1    3    3    0  502 -0.21183665944E+02 -0.41985798232E+02  0.68017570891E+02  0.82797447460E+02  0.41800000000E+01 0. -1.
        -11    1    1    2    0    0  0.56848541863E+02 -0.76470388132E+01  0.34423348363E+02  0.66896941837E+02  0.00000000000E+00 0.  1.
         11    1    1    2    0    0  0.22540314616E+02 -0.41247657696E+02  0.16966057600E+03  0.17605154387E+03  0.00000000000E+00 0. -1.
</event>
<event>
 7    1  0.2900135E-009  0.1218616E+03  0.7561462E-02  0.1240057E+00
         -1   -1    0    0    0  501 -0.00000000000E+00  0.00000000000E+00  0.44377377627E+02  0.44377377627E+02  0.00000000000E+00 0.  1.
          1   -1    0    0  501    0  0.00000000000E+00 -0.00000000000E+00 -0.52688592086E+03  0.52688592086E+03  0.00000000000E+00 0. -1.
         25    2    1    2    0    0  0.21336653277E+02  0.80754246462E+02 -0.38716392097E+03  0.41535823252E+03  0.12510019393E+03 0.  0.
          5    1    3    3  502    0  0.44468620341E+02  0.10124722020E+03 -0.23135024910E+03  0.25645441691E+03  0.41800000000E+01 0. -1.
         -5    1    3    3    0  502 -0.23131967064E+02 -0.20492973733E+02 -0.15581367187E+03  0.15890381561E+03  0.41800000000E+01 0. -1.
        -11    1    1    2    0    0  0.97833574343E+01 -0.67241430069E+02 -0.10077801549E+03  0.12154559805E+03  0.00000000000E+00 0. -1.
         11    1    1    2    0    0 -0.31120010711E+02 -0.13512816393E+02  0.54333932297E+01  0.34359467917E+02  0.00000000000E+00 0.  1.
</event>
<event>
 7    1  0.2900135E-009  0.1088024E+03  0.7561462E-02  0.1262804E+00
         -4   -1    0    0    0  501 -0.00000000000E+00  0.00000000000E+00  0.20830162488E+03  0.20830162488E+03  0.00000000000E+00 0.  1.
          4   -1    0    0  501    0  0.00000000000E+00 -0.00000000000E+00 -0.96289390649E+02  0.96289390649E+02  0.00000000000E+00 0. -1.
         25    2    1    2    0    0  0.49270236351E+02 -0.28023375506E+02 -0.13333917015E+02  0.13797936007E+03  0.12509054600E+03 0.  0.
          5    1    3    3  502    0  0.20209970974E+02 -0.60591407124E+02  0.34808089972E+02  0.72861766871E+02  0.41800000000E+01 0.  1.
         -5    1    3    3    0  502  0.29060265377E+02  0.32568031618E+02 -0.48142006987E+02  0.65117593199E+02  0.41800000000E+01 0.  1.
        -11    1    1    2    0    0  0.28137407056E+02  0.12544186927E+02  0.36442000546E+02  0.47718861107E+02  0.00000000000E+00 0. -1.
         11    1    1    2    0    0 -0.77407643408E+02  0.15479188579E+02  0.88904150696E+02  0.11889279435E+03  0.00000000000E+00 0.  1.
</event>
<event>
 7    1  0.2900135E-009  0.1713430E+03  0.7561462E-02  0.1176455E+00
          3   -1    0    0  501    0  0.00000000000E+00  0.00000000000E+00  0.30559805836E+02  0.30559805836E+02  0.00000000000E+00 0. -1.
         -3   -1    0    0    0  501 -0.00000000000E+00 -0.00000000000E+00 -0.16941172834E+04  0.16941172834E+04  0.00000000000E+00 0.  1.
         25    2    1    2    0    0  0.80109014183E+02  0.12060780625E+03 -0.13877039789E+04  0.14008333360E+04  0.12509198703E+03 0.  0.
          5    1    3    3  502    0 -0.33678550517E+02  0.22272171570E+02 -0.26401484890E+03  0.26711721628E+03  0.41800000000E+01 0. -1.
         -5    1    3    3    0  502  0.11378756470E+03  0.98335634680E+02 -0.11236891300E+04  0.11337161197E+04  0.41800000000E+01 0. -1.
        -11    1    1    2    0    0 -0.19476619294E+02 -0.70023125484E+02 -0.60823194402E+02  0.94773613305E+02  0.00000000000E+00 0. -1.
         11    1    1    2    0    0 -0.60632394889E+02 -0.50584680766E+02 -0.21503030422E+03  0.22907013985E+03  0.00000000000E+00 0.  1.
</event>
<event>
 7    1  0.3258423E-009  0.1142072E+03  0.7561462E-02  0.1252971E+00
          2   -1    0    0  501    0  0.00000000000E+00  0.00000000000E+00  0.67440170398E+03  0.67440170398E+03  0.00000000000E+00 0. -1.
         -2   -1    0    0    0  501 -0.00000000000E+00 -0.00000000000E+00 -0.32389022452E+02  0.32389022452E+02  0.00000000000E+00 0.  1.
         25    2    1    2    0    0  0.21010672701E+01  0.93922918007E+02  0.43051636374E+03  0.45805961574E+03  0.12509333759E+03 0.  0.
          5    1    3    3  502    0  0.14673036856E+02  0.93045090588E+02  0.43416857954E+03  0.44428877406E+03  0.41800000000E+01 0.  1.
         -5    1    3    3    0  502 -0.12571969586E+02  0.87782741918E+00 -0.36522158004E+01  0.13770841677E+02  0.41800000000E+01 0.  1.
        -11    1    1    2    0    0 -0.32520430030E+02 -0.14135629077E+02  0.11270350745E+03  0.11815022205E+03  0.00000000000E+00 0. -1.
         11    1    1    2    0    0  0.30419362760E+02 -0.79787288930E+02  0.98792810335E+02  0.13058088865E+03  0.00000000000E+00 0.  1.
</event>
<event>
 7    1  0.2900135E-009  0.1375614E+03  0.7561462E-02  0.1216648E+00
          2   -1    0    0  501    0  0.00000000000E+00  0.00000000000E+00  0.10067996631E+04  0.10067996631E+04  0.00000000000E+00 0. -1.
         -2   -1    0    0    0  501 -0.00000000000E+00 -0.00000000000E+00 -0.20652345558E+02  0.20652345558E+02  0.00000000000E+00 0.  1.
         25    2    1    2    0    0 -0.60735577655E+01 -0.87122485685E+02  0.67370910180E+03  0.69076660519E+03  0.12508930161E+03 0.  0.
          5    1    3    3  502    0 -0.33500192526E+02 -0.11061574077E+03  0.48621285887E+03  0.49977847246E+03  0.41800000000E+01 0. -1.
         -5    1    3    3    0  502  0.27426634760E+02  0.23493255088E+02  0.18749624293E+03  0.19098813273E+03  0.41800000000E+01 0. -1.
        -11    1    1    2    0    0 -0.88322962000E+01  0.10180831158E+03  0.23086242129E+03  0.25246861058E+03  0.00000000000E+00 0.  1.
         11    1    1    2    0    0  0.14905853965E+02 -0.14685825896E+02  0.81575794439E+02  0.84216792880E+02  0.00000000000E+00 0. -1.
</event>
<event>
 7    1  0.2900135E-009  0.9439127E+02  0.7561462E-02  0.1292553E+00
          1   -1    0    0  501    0  0.00000000000E+00  0.00000000000E+00  0.40774704821E+02  0.40774704821E+02  0.00000000000E+00 0. -1.
         -1   -1    0    0    0  501 -0.00000000000E+00 -0.00000000000E+00 -0.34251771844E+03  0.34251771844E+03  0.00000000000E+00 0.  1.
         25    2    1    2    0    0  0.32625330300E+02  0.23617120765E+02 -0.20123994390E+03  0.24034806833E+03  0.12508996106E+03 0.  0.
          5    1    3    3  502    0  0.46385503866E+02  0.66513688185E+02 -0.15860474641E+03  0.17818143469E+03  0.41800000000E+01 0. -1.
         -5    1    3    3    0  502 -0.13760173565E+02 -0.42896567420E+02 -0.42635197494E+02  0.62166633642E+02  0.41800000000E+01 0. -1.
        -11    1    1    2    0    0 -0.52443985791E+01 -0.32987163558E+02  0.47931355177E+01  0.33743604197E+02  0.00000000000E+00 0. -1.
         11    1    1    2    0    0 -0.27380931721E+02  0.93700427932E+01 -0.10529620523E+03  0.10920075073E+03  0.00000000000E+00 0.  1.
</event>
<event>
 7    1  0.2900135E-009  0.2342396E+03  0.7561462E-02  0.1123691E+00
         -2   -1    0    0    0  501 -0.00000000000E+00  0.00000000000E+00  0.30715602843E+03  0.30715602843E+03  0.00000000000E+00 0.  1.
          2   -1    0    0  501    0  0.00000000000E+00 -0.00000000000E+00 -0.20250731648E+03  0.20250731648E+03  0.00000000000E+00 0. -1.
         25    2    1    2    0    0 -0.61501527709E+02  0.21516581820E+03  0.85709476338E+02  0.27031989432E+03  0.12509182107E+03 0.  0.
          5    1    3    3  502    0 -0.12663290858E+02  0.14476583277E+03  0.10868350230E+03  0.18151330900E+03  0.41800000000E+01 0. -1.
         -5    1    3    3    0  502 -0.48838236851E+02  0.70399985429E+02 -0.22974025958E+02  0.88806585318E+02  0.41800000000E+01 0. -1.
        -11    1    1    2    0    0  0.94857757020E+00 -0.14346347691E+03  0.23518186789E+02  0.14538147790E+03  0.00000000000E+00 0. -1.
         11    1    1    2    0    0  0.60552950139E+02 -0.71702341287E+02 -0.45789511771E+01  0.93961972683E+02  0.00000000000E+00 0.  1.
</event>
<event>
 7    1  0.2900135E-009  0.1383727E+03  0.7561462E-02  0.1215536E+00
         -2   -1    0    0    0  501 -0.00000000000E+00  0.00000000000E+00  0.31043520585E+03  0.31043520585E+03  0.00000000000E+00 0.  1.
          2   -1    0    0  501    0  0.00000000000E+00 -0.00000000000E+00 -0.68728252249E+02  0.68728252249E+02  0.00000000000E+00 0. -1.
         25    2    1    2    0    0 -0.35395215575E+02  0.83044532991E+02  0.17990925503E+03  0.23698635763E+03  0.12508388349E+03 0.  0.
          5    1    3    3  502    0  0.43203753252E+02  0.41566211200E+02  0.10361902627E+03  0.11978601426E+03  0.41800000000E+01 0.  1.
         -5    1    3    3    0  502 -0.78598968828E+02  0.41478321791E+02  0.76290228763E+02  0.11720034336E+03  0.41800000000E+01 0.  1.
        -11    1    1    2    0    0  0.18807651069E+01 -0.92762778892E+02  0.49628634636E+02  0.10522106158E+03  0.00000000000E+00 0.  1.
         11    1    1    2    0    0  0.33514450468E+02  0.97182459009E+01  0.12169063938E+02  0.36956038894E+02  0.00000000000E+00 0. -1.
</event>
<event>
 7    1  0.2900135E-009  0.1208869E+03  0.7561462E-02  0.1241641E+00
          1   -1    0    0  501    0  0.00000000000E+00  0.00000000000E+00  0.44352932478E+03  0.44352932478E+03  0.00000000000E+00 0. -1.
         -1   -1    0    0    0  501 -0.00000000000E+00 -0.00000000000E+00 -0.59954658509E+02  0.59954658509E+02  0.00000000000E+00 0.  1.
         25    2    1    2    0    0  0.10364832477E+03 -0.39103394185E+02  0.28356616844E+03  0.32913412903E+03  0.12508977715E+03 0.  0.
          5    1    3    3  502    0  0.12416369399E+02 -0.55086329212E+01  0.20103892811E+03  0.20154065168E+03  0.41800000000E+01 0. -1.
         -5    1    3    3    0  502  0.91231955375E+02 -0.33594761264E+02  0.82527240330E+02  0.12759347735E+03  0.41800000000E+01 0. -1.
        -11    1    1    2    0    0 -0.45078675747E+02  0.53478636483E+02  0.88752829805E+02  0.11300051489E+03  0.00000000000E+00 0. -1.
         11    1    1    2    0    0 -0.58569649028E+02 -0.14375242298E+02  0.11255668033E+02  0.61349339371E+02  0.00000000000E+00 0.  1.
</event>
<event>
 7    1  0.2900135E-009  0.4740568E+02  0.7561462E-02  0.1459859E+00
         -1   -1    0    0    0  501 -0.00000000000E+00  0.00000000000E+00  0.32222959377E+02  0.32222959377E+02  0.00000000000E+00 0. -1.
          1   -1    0    0  501    0  0.00000000000E+00 -0.00000000000E+00 -0.42043831749E+03  0.42043831749E+03  0.00000000000E+00 0.  1.
         25    2    1    2    0    0 -0.63708996475E+01  0.47162300541E+01 -0.29099627358E+03  0.31684132723E+03  0.12508702656E+03 0.  0.
          5    1    3    3  502    0 -0.16484267036E+02 -0.93169264876E+01 -0.29732293913E+03  0.29795459169E+03  0.41800000000E+01 0.  1.
         -5    1    3    3    0  502  0.10113367389E+02  0.14033156542E+02  0.63266655425E+01  0.18886735540E+02  0.41800000000E+01 0.  1.
        -11    1    1    2    0    0 -0.16183265429E+02  0.18958591978E+02 -0.99946553632E+02  0.10300796024E+03  0.00000000000E+00 0.  1.
         11    1    1    2    0    0  0.22554165077E+02 -0.23674822032E+02  0.27274691014E+01  0.32811989398E+02  0.00000000000E+00 0. -1.
</event>
<event>
 7    1  0.2900135E-009  0.5919460E+02  0.7561462E-02  0.1401243E+00
         -1   -1    0    0    0  501 -0.00000000000E+00  0.00000000000E+00  0.52034344040E+03  0.52034344040E+03  0.00000000000E+00 0.  1.
          1   -1    0    0  501    0  0.00000000000E+00 -0.00000000000E+00 -0.27574005353E+02  0.27574005353E+02  0.00000000000E+00 0. -1.
         25    2    1    2    0    0  0.10682576636E+02 -0.77001674931E-01  0.39061042269E+03  0.41028972342E+03  0.12508809477E+03 0.  0.
          5    1    3    3  502    0  0.28911093416E+02 -0.12705810454E+02  0.38593086819E+03  0.38724332966E+03  0.41800000000E+01 0. -1.
         -5    1    3    3    0  502 -0.18228516780E+02  0.12628808779E+02  0.46795545049E+01  0.23046393765E+02  0.41800000000E+01 0. -1.
        -11    1    1    2    0    0 -0.25069030737E+02  0.24863883430E+02  0.41937172213E+01  0.35556381501E+02  0.00000000000E+00 0. -1.
         11    1    1    2    0    0  0.14386454102E+02 -0.24786881755E+02  0.97965295135E+02  0.10207134083E+03  0.00000000000E+00 0.  1.
</event>
<event>
 7    1  0.2900135E-009  0.8836153E+02  0.7561462E-02  0.1306869E+00
          2   -1    0    0  501    0  0.00000000000E+00  0.00000000000E+00  0.39588333203E+03  0.39588333203E+03  0.00000000000E+00 0. -1.
         -2   -1    0    0    0  501 -0.00000000000E+00 -0.00000000000E+00 -0.32971560720E+02  0.32971560720E+02  0.00000000000E+00 0.  1.
         25    2    1    2    0    0 -0.82299227752E+01 -0.15389353963E+02  0.26765422250E+03  0.29595626440E+03  0.12508702479E+03 0.  0.
          5    1    3    3  502    0  0.51482138168E+02 -0.34828325909E+02  0.11396865885E+03  0.12988360341E+03  0.41800000000E+01 0. -1.
         -5    1    3    3    0  502 -0.59712060943E+02  0.19438971946E+02  0.15368556366E+03  0.16607266099E+03  0.41800000000E+01 0. -1.
        -11    1    1    2    0    0 -0.72338410116E+01 -0.15412162398E+02 -0.11612462847E+02  0.20608554023E+02  0.00000000000E+00 0.  1.
         11    1    1    2    0    0  0.15463763787E+02  0.30801516360E+02  0.10687001165E+03  0.11229007432E+03  0.00000000000E+00 0. -1.
</event>
<event>
 7    1  0.2900135E-009  0.9722865E+02  0.7561462E-02  0.1286234E+00
          2   -1    0    0  501    0  0.00000000000E+00  0.00000000000E+00  0.10164325784E+03  0.10164325784E+03  0.00000000000E+00 0. -1.
         -2   -1    0    0    0  501 -0.00000000000E+00 -0.00000000000E+00 -0.12116923538E+03  0.12116923538E+03  0.00000000000E+00 0.  1.
         25    2    1    2    0    0 -0.13154723017E+02  0.12480156290E+02  0.30287848615E+01  0.12643105898E+03  0.12508732189E+03 0.  0.
          5    1    3    3  502    0 -0.58570612116E+02  0.37740424385E+02  0.18194051984E+02  0.72134264840E+02  0.41800000000E+01 0. -1.
         -5    1    3    3    0  502  0.45415889099E+02 -0.25260268095E+02 -0.15165267123E+02  0.54296794139E+02  0.41800000000E+01 0. -1.
        -11    1    1    2    0    0 -0.10698874730E+02  0.25509149612E+02 -0.39676590317E+02  0.48367493770E+02  0.00000000000E+00 0.  1.
         11    1    1    2    0    0  0.23853597748E+02 -0.37989305902E+02  0.17121827915E+02  0.48013940471E+02  0.00000000000E+00 0. -1.
</event>
<event>
 6    1  0.2900135E-009  0.1551806E+03  0.7561462E-02  0.1194248E+00
          2   -1    0    0  501    0  0.00000000000E+00  0.00000000000E+00  0.29196186220E+03  0.29196186220E+03  0.00000000000E+00 0. -1.
         -2   -1    0    0    0  501 -0.00000000000E+00 -0.00000000000E+00 -0.94940311268E+02  0.94940311268E+02  0.00000000000E+00 0.  1.
          5    1    1    2  502    0  0.18507038847E+02 -0.33276342536E+02 -0.41594690476E+01  0.38530494965E+02  0.41800000000E+01 0.  1.
         -5    1    1    2    0  502  0.10148382954E+03  0.68170055645E+02  0.13017321728E+03  0.17862996121E+03  0.41800000000E+01 0.  1.
        -11    1    1    2    0    0 -0.58358658601E+02 -0.59522882287E+02  0.59413827818E+02  0.10236556787E+03  0.00000000000E+00 0.  1.
         11    1    1    2    0    0 -0.61632209789E+02  0.24629169178E+02  0.11593974887E+02  0.67376149426E+02  0.00000000000E+00 0. -1.
</event>
<event>
 7    1  0.2900135E-009  0.1415436E+03  0.7561462E-02  0.1211267E+00
          2   -1    0    0  501    0  0.00000000000E+00  0.00000000000E+00  0.14032507248E+04  0.14032507248E+04  0.00000000000E+00 0.  1.
         -2   -1    0    0    0  501 -0.00000000000E+00 -0.00000000000E+00 -0.19031851767E+02  0.19031851767E+02  0.00000000000E+00 0. -1.
         25    2    1    2    0    0  0.99976770101E+02 -0.37985005338E+02  0.99612317182E+03  0.10096269030E+04  0.12508754752E+03 0.  0.
          5    1    3    3  502    0 -0.17450650697E+02 -0.43081282873E+02  0.31097537724E+03  0.31445775518E+03  0.41800000000E+01 0. -1.
         -5    1    3    3    0  502  0.11742742080E+03  0.50962775349E+01  0.68514779457E+03  0.69516914777E+03  0.41800000000E+01 0. -1.
        -11    1    1    2    0    0 -0.65675935560E+02  0.49913046098E+02  0.35168698704E+03  0.36123175046E+03  0.00000000000E+00 0.  1.
         11    1    1    2    0    0 -0.34300834541E+02 -0.11928040760E+02  0.36408714219E+02  0.51423923203E+02  0.00000000000E+00 0. -1.
</event>
<event>
 7    1  0.2900135E-009  0.1275196E+03  0.7561462E-02  0.1231183E+00
          1   -1    0    0  501    0  0.00000000000E+00  0.00000000000E+00  0.14075344708E+03  0.14075344708E+03  0.00000000000E+00 0. -1.
         -1   -1    0    0    0  501 -0.00000000000E+00 -0.00000000000E+00 -0.13478074357E+03  0.13478074357E+03  0.00000000000E+00 0.  1.
         25    2    1    2    0    0  0.80537449741E+02 -0.13788090925E+02  0.33185874849E+02  0.15305283977E+03  0.12508987653E+03 0.  0.
          5    1    3    3  502    0  0.65878393278E+02 -0.66680418440E+02  0.14615150774E+02  0.94959548948E+02  0.41800000000E+01 0.  1.
         -5    1    3    3    0  502  0.14659056463E+02  0.52892327514E+02  0.18570724075E+02  0.58093290826E+02  0.41800000000E+01 0.  1.
        -11    1    1    2    0    0 -0.21906239729E+02  0.37088268269E+02  0.16065188778E+02  0.45972962409E+02  0.00000000000E+00 0.  1.
         11    1    1    2    0    0 -0.58631210012E+02 -0.23300177343E+02 -0.43278360120E+02  0.76508388471E+02  0.00000000000E+00 0. -1.
</event>
<event>
 7    1  0.2900135E-009  0.1462171E+03  0.7561462E-02  0.1205200E+00
          3   -1    0    0  501    0  0.00000000000E+00  0.00000000000E+00  0.46966649487E+02  0.46966649487E+02  0.00000000000E+00 0. -1.
         -3   -1    0    0    0  501 -0.00000000000E+00 -0.00000000000E+00 -0.46612288679E+03  0.46612288679E+03  0.00000000000E+00 0.  1.
         25    2    1    2    0    0 -0.62674952035E+02 -0.76612595712E+02 -0.21718397199E+03  0.26946802689E+03  0.12508597201E+03 0.  0.
          5    1    3    3  502    0 -0.36508178266E+02  0.30916321818E+02 -0.78042077721E+02  0.91633532782E+02  0.41800000000E+01 0.  1.
         -5    1    3    3    0  502 -0.26166773770E+02 -0.10752891753E+03 -0.13914189427E+03  0.17783449411E+03  0.41800000000E+01 0.  1.
        -11    1    1    2    0    0  0.69395453079E+02  0.92951680764E+02 -0.15622729491E+03  0.19458343079E+03  0.00000000000E+00 0.  1.
         11    1    1    2    0    0 -0.67205010441E+01 -0.16339085052E+02 -0.45744970404E+02  0.49038078591E+02  0.00000000000E+00 0. -1.
</event>
<event>
 7    1  0.2900135E-009  0.2278956E+03  0.7561462E-02  0.1128130E+00
          2   -1    0    0  501    0  0.00000000000E+00  0.00000000000E+00  0.77788840848E+03  0.77788840848E+03  0.00000000000E+00 0. -1.
         -2   -1    0    0    0  501 -0.00000000000E+00 -0.00000000000E+00 -0.11352235214E+03  0.11352235214E+03  0.00000000000E+00 0.  1.
         25    2    1    2    0    0  0.66204067729E+02  0.19417780026E+03  0.61675739095E+03  0.66190908931E+03  0.12508383799E+03 0.  0.
          5    1    3    3  502    0 -0.30378772175E+02  0.19033070085E+02  0.56883904132E+02  0.67367488486E+02  0.41800000000E+01 0.  1.
         -5    1    3    3    0  502  0.96582839904E+02  0.17514473017E+03  0.55987348681E+03  0.59454160082E+03  0.41800000000E+01 0.  1.
        -11    1    1    2    0    0 -0.82879968325E+02 -0.13731598501E+03  0.13086809820E+02  0.16092244555E+03  0.00000000000E+00 0.  1.
         11    1    1    2    0    0  0.16675900595E+02 -0.56861815244E+02  0.34521855573E+02  0.68579225759E+02  0.00000000000E+00 0. -1.
</event>
<event>
 7    1  0.2900135E-009  0.1089089E+03  0.7561462E-02  0.1262604E+00
         -2   -1    0    0    0  501 -0.00000000000E+00  0.00000000000E+00  0.53431782668E+02  0.53431782668E+02  0.00000000000E+00 0.  1.
          2   -1    0    0  501    0  0.00000000000E+00 -0.00000000000E+00 -0.30266293099E+03  0.30266293099E+03  0.00000000000E+00 0. -1.
         25    2    1    2    0    0  0.72147195754E+01  0.63130854272E+02 -0.15522638455E+03  0.20923962514E+03  0.12509369819E+03 0.  0.
          5    1    3    3  502    0  0.39091774749E+02  0.79618506170E+02 -0.14769370960E+03  0.17233159209E+03  0.41800000000E+01 0. -1.
         -5    1    3    3    0  502 -0.31877055173E+02 -0.16487651898E+02 -0.75326749547E+01  0.36908033050E+02  0.41800000000E+01 0. -1.
        -11    1    1    2    0    0  0.22494407376E+02  0.67771231535E+00 -0.68317084169E+02  0.71928309076E+02  0.00000000000E+00 0. -1.
         11    1    1    2    0    0 -0.29709126951E+02 -0.63808566587E+02 -0.25687679601E+02  0.74926779441E+02  0.00000000000E+00 0.  1.
</event>
<event>
 7    1  0.2900135E-009  0.1398222E+03  0.7561462E-02  0.1213568E+00
         -1   -1    0    0    0  501 -0.00000000000E+00  0.00000000000E+00  0.15288921784E+02  0.15288921784E+02  0.00000000000E+00 0.  1.
          1   -1    0    0  501    0  0.00000000000E+00 -0.00000000000E+00 -0.25540128741E+04  0.25540128741E+04  0.00000000000E+00 0. -1.
         25    2    1    2    0    0  0.68958681775E+02 -0.10248562056E+03 -0.20422036016E+04  0.20497565581E+04  0.12509114674E+03 0.  0.
          5    1    3    3  502    0 -0.14426790229E+02 -0.50361204422E+02 -0.12991548608E+04  0.13002173695E+04  0.41800000000E+01 0. -1.
         -5    1    3    3    0  502  0.83385472004E+02 -0.52124416142E+02 -0.74304874080E+03  0.74953918864E+03  0.41800000000E+01 0. -1.
        -11    1    1    2    0    0 -0.49988911222E+01  0.36237216579E+02 -0.41588006021E+02  0.55386704385E+02  0.00000000000E+00 0.  1.
         11    1    1    2    0    0 -0.63959790653E+02  0.66248403985E+02 -0.45493234469E+03  0.46415853337E+03  0.00000000000E+00 0. -1.
</event>
<event>
 7    1  0.2900135E-009  0.2296248E+03  0.7561462E-02  0.1126904E+00
         -2   -1    0    0    0  501 -0.00000000000E+00  0.00000000000E+00  0.69765009181E+02  0.69765009181E+02  0.00000000000E+00 0.  1.
          2   -1    0    0  501    0  0.00000000000E+00 -0.00000000000E+00 -0.84693690367E+03  0.84693690367E+03  0.00000000000E+00 0. -1.
         25    2    1    2    0    0  0.17658068747E+03 -0.12190323356E+03 -0.42832356760E+03  0.49512619613E+03  0.12509090293E+03 0.  0.
          5    1    3    3  502    0  0.11696948115E+03 -0.44033811540E+02 -0.12706461580E+03  0.17827990652E+03  0.41800000000E+01 0.  1.
         -5    1    3    3    0  502  0.59611206319E+02 -0.77869422016E+02 -0.30125895179E+03  0.31684628961E+03  0.41800000000E+01 0.  1.
        -11    1    1    2    0    0 -0.85466840346E+02  0.11687103552E+03 -0.19834267221E+03  0.24556717078E+03  0.00000000000E+00 0.  1.
         11    1    1    2    0    0 -0.91113847124E+02  0.50321980326E+01 -0.15050565468E+03  0.17600854595E+03  0.00000000000E+00 0. -1.
</event>
<event>
 7    1  0.2900135E-009  0.1511015E+03  0.7561462E-02  0.1199126E+00
          2   -1    0    0  501    0  0.00000000000E+00  0.00000000000E+00  0.12617404067E+04  0.12617404067E+04  0.00000000000E+00 0. -1.
         -2   -1    0    0    0  501 -0.00000000000E+00 -0.00000000000E+00 -0.45077278994E+02  0.45077278994E+02  0.00000000000E+00 0.  1.
         25    2    1    2    0    0 -0.12216945818E+03 -0.19408685289E+02  0.10977678109E+04  0.11117750451E+04  0.12509001045E+03 0.  0.
          5    1    3    3  502    0 -0.13203526745E+03 -0.51373033327E+02  0.91718523020E+03  0.92807258299E+03  0.41800000000E+01 0. -1.
         -5    1    3    3    0  502  0.98658092624E+01  0.31964348038E+02  0.18058258072E+03  0.18370246214E+03  0.41800000000E+01 0. -1.
        -11    1    1    2    0    0  0.27627413283E+02  0.16469176842E+02  0.90864105554E+02  0.96388761942E+02  0.00000000000E+00 0. -1.
         11    1    1    2    0    0  0.94542044900E+02  0.29395084468E+01  0.28031211237E+02  0.98653878622E+02  0.00000000000E+00 0.  1.
</event>
<event>
 7    1  0.2900135E-009  0.1359445E+03  0.7561462E-02  0.1218893E+00
          2   -1    0    0  501    0  0.00000000000E+00  0.00000000000E+00  0.12143409997E+03  0.12143409997E+03  0.00000000000E+00 0. -1.
         -2   -1    0    0    0  501 -0.00000000000E+00 -0.00000000000E+00 -0.23418578914E+03  0.23418578914E+03  0.00000000000E+00 0.  1.
         25    2    1    2    0    0  0.10155546942E+03 -0.53159315377E+02 -0.12232788441E+03  0.20916297854E+03  0.12508242924E+03 0.  0.
          5    1    3    3  502    0  0.24422558392E+01 -0.39293408705E+02  0.12211494256E+02  0.41431021870E+02  0.41800000000E+01 0. -1.
         -5    1    3    3    0  502  0.99113213586E+02 -0.13865906673E+02 -0.13453937867E+03  0.16773195667E+03  0.41800000000E+01 0. -1.
        -11    1    1    2    0    0 -0.88051296794E+02  0.12061991725E+02 -0.23585023314E+02  0.91949855009E+02  0.00000000000E+00 0.  1.
         11    1    1    2    0    0 -0.13504172631E+02  0.41097323653E+02  0.33161218552E+02  0.54507055559E+02  0.00000000000E+00 0. -1.
</event>
<event>
 7    1  0.2900135E-009  0.1486138E+03  0.7561462E-02  0.1202187E+00
          1   -1    0    0  501    0  0.00000000000E+00  0.00000000000E+00  0.33422273222E+03  0.33422273222E+03  0.00000000000E+00 0. -1.
         -1   -1    0    0    0  501 -0.00000000000E+00 -0.00000000000E+00 -0.80188659554E+02  0.80188659554E+02  0.00000000000E+00 0.  1.
         25    2    1    2    0    0 -0.35244376135E+01  0.11950657987E+03  0.16606312547E+03  0.23983106920E+03  0.12509091023E+03 0.  0.
          5    1    3    3  502    0  0.16129481135E+02  0.13888906695E+03  0.11281599013E+03  0.17970880087E+03  0.41800000000E+01 0. -1.
         -5    1    3    3    0  502 -0.19653918748E+02 -0.19382487088E+02  0.53247135335E+02  0.60122268331E+02  0.41800000000E+01 0. -1.
        -11    1    1    2    0    0  0.19478428741E+02 -0.17523415356E+02  0.63215102448E+02  0.68429733664E+02  0.00000000000E+00 0. -1.
         11    1    1    2    0    0 -0.15953991127E+02 -0.10198316451E+03  0.24755844752E+02  0.10615058891E+03  0.00000000000E+00 0.  1.
</event>
<event>
 6    1  0.4466896E-009  0.1542164E+03  0.7561462E-02  0.1195386E+00
          1   -1    0    0  501    0  0.00000000000E+00  0.00000000000E+00  0.59052945674E+03  0.59052945674E+03  0.00000000000E+00 0. -1.
         -1   -1    0    0    0  501 -0.00000000000E+00 -0.00000000000E+00 -0.45622303424E+02  0.45622303424E+02  0.00000000000E+00 0.  1.
          5    1    1    2  502    0 -0.12872431259E+03 -0.75921519300E+01  0.18720925727E+03  0.22735955627E+03  0.41800000000E+01 0. -1.
         -5    1    1    2    0  502  0.11529696859E+02  0.42619078302E+02  0.91567184585E+02  0.10174154234E+03  0.41800000000E+01 0. -1.
        -11    1    1    2    0    0  0.48808470251E+02  0.14171194205E+02  0.36834738170E+02  0.62768522760E+02  0.00000000000E+00 0.  1.
         11    1    1    2    0    0  0.68386145482E+02 -0.49198120578E+02  0.22929597330E+03  0.24428213879E+03  0.00000000000E+00 0. -1.
</event>
<event>
 7    1  0.2900135E-009  0.8869740E+02  0.7561462E-02  0.1306037E+00
         -1   -1    0    0    0  501 -0.00000000000E+00  0.00000000000E+00  0.51846302852E+02  0.51846302852E+02  0.00000000000E+00 0.  1.
          1   -1    0    0  501    0  0.00000000000E+00 -0.00000000000E+00 -0.25376014114E+03  0.25376014114E+03  0.00000000000E+00 0. -1.
         25    2    1    2    0    0 -0.20306934675E+01 -0.31405677366E+02 -0.14285981695E+03  0.19247799916E+03  0.12509361524E+03 0.  0.
          5    1    3    3  502    0  0.32335376329E+02  0.32932797650E+02 -0.93354850993E+02  0.10422449965E+03  0.41800000000E+01 0.  1.
         -5    1    3    3    0  502 -0.34366069796E+02 -0.64338475016E+02 -0.49504965956E+02  0.88253499505E+02  0.41800000000E+01 0.  1.
        -11    1    1    2    0    0 -0.48429114507E+01 -0.12575678079E+02 -0.66624805944E+02  0.67974011486E+02  0.00000000000E+00 0. -1.
         11    1    1    2    0    0  0.68736049181E+01  0.43981355445E+02  0.75707846076E+01  0.45154433348E+02  0.00000000000E+00 0.  1.
</event>
<event>
 7    1  0.2900135E-009  0.1023884E+03  0.7561462E-02  0.1275352E+00
         -4   -1    0    0    0  501 -0.00000000000E+00  0.00000000000E+00  0.14240716885E+03  0.14240716885E+03  0.00000000000E+00 0.  1.
          4   -1    0    0  501    0  0.00000000000E+00 -0.00000000000E+00 -0.99334196030E+02  0.99334196030E+02  0.00000000000E+00 0. -1.
         25    2    1    2    0    0 -0.16417156320E+02 -0.13079624068E+02  0.62781474431E+02  0.14152519319E+03  0.12508903704E+03 0.  0.
          5    1    3    3  502    0 -0.20063006500E+02 -0.58409051691E+02 -0.23898585709E+01  0.61946148978E+02  0.41800000000E+01 0. -1.
         -5    1    3    3    0  502  0.36458501803E+01  0.45329427623E+02  0.65171333002E+02  0.79579044211E+02  0.41800000000E+01 0. -1.
        -11    1    1    2    0    0  0.43696778192E+02  0.39740262495E+02 -0.19067920075E+02  0.62066758120E+02  0.00000000000E+00 0. -1.
         11    1    1    2    0    0 -0.27279621872E+02 -0.26660638427E+02 -0.64058154002E+00  0.38149413568E+02  0.00000000000E+00 0.  1.
</event>
<event>
 7    1  0.2900135E-009  0.9211831E+02  0.7561462E-02  0.1297801E+00
          1   -1    0    0  501    0  0.00000000000E+00  0.00000000000E+00  0.56068281007E+02  0.56068281007E+02  0.00000000000E+00 0. -1.
         -1   -1    0    0    0  501 -0.00000000000E+00 -0.00000000000E+00 -0.36284272811E+03  0.36284272811E+03  0.00000000000E+00 0.  1.
         25    2    1    2    0    0 -0.51314352514E+02  0.27156794656E+02 -0.27258850891E+03  0.30549341011E+03  0.12510425318E+03 0.  0.
          5    1    3    3  502    0 -0.43007203621E+02  0.54132171590E+02 -0.26773636962E+03  0.27655044311E+03  0.41800000000E+01 0.  1.
         -5    1    3    3    0  502 -0.83071488924E+01 -0.26975376934E+02 -0.48521392837E+01  0.28942967005E+02  0.41800000000E+01 0.  1.
        -11    1    1    2    0    0  0.55083156771E+02  0.38383119184E+01  0.13103494386E+02  0.56750227871E+02  0.00000000000E+00 0. -1.
         11    1    1    2    0    0 -0.37688042578E+01 -0.30995106574E+02 -0.47289432579E+02  0.56667371129E+02  0.00000000000E+00 0.  1.
</event>
<event>
 7    1  0.2900135E-009  0.8989798E+02  0.7561462E-02  0.1303099E+00
         -3   -1    0    0    0  501 -0.00000000000E+00  0.00000000000E+00  0.53095471512E+02  0.53095471512E+02  0.00000000000E+00 0.  1.
          3   -1    0    0  501    0  0.00000000000E+00 -0.00000000000E+00 -0.24788871554E+03  0.24788871554E+03  0.00000000000E+00 0. -1.
         25    2    1    2    0    0 -0.24712329940E+02  0.13802676411E+02 -0.80775519698E+02  0.15157694915E+03  0.12509865628E+03 0.  0.
          5    1    3    3  502    0  0.37450494362E+02  0.10267483306E+02  0.11017307760E+02  0.40580958733E+02  0.41800000000E+01 0.  1.
         -5    1    3    3    0  502 -0.62162824302E+02  0.35351931055E+01 -0.91792827457E+02  0.11099599041E+03  0.41800000000E+01 0.  1.
        -11    1    1    2    0    0 -0.76728597170E+01  0.25950374091E+02 -0.31335664239E+01  0.27241768118E+02  0.00000000000E+00 0.  1.
         11    1    1    2    0    0  0.32385189658E+02 -0.39753050502E+02 -0.11088415790E+03  0.12216546978E+03  0.00000000000E+00 0. -1.
</event>
<event>
 7    1  0.2900135E-009  0.2868393E+03  0.7561462E-02  0.1092011E+00
         -1   -1    0    0    0  501 -0.00000000000E+00  0.00000000000E+00  0.31962445408E+03  0.31962445408E+03  0.00000000000E+00 0.  1.
          1   -1    0    0  501    0  0.00000000000E+00 -0.00000000000E+00 -0.32984421388E+03  0.32984421388E+03  0.00000000000E+00 0. -1.
         25    2    1    2    0    0  0.20123622941E+03  0.20090969079E+03  0.10865299752E+03  0.32911072667E+03  0.12509065774E+03 0.  0.
          5    1    3    3  502    0  0.12798691348E+03  0.15707490968E+03  0.13031647876E+03  0.24094197292E+03  0.41800000000E+01 0.  1.
         -5    1    3    3    0  502  0.73249315928E+02  0.43834781112E+02 -0.21663481240E+02  0.88168753754E+02  0.41800000000E+01 0.  1.
        -11    1    1    2    0    0 -0.12367890707E+02 -0.47492586468E+01  0.12324886478E+02  0.18094833653E+02  0.00000000000E+00 0.  1.
         11    1    1    2    0    0 -0.18886833871E+03 -0.19616043215E+03 -0.13119764380E+03  0.30226310765E+03  0.00000000000E+00 0. -1.
</event>
<event>
 7    1  0.4129053E-009  0.1097171E+03  0.7561462E-02  0.1261095E+00
          2   -1    0    0  501    0  0.00000000000E+00  0.00000000000E+00  0.71322854404E+03  0.71322854404E+03  0.00000000000E+00 0. -1.
         -2   -1    0    0    0  501 -0.00000000000E+00 -0.00000000000E+00 -0.18931169272E+02  0.18931169272E+02  0.00000000000E+00 0.  1.
         25    2    1    2    0    0  0.24724759912E+02 -0.12960199347E+02  0.29609510891E+03  0.32264325248E+03  0.12508826617E+03 0.  0.
          5    1    3    3  502    0  0.72544322398E+02 -0.20830319623E+02  0.21698407418E+03  0.22977411033E+03  0.41800000000E+01 0.  1.
         -5    1    3    3    0  502 -0.47819562486E+02  0.78701202753E+01  0.79111034728E+02  0.92869142159E+02  0.41800000000E+01 0.  1.
        -11    1    1    2    0    0 -0.23091811016E+02 -0.37863886728E+02  0.20420179890E+03  0.20896238974E+03  0.00000000000E+00 0.  1.
         11    1    1    2    0    0 -0.16329488961E+01  0.50824086075E+02  0.19400046696E+03  0.20055407108E+03  0.00000000000E+00 0. -1.
</event>
<event>
 7    1  0.2900135E-009  0.1590396E+03  0.7561462E-02  0.1189785E+00
         -1   -1    0    0    0  501 -0.00000000000E+00  0.00000000000E+00  0.29404848477E+03  0.29404848477E+03  0.00000000000E+00 0.  1.
          1   -1    0    0  501    0  0.00000000000E+00 -0.00000000000E+00 -0.10006375298E+03  0.10006375298E+03  0.00000000000E+00 0. -1.
         25    2    1    2    0    0  0.12021058877E+03  0.54791678327E+02  0.91205624263E+02  0.20350810442E+03  0.12507745201E+03 0.  0.
          5    1    3    3  502    0  0.13849757171E+03  0.71846239972E+02  0.83492963812E+02  0.17700849407E+03  0.41800000000E+01 0.  1.
         -5    1    3    3    0  502 -0.18286982934E+02 -0.17054561644E+02  0.77126604509E+01  0.26499610355E+02  0.41800000000E+01 0.  1.
        -11    1    1    2    0    0 -0.70149604005E+02 -0.12803275924E+02  0.10298780598E+03  0.12526523459E+03  0.00000000000E+00 0.  1.
         11    1    1    2    0    0 -0.50060984768E+02 -0.41988402403E+02 -0.20869845060E+00  0.65338898731E+02  0.00000000000E+00 0. -1.
</event>
<event>
 7    1  0.2900135E-009  0.1005156E+03  0.7561462E-02  0.1279215E+00
         -2   -1    0    0    0  501 -0.00000000000E+00  0.00000000000E+00  0.19873832008E+03  0.19873832008E+03  0.00000000000E+00 0.  1.
          2   -1    0    0  501    0  0.00000000000E+00 -0.00000000000E+00 -0.10414628814E+03  0.10414628814E+03  0.00000000000E+00 0. -1.
         25    2    1    2    0    0  0.39712403266E+02 -0.35282147240E+02  0.13570237909E+03  0.19205715743E+03  0.12509560800E+03 0.  0.
          5    1    3    3  502    0  0.32069360816E+02  0.29703822095E+02  0.11531596311E+03  0.12339369797E+03  0.41800000000E+01 0.  1.
         -5    1    3    3    0  502  0.76430424495E+01 -0.64985969335E+02  0.20386415981E+02  0.68663459459E+02  0.41800000000E+01 0.  1.
        -11    1    1    2    0    0 -0.24767516391E+02  0.58734436198E+02 -0.32162712257E+01  0.63824041428E+02  0.00000000000E+00 0.  1.
         11    1    1    2    0    0 -0.14944886875E+02 -0.23452288957E+02 -0.37894075931E+02  0.47003409363E+02  0.00000000000E+00 0. -1.
</event>
<event>
 7    1  0.2900135E-009  0.1173631E+03  0.7561462E-02  0.1247512E+00
          4   -1    0    0  501    0  0.00000000000E+00  0.00000000000E+00  0.22930799180E+03  0.22930799180E+03  0.00000000000E+00 0.  1.
         -4   -1    0    0    0  501 -0.00000000000E+00 -0.00000000000E+00 -0.91796006103E+02  0.91796006103E+02  0.00000000000E+00 0. -1.
         25    2    1    2    0    0  0.29756941874E+02  0.91640063659E+02  0.79937248153E+02  0.17697721524E+03  0.12509034422E+03 0.  0.
          5    1    3    3  502    0 -0.88081396510E+01  0.62587663329E+02  0.10483982942E+03  0.12248943284E+03  0.41800000000E+01 0. -1.
         -5    1    3    3    0  502  0.38565081525E+02  0.29052400330E+02 -0.24902581263E+02  0.54487782406E+02  0.41800000000E+01 0. -1.
        -11    1    1    2    0    0 -0.47580464744E+02 -0.93589155749E+02  0.66315802393E+02  0.12417977430E+03  0.00000000000E+00 0.  1.
         11    1    1    2    0    0  0.17823522870E+02  0.19490920902E+01 -0.87410648525E+01  0.19947008353E+02  0.00000000000E+00 0. -1.
</event>
<event>
 7    1  0.2900135E-009  0.1197315E+03  0.7561462E-02  0.1243541E+00
          1   -1    0    0  501    0  0.00000000000E+00  0.00000000000E+00  0.63242917919E+03  0.63242917919E+03  0.00000000000E+00 0. -1.
         -1   -1    0    0    0  501 -0.00000000000E+00 -0.00000000000E+00 -0.29153165251E+02  0.29153165251E+02  0.00000000000E+00 0.  1.
         25    2    1    2    0    0 -0.67146364781E+02  0.15775936526E+02  0.43594838441E+03  0.45875494136E+03  0.12509031886E+03 0.  0.
          5    1    3    3  502    0 -0.93356170940E+02 -0.47604462882E+01  0.20455244865E+03  0.22493824297E+03  0.41800000000E+01 0. -1.
         -5    1    3    3    0  502  0.26209806159E+02  0.20536382815E+02  0.23139593576E+03  0.23381669839E+03  0.41800000000E+01 0. -1.
        -11    1    1    2    0    0  0.35433944270E+02  0.36703422678E+02  0.56173970520E+02  0.75882940156E+02  0.00000000000E+00 0.  1.
         11    1    1    2    0    0  0.31712420511E+02 -0.52479359204E+02  0.11115365900E+03  0.12694446292E+03  0.00000000000E+00 0. -1.
</event>
<event>
 6    1  0.2900135E-009  0.1213965E+03  0.7561462E-02  0.1240811E+00
         -2   -1    0    0    0  501 -0.00000000000E+00  0.00000000000E+00  0.26970943166E+03  0.26970943166E+03  0.00000000000E+00 0.  1.
          2   -1    0    0  501    0  0.00000000000E+00 -0.00000000000E+00 -0.61075970235E+02  0.61075970235E+02  0.00000000000E+00 0. -1.
          5    1    1    2  502    0 -0.78338322096E+02 -0.46433070097E+02  0.51004772487E+02  0.10445995368E+03  0.41800000000E+01 0.  1.
         -5    1    1    2    0  502  0.47092793367E+02 -0.59351659457E+01  0.23256357390E+02  0.53021579955E+02  0.41800000000E+01 0.  1.
        -11    1    1    2    0    0  0.25113009745E+02  0.75752932119E+02  0.12291411853E+03  0.14655050500E+03  0.00000000000E+00 0.  1.
         11    1    1    2    0    0  0.61325189844E+01 -0.23384696076E+02  0.11458213018E+02  0.26753363251E+02  0.00000000000E+00 0. -1.
</event>
<event>
 7    1  0.2900135E-009  0.1567231E+03  0.7561462E-02  0.1192447E+00
         -1   -1    0    0    0  501 -0.00000000000E+00  0.00000000000E+00  0.91806194009E+02  0.91806194009E+02  0.00000000000E+00 0.  1.
          1   -1    0    0  501    0  0.00000000000E+00 -0.00000000000E+00 -0.31764387053E+03  0.31764387053E+03  0.00000000000E+00 0. -1.
         25    2    1    2    0    0 -0.46017111424E+02 -0.12467739319E+03 -0.12518552300E+03  0.22131946899E+03  0.12509542465E+03 0.  0.
          5    1    3    3  502    0  0.32580939860E+02 -0.77155138468E+02 -0.89629408306E+02  0.12274093151E+03  0.41800000000E+01 0. -1.
         -5    1    3    3    0  502 -0.78598051284E+02 -0.47522254719E+02 -0.35556114692E+02  0.98578537477E+02  0.41800000000E+01 0. -1.
        -11    1    1    2    0    0 -0.32480037733E+01  0.36469785451E+02 -0.75658191271E+02  0.84052106968E+02  0.00000000000E+00 0. -1.
         11    1    1    2    0    0  0.49265115197E+02  0.88207607736E+02 -0.24993962257E+02  0.10407848859E+03  0.00000000000E+00 0.  1.
</event>
<event>
 7    1  0.2900135E-009  0.1914973E+03  0.7561462E-02  0.1157118E+00
         -3   -1    0    0    0  501 -0.00000000000E+00  0.00000000000E+00  0.22269678578E+03  0.22269678578E+03  0.00000000000E+00 0.  1.
          3   -1    0    0  501    0  0.00000000000E+00 -0.00000000000E+00 -0.17360185962E+03  0.17360185962E+03  0.00000000000E+00 0. -1.
         25    2    1    2    0    0  0.16344462649E+03  0.23320363799E+01  0.31764647850E+02  0.20826828174E+03  0.12508836878E+03 0.  0.
          5    1    3    3  502    0  0.62381005057E+02  0.58711593727E+02  0.34472361543E+02  0.92435150999E+02  0.41800000000E+01 0.  1.
         -5    1    3    3    0  502  0.10106362143E+03 -0.56379557347E+02 -0.27077136931E+01  0.11583313074E+03  0.41800000000E+01 0.  1.
        -11    1    1    2    0    0 -0.10241316088E+03 -0.39728604537E+02  0.33117120019E+02  0.11473256372E+03  0.00000000000E+00 0. -1.
         11    1    1    2    0    0 -0.61031465616E+02  0.37396568157E+02 -0.15786841710E+02  0.73297799942E+02  0.00000000000E+00 0.  1.
</event>
<event>
 7    1  0.2900135E-009  0.1006478E+03  0.7561462E-02  0.1278939E+00
         -2   -1    0    0    0  501 -0.00000000000E+00  0.00000000000E+00  0.17178755444E+02  0.17178755444E+02  0.00000000000E+00 0.  1.
          2   -1    0    0  501    0  0.00000000000E+00 -0.00000000000E+00 -0.91702203435E+03  0.91702203435E+03  0.00000000000E+00 0. -1.
         25    2    1    2    0    0 -0.38854898978E+02  0.45333145374E+02 -0.57795932832E+03  0.59434993540E+03  0.12510021294E+03 0.  0.
          5    1    3    3  502    0 -0.59762284609E+02  0.41087651662E+02 -0.56367614835E+03  0.56833792623E+03  0.41800000000E+01 0.  1.
         -5    1    3    3    0  502  0.20907385631E+02  0.42454937122E+01 -0.14283179968E+02  0.26012009165E+02  0.41800000000E+01 0.  1.
        -11    1    1    2    0    0  0.46006523312E+02 -0.68584152643E+02 -0.21702768746E+03  0.23220982603E+03  0.00000000000E+00 0. -1.
         11    1    1    2    0    0 -0.71516243345E+01  0.23251007269E+02 -0.10485626313E+03  0.10764102837E+03  0.00000000000E+00 0.  1.
</event>
<event>
 7    1  0.2900135E-009  0.8578369E+02  0.7561462E-02  0.1313396E+00
         -2   -1    0    0    0  501 -0.00000000000E+00  0.00000000000E+00  0.18631723471E+03  0.18631723471E+03  0.00000000000E+00 0.  1.
          2   -1    0    0  501    0  0.00000000000E+00 -0.00000000000E+00 -0.67224700442E+02  0.67224700442E+02  0.00000000000E+00 0. -1.
         25    2    1    2    0    0 -0.26676264242E+02  0.98827790511E+01  0.61235978869E+02  0.14214959149E+03  0.12508944343E+03 0.  0.
          5    1    3    3  502    0  0.97789686531E+01 -0.46994352205E+02  0.56561429519E+02  0.74301851096E+02  0.41800000000E+01 0.  1.
         -5    1    3    3    0  502 -0.36455232895E+02  0.56877131256E+02  0.46745493498E+01  0.67847740397E+02  0.41800000000E+01 0.  1.
        -11    1    1    2    0    0 -0.52854423052E+01  0.14541729097E+02 -0.19085642117E+02  0.24569483521E+02  0.00000000000E+00 0. -1.
         11    1    1    2    0    0  0.31961706548E+02 -0.24424508148E+02  0.76942197521E+02  0.86822860141E+02  0.00000000000E+00 0.  1.
</event>
<event>
 7    1  0.2900135E-009  0.1568073E+03  0.7561462E-02  0.1192349E+00
         -4   -1    0    0    0  501 -0.00000000000E+00  0.00000000000E+00  0.39857739532E+03  0.39857739532E+03  0.00000000000E+00 0.  1.
          4   -1    0    0  501    0  0.00000000000E+00 -0.00000000000E+00 -0.77706294444E+02  0.77706294444E+02  0.00000000000E+00 0. -1.
         25    2    1    2    0    0  0.96802330173E+01 -0.13081743510E+03  0.11145459070E+03  0.21278359791E+03  0.12509126873E+03 0.  0.
          5    1    3    3  502    0  0.64694830766E+02 -0.94040664043E+02  0.61197210538E+02  0.12958255515E+03  0.41800000000E+01 0.  1.
         -5    1    3    3    0  502 -0.55014597749E+02 -0.36776771058E+02  0.50257380166E+02  0.83201042759E+02  0.41800000000E+01 0.  1.
        -11    1    1    2    0    0 -0.16836388028E+02  0.10278993699E+03  0.21016868563E+03  0.23456366199E+03  0.00000000000E+00 0.  1.
         11    1    1    2    0    0  0.71561550110E+01  0.28027498115E+02 -0.75217546189E+00  0.28936429860E+02  0.00000000000E+00 0. -1.
</event>
<event>
 7    1  0.2900135E-009  0.1010069E+03  0.7561462E-02  0.1278193E+00
         -4   -1    0    0    0  501 -0.00000000000E+00  0.00000000000E+00  0.48503936396E+03  0.48503936396E+03  0.00000000000E+00 0.  1.
          4   -1    0    0  501    0  0.00000000000E+00 -0.00000000000E+00 -0.39556577053E+02  0.39556577053E+02  0.00000000000E+00 0. -1.
         25    2    1    2    0    0  0.72529222488E+02 -0.32235063554E+02  0.28403080437E+03  0.32034572441E+03  0.12509315679E+03 0.  0.
          5    1    3    3  502    0  0.36957223093E+02  0.11759305516E+02  0.25239317433E+03  0.25538971094E+03  0.41800000000E+01 0.  1.
         -5    1    3    3    0  502  0.35571999394E+02 -0.43994369071E+02  0.31637630038E+02  0.64956013465E+02  0.41800000000E+01 0.  1.
        -11    1    1    2    0    0 -0.40992413680E+01 -0.19856180046E+02 -0.11481556735E+01  0.20307386028E+02  0.00000000000E+00 0. -1.
         11    1    1    2    0    0 -0.68429981120E+02  0.52091243601E+02  0.16260013821E+03  0.18394283058E+03  0.00000000000E+00 0.  1.
</event>
<event>
 7    1  0.2900135E-009  0.1453331E+03  0.7561462E-02  0.1206328E+00
          2   -1    0    0  501    0  0.00000000000E+00  0.00000000000E+00  0.43575005441E+03  0.43575005441E+03  0.00000000000E+00 0.  1.
         -2   -1    0    0    0  501 -0.00000000000E+00 -0.00000000000E+00 -0.50793363991E+02  0.50793363991E+02  0.00000000000E+00 0. -1.
         25    2    1    2    0    0  0.56889872068E+02 -0.77801905722E+02  0.16475058286E+03  0.22821087903E+03  0.12509139330E+03 0.  0.
          5    1    3    3  502    0  0.54348975936E+02 -0.11118886804E+03  0.12311177875E+03  0.17461603027E+03  0.41800000000E+01 0.  1.
         -5    1    3    3    0  502  0.25408961325E+01  0.33386962317E+02  0.41638804113E+02  0.53594848763E+02  0.41800000000E+01 0.  1.
        -11    1    1    2    0    0 -0.66899392889E+01 -0.21123526960E+02  0.55419741658E+02  0.59685060479E+02  0.00000000000E+00 0.  1.
         11    1    1    2    0    0 -0.50199932779E+02  0.98925432683E+02  0.16478636590E+03  0.19864747889E+03  0.00000000000E+00 0. -1.
</event>
<event>
 6    1  0.2900135E-009  0.1153923E+03  0.7561462E-02  0.1250898E+00
          2   -1    0    0  501    0  0.00000000000E+00  0.00000000000E+00  0.69971160576E+03  0.69971160576E+03  0.00000000000E+00 0.  1.
         -2   -1    0    0    0  501 -0.00000000000E+00 -0.00000000000E+00 -0.27741338556E+02  0.27741338556E+02  0.00000000000E+00 0. -1.
          5    1    1    2  502    0  0.32471537564E+02 -0.16521229868E+02  0.19020583993E+03  0.19370876524E+03  0.41800000000E+01 0. -1.
         -5    1    1    2    0  502 -0.89029232497E+02 -0.44739696460E+02  0.17938721349E+03  0.20524397541E+03  0.41800000000E+01 0. -1.
        -11    1    1    2    0    0  0.32575651368E+02  0.62385204818E+02  0.29515410228E+03  0.30342879055E+03  0.00000000000E+00 0.  1.
         11    1    1    2    0    0  0.23982043564E+02 -0.11242784893E+01  0.72231115008E+01  0.25071413111E+02  0.00000000000E+00 0. -1.
</event>
<event>
 7    1  0.2900135E-009  0.1575493E+03  0.7561462E-02  0.1191492E+00
         -2   -1    0    0    0  501 -0.00000000000E+00  0.00000000000E+00  0.28408298012E+03  0.28408298012E+03  0.00000000000E+00 0.  1.
          2   -1    0    0  501    0  0.00000000000E+00 -0.00000000000E+00 -0.21250488387E+03  0.21250488387E+03  0.00000000000E+00 0. -1.
         25    2    1    2    0    0 -0.93295334394E+02 -0.10359356083E+03 -0.13520772793E+03  0.23100393452E+03  0.12508414290E+03 0.  0.
          5    1    3    3  502    0 -0.74411597772E+02 -0.30342965831E+02 -0.13271162959E+03  0.15520190233E+03  0.41800000000E+01 0. -1.
         -5    1    3    3    0  502 -0.18883736622E+02 -0.73250595003E+02 -0.24960983411E+01  0.75802032189E+02  0.41800000000E+01 0. -1.
        -11    1    1    2    0    0  0.28175145046E+02  0.87309966050E+02  0.78273067632E+02  0.12059660893E+03  0.00000000000E+00 0. -1.
         11    1    1    2    0    0  0.65120189348E+02  0.16283594785E+02  0.12851275654E+03  0.14498732053E+03  0.00000000000E+00 0.  1.
</event>
<event>
 7    1  0.2900135E-009  0.8713811E+02  0.7561462E-02  0.1309934E+00
         -2   -1    0    0    0  501 -0.00000000000E+00  0.00000000000E+00  0.16460924365E+03  0.16460924365E+03  0.00000000000E+00 0.  1.
          2   -1    0    0  501    0  0.00000000000E+00 -0.00000000000E+00 -0.15150065805E+03  0.15150065805E+03  0.00000000000E+00 0. -1.
         25    2    1    2    0    0  0.27234740985E+02 -0.59505904085E+02 -0.86500473289E+02  0.16556616865E+03  0.12508853099E+03 0.  0.
          5    1    3    3  502    0 -0.14920694309E+02 -0.13153475143E+02 -0.99403421973E+02  0.10146010904E+03  0.41800000000E+01 0. -1.
         -5    1    3    3    0  502  0.42155435294E+02 -0.46352428942E+02  0.12902948684E+02  0.64106059607E+02  0.41800000000E+01 0. -1.
        -11    1    1    2    0    0 -0.47530624632E+02  0.33412323112E+02  0.10201443464E+03  0.11739884364E+03  0.00000000000E+00 0.  1.
         11    1    1    2    0    0  0.20295883647E+02  0.26093580973E+02 -0.24053757548E+01  0.33144889403E+02  0.00000000000E+00 0. -1.
</event>
<event>
 7    1  0.2900135E-009  0.1813713E+03  0.7561462E-02  0.1166483E+00
          1   -1    0    0  501    0  0.00000000000E+00  0.00000000000E+00  0.99930628423E+03  0.99930628423E+03  0.00000000000E+00 0. -1.
         -1   -1    0    0    0  501 -0.00000000000E+00 -0.00000000000E+00 -0.45633800894E+02  0.45633800894E+02  0.00000000000E+00 0.  1.
         25    2    1    2    0    0 -0.14539155409E+03 -0.10535828243E+03  0.59063759304E+03  0.62987245218E+03  0.12508983982E+03 0.  0.
          5    1    3    3  502    0 -0.92031717938E+02 -0.46606163462E+02  0.49437364036E+03  0.50503934526E+03  0.41800000000E+01 0. -1.
         -5    1    3    3    0  502 -0.53359836149E+02 -0.58752118972E+02  0.96263952683E+02  0.12483310692E+03  0.41800000000E+01 0. -1.
        -11    1    1    2    0    0  0.12685385442E+03  0.86247967434E+02  0.35582920759E+03  0.38748553166E+03  0.00000000000E+00 0. -1.
         11    1    1    2    0    0  0.18537699663E+02  0.19110314999E+02  0.72056827053E+01  0.27582101287E+02  0.00000000000E+00 0.  1.
</event>
<event>
 7    1  0.2900135E-009  0.1272582E+03  0.7561462E-02  0.1231582E+00
          1   -1    0    0  501    0  0.00000000000E+00  0.00000000000E+00  0.28795445125E+03  0.28795445125E+03  0.00000000000E+00 0. -1.
         -1   -1    0    0    0  501 -0.00000000000E+00 -0.00000000000E+00 -0.63928269537E+02  0.63928269537E+02  0.00000000000E+00 0.  1.
         25    2    1    2    0    0 -0.55267470268E+02 -0.37508556812E+02  0.66662380487E+02  0.15669295763E+03  0.12508966742E+03 0.  0.
          5    1    3    3  502    0 -0.10670525212E+02  0.44569498104E+02  0.35538127583E+02  0.58144055428E+02  0.41800000000E+01 0.  1.
         -5    1    3    3    0  502 -0.44596945056E+02 -0.82078054916E+02  0.31124252904E+02  0.98548902205E+02  0.41800000000E+01 0.  1.
        -11    1    1    2    0    0  0.78564976279E+02  0.10403634322E+02  0.11650335530E+03  0.14090323949E+03  0.00000000000E+00 0. -1.
         11    1    1    2    0    0 -0.23297506011E+02  0.27104922490E+02  0.40860445934E+02  0.54286523663E+02  0.00000000000E+00 0.  1.
</event>
<event>
 7    1  0.2900135E-009  0.1973121E+03  0.7561462E-02  0.1152027E+00
          2   -1    0    0  501    0  0.00000000000E+00  0.00000000000E+00  0.43565993228E+03  0.43565993228E+03  0.00000000000E+00 0. -1.
         -2   -1    0    0    0  501 -0.00000000000E+00 -0.00000000000E+00 -0.16753565888E+03  0.16753565888E+03  0.00000000000E+00 0.  1.
         25    2    1    2    0    0  0.15389982168E+03 -0.10847969041E+03 -0.41181054587E+02  0.22977238805E+03  0.12508586135E+03 0.  0.
          5    1    3    3  502    0  0.85074816733E+02 -0.31651591518E+02  0.39173866184E+02  0.98952573890E+02  0.41800000000E+01 0. -1.
         -5    1    3    3    0  502  0.68825004951E+02 -0.76828098887E+02 -0.80354920771E+02  0.13081981416E+03  0.41800000000E+01 0. -1.
        -11    1    1    2    0    0 -0.13636922023E+03  0.60024735054E+02  0.17655028026E+03  0.23101847222E+03  0.00000000000E+00 0.  1.
         11    1    1    2    0    0 -0.17530601453E+02  0.48454955351E+02  0.13275504772E+03  0.14240473089E+03  0.00000000000E+00 0. -1.
</event>
<event>
 7    1  0.2900135E-009  0.1576529E+03  0.7561462E-02  0.1191372E+00
          1   -1    0    0  501    0  0.00000000000E+00  0.00000000000E+00  0.28613396849E+03  0.28613396849E+03  0.00000000000E+00 0. -1.
         -1   -1    0    0    0  501 -0.00000000000E+00 -0.00000000000E+00 -0.13278301981E+03  0.13278301981E+03  0.00000000000E+00 0.  1.
         25    2    1    2    0    0  0.44761695460E+02  0.13592736915E+03  0.16093612357E+03  0.24905664161E+03  0.12509562660E+03 0.  0.
          5    1    3    3  502    0  0.50057477719E+02  0.11996045406E+03  0.54154718419E+02  0.14087749125E+03  0.41800000000E+01 0. -1.
         -5    1    3    3    0  502 -0.52957822584E+01  0.15966915099E+02  0.10678140516E+03  0.10817915037E+03  0.41800000000E+01 0. -1.
        -11    1    1    2    0    0  0.14327509975E+02 -0.94918486489E+02 -0.16442098087E+02  0.97391679362E+02  0.00000000000E+00 0.  1.
         11    1    1    2    0    0 -0.59089205435E+02 -0.41008882665E+02  0.88569231913E+01  0.72468667331E+02  0.00000000000E+00 0. -1.
</event>
<event>
 7    1  0.2900135E-009  0.6855147E+02  0.7561462E-02  0.1365089E+00
         -2   -1    0    0    0  501 -0.00000000000E+00  0.00000000000E+00  0.95408075352E+02  0.95408075352E+02  0.00000000000E+00 0.  1.
          2   -1    0    0  501    0  0.00000000000E+00 -0.00000000000E+00 -0.14312618291E+03  0.14312618291E+03  0.00000000000E+00 0. -1.
         25    2    1    2    0    0  0.39387212125E+01 -0.41222380664E+02 -0.49066408428E+02  0.14060909998E+03  0.12509439783E+03 0.  0.
          5    1    3    3  502    0 -0.18394079735E+02 -0.44122053074E+02  0.31135019725E+02  0.57201045358E+02  0.41800000000E+01 0.  1.
         -5    1    3    3    0  502  0.22332800947E+02  0.28996724099E+01 -0.80201428153E+02  0.83408054623E+02  0.41800000000E+01 0.  1.
        -11    1    1    2    0    0 -0.50072294337E+00 -0.12435221701E+02 -0.32219380722E+02  0.34539455067E+02  0.00000000000E+00 0. -1.
         11    1    1    2    0    0 -0.34379982691E+01  0.53657602365E+02  0.33567681596E+02  0.63385703209E+02  0.00000000000E+00 0.  1.
</event>
<event>
 7    1  0.2900135E-009  0.2130657E+03  0.7561462E-02  0.1139161E+00
          1   -1    0    0  501    0  0.00000000000E+00  0.00000000000E+00  0.99738588824E+02  0.99738588824E+02  0.00000000000E+00 0. -1.
         -1   -1    0    0    0  501 -0.00000000000E+00 -0.00000000000E+00 -0.56862445881E+03  0.56862445881E+03  0.00000000000E+00 0.  1.
         25    2    1    2    0    0 -0.45065728664E+02 -0.19721418715E+03 -0.32921341169E+03  0.40614229156E+03  0.12508291267E+03 0.  0.
          5    1    3    3  502    0 -0.54336441028E+01 -0.94701264804E+02 -0.25849699086E+03  0.27538340677E+03  0.41800000000E+01 0.  1.
         -5    1    3    3    0  502 -0.39632084561E+02 -0.10251292235E+03 -0.70716420837E+02  0.13075888479E+03  0.41800000000E+01 0.  1.
        -11    1    1    2    0    0  0.46915636977E+01  0.17509818673E+03 -0.10169020971E+03  0.20253958753E+03  0.00000000000E+00 0.  1.
         11    1    1    2    0    0  0.40374164966E+02  0.22116000418E+02 -0.37982248586E+02  0.59681168545E+02  0.00000000000E+00 0. -1.
</event>
<event>
 7    1  0.2900135E-009  0.1264744E+03  0.7561462E-02  0.1232783E+00
         -3   -1    0    0    0  501 -0.00000000000E+00  0.00000000000E+00  0.66151613160E+02  0.66151613160E+02  0.00000000000E+00 0.  1.
          3   -1    0    0  501    0  0.00000000000E+00 -0.00000000000E+00 -0.35070464292E+03  0.35070464292E+03  0.00000000000E+00 0. -1.
         25    2    1    2    0    0 -0.54945521671E+02  0.58933396888E+02 -0.24866248005E+03  0.28978085597E+03  0.12509100639E+03 0.  0.
          5    1    3    3  502    0 -0.74469771137E+02  0.19216359163E+00 -0.19113323357E+03  0.20517107280E+03  0.41800000000E+01 0. -1.
         -5    1    3    3    0  502  0.19524249465E+02  0.58741233297E+02 -0.57529246487E+02  0.84609783168E+02  0.41800000000E+01 0. -1.
        -11    1    1    2    0    0  0.44855184400E+01 -0.65305041078E+02 -0.38866000641E+02  0.76127749682E+02  0.00000000000E+00 0. -1.
         11    1    1    2    0    0  0.50460003231E+02  0.63716441896E+01  0.29754509376E+01  0.50947650427E+02  0.00000000000E+00 0.  1.
</event>
<event>
 7    1  0.2941136E-009  0.1417244E+03  0.7561462E-02  0.1211027E+00
         -1   -1    0    0    0  501 -0.00000000000E+00  0.00000000000E+00  0.35016032979E+03  0.35016032979E+03  0.00000000000E+00 0.  1.
          1   -1    0    0  501    0  0.00000000000E+00 -0.00000000000E+00 -0.73859745438E+02  0.73859745438E+02  0.00000000000E+00 0. -1.
         25    2    1    2    0    0  0.16614936473E+02 -0.10941492610E+03  0.20278548582E+03  0.26271115015E+03  0.12509001954E+03 0.  0.
          5    1    3    3  502    0  0.52618893036E+02 -0.56052592255E+02  0.17739995389E+03  0.19338784099E+03  0.41800000000E+01 0.  1.
         -5    1    3    3    0  502 -0.36003956564E+02 -0.53362333847E+02  0.25385531929E+02  0.69323309162E+02  0.41800000000E+01 0.  1.
        -11    1    1    2    0    0 -0.51618398099E+02  0.44309253287E+02  0.47399100741E+02  0.82912265077E+02  0.00000000000E+00 0. -1.
         11    1    1    2    0    0  0.35003461626E+02  0.65105672814E+02  0.26115997793E+02  0.78396660000E+02  0.00000000000E+00 0.  1.
</event>
<event>
 7    1  0.2947802E-009  0.1162094E+03  0.7561462E-02  0.1249485E+00
         -1   -1    0    0    0  501 -0.00000000000E+00  0.00000000000E+00  0.28211507595E+02  0.28211507595E+02  0.00000000000E+00 0.  1.
          1   -1    0    0  501    0  0.00000000000E+00 -0.00000000000E+00 -0.63252884075E+03  0.63252884075E+03  0.00000000000E+00 0. -1.
         25    2    1    2    0    0 -0.76383857665E+02  0.18249821593E+01 -0.29323002419E+03  0.32782620782E+03  0.12509336984E+03 0.  0.
          5    1    3    3  502    0 -0.14120944941E+02  0.44013353351E+02 -0.33089921213E+02  0.56999926711E+02  0.41800000000E+01 0.  1.
         -5    1    3    3    0  502 -0.62262912725E+02 -0.42188371191E+02 -0.26014010297E+03  0.27082628111E+03  0.41800000000E+01 0.  1.
        -11    1    1    2    0    0 -0.67871803243E+01  0.22922544574E+02 -0.27956103340E+02  0.36783863044E+02  0.00000000000E+00 0. -1.
         11    1    1    2    0    0  0.83171037990E+02 -0.24747526734E+02 -0.28313120563E+03  0.29613027748E+03  0.00000000000E+00 0.  1.
</event>
<event>
 7    1  0.2900135E-009  0.7435250E+02  0.7561462E-02  0.1345888E+00
          1   -1    0    0  501    0  0.00000000000E+00  0.00000000000E+00  0.46362902397E+03  0.46362902397E+03  0.00000000000E+00 0. -1.
         -1   -1    0    0    0  501 -0.00000000000E+00 -0.00000000000E+00 -0.30399305448E+02  0.30399305448E+02  0.00000000000E+00 0.  1.
         25    2    1    2    0    0 -0.16320460250E+01 -0.49398556266E+02  0.24024214810E+03  0.27533080670E+03  0.12509149635E+03 0.  0.
          5    1    3    3  502    0 -0.32465016168E+02 -0.34764158406E+02  0.18932157241E+02  0.51365581495E+02  0.41800000000E+01 0.  1.
         -5    1    3    3    0  502  0.30832970143E+02 -0.14634397859E+02  0.22130999086E+03  0.22396522520E+03  0.41800000000E+01 0.  1.
        -11    1    1    2    0    0  0.23126927861E+02  0.26055391730E+02  0.15046364642E+02  0.37949062168E+02  0.00000000000E+00 0.  1.
         11    1    1    2    0    0 -0.21494881836E+02  0.23343164535E+02  0.17794120579E+03  0.18074846055E+03  0.00000000000E+00 0. -1.
</event>
<event>
 7    1  0.2900135E-009  0.1019110E+03  0.7561462E-02  0.1276328E+00
         -1   -1    0    0    0  501 -0.00000000000E+00  0.00000000000E+00  0.48740781401E+02  0.48740781401E+02  0.00000000000E+00 0.  1.
          1   -1    0    0  501    0  0.00000000000E+00 -0.00000000000E+00 -0.25598433101E+03  0.25598433101E+03  0.00000000000E+00 0. -1.
         25    2    1    2    0    0  0.39691961210E+02  0.16659530803E+02 -0.12162358050E+03  0.17970244185E+03  0.12509068918E+03 0.  0.
          5    1    3    3  502    0  0.46942309634E+02  0.60275773587E+02 -0.10964752047E+03  0.13370415274E+03  0.41800000000E+01 0.  1.
         -5    1    3    3    0  502 -0.72503484245E+01 -0.43616242785E+02 -0.11976060036E+02  0.45998289109E+02  0.41800000000E+01 0.  1.
        -11    1    1    2    0    0 -0.19231417207E+02  0.27887711760E+02 -0.61901942422E+02  0.70565022147E+02  0.00000000000E+00 0. -1.
         11    1    1    2    0    0 -0.20460544002E+02 -0.44547242563E+02 -0.23718026680E+02  0.54457648411E+02  0.00000000000E+00 0.  1.
</event>
<event>
 7    1  0.2900135E-009  0.1063380E+03  0.7561462E-02  0.1267506E+00
          2   -1    0    0  501    0  0.00000000000E+00  0.00000000000E+00  0.12922386443E+03  0.12922386443E+03  0.00000000000E+00 0. -1.
         -2   -1    0    0    0  501 -0.00000000000E+00 -0.00000000000E+00 -0.12123075227E+03  0.12123075227E+03  0.00000000000E+00 0.  1.
         25    2    1    2    0    0 -0.46554015419E+02 -0.31709954527E+02 -0.23035324977E+02  0.13910877443E+03  0.12509127611E+03 0.  0.
          5    1    3    3  502    0 -0.40075238292E+02 -0.62375561846E+02  0.27759043954E+02  0.79276556188E+02  0.41800000000E+01 0. -1.
         -5    1    3    3    0  502 -0.64787771269E+01  0.30665607318E+02 -0.50794368931E+02  0.59832218247E+02  0.41800000000E+01 0. -1.
        -11    1    1    2    0    0  0.43104757290E+02 -0.25102406274E+02  0.11685332987E+02  0.51231805636E+02  0.00000000000E+00 0.  1.
         11    1    1    2    0    0  0.34492581293E+01  0.56812360801E+02  0.19343104151E+02  0.60114036627E+02  0.00000000000E+00 0. -1.
</event>
<event>
 7    1  0.2900135E-009  0.1841111E+03  0.7561462E-02  0.1163883E+00
         -2   -1    0    0    0  501 -0.00000000000E+00  0.00000000000E+00  0.12343446810E+03  0.12343446810E+03  0.00000000000E+00 0.  1.
          2   -1    0    0  501    0  0.00000000000E+00 -0.00000000000E+00 -0.30783816370E+03  0.30783816370E+03  0.00000000000E+00 0. -1.
         25    2    1    2    0    0  0.11875153858E+03 -0.10868031069E+03 -0.10871452512E+03  0.23104203861E+03  0.12509291660E+03 0.  0.
          5    1    3    3  502    0  0.32273546007E+02  0.18671930038E+02 -0.57683115873E+02  0.68811605126E+02  0.41800000000E+01 0. -1.
         -5    1    3    3    0  502  0.86477992571E+02 -0.12735224073E+03 -0.51031409250E+02  0.16223043348E+03  0.41800000000E+01 0. -1.
        -11    1    1    2    0    0 -0.88061920696E+01  0.52513072893E+02 -0.52178594109E+02  0.74550503195E+02  0.00000000000E+00 0. -1.
         11    1    1    2    0    0 -0.10994534651E+03  0.56167237796E+02 -0.23510576364E+02  0.12568009000E+03  0.00000000000E+00 0.  1.
</event>
<event>
 7    1  0.2900135E-009  0.1176595E+03  0.7561462E-02  0.1247009E+00
         -3   -1    0    0    0  501 -0.00000000000E+00  0.00000000000E+00  0.70829914173E+03  0.70829914173E+03  0.00000000000E+00 0.  1.
          3   -1    0    0  501    0  0.00000000000E+00 -0.00000000000E+00 -0.29652051941E+02  0.29652051941E+02  0.00000000000E+00 0. -1.
         25    2    1    2    0    0  0.11047206449E+02 -0.67323570771E+02  0.54172075877E+03  0.56014622743E+03  0.12509161312E+03 0.  0.
          5    1    3    3  502    0 -0.40820432156E+02 -0.61322362762E+02  0.43556755103E+03  0.44177290972E+03  0.41800000000E+01 0. -1.
         -5    1    3    3    0  502  0.51867638605E+02 -0.60012080086E+01  0.10615320774E+03  0.11837331771E+03  0.41800000000E+01 0. -1.
        -11    1    1    2    0    0  0.42757982474E+01  0.85371199012E+02  0.12463204480E+03  0.15112799431E+03  0.00000000000E+00 0.  1.
         11    1    1    2    0    0 -0.15323004696E+02 -0.18047628241E+02  0.12294286223E+02  0.26676971938E+02  0.00000000000E+00 0. -1.
</event>
<event>
 7    1  0.2900135E-009  0.9477768E+02  0.7561462E-02  0.1291678E+00
          2   -1    0    0  501    0  0.00000000000E+00  0.00000000000E+00  0.41544443806E+03  0.41544443806E+03  0.00000000000E+00 0.  1.
         -2   -1    0    0    0  501 -0.00000000000E+00 -0.00000000000E+00 -0.44166161600E+02  0.44166161600E+02  0.00000000000E+00 0. -1.
         25    2    1    2    0    0  0.25361580017E+02  0.71279462257E+02  0.16104812162E+03  0.21750219241E+03  0.12508690877E+03 0.  0.
          5    1    3    3  502    0  0.16964929243E+02 -0.45961379432E+01 -0.16327526900E+02  0.24351464902E+02  0.41800000000E+01 0.  1.
         -5    1    3    3    0  502  0.83966507736E+01  0.75875600201E+02  0.17737564852E+03  0.19315072751E+03  0.41800000000E+01 0.  1.
        -11    1    1    2    0    0 -0.37434217507E+02 -0.20175589998E+02  0.17193824888E+03  0.17711898966E+03  0.00000000000E+00 0.  1.
         11    1    1    2    0    0  0.12072637490E+02 -0.51103872260E+02  0.38291905964E+02  0.64989417587E+02  0.00000000000E+00 0. -1.
</event>
<event>
 7    1  0.2900135E-009  0.8740892E+02  0.7561462E-02  0.1309251E+00
         -2   -1    0    0    0  501 -0.00000000000E+00  0.00000000000E+00  0.56883444451E+02  0.56883444451E+02  0.00000000000E+00 0.  1.
          2   -1    0    0  501    0  0.00000000000E+00 -0.00000000000E+00 -0.27545934333E+03  0.27545934333E+03  0.00000000000E+00 0. -1.
         25    2    1    2    0    0  0.95462721740E+01 -0.52494863331E+02 -0.82842072115E+02  0.15923650261E+03  0.12508642157E+03 0.  0.
          5    1    3    3  502    0  0.34142906904E+02 -0.35965225029E+02  0.18861485118E+02  0.53220893680E+02  0.41800000000E+01 0. -1.
         -5    1    3    3    0  502 -0.24596634730E+02 -0.16529638302E+02 -0.10170355723E+03  0.10601560893E+03  0.41800000000E+01 0. -1.
        -11    1    1    2    0    0 -0.42065829221E+02  0.45295871308E+02 -0.45023931843E+02  0.76474861126E+02  0.00000000000E+00 0.  1.
         11    1    1    2    0    0  0.32519557047E+02  0.71989920235E+01 -0.90709894924E+02  0.96631424049E+02  0.00000000000E+00 0. -1.
</event>
<event>
 7    1  0.2900135E-009  0.1000574E+03  0.7561462E-02  0.1280175E+00
          1   -1    0    0  501    0  0.00000000000E+00  0.00000000000E+00  0.14561124291E+03  0.14561124291E+03  0.00000000000E+00 0. -1.
         -1   -1    0    0    0  501 -0.00000000000E+00 -0.00000000000E+00 -0.86213644603E+02  0.86213644603E+02  0.00000000000E+00 0.  1.
         25    2    1    2    0    0 -0.74095458683E+01 -0.27598077634E+02  0.20524595735E+02  0.12994736302E+03  0.12509397614E+03 0.  0.
          5    1    3    3  502    0 -0.32080695507E+02 -0.63835238479E+02  0.39787156610E+02  0.81881615318E+02  0.41800000000E+01 0. -1.
         -5    1    3    3    0  502  0.24671149638E+02  0.36237160845E+02 -0.19262560875E+02  0.48065747701E+02  0.41800000000E+01 0. -1.
        -11    1    1    2    0    0 -0.33288239262E+02  0.28474380820E+02  0.42468210650E+02  0.61011852554E+02  0.00000000000E+00 0. -1.
         11    1    1    2    0    0  0.40697785130E+02 -0.87630318580E+00 -0.35952080798E+01  0.40865671938E+02  0.00000000000E+00 0.  1.
</event>
<event>
 7    1  0.2900135E-009  0.1006482E+03  0.7561462E-02  0.1278939E+00
          1   -1    0    0  501    0  0.00000000000E+00  0.00000000000E+00  0.22458890848E+03  0.22458890848E+03  0.00000000000E+00 0. -1.
         -1   -1    0    0    0  501 -0.00000000000E+00 -0.00000000000E+00 -0.55122445225E+02  0.55122445225E+02  0.00000000000E+00 0.  1.
         25    2    1    2    0    0 -0.11726770335E+02  0.22039158895E+02  0.11577255668E+03  0.17226436452E+03  0.12509390367E+03 0.  0.
          5    1    3    3  502    0  0.38738050130E+02  0.38916778410E+02  0.10388772656E+03  0.11758096912E+03  0.41800000000E+01 0.  1.
         -5    1    3    3    0  502 -0.50464820464E+02 -0.16877619515E+02  0.11884830113E+02  0.54683395394E+02  0.41800000000E+01 0.  1.
        -11    1    1    2    0    0 -0.38473786300E+02 -0.18034280909E+02  0.20920057343E+02  0.47361548954E+02  0.00000000000E+00 0.  1.
         11    1    1    2    0    0  0.50200556634E+02 -0.40048779867E+01  0.32773849235E+02  0.60085440231E+02  0.00000000000E+00 0. -1.
</event>
<event>
 7    1  0.2900135E-009  0.1000387E+03  0.7561462E-02  0.1280215E+00
         -1   -1    0    0    0  501 -0.00000000000E+00  0.00000000000E+00  0.40811912318E+02  0.40811912318E+02  0.00000000000E+00 0.  1.
          1   -1    0    0  501    0  0.00000000000E+00 -0.00000000000E+00 -0.47489938233E+03  0.47489938233E+03  0.00000000000E+00 0. -1.
         25    2    1    2    0    0 -0.79953975773E+02 -0.11640646634E+02 -0.19383726150E+03  0.24443491556E+03  0.12508957233E+03 0.  0.
          5    1    3    3  502    0 -0.29722538633E+02 -0.47894350033E+02 -0.16787826991E+03  0.17713803650E+03  0.41800000000E+01 0.  1.
         -5    1    3    3    0  502 -0.50231437141E+02  0.36253703399E+02 -0.25958991586E+02  0.67296879062E+02  0.41800000000E+01 0.  1.
        -11    1    1    2    0    0  0.52641583452E+02  0.26341518678E+01 -0.23646654988E+03  0.24226948688E+03  0.00000000000E+00 0. -1.
         11    1    1    2    0    0  0.27312392321E+02  0.90064947661E+01 -0.37836586377E+01  0.29006892198E+02  0.00000000000E+00 0.  1.
</event>
<event>
 7    1  0.2900135E-009  0.1016966E+03  0.7561462E-02  0.1276768E+00
          2   -1    0    0  501    0  0.00000000000E+00  0.00000000000E+00  0.61963054086E+02  0.61963054086E+02  0.00000000000E+00 0. -1.
         -2   -1    0    0    0  501 -0.00000000000E+00 -0.00000000000E+00 -0.26873783435E+03  0.26873783435E+03  0.00000000000E+00 0.  1.
         25    2    1    2    0    0 -0.25717066115E+02  0.57356206755E+02 -0.15315928016E+03  0.20750028411E+03  0.12508997108E+03 0.  0.
          5    1    3    3  502    0 -0.10512825355E+02 -0.29737255108E+02 -0.14377037621E+01  0.31849069538E+02  0.41800000000E+01 0.  1.
         -5    1    3    3    0  502 -0.15204240759E+02  0.87093461863E+02 -0.15172157640E+03  0.17565121458E+03  0.41800000000E+01 0.  1.
        -11    1    1    2    0    0  0.60833428349E+01 -0.62480445031E+02 -0.72206980295E+02  0.95679993074E+02  0.00000000000E+00 0.  1.
         11    1    1    2    0    0  0.19633723280E+02  0.51242382767E+01  0.18591480194E+02  0.27520611249E+02  0.00000000000E+00 0. -1.
</event>
<event>
 7    1  0.2900135E-009  0.8835225E+02  0.7561462E-02  0.1306892E+00
         -4   -1    0    0    0  501 -0.00000000000E+00  0.00000000000E+00  0.34664473222E+03  0.34664473222E+03  0.00000000000E+00 0.  1.
          4   -1    0    0  501    0  0.00000000000E+00 -0.00000000000E+00 -0.41058880472E+02  0.41058880472E+02  0.00000000000E+00 0. -1.
         25    2    1    2    0    0  0.11240472261E+02 -0.16221231685E+02  0.12217728181E+03  0.17596753543E+03  0.12509120178E+03 0.  0.
          5    1    3    3  502    0  0.13523156916E+02 -0.60873017020E+02  0.22120715232E+02  0.66296292630E+02  0.41800000000E+01 0.  1.
         -5    1    3    3    0  502 -0.22826846548E+01  0.44651785335E+02  0.10005656658E+03  0.10967124281E+03  0.41800000000E+01 0.  1.
        -11    1    1    2    0    0 -0.34372095553E+02 -0.85403911375E+01  0.17255917479E+03  0.17615631706E+03  0.00000000000E+00 0.  1.
         11    1    1    2    0    0  0.23131623292E+02  0.24761622823E+02  0.10849395143E+02  0.35579760200E+02  0.00000000000E+00 0. -1.
</event>
<event>
 7    1  0.2900135E-009  0.1170673E+03  0.7561462E-02  0.1248015E+00
          2   -1    0    0  501    0  0.00000000000E+00  0.00000000000E+00  0.24518969996E+03  0.24518969996E+03  0.00000000000E+00 0.  1.
         -2   -1    0    0    0  501 -0.00000000000E+00 -0.00000000000E+00 -0.95648560322E+02  0.95648560322E+02  0.00000000000E+00 0. -1.
         25    2    1    2    0    0 -0.77669498611E+02  0.94365120309E+01  0.14737038156E+03  0.20854086988E+03  0.12509862618E+03 0.  0.
          5    1    3    3  502    0 -0.75421175663E+02 -0.14969089598E+02  0.16222810127E+03  0.17957688221E+03  0.41800000000E+01 0.  1.
         -5    1    3    3    0  502 -0.22483229482E+01  0.24405601629E+02 -0.14857719704E+02  0.28963987670E+02  0.41800000000E+01 0.  1.
        -11    1    1    2    0    0  0.10047501969E+03  0.11722385570E+02  0.24680296772E+01  0.10118663487E+03  0.00000000000E+00 0.  1.
         11    1    1    2    0    0 -0.22805521082E+02 -0.21158897601E+02 -0.29727160587E+00  0.31110755534E+02  0.00000000000E+00 0. -1.
</event>
<event>
 7    1  0.2900135E-009  0.1381612E+03  0.7561462E-02  0.1215825E+00
         -2   -1    0    0    0  501 -0.00000000000E+00  0.00000000000E+00  0.20790913385E+02  0.20790913385E+02  0.00000000000E+00 0.  1.
          2   -1    0    0  501    0  0.00000000000E+00 -0.00000000000E+00 -0.99692001034E+03  0.99692001034E+03  0.00000000000E+00 0. -1.
         25    2    1    2    0    0  0.88088644152E+02  0.35205558666E+02 -0.54791711713E+03  0.56995823701E+03  0.12506072166E+03 0.  0.
          5    1    3    3  502    0 -0.18843239526E+02  0.36616705119E+02 -0.24994489340E+03  0.25334911270E+03  0.41800000000E+01 0. -1.
         -5    1    3    3    0  502  0.10693188368E+03 -0.14111464536E+01 -0.29797222373E+03  0.31660912431E+03  0.41800000000E+01 0. -1.
        -11    1    1    2    0    0  0.39676415539E+01  0.20118219153E+02 -0.39890548954E+02  0.44852433794E+02  0.00000000000E+00 0.  1.
         11    1    1    2    0    0 -0.92056285706E+02 -0.55323777818E+02 -0.38832143087E+03  0.40290025292E+03  0.00000000000E+00 0. -1.
</event>
<event>
 7    1  0.2900135E-009  0.1529754E+03  0.7561462E-02  0.1196864E+00
          2   -1    0    0  501    0  0.00000000000E+00  0.00000000000E+00  0.10624025938E+04  0.10624025938E+04  0.00000000000E+00 0. -1.
         -2   -1    0    0    0  501 -0.00000000000E+00 -0.00000000000E+00 -0.38948042676E+02  0.38948042676E+02  0.00000000000E+00 0.  1.
         25    2    1    2    0    0 -0.32534140549E+02 -0.10309285872E+03  0.83848375335E+03  0.85462780357E+03  0.12508824955E+03 0.  0.
          5    1    3    3  502    0  0.12969272656E+02  0.12786229932E+02  0.22758285576E+02  0.29446590149E+02  0.41800000000E+01 0. -1.
         -5    1    3    3    0  502 -0.45503413205E+02 -0.11587908866E+03  0.81572546777E+03  0.82518121342E+03  0.41800000000E+01 0. -1.
        -11    1    1    2    0    0 -0.44668322979E+02  0.18990441311E+02  0.46002700760E+02  0.66874093760E+02  0.00000000000E+00 0.  1.
         11    1    1    2    0    0  0.77202463528E+02  0.84102417413E+02  0.13896809706E+03  0.17984873919E+03  0.00000000000E+00 0. -1.
</event>
<event>
 7    1  0.2900135E-009  0.1115110E+03  0.7561462E-02  0.1257797E+00
         -2   -1    0    0    0  501 -0.00000000000E+00  0.00000000000E+00  0.10039475735E+02  0.10039475735E+02  0.00000000000E+00 0.  1.
          2   -1    0    0  501    0  0.00000000000E+00 -0.00000000000E+00 -0.15293231935E+04  0.15293231935E+04  0.00000000000E+00 0. -1.
         25    2    1    2    0    0  0.23255046177E+02 -0.31618847029E+02 -0.11175218659E+04  0.11251859600E+04  0.12509106771E+03 0.  0.
          5    1    3    3  502    0 -0.50840864073E+02 -0.87593356419E+01 -0.53810321476E+03  0.54058677523E+03  0.41800000000E+01 0.  1.
         -5    1    3    3    0  502  0.74095910250E+02 -0.22859511387E+02 -0.57941865113E+03  0.58459918479E+03  0.41800000000E+01 0.  1.
        -11    1    1    2    0    0 -0.39054084667E+01  0.59523523672E+02 -0.32213769484E+03  0.32761409695E+03  0.00000000000E+00 0. -1.
         11    1    1    2    0    0 -0.19349637710E+02 -0.27904676643E+02 -0.79624157026E+02  0.86562612253E+02  0.00000000000E+00 0.  1.
</event>
<event>
 7    1  0.2900135E-009  0.7287316E+02  0.7561462E-02  0.1350587E+00
         -2   -1    0    0    0  501 -0.00000000000E+00  0.00000000000E+00  0.89818150843E+02  0.89818150843E+02  0.00000000000E+00 0.  1.
          2   -1    0    0  501    0  0.00000000000E+00 -0.00000000000E+00 -0.14119796544E+03  0.14119796544E+03  0.00000000000E+00 0. -1.
         25    2    1    2    0    0 -0.12412729226E+02  0.22260110640E+02 -0.50561016531E+02  0.13730763075E+03  0.12508949076E+03 0.  0.
          5    1    3    3  502    0  0.31420914099E+02  0.25694449313E+02  0.26381938141E+02  0.48589686441E+02  0.41800000000E+01 0.  1.
         -5    1    3    3    0  502 -0.43833643325E+02 -0.34343386736E+01 -0.76942954672E+02  0.88717944312E+02  0.41800000000E+01 0.  1.
        -11    1    1    2    0    0  0.12344205811E+02  0.17279928784E+02 -0.35332997452E+02  0.41223731816E+02  0.00000000000E+00 0. -1.
         11    1    1    2    0    0  0.68523414644E-01 -0.39540039424E+02  0.34514199387E+02  0.52484753714E+02  0.00000000000E+00 0.  1.
</event>
<event>
 7    1  0.2900135E-009  0.1552265E+03  0.7561462E-02  0.1194194E+00
         -3   -1    0    0    0  501 -0.00000000000E+00  0.00000000000E+00  0.10112241382E+03  0.10112241382E+03  0.00000000000E+00 0.  1.
          3   -1    0    0  501    0  0.00000000000E+00 -0.00000000000E+00 -0.33548587985E+03  0.33548587985E+03  0.00000000000E+00 0. -1.
         25    2    1    2    0    0  0.74197412634E+02  0.12631557218E+03 -0.93651773714E+02  0.21419337151E+03  0.12508903174E+03 0.  0.
          5    1    3    3  502    0  0.65640077838E+02  0.71035564543E+02  0.89872237541E+01  0.97226096493E+02  0.41800000000E+01 0.  1.
         -5    1    3    3    0  502  0.85573347966E+01  0.55280007642E+02 -0.10263899747E+03  0.11696727502E+03  0.41800000000E+01 0.  1.
        -11    1    1    2    0    0 -0.98313989713E+01 -0.73870794450E+02 -0.11207265520E+03  0.13458763213E+03  0.00000000000E+00 0.  1.
         11    1    1    2    0    0 -0.64366013663E+02 -0.52444777735E+02 -0.28639037124E+02  0.87827290029E+02  0.00000000000E+00 0. -1.
</event>
<event>
 7    1  0.2900135E-009  0.1269792E+03  0.7561462E-02  0.1232008E+00
         -1   -1    0    0    0  501 -0.00000000000E+00  0.00000000000E+00  0.55002817647E+03  0.55002817647E+03  0.00000000000E+00 0.  1.
          1   -1    0    0  501    0  0.00000000000E+00 -0.00000000000E+00 -0.32164082244E+02  0.32164082244E+02  0.00000000000E+00 0. -1.
         25    2    1    2    0    0 -0.44238846397E+02  0.63449455016E+02  0.27780882363E+03  0.31433599175E+03  0.12508582794E+03 0.  0.
          5    1    3    3  502    0 -0.69612733636E+02 -0.23625318980E+01  0.91442532907E+02  0.11502488194E+03  0.41800000000E+01 0.  1.
         -5    1    3    3    0  502  0.25373887239E+02  0.65811986914E+02  0.18636629073E+03  0.19931110981E+03  0.41800000000E+01 0.  1.
        -11    1    1    2    0    0 -0.23367609622E+02 -0.44408754515E+01  0.89309706403E+02  0.92422887923E+02  0.00000000000E+00 0.  1.
         11    1    1    2    0    0  0.67606456019E+02 -0.59008579565E+02  0.15074556419E+03  0.17543337904E+03  0.00000000000E+00 0. -1.
</event>
<event>
 7    1  0.2900135E-009  0.1868909E+03  0.7561462E-02  0.1161296E+00
         -2   -1    0    0    0  501 -0.00000000000E+00  0.00000000000E+00  0.41225760056E+02  0.41225760056E+02  0.00000000000E+00 0.  1.
          2   -1    0    0  501    0  0.00000000000E+00 -0.00000000000E+00 -0.11408077011E+04  0.11408077011E+04  0.00000000000E+00 0. -1.
         25    2    1    2    0    0 -0.14859243168E+03  0.76059663291E+02 -0.34058943620E+03  0.39939208987E+03  0.12509234296E+03 0.  0.
          5    1    3    3  502    0  0.77749896578E+01 -0.17050715281E+02 -0.91881292664E+01  0.21285475686E+02  0.41800000000E+01 0. -1.
         -5    1    3    3    0  502 -0.15636742134E+03  0.93110378571E+02 -0.33140130693E+03  0.37810661418E+03  0.41800000000E+01 0. -1.
        -11    1    1    2    0    0  0.83203688414E+02 -0.66388146190E+02 -0.61575733090E+03  0.62488985452E+03  0.00000000000E+00 0. -1.
         11    1    1    2    0    0  0.65388743266E+02 -0.96715171011E+01 -0.14323517398E+03  0.15775151680E+03  0.00000000000E+00 0.  1.
</event>
<event>
 7    1  0.2900135E-009  0.1799505E+03  0.7561462E-02  0.1167851E+00
         -3   -1    0    0    0  501 -0.00000000000E+00  0.00000000000E+00  0.55259704790E+03  0.55259704790E+03  0.00000000000E+00 0.  1.
          3   -1    0    0  501    0  0.00000000000E+00 -0.00000000000E+00 -0.63270909994E+02  0.63270909994E+02  0.00000000000E+00 0. -1.
         25    2    1    2    0    0  0.14891035005E+03 -0.59264839793E+01  0.22397864349E+03  0.29668813145E+03  0.12509196231E+03 0.  0.
          5    1    3    3  502    0  0.12769265517E+03 -0.50474633106E+02  0.19737856642E+03  0.24047634739E+03  0.41800000000E+01 0. -1.
         -5    1    3    3    0  502  0.21217694885E+02  0.44548149127E+02  0.26600077072E+02  0.56211784059E+02  0.41800000000E+01 0. -1.
        -11    1    1    2    0    0 -0.20374498198E+02 -0.32936199612E+02  0.33285953795E+02  0.51067290331E+02  0.00000000000E+00 0. -1.
         11    1    1    2    0    0 -0.12853585185E+03  0.38862683592E+02  0.23206154062E+03  0.26811253612E+03  0.00000000000E+00 0.  1.
</event>
<event>
 7    1  0.2900135E-009  0.1091708E+03  0.7561462E-02  0.1262113E+00
         -3   -1    0    0    0  501 -0.00000000000E+00  0.00000000000E+00  0.18464736271E+03  0.18464736271E+03  0.00000000000E+00 0.  1.
          3   -1    0    0  501    0  0.00000000000E+00 -0.00000000000E+00 -0.91850107518E+02  0.91850107518E+02  0.00000000000E+00 0. -1.
         25    2    1    2    0    0 -0.49854199153E+02 -0.45974798135E+02  0.78518616927E+02  0.16251601383E+03  0.12508860185E+03 0.  0.
          5    1    3    3  502    0  0.22845705142E+02 -0.62179264230E+02  0.26015056896E+02  0.71291252822E+02  0.41800000000E+01 0. -1.
         -5    1    3    3    0  502 -0.72699904295E+02  0.16204466095E+02  0.52503560031E+02  0.91224761012E+02  0.41800000000E+01 0. -1.
        -11    1    1    2    0    0 -0.52740935244E+01  0.10666671899E+02  0.41432554574E+02  0.43107430108E+02  0.00000000000E+00 0.  1.
         11    1    1    2    0    0  0.55128292677E+02  0.35308126236E+02 -0.27153916306E+02  0.70874026290E+02  0.00000000000E+00 0. -1.
</event>
<event>
 7    1  0.2900135E-009  0.1063692E+03  0.7561462E-02  0.1267445E+00
         -1   -1    0    0    0  501 -0.00000000000E+00  0.00000000000E+00  0.57854782496E+03  0.57854782496E+03  0.00000000000E+00 0.  1.
          1   -1    0    0  501    0  0.00000000000E+00 -0.00000000000E+00 -0.26220282734E+02  0.26220282734E+02  0.00000000000E+00 0. -1.
         25    2    1    2    0    0  0.14665744439E+02  0.61805514644E+02  0.32523506412E+03  0.35420409213E+03  0.12509071207E+03 0.  0.
          5    1    3    3  502    0 -0.67930181295E+01  0.95629915225E+02  0.26411379758E+03  0.28100675481E+03  0.41800000000E+01 0.  1.
         -5    1    3    3    0  502  0.21458762568E+02 -0.33824400581E+02  0.61121266544E+02  0.73197337312E+02  0.41800000000E+01 0.  1.
        -11    1    1    2    0    0  0.11141265475E+02 -0.43391340325E+02  0.37742750602E+02  0.58578591948E+02  0.00000000000E+00 0. -1.
         11    1    1    2    0    0 -0.25807009914E+02 -0.18414174319E+02  0.18934972750E+03  0.19198542362E+03  0.00000000000E+00 0.  1.
</event>
<event>
 7    1  0.2900135E-009  0.1740282E+03  0.7561462E-02  0.1173711E+00
          4   -1    0    0  501    0  0.00000000000E+00  0.00000000000E+00  0.19238440269E+03  0.19238440269E+03  0.00000000000E+00 0. -1.
         -4   -1    0    0    0  501 -0.00000000000E+00 -0.00000000000E+00 -0.17048721930E+03  0.17048721930E+03  0.00000000000E+00 0.  1.
         25    2    1    2    0    0  0.78303786746E+02 -0.12108884207E+03  0.24958726684E+02  0.19249732519E+03  0.12505315461E+03 0.  0.
          5    1    3    3  502    0 -0.25595268875E+02 -0.61732984667E+02  0.28360233359E+02  0.72717634869E+02  0.41800000000E+01 0. -1.
         -5    1    3    3    0  502  0.10389905562E+03 -0.59355857400E+02 -0.34015066751E+01  0.11977969033E+03  0.41800000000E+01 0. -1.
        -11    1    1    2    0    0 -0.36788797499E+02  0.38454807316E+01 -0.24216834673E+02  0.44211519144E+02  0.00000000000E+00 0.  1.
         11    1    1    2    0    0 -0.41514989247E+02  0.11724336134E+03  0.21155291381E+02  0.12616277764E+03  0.00000000000E+00 0. -1.
</event>
<event>
 7    1  0.2900135E-009  0.1682284E+03  0.7561462E-02  0.1179708E+00
         -1   -1    0    0    0  501 -0.00000000000E+00  0.00000000000E+00  0.66727918112E+03  0.66727918112E+03  0.00000000000E+00 0.  1.
          1   -1    0    0  501    0  0.00000000000E+00 -0.00000000000E+00 -0.52860573479E+02  0.52860573479E+02  0.00000000000E+00 0. -1.
         25    2    1    2    0    0  0.11755506473E+03 -0.92291730673E+02  0.25247024254E+03  0.31894130908E+03  0.12508148734E+03 0.  0.
          5    1    3    3  502    0  0.12599681267E+03 -0.10393988493E+03  0.17256670105E+03  0.23764560840E+03  0.41800000000E+01 0. -1.
         -5    1    3    3    0  502 -0.84417479361E+01  0.11648154260E+02  0.79903541490E+02  0.81295700677E+02  0.41800000000E+01 0. -1.
        -11    1    1    2    0    0 -0.57137041289E+02  0.76784313249E+02  0.29293070774E+03  0.30817019938E+03  0.00000000000E+00 0.  1.
         11    1    1    2    0    0 -0.60418023443E+02  0.15507417424E+02  0.69017657353E+02  0.93028246132E+02  0.00000000000E+00 0. -1.
</event>
<event>
 7    1  0.2900135E-009  0.1247845E+03  0.7561462E-02  0.1235407E+00
          1   -1    0    0  501    0  0.00000000000E+00  0.00000000000E+00  0.35303347201E+02  0.35303347201E+02  0.00000000000E+00 0. -1.
         -1   -1    0    0    0  501 -0.00000000000E+00 -0.00000000000E+00 -0.53706417136E+03  0.53706417136E+03  0.00000000000E+00 0.  1.
         25    2    1    2    0    0  0.48791461277E+02 -0.63243025441E+02 -0.33242886827E+03  0.36405311314E+03  0.12508169237E+03 0.  0.
          5    1    3    3  502    0  0.41143765622E+02 -0.94007476855E+02 -0.17086316490E+03  0.19935372752E+03  0.41800000000E+01 0. -1.
         -5    1    3    3    0  502  0.76476956551E+01  0.30764451414E+02 -0.16156570337E+03  0.16469938562E+03  0.41800000000E+01 0. -1.
        -11    1    1    2    0    0 -0.19008296595E+02  0.78960186200E+02 -0.85271525713E+02  0.11775932847E+03  0.00000000000E+00 0. -1.
         11    1    1    2    0    0 -0.29783164682E+02 -0.15717160759E+02 -0.84060430181E+02  0.90555076959E+02  0.00000000000E+00 0.  1.
</event>
<event>
 7    1  0.2900135E-009  0.1220295E+03  0.7561462E-02  0.1239786E+00
          2   -1    0    0  501    0  0.00000000000E+00  0.00000000000E+00  0.85743653988E+02  0.85743653988E+02  0.00000000000E+00 0. -1.
         -2   -1    0    0    0  501 -0.00000000000E+00 -0.00000000000E+00 -0.19377843573E+03  0.19377843573E+03  0.00000000000E+00 0.  1.
         25    2    1    2    0    0 -0.27930450084E+02  0.49335065220E+02 -0.17202837562E+02  0.13841068740E+03  0.12509005582E+03 0.  0.
          5    1    3    3  502    0 -0.62994215510E+02  0.70897353634E+02 -0.41397593332E+01  0.95022712798E+02  0.41800000000E+01 0.  1.
         -5    1    3    3    0  502  0.35063765426E+02 -0.21562288414E+02 -0.13063078229E+02  0.43387974605E+02  0.41800000000E+01 0.  1.
        -11    1    1    2    0    0 -0.30085842685E+02 -0.38285943020E+02 -0.36396249920E+02  0.60791926859E+02  0.00000000000E+00 0.  1.
         11    1    1    2    0    0  0.58016292769E+02 -0.11049122200E+02 -0.54435694261E+02  0.80319475457E+02  0.00000000000E+00 0. -1.
</event>
<event>
 7    1  0.2900135E-009  0.1158012E+03  0.7561462E-02  0.1250189E+00
         -2   -1    0    0    0  501 -0.00000000000E+00  0.00000000000E+00  0.70444572654E+03  0.70444572654E+03  0.00000000000E+00 0.  1.
          2   -1    0    0  501    0  0.00000000000E+00 -0.00000000000E+00 -0.25964596922E+02  0.25964596922E+02  0.00000000000E+00 0. -1.
         25    2    1    2    0    0 -0.77679627292E+02 -0.76908411652E+01  0.35621500387E+03  0.38552488930E+03  0.12508811996E+03 0.  0.
          5    1    3    3  502    0 -0.92743763595E+02  0.20852630894E+00  0.13630297871E+03  0.16491641390E+03  0.41800000000E+01 0.  1.
         -5    1    3    3    0  502  0.15064136303E+02 -0.78993674741E+01  0.21991202515E+03  0.22060847539E+03  0.41800000000E+01 0.  1.
        -11    1    1    2    0    0  0.12241741724E+02 -0.38990115559E+02  0.83748927163E+02  0.93187832643E+02  0.00000000000E+00 0. -1.
         11    1    1    2    0    0  0.65437885568E+02  0.46680956725E+02  0.23851719859E+03  0.25169760152E+03  0.00000000000E+00 0.  1.
</event>
<event>
 7    1  0.2900135E-009  0.9360153E+02  0.7561462E-02  0.1294357E+00
         -4   -1    0    0    0  501 -0.00000000000E+00  0.00000000000E+00  0.20593043545E+03  0.20593043545E+03  0.00000000000E+00 0.  1.
          4   -1    0    0  501    0  0.00000000000E+00 -0.00000000000E+00 -0.11918019135E+03  0.11918019135E+03  0.00000000000E+00 0. -1.
         25    2    1    2    0    0 -0.10810692711E+02  0.53541188874E+02 -0.55713878850E+02  0.14738567272E+03  0.12503987462E+03 0.  0.
          5    1    3    3  502    0 -0.41795564211E+02  0.73837007292E+02 -0.58778984376E+01  0.85151599654E+02  0.41800000000E+01 0. -1.
         -5    1    3    3    0  502  0.30984871499E+02 -0.20295818417E+02 -0.49835980413E+02  0.62234073069E+02  0.41800000000E+01 0. -1.
        -11    1    1    2    0    0 -0.10712567724E+02 -0.48824241660E+01 -0.10497840938E+02  0.15773453564E+02  0.00000000000E+00 0. -1.
         11    1    1    2    0    0  0.21523260435E+02 -0.48658764708E+02  0.15296196388E+03  0.16195150051E+03  0.00000000000E+00 0.  1.
</event>
<event>
 7    1  0.2900135E-009  0.2362317E+03  0.7561462E-02  0.1122329E+00
          1   -1    0    0  501    0  0.00000000000E+00  0.00000000000E+00  0.29818657256E+03  0.29818657256E+03  0.00000000000E+00 0. -1.
         -1   -1    0    0    0  501 -0.00000000000E+00 -0.00000000000E+00 -0.21601424114E+03  0.21601424114E+03  0.00000000000E+00 0.  1.
         25    2    1    2    0    0  0.18192672818E+03 -0.11118031186E+03  0.12862524645E+03  0.27864437810E+03  0.12505934291E+03 0.  0.
          5    1    3    3  502    0  0.12404732248E+03 -0.13518879188E+03  0.10572125345E+03  0.21179755309E+03  0.41800000000E+01 0. -1.
         -5    1    3    3    0  502  0.57879405701E+02  0.24008480026E+02  0.22903993004E+02  0.66846825003E+02  0.41800000000E+01 0. -1.
        -11    1    1    2    0    0  0.58822741314E+01  0.12879174561E+02  0.85722023083E+01  0.16551644593E+02  0.00000000000E+00 0. -1.
         11    1    1    2    0    0 -0.18780900231E+03  0.98301137297E+02 -0.55025117349E+02  0.21900479101E+03  0.00000000000E+00 0.  1.
</event>
<event>
 7    1  0.2900135E-009  0.2663230E+03  0.7561462E-02  0.1103403E+00
         -3   -1    0    0    0  501 -0.00000000000E+00  0.00000000000E+00  0.64636805719E+03  0.64636805719E+03  0.00000000000E+00 0.  1.
          3   -1    0    0  501    0  0.00000000000E+00 -0.00000000000E+00 -0.12007839280E+03  0.12007839280E+03  0.00000000000E+00 0. -1.
         25    2    1    2    0    0 -0.10755722247E+03  0.22624845658E+03  0.19249175954E+03  0.33979055709E+03  0.12509046721E+03 0.  0.
          5    1    3    3  502    0 -0.97371971162E+02  0.24024438046E+03  0.16593356711E+03  0.30781501621E+03  0.41800000000E+01 0. -1.
         -5    1    3    3    0  502 -0.10185251303E+02 -0.13995923881E+02  0.26558192424E+02  0.31975540874E+02  0.41800000000E+01 0. -1.
        -11    1    1    2    0    0  0.46403972725E+02 -0.15442856772E+03  0.26385264145E+03  0.30922439686E+03  0.00000000000E+00 0.  1.
         11    1    1    2    0    0  0.61153249740E+02 -0.71819888866E+02  0.69945263397E+02  0.11743149604E+03  0.00000000000E+00 0. -1.
</event>
<event>
 7    1  0.2900135E-009  0.1583399E+03  0.7561462E-02  0.1190584E+00
          1   -1    0    0  501    0  0.00000000000E+00  0.00000000000E+00  0.39168315704E+03  0.39168315704E+03  0.00000000000E+00 0. -1.
         -1   -1    0    0    0  501 -0.00000000000E+00 -0.00000000000E+00 -0.75216283277E+02  0.75216283277E+02  0.00000000000E+00 0.  1.
         25    2    1    2    0    0  0.12429713424E+03 -0.34718049693E+02  0.12522336587E+03  0.21904425543E+03  0.12507747168E+03 0.  0.
          5    1    3    3  502    0  0.11649459796E+03 -0.74882628338E+02  0.94529405856E+02  0.16772501409E+03  0.41800000000E+01 0.  1.
         -5    1    3    3    0  502  0.78025362844E+01  0.40164578646E+02  0.30693960014E+02  0.51319241339E+02  0.41800000000E+01 0.  1.
        -11    1    1    2    0    0 -0.78761101985E+02  0.44449067547E+02  0.17765339773E+03  0.19934833964E+03  0.00000000000E+00 0. -1.
         11    1    1    2    0    0 -0.45536032255E+02 -0.97310178541E+01  0.13590110163E+02  0.48506845251E+02  0.00000000000E+00 0.  1.
</event>
<event>
 7    1  0.2900135E-009  0.1153563E+03  0.7561462E-02  0.1250960E+00
          2   -1    0    0  501    0  0.00000000000E+00  0.00000000000E+00  0.23573456797E+02  0.23573456797E+02  0.00000000000E+00 0. -1.
         -2   -1    0    0    0  501 -0.00000000000E+00 -0.00000000000E+00 -0.75937068827E+03  0.75937068827E+03  0.00000000000E+00 0.  1.
         25    2    1    2    0    0 -0.63854560611E+02  0.37279793049E+02 -0.47481761295E+03  0.49655510141E+03  0.12509202728E+03 0.  0.
          5    1    3    3  502    0 -0.32454062293E+02 -0.45432123489E+02 -0.15988820809E+03  0.16940795581E+03  0.41800000000E+01 0. -1.
         -5    1    3    3    0  502 -0.31400498318E+02  0.82711916538E+02 -0.31492940486E+03  0.32714714560E+03  0.41800000000E+01 0. -1.
        -11    1    1    2    0    0  0.17644411496E+02 -0.35807929502E+02 -0.27739597095E+02  0.48610886839E+02  0.00000000000E+00 0. -1.
         11    1    1    2    0    0  0.46210149115E+02 -0.14718635469E+01 -0.23324002143E+03  0.23777815682E+03  0.00000000000E+00 0.  1.
</event>
<event>
 7    1  0.2900135E-009  0.1066887E+03  0.7561462E-02  0.1266828E+00
         -2   -1    0    0    0  501 -0.00000000000E+00  0.00000000000E+00  0.12591355194E+02  0.12591355194E+02  0.00000000000E+00 0. -1.
          2   -1    0    0  501    0  0.00000000000E+00 -0.00000000000E+00 -0.14579892725E+04  0.14579892725E+04  0.00000000000E+00 0.  1.
         25    2    1    2    0    0 -0.25084989690E+02  0.65269217101E+01 -0.12208470289E+04  0.12275124109E+04  0.12508954128E+03 0.  0.
          5    1    3    3  502    0 -0.69081381844E+02  0.30606710043E+02 -0.63080202685E+03  0.63532485981E+03  0.41800000000E+01 0. -1.
         -5    1    3    3    0  502  0.43996392154E+02 -0.24079788333E+02 -0.59004500208E+03  0.59218755104E+03  0.41800000000E+01 0. -1.
        -11    1    1    2    0    0  0.13249219745E+02 -0.45110990920E+02 -0.78117947910E+02  0.91175419447E+02  0.00000000000E+00 0. -1.
         11    1    1    2    0    0  0.11835769945E+02  0.38584069210E+02 -0.14643294050E+03  0.15189279743E+03  0.00000000000E+00 0.  1.
</event>
<event>
 7    1  0.2900135E-009  0.6354825E+02  0.7561462E-02  0.1383517E+00
          3   -1    0    0  501    0  0.00000000000E+00  0.00000000000E+00  0.10710239585E+03  0.10710239585E+03  0.00000000000E+00 0. -1.
         -3   -1    0    0    0  501 -0.00000000000E+00 -0.00000000000E+00 -0.12196751243E+03  0.12196751243E+03  0.00000000000E+00 0.  1.
         25    2    1    2    0    0  0.13298147779E+02 -0.32908402641E+02  0.61439438378E+00  0.13004110938E+03  0.12510199418E+03 0.  0.
          5    1    3    3  502    0  0.32947905016E+02 -0.65118688894E+01 -0.55412497993E+02  0.64930626173E+02  0.41800000000E+01 0. -1.
         -5    1    3    3    0  502 -0.19649757237E+02 -0.26396533751E+02  0.56026892376E+02  0.65110483203E+02  0.41800000000E+01 0. -1.
        -11    1    1    2    0    0  0.10782833891E+02  0.34304239623E+02 -0.47100417285E+02  0.59257908090E+02  0.00000000000E+00 0.  1.
         11    1    1    2    0    0 -0.24080981670E+02 -0.13958369821E+01  0.31620906320E+02  0.39770890807E+02  0.00000000000E+00 0. -1.
</event>
<event>
 7    1  0.2900135E-009  0.8144269E+02  0.7561462E-02  0.1325006E+00
          2   -1    0    0  501    0  0.00000000000E+00  0.00000000000E+00  0.61697294015E+02  0.61697294015E+02  0.00000000000E+00 0. -1.
         -2   -1    0    0    0  501 -0.00000000000E+00 -0.00000000000E+00 -0.21569609169E+03  0.21569609169E+03  0.00000000000E+00 0.  1.
         25    2    1    2    0    0 -0.35927132820E+02  0.12534156581E+02 -0.93186555882E+02  0.16055946809E+03  0.12509094548E+03 0.  0.
          5    1    3    3  502    0  0.12161349957E+02  0.46474132591E+02 -0.89221996193E+02  0.10141883670E+03  0.41800000000E+01 0. -1.
         -5    1    3    3    0  502 -0.48088482778E+02 -0.33939976010E+02 -0.39645596885E+01  0.59140631388E+02  0.41800000000E+01 0. -1.
        -11    1    1    2    0    0 -0.14497209053E+01 -0.17846082150E+02 -0.74542135088E+02  0.76662339139E+02  0.00000000000E+00 0.  1.
         11    1    1    2    0    0  0.37376853726E+02  0.53119255699E+01  0.13729893294E+02  0.40171578480E+02  0.00000000000E+00 0. -1.
</event>
<event>
 7    1  0.2900135E-009  0.7850323E+02  0.7561462E-02  0.1333354E+00
         -1   -1    0    0    0  501 -0.00000000000E+00  0.00000000000E+00  0.37270175844E+03  0.37270175844E+03  0.00000000000E+00 0.  1.
          1   -1    0    0  501    0  0.00000000000E+00 -0.00000000000E+00 -0.43221593667E+02  0.43221593667E+02  0.00000000000E+00 0. -1.
         25    2    1    2    0    0  0.26034630257E+02 -0.19639325176E+02  0.27701196909E+03  0.30568862390E+03  0.12508556551E+03 0.  0.
          5    1    3    3  502    0 -0.13871646890E+02  0.24862581436E+01 -0.81914915030E+01  0.16827863799E+02  0.41800000000E+01 0. -1.
         -5    1    3    3    0  502  0.39906277147E+02 -0.22125583320E+02  0.28520346059E+03  0.28886076010E+03  0.41800000000E+01 0. -1.
        -11    1    1    2    0    0 -0.58399164459E+02  0.25276399506E+02  0.29433656874E+02  0.70112045602E+02  0.00000000000E+00 0. -1.
         11    1    1    2    0    0  0.32364534202E+02 -0.56370743298E+01  0.23034538810E+02  0.40122682603E+02  0.00000000000E+00 0.  1.
</event>
<event>
 7    1  0.2900135E-009  0.1323673E+03  0.7561462E-02  0.1223985E+00
         -4   -1    0    0    0  501 -0.00000000000E+00  0.00000000000E+00  0.59692605384E+03  0.59692605384E+03  0.00000000000E+00 0.  1.
          4   -1    0    0  501    0  0.00000000000E+00 -0.00000000000E+00 -0.30533961207E+02  0.30533961207E+02  0.00000000000E+00 0. -1.
         25    2    1    2    0    0 -0.77282998427E+02  0.21577409653E+02  0.32718225050E+03  0.35935263762E+03  0.12509135331E+03 0.  0.
          5    1    3    3  502    0 -0.88266618078E+02 -0.28568203173E+02  0.16689229085E+03  0.19099122295E+03  0.41800000000E+01 0. -1.
         -5    1    3    3    0  502  0.10983619651E+02  0.50145612825E+02  0.16028995965E+03  0.16836141467E+03  0.41800000000E+01 0. -1.
        -11    1    1    2    0    0  0.23942486997E+02 -0.53208763564E+02  0.10143487382E+03  0.11701901055E+03  0.00000000000E+00 0.  1.
         11    1    1    2    0    0  0.53340511431E+02  0.31631353912E+02  0.13777496832E+03  0.15108836688E+03  0.00000000000E+00 0. -1.
</event>
<event>
 7    1  0.2900135E-009  0.1506176E+03  0.7561462E-02  0.1199716E+00
          1   -1    0    0  501    0  0.00000000000E+00  0.00000000000E+00  0.42809315397E+03  0.42809315397E+03  0.00000000000E+00 0. -1.
         -1   -1    0    0    0  501 -0.00000000000E+00 -0.00000000000E+00 -0.96213091432E+02  0.96213091432E+02  0.00000000000E+00 0.  1.
         25    2    1    2    0    0  0.12259225744E+03 -0.66335258538E+02  0.45118766073E+02  0.19264700994E+03  0.12509172345E+03 0.  0.
          5    1    3    3  502    0  0.12228845973E+03 -0.41202261116E+02  0.78157406203E+02  0.15092430635E+03  0.41800000000E+01 0.  1.
         -5    1    3    3    0  502  0.30379770868E+00 -0.25132997423E+02 -0.33038640130E+02  0.41722703581E+02  0.41800000000E+01 0.  1.
        -11    1    1    2    0    0 -0.65511076090E+02  0.96838856255E+01  0.54167777445E+02  0.85554817775E+02  0.00000000000E+00 0.  1.
         11    1    1    2    0    0 -0.57081181349E+02  0.56651372913E+02  0.23259351902E+03  0.24610441769E+03  0.00000000000E+00 0. -1.
</event>
<event>
 7    1  0.2900135E-009  0.1066507E+03  0.7561462E-02  0.1266901E+00
         -1   -1    0    0    0  501 -0.00000000000E+00  0.00000000000E+00  0.21792894560E+02  0.21792894560E+02  0.00000000000E+00 0.  1.
          1   -1    0    0  501    0  0.00000000000E+00 -0.00000000000E+00 -0.57799632405E+03  0.57799632405E+03  0.00000000000E+00 0. -1.
         25    2    1    2    0    0 -0.14694629062E+02 -0.48902952462E+00 -0.24337293469E+03  0.27403165374E+03  0.12508713218E+03 0.  0.
          5    1    3    3  502    0  0.55205889267E+02 -0.37120980932E+01 -0.11789951447E+03  0.13030440435E+03  0.41800000000E+01 0. -1.
         -5    1    3    3    0  502 -0.69900518329E+02  0.32230685686E+01 -0.12547342023E+03  0.14372724939E+03  0.41800000000E+01 0. -1.
        -11    1    1    2    0    0  0.70732955192E+01  0.43480402709E+02 -0.11458918187E+03  0.12276505012E+03  0.00000000000E+00 0.  1.
         11    1    1    2    0    0  0.76213335426E+01 -0.42991373184E+02 -0.19824131293E+03  0.20299251475E+03  0.00000000000E+00 0. -1.
</event>
<event>
 6    1  0.2900135E-009  0.3421118E+03  0.7561462E-02  0.1065900E+00
         -1   -1    0    0    0  501 -0.00000000000E+00  0.00000000000E+00  0.15903604550E+03  0.15903604550E+03  0.00000000000E+00 0.  1.
          1   -1    0    0  501    0  0.00000000000E+00 -0.00000000000E+00 -0.92936126710E+03  0.92936126710E+03  0.00000000000E+00 0. -1.
          5    1    1    2  502    0 -0.39070070946E+01  0.20234602884E+03 -0.45726492719E+03  0.50006786152E+03  0.41800000000E+01 0.  1.
         -5    1    1    2    0  502  0.71312442322E+01  0.13925100465E+03 -0.12822144620E+03  0.18947271203E+03  0.41800000000E+01 0.  1.
        -11    1    1    2    0    0 -0.12472924419E+02 -0.21917824621E+03 -0.69144239192E+02  0.23016429625E+03  0.00000000000E+00 0.  1.
         11    1    1    2    0    0  0.92486872812E+01 -0.12241878728E+03 -0.11569460903E+03  0.16869244279E+03  0.00000000000E+00 0. -1.
</event>
<event>
 7    1  0.2900135E-009  0.1888545E+03  0.7561462E-02  0.1159499E+00
         -2   -1    0    0    0  501 -0.00000000000E+00  0.00000000000E+00  0.12080041535E+03  0.12080041535E+03  0.00000000000E+00 0. -1.
          2   -1    0    0  501    0  0.00000000000E+00 -0.00000000000E+00 -0.38513155816E+03  0.38513155816E+03  0.00000000000E+00 0.  1.
         25    2    1    2    0    0 -0.12978485239E+03 -0.92495085905E+02 -0.25027307367E+03  0.32199977418E+03  0.12509114415E+03 0.  0.
          5    1    3    3  502    0 -0.66247767020E+02  0.17263586473E+02 -0.49867953860E+02  0.84800255160E+02  0.41800000000E+01 0.  1.
         -5    1    3    3    0  502 -0.63537085365E+02 -0.10975867238E+03 -0.20040511981E+03  0.23719951902E+03  0.41800000000E+01 0.  1.
        -11    1    1    2    0    0  0.93565339990E+02  0.12473416564E+02 -0.17618007276E+02  0.96023190682E+02  0.00000000000E+00 0. -1.
         11    1    1    2    0    0  0.36219512395E+02  0.80021669342E+02  0.35599381318E+01  0.87909008650E+02  0.00000000000E+00 0.  1.
</event>
<event>
 6    1  0.3520365E-009  0.1065079E+03  0.7561462E-02  0.1267177E+00
         -1   -1    0    0    0  501 -0.00000000000E+00  0.00000000000E+00  0.16444065023E+02  0.16444065023E+02  0.00000000000E+00 0.  1.
          1   -1    0    0  501    0  0.00000000000E+00 -0.00000000000E+00 -0.91684953071E+03  0.91684953071E+03  0.00000000000E+00 0. -1.
          5    1    1    2  502    0 -0.16397045645E+02 -0.71269454131E+02 -0.38803150454E+03  0.39488494415E+03  0.41800000000E+01 0. -1.
         -5    1    1    2    0  502 -0.30756781236E+02  0.51137906288E+02 -0.21537139748E+03  0.22352488968E+03  0.41800000000E+01 0. -1.
        -11    1    1    2    0    0  0.12342946296E+02 -0.22040139266E+02 -0.19144349927E+02  0.31695775684E+02  0.00000000000E+00 0.  1.
         11    1    1    2    0    0  0.34810880585E+02  0.42171687108E+02 -0.27785821373E+03  0.28318798622E+03  0.00000000000E+00 0. -1.
</event>
<event>
 7    1  0.2900135E-009  0.1729154E+03  0.7561462E-02  0.1174841E+00
         -1   -1    0    0    0  501 -0.00000000000E+00  0.00000000000E+00  0.46888159340E+03  0.46888159340E+03  0.00000000000E+00 0.  1.
          1   -1    0    0  501    0  0.00000000000E+00 -0.00000000000E+00 -0.79522998544E+02  0.79522998544E+02  0.00000000000E+00 0. -1.
         25    2    1    2    0    0 -0.15712007630E+03  0.21699712624E+01  0.16722154736E+03  0.26134654429E+03  0.12509014013E+03 0.  0.
          5    1    3    3  502    0 -0.15484324169E+03 -0.54887708999E+01  0.81435534588E+02  0.17508790591E+03  0.41800000000E+01 0. -1.
         -5    1    3    3    0  502 -0.22768346121E+01  0.76587421623E+01  0.85786012776E+02  0.86258638382E+02  0.41800000000E+01 0. -1.
        -11    1    1    2    0    0  0.54648870831E+02 -0.44963484189E+02  0.86144238542E+02  0.11148562162E+03  0.00000000000E+00 0. -1.
         11    1    1    2    0    0  0.10247120547E+03  0.42793512927E+02  0.13599280895E+03  0.17557242603E+03  0.00000000000E+00 0.  1.
</event>
<event>
 7    1  0.2900135E-009  0.8472194E+02  0.7561462E-02  0.1316161E+00
          2   -1    0    0  501    0  0.00000000000E+00  0.00000000000E+00  0.89552586217E+02  0.89552586217E+02  0.00000000000E+00 0.  1.
         -2   -1    0    0    0  501 -0.00000000000E+00 -0.00000000000E+00 -0.14517248124E+03  0.14517248124E+03  0.00000000000E+00 0. -1.
         25    2    1    2    0    0  0.17917242183E+02 -0.16352680072E+02 -0.68645611509E+01  0.12761537715E+03  0.12510045792E+03 0.  0.
          5    1    3    3  502    0  0.32835930297E+02  0.18581773083E+02 -0.54580019507E+02  0.66482565675E+02  0.41800000000E+01 0.  1.
         -5    1    3    3    0  502 -0.14918688114E+02 -0.34934453155E+02  0.47715458356E+02  0.61132811471E+02  0.41800000000E+01 0.  1.
        -11    1    1    2    0    0 -0.37136679446E+01 -0.37444122419E+02 -0.30854997167E+02  0.48660913303E+02  0.00000000000E+00 0.  1.
         11    1    1    2    0    0 -0.14203574239E+02  0.53796802490E+02 -0.17900336703E+02  0.58448777005E+02  0.00000000000E+00 0. -1.
</event>
<event>
 7    1  0.2900135E-009  0.5542761E+02  0.7561462E-02  0.1418087E+00
         -1   -1    0    0    0  501 -0.00000000000E+00  0.00000000000E+00  0.29212793798E+03  0.29212793798E+03  0.00000000000E+00 0.  1.
          1   -1    0    0  501    0  0.00000000000E+00 -0.00000000000E+00 -0.44843543832E+02  0.44843543832E+02  0.00000000000E+00 0. -1.
         25    2    1    2    0    0 -0.24627446732E+02 -0.28348156260E+02  0.15715141079E+03  0.20433999176E+03  0.12509251466E+03 0.  0.
          5    1    3    3  502    0 -0.26750973106E+02 -0.13148734015E+02 -0.13471963832E+02  0.32976809697E+02  0.41800000000E+01 0. -1.
         -5    1    3    3    0  502  0.21235263741E+01 -0.15199422245E+02  0.17062337462E+03  0.17136318207E+03  0.41800000000E+01 0. -1.
        -11    1    1    2    0    0 -0.13651881892E+02  0.22225980065E+02  0.90168701292E+02  0.93865663380E+02  0.00000000000E+00 0.  1.
         11    1    1    2    0    0  0.38279328624E+02  0.61221761953E+01 -0.35717935109E-01  0.38765826665E+02  0.00000000000E+00 0. -1.
</event>
<event>
 7    1  0.2900135E-009  0.9697041E+02  0.7561462E-02  0.1286799E+00
         -1   -1    0    0    0  501 -0.00000000000E+00  0.00000000000E+00  0.30509658267E+03  0.30509658267E+03  0.00000000000E+00 0.  1.
          1   -1    0    0  501    0  0.00000000000E+00 -0.00000000000E+00 -0.58596089971E+02  0.58596089971E+02  0.00000000000E+00 0. -1.
         25    2    1    2    0    0 -0.52041721231E+02  0.54146388913E+02  0.14429444233E+03  0.20518728108E+03  0.12506303230E+03 0.  0.
          5    1    3    3  502    0 -0.58512097992E+02  0.48701741853E+00  0.13881495789E+03  0.15070158503E+03  0.41800000000E+01 0.  1.
         -5    1    3    3    0  502  0.64703767612E+01  0.53659371494E+02  0.54794844468E+01  0.54485696053E+02  0.41800000000E+01 0.  1.
        -11    1    1    2    0    0  0.30731228595E+02 -0.50976420399E+02  0.11774922862E+03  0.13193894303E+03  0.00000000000E+00 0.  1.
         11    1    1    2    0    0  0.21310492636E+02 -0.31699685133E+01 -0.15543178258E+02  0.26566448523E+02  0.00000000000E+00 0. -1.
</event>
<event>
 7    1  0.2900135E-009  0.1016263E+03  0.7561462E-02  0.1276913E+00
         -2   -1    0    0    0  501 -0.00000000000E+00  0.00000000000E+00  0.24846214791E+03  0.24846214791E+03  0.00000000000E+00 0.  1.
          2   -1    0    0  501    0  0.00000000000E+00 -0.00000000000E+00 -0.62582261357E+02  0.62582261357E+02  0.00000000000E+00 0. -1.
         25    2    1    2    0    0 -0.14045235026E+02 -0.36296442746E+02  0.16331161425E+03  0.20936546675E+03  0.12509402438E+03 0.  0.
          5    1    3    3  502    0  0.26934068163E+02 -0.53156147008E+02  0.26234999911E+02  0.65243908626E+02  0.41800000000E+01 0.  1.
         -5    1    3    3    0  502 -0.40979303188E+02  0.16859704261E+02  0.13707661434E+03  0.14412155812E+03  0.41800000000E+01 0.  1.
        -11    1    1    2    0    0  0.16917293053E+02 -0.29039526058E+02  0.10190226599E+02  0.35118792634E+02  0.00000000000E+00 0. -1.
         11    1    1    2    0    0 -0.28720580272E+01  0.65335968805E+02  0.12378045705E+02  0.66560149883E+02  0.00000000000E+00 0.  1.
</event>
<event>
 7    1  0.2900135E-009  0.1133335E+03  0.7561462E-02  0.1254518E+00
          1   -1    0    0  501    0  0.00000000000E+00  0.00000000000E+00  0.67325864542E+03  0.67325864542E+03  0.00000000000E+00 0. -1.
         -1   -1    0    0    0  501 -0.00000000000E+00 -0.00000000000E+00 -0.20169489448E+02  0.20169489448E+02  0.00000000000E+00 0.  1.
         25    2    1    2    0    0 -0.12017215787E+02 -0.44317136454E+02  0.37890010160E+03  0.40164835008E+03  0.12509071936E+03 0.  0.
          5    1    3    3  502    0  0.52111455853E+02 -0.44241863946E+02  0.21281277726E+03  0.22356139408E+03  0.41800000000E+01 0. -1.
         -5    1    3    3    0  502 -0.64128671640E+02 -0.75272507420E-01  0.16608732434E+03  0.17808695601E+03  0.41800000000E+01 0. -1.
        -11    1    1    2    0    0  0.45718401207E+02  0.38386254491E+02  0.21768314025E+03  0.22572023900E+03  0.00000000000E+00 0.  1.
         11    1    1    2    0    0 -0.33701185420E+02  0.59308819625E+01  0.56505914123E+02  0.66059545793E+02  0.00000000000E+00 0. -1.
</event>
<event>
 7    1  0.2900135E-009  0.1279702E+03  0.7561462E-02  0.1230499E+00
         -2   -1    0    0    0  501 -0.00000000000E+00  0.00000000000E+00  0.36730830028E+02  0.36730830028E+02  0.00000000000E+00 0.  1.
          2   -1    0    0  501    0  0.00000000000E+00 -0.00000000000E+00 -0.75870252700E+03  0.75870252700E+03  0.00000000000E+00 0. -1.
         25    2    1    2    0    0  0.55658737501E+02  0.82100787264E+02 -0.57215386249E+03  0.59400805682E+03  0.12508834825E+03 0.  0.
          5    1    3    3  502    0  0.21533143691E+02  0.10377917808E+03 -0.28704193000E+03  0.30601362071E+03  0.41800000000E+01 0.  1.
         -5    1    3    3    0  502  0.34125593811E+02 -0.21678390814E+02 -0.28511193249E+03  0.28799443611E+03  0.41800000000E+01 0.  1.
        -11    1    1    2    0    0  0.49997379337E+01 -0.26404612574E+02  0.37860041165E+01  0.27139174117E+02  0.00000000000E+00 0.  1.
         11    1    1    2    0    0 -0.60658475435E+02 -0.55696174690E+02 -0.15360383860E+03  0.17428612609E+03  0.00000000000E+00 0. -1.
</event>
<event>
 7    1  0.2900135E-009  0.8669362E+02  0.7561462E-02  0.1311062E+00
         -1   -1    0    0    0  501 -0.00000000000E+00  0.00000000000E+00  0.48415321787E+03  0.48415321787E+03  0.00000000000E+00 0.  1.
          1   -1    0    0  501    0  0.00000000000E+00 -0.00000000000E+00 -0.24320595415E+02  0.24320595415E+02  0.00000000000E+00 0. -1.
         25    2    1    2    0    0 -0.10341800290E+02 -0.23030457635E+00  0.28065882645E+03  0.30744687548E+03  0.12508876252E+03 0.  0.
          5    1    3    3  502    0 -0.42310046559E+02  0.19394925865E+02  0.33686061905E+02  0.57606652010E+02  0.41800000000E+01 0.  1.
         -5    1    3    3    0  502  0.31968246269E+02 -0.19625230441E+02  0.24697276454E+03  0.24984022347E+03  0.41800000000E+01 0.  1.
        -11    1    1    2    0    0  0.48843198347E+02 -0.81267229563E+01  0.77282248883E+02  0.91783700313E+02  0.00000000000E+00 0. -1.
         11    1    1    2    0    0 -0.38501398057E+02  0.83570275327E+01  0.10189154713E+03  0.10924323749E+03  0.00000000000E+00 0.  1.
</event>
<event>
 7    1  0.2900135E-009  0.1387563E+03  0.7561462E-02  0.1215012E+00
         -4   -1    0    0    0  501 -0.00000000000E+00  0.00000000000E+00  0.97643512691E+03  0.97643512691E+03  0.00000000000E+00 0.  1.
          4   -1    0    0  501    0  0.00000000000E+00 -0.00000000000E+00 -0.20120304630E+02  0.20120304630E+02  0.00000000000E+00 0. -1.
         25    2    1    2    0    0 -0.25793710345E+02  0.72171346984E+02  0.54367423407E+03  0.56311942672E+03  0.12509115529E+03 0.  0.
          5    1    3    3  502    0 -0.16988646534E+02 -0.34506715901E+02  0.17322799549E+03  0.17749574185E+03  0.41800000000E+01 0.  1.
         -5    1    3    3    0  502 -0.88050638108E+01  0.10667806288E+03  0.37044623858E+03  0.38562368487E+03  0.41800000000E+01 0.  1.
        -11    1    1    2    0    0  0.65826619805E+02 -0.26478537132E+02  0.24779213917E+03  0.25775026875E+03  0.00000000000E+00 0. -1.
         11    1    1    2    0    0 -0.40032909461E+02 -0.45692809852E+02  0.16484844904E+03  0.17568573608E+03  0.00000000000E+00 0.  1.
</event>
<event>
 7    1  0.2900135E-009  0.1486945E+03  0.7561462E-02  0.1202086E+00
          2   -1    0    0  501    0  0.00000000000E+00  0.00000000000E+00  0.27448960466E+04  0.27448960466E+04  0.00000000000E+00 0.  1.
         -2   -1    0    0    0  501 -0.00000000000E+00 -0.00000000000E+00 -0.14867152100E+02  0.14867152100E+02  0.00000000000E+00 0. -1.
         25    2    1    2    0    0  0.10934689998E+03  0.50222715895E+02  0.21355231743E+04  0.21425652766E+04  0.12509064988E+03 0.  0.
          5    1    3    3  502    0  0.37622514115E+02  0.50471618543E+02  0.16988493913E+04  0.17000204600E+04  0.41800000000E+01 0. -1.
         -5    1    3    3    0  502  0.71724385865E+02 -0.24890264786E+00  0.43667378307E+03  0.44254481660E+03  0.41800000000E+01 0. -1.
        -11    1    1    2    0    0  0.11088368186E+02 -0.40086453671E+02  0.10369328852E+03  0.11172364907E+03  0.00000000000E+00 0.  1.
         11    1    1    2    0    0 -0.12043526817E+03 -0.10136262224E+02  0.49081243169E+03  0.50547427306E+03  0.00000000000E+00 0. -1.
</event>
<event>
 7    1  0.2900135E-009  0.9953723E+02  0.7561462E-02  0.1281272E+00
         -1   -1    0    0    0  501 -0.00000000000E+00  0.00000000000E+00  0.77622869240E+02  0.77622869240E+02  0.00000000000E+00 0.  1.
          1   -1    0    0  501    0  0.00000000000E+00 -0.00000000000E+00 -0.16570390586E+03  0.16570390586E+03  0.00000000000E+00 0. -1.
         25    2    1    2    0    0 -0.16038794858E+02  0.40746576271E+02 -0.18313880813E+02  0.13379114675E+03  0.12508855383E+03 0.  0.
          5    1    3    3  502    0 -0.60075424911E+02  0.36464791817E+02  0.22032321555E+02  0.73767427186E+02  0.41800000000E+01 0. -1.
         -5    1    3    3    0  502  0.44036630053E+02  0.42817844542E+01 -0.40346202368E+02  0.60023719562E+02  0.41800000000E+01 0. -1.
        -11    1    1    2    0    0  0.42354275528E+02 -0.95466265863E+01 -0.32096402440E+02  0.53992608607E+02  0.00000000000E+00 0.  1.
         11    1    1    2    0    0 -0.26315480670E+02 -0.31199949685E+02 -0.37670753370E+02  0.55543019747E+02  0.00000000000E+00 0. -1.
</event>
<event>
 7    1  0.2900135E-009  0.1091161E+03  0.7561462E-02  0.1262216E+00
          2   -1    0    0  501    0  0.00000000000E+00  0.00000000000E+00  0.61973939764E+02  0.61973939764E+02  0.00000000000E+00 0. -1.
         -2   -1    0    0    0  501 -0.00000000000E+00 -0.00000000000E+00 -0.36308476887E+03  0.36308476887E+03  0.00000000000E+00 0.  1.
         25    2    1    2    0    0 -0.96557385188E+02 -0.22533572723E+02 -0.12254839607E+03  0.20123771011E+03  0.12508963209E+03 0.  0.
          5    1    3    3  502    0 -0.67038645314E+01  0.17493683021E+02  0.20176765378E+02  0.27848608698E+02  0.41800000000E+01 0. -1.
         -5    1    3    3    0  502 -0.89853520657E+02 -0.40027255745E+02 -0.14272516145E+03  0.17338910141E+03  0.41800000000E+01 0. -1.
        -11    1    1    2    0    0  0.61352517358E+02  0.58682521735E+01 -0.26918178168E+02  0.67254413131E+02  0.00000000000E+00 0. -1.
         11    1    1    2    0    0  0.35204867830E+02  0.16665320550E+02 -0.15164425487E+03  0.15656658540E+03  0.00000000000E+00 0.  1.
</event>
<event>
 7    1  0.2900135E-009  0.1175717E+03  0.7561462E-02  0.1247158E+00
         -1   -1    0    0    0  501 -0.00000000000E+00  0.00000000000E+00  0.42912609528E+02  0.42912609528E+02  0.00000000000E+00 0.  1.
          1   -1    0    0  501    0  0.00000000000E+00 -0.00000000000E+00 -0.37788554388E+03  0.37788554388E+03  0.00000000000E+00 0. -1.
         25    2    1    2    0    0  0.24030299422E+02 -0.54861228989E+02 -0.13491074335E+03  0.19348380710E+03  0.12509142737E+03 0.  0.
          5    1    3    3  502    0  0.51975278488E+02 -0.78187041091E+02 -0.64109172807E+02  0.11376335705E+03  0.41800000000E+01 0. -1.
         -5    1    3    3    0  502 -0.27944979066E+02  0.23325812102E+02 -0.70801570544E+02  0.79720450054E+02  0.41800000000E+01 0. -1.
        -11    1    1    2    0    0  0.15370054574E+02 -0.16784805739E+02 -0.23371973134E+02  0.32622345248E+02  0.00000000000E+00 0.  1.
         11    1    1    2    0    0 -0.39400353996E+02  0.71646034728E+02 -0.17669021787E+03  0.19469200106E+03  0.00000000000E+00 0. -1.
</event>
<event>
 7    1  0.2900135E-009  0.2034609E+03  0.7561462E-02  0.1146851E+00
          2   -1    0    0  501    0  0.00000000000E+00  0.00000000000E+00  0.24919001709E+04  0.24919001709E+04  0.00000000000E+00 0. -1.
         -2   -1    0    0    0  501 -0.00000000000E+00 -0.00000000000E+00 -0.25153366018E+02  0.25153366018E+02  0.00000000000E+00 0.  1.
         25    2    1    2    0    0 -0.66420817536E+02  0.19027465332E+03  0.17811479632E+04  0.17968726276E+04  0.12508798759E+03 0.  0.
          5    1    3    3  502    0 -0.36602972226E+02  0.14094869742E+03  0.74477498290E+03  0.75888968924E+03  0.41800000000E+01 0. -1.
         -5    1    3    3    0  502 -0.29817845311E+02  0.49325955900E+02  0.10363729803E+04  0.10379829384E+04  0.41800000000E+01 0. -1.
        -11    1    1    2    0    0  0.54026076262E+02 -0.11376807627E+03  0.54770351797E+03  0.56199745167E+03  0.00000000000E+00 0. -1.
         11    1    1    2    0    0  0.12394741275E+02 -0.76506577049E+02  0.13789532376E+03  0.15818345760E+03  0.00000000000E+00 0.  1.
</event>
<event>
 7    1  0.2900135E-009  0.8061515E+02  0.7561462E-02  0.1327315E+00
          2   -1    0    0  501    0  0.00000000000E+00  0.00000000000E+00  0.10137243977E+03  0.10137243977E+03  0.00000000000E+00 0. -1.
         -2   -1    0    0    0  501 -0.00000000000E+00 -0.00000000000E+00 -0.22089151001E+03  0.22089151001E+03  0.00000000000E+00 0.  1.
         25    2    1    2    0    0 -0.72388155521E+02 -0.14369644785E+01 -0.14656858327E+03  0.20584019207E+03  0.12508287310E+03 0.  0.
          5    1    3    3  502    0  0.27236876290E+01  0.64789394520E+01 -0.12759071460E+03  0.12785248524E+03  0.41800000000E+01 0. -1.
         -5    1    3    3    0  502 -0.75111843150E+02 -0.79159039305E+01 -0.18977868666E+02  0.77987706823E+02  0.41800000000E+01 0. -1.
        -11    1    1    2    0    0  0.18824883272E+02  0.12656465653E+02 -0.29841246618E+02  0.37484161358E+02  0.00000000000E+00 0.  1.
         11    1    1    2    0    0  0.53563272249E+02 -0.11219501174E+02  0.56890759637E+02  0.78939596355E+02  0.00000000000E+00 0. -1.
</event>
<event>
 7    1  0.2900135E-009  0.9461591E+02  0.7561462E-02  0.1292044E+00
         -1   -1    0    0    0  501 -0.00000000000E+00  0.00000000000E+00  0.17237986838E+03  0.17237986838E+03  0.00000000000E+00 0.  1.
          1   -1    0    0  501    0  0.00000000000E+00 -0.00000000000E+00 -0.84674590989E+02  0.84674590989E+02  0.00000000000E+00 0. -1.
         25    2    1    2    0    0  0.17130430619E+02 -0.47381461436E+02  0.27682197720E+02  0.13766899868E+03  0.12509194453E+03 0.  0.
          5    1    3    3  502    0  0.39986264612E+02 -0.89115545279E+01 -0.39354710706E+02  0.56961239597E+02  0.41800000000E+01 0. -1.
         -5    1    3    3    0  502 -0.22855833993E+02 -0.38469906909E+02  0.67036908426E+02  0.80707759084E+02  0.41800000000E+01 0. -1.
        -11    1    1    2    0    0 -0.37131041825E+02 -0.13125639153E+02  0.20520168044E+02  0.44408039438E+02  0.00000000000E+00 0.  1.
         11    1    1    2    0    0  0.20000611206E+02  0.60507100590E+02  0.39502911631E+02  0.74977421252E+02  0.00000000000E+00 0. -1.
</event>
<event>
 7    1  0.5003602E-009  0.1016911E+03  0.7561462E-02  0.1276779E+00
          1   -1    0    0  501    0  0.00000000000E+00  0.00000000000E+00  0.17517854035E+03  0.17517854035E+03  0.00000000000E+00 0. -1.
         -1   -1    0    0    0  501 -0.00000000000E+00 -0.00000000000E+00 -0.85109971044E+02  0.85109971044E+02  0.00000000000E+00 0.  1.
         25    2    1    2    0    0  0.39618010719E+01  0.47950013529E+02  0.19477935321E+02  0.13543209561E+03  0.12509021901E+03 0.  0.
          5    1    3    3  502    0  0.63426921481E+02  0.36330137107E+02  0.83741272330E+01  0.73691598148E+02  0.41800000000E+01 0. -1.
         -5    1    3    3    0  502 -0.59465120409E+02  0.11619876423E+02  0.11103808088E+02  0.61740497466E+02  0.41800000000E+01 0. -1.
        -11    1    1    2    0    0 -0.21633412568E+02 -0.39139709250E+01 -0.15262725979E+02  0.26763305327E+02  0.00000000000E+00 0.  1.
         11    1    1    2    0    0  0.17671611496E+02 -0.44036042604E+02  0.85853359965E+02  0.98093110453E+02  0.00000000000E+00 0. -1.
</event>
<event>
 7    1  0.2900135E-009  0.2230032E+03  0.7561462E-02  0.1131664E+00
          2   -1    0    0  501    0  0.00000000000E+00  0.00000000000E+00  0.72183814723E+03  0.72183814723E+03  0.00000000000E+00 0. -1.
         -2   -1    0    0    0  501 -0.00000000000E+00 -0.00000000000E+00 -0.90224818219E+02  0.90224818219E+02  0.00000000000E+00 0.  1.
         25    2    1    2    0    0  0.18011664086E+03  0.10958820381E+03  0.47217985869E+03  0.53202669868E+03  0.12508801072E+03 0.  0.
          5    1    3    3  502    0  0.17996931001E+03  0.87411202111E+02  0.46811434453E+03  0.50909545545E+03  0.41800000000E+01 0.  1.
         -5    1    3    3    0  502  0.14733084814E+00  0.22177001697E+02  0.40655141543E+01  0.22931243228E+02  0.41800000000E+01 0.  1.
        -11    1    1    2    0    0 -0.13469891128E+03 -0.40527305856E+02  0.66276285690E+02  0.15549535448E+03  0.00000000000E+00 0.  1.
         11    1    1    2    0    0 -0.45417729585E+02 -0.69060897952E+02  0.93157184631E+02  0.12454091229E+03  0.00000000000E+00 0. -1.
</event>
<event>
 7    1  0.2900135E-009  0.1204769E+03  0.7561462E-02  0.1242312E+00
          2   -1    0    0  501    0  0.00000000000E+00  0.00000000000E+00  0.13028446126E+03  0.13028446126E+03  0.00000000000E+00 0. -1.
         -2   -1    0    0    0  501 -0.00000000000E+00 -0.00000000000E+00 -0.19319133318E+03  0.19319133318E+03  0.00000000000E+00 0.  1.
         25    2    1    2    0    0  0.64759749059E+02 -0.70399741519E+02  0.31432901301E+02  0.16058453895E+03  0.12509763452E+03 0.  0.
          5    1    3    3  502    0  0.26024454117E+02 -0.85673540823E+02 -0.22406571671E+02  0.92394559706E+02  0.41800000000E+01 0. -1.
         -5    1    3    3    0  502  0.38735294942E+02  0.15273799304E+02  0.53839472972E+02  0.68189979244E+02  0.41800000000E+01 0. -1.
        -11    1    1    2    0    0  0.83888459322E+00  0.34846107454E+02  0.84593447067E+01  0.35868028172E+02  0.00000000000E+00 0. -1.
         11    1    1    2    0    0 -0.65598633652E+02  0.35553634065E+02 -0.10279911793E+03  0.12702322732E+03  0.00000000000E+00 0.  1.
</event>
<event>
 7    1  0.2900135E-009  0.8929834E+02  0.7561462E-02  0.1304560E+00
         -2   -1    0    0    0  501 -0.00000000000E+00  0.00000000000E+00  0.20744840928E+03  0.20744840928E+03  0.00000000000E+00 0.  1.
          2   -1    0    0  501    0  0.00000000000E+00 -0.00000000000E+00 -0.78604913683E+02  0.78604913683E+02  0.00000000000E+00 0. -1.
         25    2    1    2    0    0 -0.20920905183E+02 -0.50285541900E+01 -0.31390939808E+00  0.12692085454E+03  0.12508330882E+03 0.  0.
          5    1    3    3  502    0  0.31346241908E+02  0.23250543981E+02  0.39168713771E+02  0.55451196702E+02  0.41800000000E+01 0.  1.
         -5    1    3    3    0  502 -0.52267147091E+02 -0.28279098171E+02 -0.39482623169E+02  0.71469657833E+02  0.41800000000E+01 0.  1.
        -11    1    1    2    0    0  0.45704573280E+02  0.20988992495E+02  0.37173462738E+02  0.62540484141E+02  0.00000000000E+00 0. -1.
         11    1    1    2    0    0 -0.24783668097E+02 -0.15960438305E+02  0.91983942259E+02  0.96591984288E+02  0.00000000000E+00 0.  1.
</event>
<event>
 7    1  0.2900135E-009  0.2026147E+03  0.7561462E-02  0.1147552E+00
         -1   -1    0    0    0  501 -0.00000000000E+00  0.00000000000E+00  0.11801466806E+03  0.11801466806E+03  0.00000000000E+00 0.  1.
          1   -1    0    0  501    0  0.00000000000E+00 -0.00000000000E+00 -0.42184279036E+03  0.42184279036E+03  0.00000000000E+00 0. -1.
         25    2    1    2    0    0 -0.37493475495E+02 -0.18635105525E+03 -0.10553875718E+03  0.25083640099E+03  0.12509194337E+03 0.  0.
          5    1    3    3  502    0 -0.29789493074E+02 -0.19326910246E+01  0.11473068877E+02  0.32252951829E+02  0.41800000000E+01 0. -1.
         -5    1    3    3    0  502 -0.77039824204E+01 -0.18441836423E+03 -0.11701182605E+03  0.21858344916E+03  0.41800000000E+01 0. -1.
        -11    1    1    2    0    0  0.28579769034E+02  0.11254419602E+03 -0.56967986373E+02  0.12933812557E+03  0.00000000000E+00 0.  1.
         11    1    1    2    0    0  0.89137064607E+01  0.73806859236E+02 -0.14132137876E+03  0.15968293186E+03  0.00000000000E+00 0. -1.
</event>
<event>
 7    1  0.2900135E-009  0.6997348E+02  0.7561462E-02  0.1360183E+00
          1   -1    0    0  501    0  0.00000000000E+00  0.00000000000E+00  0.37211582176E+02  0.37211582176E+02  0.00000000000E+00 0. -1.
         -1   -1    0    0    0  501 -0.00000000000E+00 -0.00000000000E+00 -0.47428709670E+03  0.47428709670E+03  0.00000000000E+00 0.  1.
         25    2    1    2    0    0  0.11172780199E+02  0.19786625824E+02 -0.16291086284E+03  0.20664890594E+03  0.12508988576E+03 0.  0.
          5    1    3    3  502    0  0.28088594806E+02  0.15603735590E+02  0.91403966056E+01  0.33666971540E+02  0.41800000000E+01 0. -1.
         -5    1    3    3    0  502 -0.16915814608E+02  0.41828902342E+01 -0.17205125944E+03  0.17298193441E+03  0.41800000000E+01 0. -1.
        -11    1    1    2    0    0 -0.23999700311E+02  0.29882118933E+02 -0.15823166576E+02  0.41464433524E+02  0.00000000000E+00 0. -1.
         11    1    1    2    0    0  0.12826920113E+02 -0.49668744757E+02 -0.25834148511E+03  0.26338533940E+03  0.00000000000E+00 0.  1.
</event>
<event>
 7    1  0.2900135E-009  0.9763099E+02  0.7561462E-02  0.1285358E+00
          2   -1    0    0  501    0  0.00000000000E+00  0.00000000000E+00  0.51204613704E+02  0.51204613704E+02  0.00000000000E+00 0. -1.
         -2   -1    0    0    0  501 -0.00000000000E+00 -0.00000000000E+00 -0.59312530977E+03  0.59312530977E+03  0.00000000000E+00 0.  1.
         25    2    1    2    0    0 -0.38136918024E+02  0.41719899354E+02 -0.58345690063E+02  0.14915232698E+03  0.12508885872E+03 0.  0.
          5    1    3    3  502    0 -0.11744248807E+02 -0.19684527880E+02 -0.76334725418E+02  0.79811469868E+02  0.41800000000E+01 0. -1.
         -5    1    3    3    0  502 -0.26392669217E+02  0.61404427234E+02  0.17989035355E+02  0.69340857114E+02  0.41800000000E+01 0. -1.
        -11    1    1    2    0    0  0.27055401161E+02  0.25314301625E+02 -0.21324458996E+03  0.21643951521E+03  0.00000000000E+00 0.  1.
         11    1    1    2    0    0  0.11081516863E+02 -0.67034200980E+02 -0.27033041604E+03  0.27873808128E+03  0.00000000000E+00 0. -1.
</event>
<event>
 7    1  0.2900135E-009  0.3405720E+03  0.7561462E-02  0.1066553E+00
         -1   -1    0    0    0  501 -0.00000000000E+00  0.00000000000E+00  0.29805696453E+03  0.29805696453E+03  0.00000000000E+00 0.  1.
          1   -1    0    0  501    0  0.00000000000E+00 -0.00000000000E+00 -0.50697711732E+03  0.50697711732E+03  0.00000000000E+00 0. -1.
         25    2    1    2    0    0 -0.26628277016E+03 -0.19871611198E+03  0.70005719346E+02  0.36186119299E+03  0.12509242746E+03 0.  0.
          5    1    3    3  502    0 -0.22025712244E+03 -0.13502451205E+03  0.28353553149E+01  0.25839955588E+03  0.41800000000E+01 0. -1.
         -5    1    3    3    0  502 -0.46025647719E+02 -0.63691599926E+02  0.67170364031E+02  0.10346163711E+03  0.41800000000E+01 0. -1.
        -11    1    1    2    0    0  0.20330295382E+03  0.19383584985E+03 -0.23494449143E+03  0.36620123125E+03  0.00000000000E+00 0.  1.
         11    1    1    2    0    0  0.62979816343E+02  0.48802621309E+01 -0.43981380710E+02  0.76971657603E+02  0.00000000000E+00 0. -1.
</event>
<event>
 7    1  0.2900135E-009  0.1264080E+03  0.7561462E-02  0.1232885E+00
         -4   -1    0    0    0  501 -0.00000000000E+00  0.00000000000E+00  0.19769393653E+02  0.19769393653E+02  0.00000000000E+00 0.  1.
          4   -1    0    0  501    0  0.00000000000E+00 -0.00000000000E+00 -0.89713334799E+03  0.89713334799E+03  0.00000000000E+00 0. -1.
         25    2    1    2    0    0 -0.48402548446E+02  0.42377731546E+02 -0.62245336551E+03  0.63814827914E+03  0.12508539129E+03 0.  0.
          5    1    3    3  502    0 -0.90326278079E+02  0.21224923026E+02 -0.38332687144E+03  0.39441893545E+03  0.41800000000E+01 0.  1.
         -5    1    3    3    0  502  0.41923729633E+02  0.21152808520E+02 -0.23912649407E+03  0.24372934370E+03  0.41800000000E+01 0.  1.
        -11    1    1    2    0    0  0.71081241006E+02 -0.52086447892E+02 -0.19747641301E+03  0.21624632846E+03  0.00000000000E+00 0. -1.
         11    1    1    2    0    0 -0.22678692560E+02  0.97087163454E+01 -0.57434175821E+02  0.62508134043E+02  0.00000000000E+00 0.  1.
</event>
<event>
 7    1  0.2900135E-009  0.8327309E+02  0.7561462E-02  0.1320011E+00
         -1   -1    0    0    0  501 -0.00000000000E+00  0.00000000000E+00  0.18242313374E+03  0.18242313374E+03  0.00000000000E+00 0.  1.
          1   -1    0    0  501    0  0.00000000000E+00 -0.00000000000E+00 -0.10166176461E+03  0.10166176461E+03  0.00000000000E+00 0. -1.
         25    2    1    2    0    0  0.66492123550E+02  0.38264321926E+02  0.76435481593E+02  0.16545701240E+03  0.12509308246E+03 0.  0.
          5    1    3    3  502    0  0.39297319471E+02  0.68929755233E+01  0.10664597190E+03  0.11394133645E+03  0.41800000000E+01 0.  1.
         -5    1    3    3    0  502  0.27194804079E+02  0.31371346403E+02 -0.30210490309E+02  0.51515675951E+02  0.41800000000E+01 0.  1.
        -11    1    1    2    0    0 -0.31580971279E+02  0.17134624221E+01 -0.38930119636E+02  0.50158228790E+02  0.00000000000E+00 0. -1.
         11    1    1    2    0    0 -0.34911152271E+02 -0.39977784348E+02  0.43256007173E+02  0.68469657154E+02  0.00000000000E+00 0.  1.
</event>
<event>
 7    1  0.2900135E-009  0.1042246E+03  0.7561462E-02  0.1271655E+00
         -1   -1    0    0    0  501 -0.00000000000E+00  0.00000000000E+00  0.15359471872E+02  0.15359471872E+02  0.00000000000E+00 0.  1.
          1   -1    0    0  501    0  0.00000000000E+00 -0.00000000000E+00 -0.11419211371E+04  0.11419211371E+04  0.00000000000E+00 0. -1.
         25    2    1    2    0    0 -0.57520061371E+02  0.48644685294E+02 -0.60685087022E+03  0.62417240709E+03  0.12509337400E+03 0.  0.
          5    1    3    3  502    0 -0.18909049672E+02 -0.16114453037E+02 -0.19162933003E+02  0.31653090804E+02  0.41800000000E+01 0. -1.
         -5    1    3    3    0  502 -0.38611011700E+02  0.64759138331E+02 -0.58768793721E+03  0.59251931628E+03  0.41800000000E+01 0. -1.
        -11    1    1    2    0    0  0.72750643295E+02 -0.20239698314E+02 -0.45019297904E+03  0.45648222295E+03  0.00000000000E+00 0. -1.
         11    1    1    2    0    0 -0.15230581923E+02 -0.28404986980E+02 -0.69517815964E+02  0.76625978933E+02  0.00000000000E+00 0.  1.
</event>
<event>
 7    1  0.2900135E-009  0.1221293E+03  0.7561462E-02  0.1239625E+00
          2   -1    0    0  501    0  0.00000000000E+00  0.00000000000E+00  0.30242809646E+03  0.30242809646E+03  0.00000000000E+00 0. -1.
         -2   -1    0    0    0  501 -0.00000000000E+00 -0.00000000000E+00 -0.61342899161E+02  0.61342899161E+02  0.00000000000E+00 0.  1.
         25    2    1    2    0    0 -0.73827364086E+02 -0.31358048473E+02  0.15932171374E+03  0.21786377498E+03  0.12508960424E+03 0.  0.
          5    1    3    3  502    0  0.11878217142E+02 -0.57487294171E+02  0.65883972266E+02  0.88340541288E+02  0.41800000000E+01 0. -1.
         -5    1    3    3    0  502 -0.85705581228E+02  0.26129245698E+02  0.93437741478E+02  0.12952323370E+03  0.41800000000E+01 0. -1.
        -11    1    1    2    0    0  0.52383067677E+02 -0.59079666002E+01  0.87880612986E+02  0.10247873920E+03  0.00000000000E+00 0. -1.
         11    1    1    2    0    0  0.21444296408E+02  0.37266015073E+02 -0.61171294283E+01  0.43428481442E+02  0.00000000000E+00 0.  1.
</event>
<event>
 7    1  0.2900135E-009  0.2645436E+03  0.7561462E-02  0.1104444E+00
          3   -1    0    0  501    0  0.00000000000E+00  0.00000000000E+00  0.16492471959E+04  0.16492471959E+04  0.00000000000E+00 0. -1.
         -3   -1    0    0    0  501 -0.00000000000E+00 -0.00000000000E+00 -0.45520576715E+02  0.45520576715E+02  0.00000000000E+00 0.  1.
         25    2    1    2    0    0  0.24508990759E+03  0.52896821727E+02  0.84338295851E+03  0.88871138973E+03  0.12508390381E+03 0.  0.
          5    1    3    3  502    0  0.69403554551E+02 -0.39307215735E+02  0.19792397595E+03  0.21343215139E+03  0.41800000000E+01 0. -1.
         -5    1    3    3    0  502  0.17568635304E+03  0.92204037462E+02  0.64545898256E+03  0.67527923834E+03  0.41800000000E+01 0. -1.
        -11    1    1    2    0    0 -0.14922409448E+03 -0.30368110584E+02  0.58960853954E+03  0.60895671637E+03  0.00000000000E+00 0. -1.
         11    1    1    2    0    0 -0.95865813114E+02 -0.22528711144E+02  0.17073512118E+03  0.19709966655E+03  0.00000000000E+00 0.  1.
</event>
<event>
 7    1  0.2900135E-009  0.1300810E+03  0.7561462E-02  0.1227336E+00
          1   -1    0    0  501    0  0.00000000000E+00  0.00000000000E+00  0.33256249846E+02  0.33256249846E+02  0.00000000000E+00 0. -1.
         -1   -1    0    0    0  501 -0.00000000000E+00 -0.00000000000E+00 -0.66910607592E+03  0.66910607592E+03  0.00000000000E+00 0.  1.
         25    2    1    2    0    0  0.98293857017E+02  0.24065519891E+02 -0.31635077836E+03  0.35491622305E+03  0.12508748474E+03 0.  0.
          5    1    3    3  502    0 -0.40272930058E+01 -0.37148571155E+02 -0.11367422186E+03  0.11973110098E+03  0.41800000000E+01 0.  1.
         -5    1    3    3    0  502  0.10232115002E+03  0.61214091045E+02 -0.20267655651E+03  0.23518512207E+03  0.41800000000E+01 0.  1.
        -11    1    1    2    0    0 -0.90434328290E+02 -0.15718218238E+02 -0.32273392681E+03  0.33553333311E+03  0.00000000000E+00 0.  1.
         11    1    1    2    0    0 -0.78595287265E+01 -0.83473016530E+01  0.32348791007E+01  0.11912769598E+02  0.00000000000E+00 0. -1.
</event>
<event>
 7    1  0.2900135E-009  0.1183927E+03  0.7561462E-02  0.1245772E+00
          2   -1    0    0  501    0  0.00000000000E+00  0.00000000000E+00  0.60519989258E+03  0.60519989258E+03  0.00000000000E+00 0. -1.
         -2   -1    0    0    0  501 -0.00000000000E+00 -0.00000000000E+00 -0.32697818585E+02  0.32697818585E+02  0.00000000000E+00 0.  1.
         25    2    1    2    0    0  0.61586795615E+02 -0.63073439906E+02  0.31832473744E+03  0.35319272702E+03  0.12507306560E+03 0.  0.
          5    1    3    3  502    0 -0.12518781292E+02  0.56631968115E+01 -0.43705431580E+01  0.15012186072E+02  0.41800000000E+01 0. -1.
         -5    1    3    3    0  502  0.74105576907E+02 -0.68736636718E+02  0.32269528060E+03  0.33818054095E+03  0.41800000000E+01 0. -1.
        -11    1    1    2    0    0  0.17235199405E+02  0.32365887978E+02  0.39170657862E+02  0.53655784781E+02  0.00000000000E+00 0.  1.
         11    1    1    2    0    0 -0.78821995019E+02  0.30707551928E+02  0.21500667869E+03  0.23104919936E+03  0.00000000000E+00 0. -1.
</event>
<event>
 7    1  0.2900135E-009  0.1069600E+03  0.7561462E-02  0.1266305E+00
          2   -1    0    0  501    0  0.00000000000E+00  0.00000000000E+00  0.31063942061E+02  0.31063942061E+02  0.00000000000E+00 0. -1.
         -2   -1    0    0    0  501 -0.00000000000E+00 -0.00000000000E+00 -0.53021318232E+03  0.53021318232E+03  0.00000000000E+00 0.  1.
         25    2    1    2    0    0 -0.14377160781E+02  0.51186678689E+02 -0.41290293053E+03  0.43469931880E+03  0.12509152207E+03 0.  0.
          5    1    3    3  502    0  0.36050111390E+02 -0.14025174985E+02 -0.23966510988E+03  0.24280270460E+03  0.41800000000E+01 0. -1.
         -5    1    3    3    0  502 -0.50427272171E+02  0.65211853673E+02 -0.17323782065E+03  0.19189661420E+03  0.41800000000E+01 0. -1.
        -11    1    1    2    0    0  0.39919776671E+02 -0.53581330383E+02 -0.65733232145E+02  0.93730493135E+02  0.00000000000E+00 0.  1.
         11    1    1    2    0    0 -0.25542615891E+02  0.23946516943E+01 -0.20513077583E+02  0.32847312450E+02  0.00000000000E+00 0. -1.
</event>
<event>
 7    1  0.2900135E-009  0.6666907E+02  0.7561462E-02  0.1371801E+00
         -1   -1    0    0    0  501 -0.00000000000E+00  0.00000000000E+00  0.50395132763E+03  0.50395132763E+03  0.00000000000E+00 0.  1.
          1   -1    0    0  501    0  0.00000000000E+00 -0.00000000000E+00 -0.23573219558E+02  0.23573219558E+02  0.00000000000E+00 0. -1.
         25    2    1    2    0    0 -0.32089264420E+01 -0.67893770428E+01  0.25376321363E+03  0.28301827801E+03  0.12508870553E+03 0.  0.
          5    1    3    3  502    0 -0.15749227317E+02  0.15008261378E+02 -0.52393238810E+01  0.22764204036E+02  0.41800000000E+01 0.  1.
         -5    1    3    3    0  502  0.12540300875E+02 -0.21797638421E+02  0.25900253751E+03  0.26025407398E+03  0.41800000000E+01 0.  1.
        -11    1    1    2    0    0 -0.40962812690E+02  0.67842667376E+01  0.15411329275E+03  0.15960853769E+03  0.00000000000E+00 0.  1.
         11    1    1    2    0    0  0.44171739132E+02  0.51103052634E-02  0.72501601688E+02  0.84897731486E+02  0.00000000000E+00 0. -1.
</event>
<event>
 7    1  0.2900135E-009  0.1106830E+03  0.7561462E-02  0.1259310E+00
         -2   -1    0    0    0  501 -0.00000000000E+00  0.00000000000E+00  0.14244663355E+03  0.14244663355E+03  0.00000000000E+00 0.  1.
          2   -1    0    0  501    0  0.00000000000E+00 -0.00000000000E+00 -0.94565539495E+02  0.94565539495E+02  0.00000000000E+00 0. -1.
         25    2    1    2    0    0  0.16572780203E+02  0.17839142985E+02 -0.24409142454E+01  0.12746073974E+03  0.12508952813E+03 0.  0.
          5    1    3    3  502    0 -0.13778501215E+02 -0.49455685274E+02 -0.12045025595E+02  0.52898647839E+02  0.41800000000E+01 0. -1.
         -5    1    3    3    0  502  0.30351281418E+02  0.67294828259E+02  0.96041113492E+01  0.74562091903E+02  0.41800000000E+01 0. -1.
        -11    1    1    2    0    0 -0.26175828065E+02  0.34160957979E+02  0.31843227884E+02  0.53536307185E+02  0.00000000000E+00 0.  1.
         11    1    1    2    0    0  0.96030478625E+01 -0.52000100964E+02  0.18478780419E+02  0.56015126121E+02  0.00000000000E+00 0. -1.
</event>
<event>
 7    1  0.2900135E-009  0.1022228E+03  0.7561462E-02  0.1275690E+00
         -2   -1    0    0    0  501 -0.00000000000E+00  0.00000000000E+00  0.30306259931E+02  0.30306259931E+02  0.00000000000E+00 0.  1.
          2   -1    0    0  501    0  0.00000000000E+00 -0.00000000000E+00 -0.52655193267E+03  0.52655193267E+03  0.00000000000E+00 0. -1.
         25    2    1    2    0    0  0.27613076302E+02  0.47883570639E+02 -0.35936465237E+03  0.38450736714E+03  0.12509054198E+03 0.  0.
          5    1    3    3  502    0  0.65985659564E+02  0.21104372368E+02 -0.10516231937E+03  0.12600034769E+03  0.41800000000E+01 0. -1.
         -5    1    3    3    0  502 -0.38372583262E+02  0.26779198272E+02 -0.25420233299E+03  0.25850701945E+03  0.41800000000E+01 0. -1.
        -11    1    1    2    0    0  0.78502901513E+01 -0.51792134791E+02 -0.31572614143E+02  0.61162752108E+02  0.00000000000E+00 0.  1.
         11    1    1    2    0    0 -0.35463366454E+02  0.39085641515E+01 -0.10530840623E+03  0.11118807336E+03  0.00000000000E+00 0. -1.
</event>
<event>
 7    1  0.2900135E-009  0.3860595E+03  0.7561462E-02  0.1048717E+00
         -4   -1    0    0    0  501 -0.00000000000E+00  0.00000000000E+00  0.90461573589E+03  0.90461573589E+03  0.00000000000E+00 0. -1.
          4   -1    0    0  501    0  0.00000000000E+00 -0.00000000000E+00 -0.16919190823E+03  0.16919190823E+03  0.00000000000E+00 0.  1.
         25    2    1    2    0    0 -0.29732025669E+03 -0.22917237068E+03  0.40388660600E+03  0.56541174366E+03  0.12508692516E+03 0.  0.
          5    1    3    3  502    0 -0.20078413361E+03 -0.82638922228E+02  0.25755620879E+03  0.33689187118E+03  0.41800000000E+01 0. -1.
         -5    1    3    3    0  502 -0.96536123076E+02 -0.14653344845E+03  0.14633039721E+03  0.22851987249E+03  0.41800000000E+01 0. -1.
        -11    1    1    2    0    0  0.23307605482E+03  0.20621638688E+03  0.30330902435E+03  0.43456416074E+03  0.00000000000E+00 0. -1.
         11    1    1    2    0    0  0.64244201870E+02  0.22955983802E+02  0.28228197312E+02  0.73831739717E+02  0.00000000000E+00 0.  1.
</event>
<event>
 7    1  0.2900135E-009  0.1930945E+03  0.7561462E-02  0.1155700E+00
          2   -1    0    0  501    0  0.00000000000E+00  0.00000000000E+00  0.57215582594E+03  0.57215582594E+03  0.00000000000E+00 0. -1.
         -2   -1    0    0    0  501 -0.00000000000E+00 -0.00000000000E+00 -0.11097659467E+03  0.11097659467E+03  0.00000000000E+00 0.  1.
         25    2    1    2    0    0  0.15332843626E+03  0.62709944638E+02  0.26288824631E+02  0.20923961067E+03  0.12509182967E+03 0.  0.
          5    1    3    3  502    0  0.10349335906E+02  0.53582464036E+02 -0.20528942489E+02  0.58455958512E+02  0.41800000000E+01 0.  1.
         -5    1    3    3    0  502  0.14297910036E+03  0.91274806024E+01  0.46817767120E+02  0.15078365216E+03  0.41800000000E+01 0.  1.
        -11    1    1    2    0    0  0.86633278650E+01  0.76081292802E+01  0.22510757689E+02  0.25291719842E+02  0.00000000000E+00 0.  1.
         11    1    1    2    0    0 -0.16199176413E+03 -0.70318073918E+02  0.41237964895E+03  0.44860109009E+03  0.00000000000E+00 0. -1.
</event>
<event>
 7    1  0.2900135E-009  0.1429865E+03  0.7561462E-02  0.1209366E+00
         -2   -1    0    0    0  501 -0.00000000000E+00  0.00000000000E+00  0.19244597398E+02  0.19244597398E+02  0.00000000000E+00 0.  1.
          2   -1    0    0  501    0  0.00000000000E+00 -0.00000000000E+00 -0.11217909517E+04  0.11217909517E+04  0.00000000000E+00 0. -1.
         25    2    1    2    0    0  0.57015177031E+02  0.81844567119E+02 -0.67466913728E+03  0.69338048337E+03  0.12509510921E+03 0.  0.
          5    1    3    3  502    0  0.83138698033E+02  0.17774193947E+02 -0.45962446570E+03  0.46743992870E+03  0.41800000000E+01 0. -1.
         -5    1    3    3    0  502 -0.26123521002E+02  0.64070373172E+02 -0.21504467158E+03  0.22594055467E+03  0.41800000000E+01 0. -1.
        -11    1    1    2    0    0 -0.59212155024E+02 -0.98396225538E+02 -0.37775617608E+03  0.39482606939E+03  0.00000000000E+00 0. -1.
         11    1    1    2    0    0  0.21969779932E+01  0.16551658419E+02 -0.50121040979E+02  0.52828996370E+02  0.00000000000E+00 0.  1.
</event>
<event>
 7    1  0.2900135E-009  0.1001206E+03  0.7561462E-02  0.1280043E+00
         -1   -1    0    0    0  501 -0.00000000000E+00  0.00000000000E+00  0.29597614116E+02  0.29597614116E+02  0.00000000000E+00 0.  1.
          1   -1    0    0  501    0  0.00000000000E+00 -0.00000000000E+00 -0.40860603356E+03  0.40860603356E+03  0.00000000000E+00 0. -1.
         25    2    1    2    0    0  0.19627077872E+02  0.43030626893E+01 -0.22964535308E+03  0.26227546262E+03  0.12509073333E+03 0.  0.
          5    1    3    3  502    0 -0.77757945512E+01  0.53114315288E+02 -0.47923294631E+02  0.72081259962E+02  0.41800000000E+01 0. -1.
         -5    1    3    3    0  502  0.27402872423E+02 -0.48811252598E+02 -0.18172205845E+03  0.19019420266E+03  0.41800000000E+01 0. -1.
        -11    1    1    2    0    0 -0.47022057725E+02  0.22332576496E+02 -0.64694304134E+02  0.83037165613E+02  0.00000000000E+00 0.  1.
         11    1    1    2    0    0  0.27394979852E+02 -0.26635639186E+02 -0.84668762232E+02  0.92891019447E+02  0.00000000000E+00 0. -1.
</event>
<event>
 7    1  0.2900135E-009  0.5018422E+02  0.7561462E-02  0.1444350E+00
          1   -1    0    0  501    0  0.00000000000E+00  0.00000000000E+00  0.56840761224E+02  0.56840761224E+02  0.00000000000E+00 0. -1.
         -1   -1    0    0    0  501 -0.00000000000E+00 -0.00000000000E+00 -0.22097775553E+03  0.22097775553E+03  0.00000000000E+00 0.  1.
         25    2    1    2    0    0 -0.11769251838E+02  0.58583708478E+01 -0.81683507182E+02  0.14997598913E+03  0.12509103154E+03 0.  0.
          5    1    3    3  502    0 -0.36569372474E+01 -0.43661341106E+00  0.33651423420E+02  0.34109449124E+02  0.41800000000E+01 0. -1.
         -5    1    3    3    0  502 -0.81123145907E+01  0.62949842589E+01 -0.11533493060E+03  0.11586654000E+03  0.41800000000E+01 0. -1.
        -11    1    1    2    0    0 -0.35365746921E+02  0.38882048961E+01 -0.40027672135E+01  0.35803300658E+02  0.00000000000E+00 0. -1.
         11    1    1    2    0    0  0.47134998759E+02 -0.97465757439E+01 -0.78450719906E+02  0.92039226966E+02  0.00000000000E+00 0.  1.
</event>
<event>
 7    1  0.2900135E-009  0.9419315E+02  0.7561462E-02  0.1293004E+00
          1   -1    0    0  501    0  0.00000000000E+00  0.00000000000E+00  0.20368247946E+02  0.20368247946E+02  0.00000000000E+00 0. -1.
         -1   -1    0    0    0  501 -0.00000000000E+00 -0.00000000000E+00 -0.67672070390E+03  0.67672070390E+03  0.00000000000E+00 0.  1.
         25    2    1    2    0    0 -0.36316355614E+02 -0.20349239911E+02 -0.35643571135E+03  0.38003536202E+03  0.12508993089E+03 0.  0.
          5    1    3    3  502    0 -0.75485856892E+01 -0.46973335255E+02 -0.32792847651E+03  0.33138804064E+03  0.41800000000E+01 0. -1.
         -5    1    3    3    0  502 -0.28767769925E+02  0.26624095344E+02 -0.28507234834E+02  0.48647321378E+02  0.41800000000E+01 0. -1.
        -11    1    1    2    0    0  0.42582932719E+02 -0.28962700804E+02 -0.12452738929E+03  0.13475613114E+03  0.00000000000E+00 0. -1.
         11    1    1    2    0    0 -0.62665771050E+01  0.49311940715E+02 -0.17538935531E+03  0.18229745869E+03  0.00000000000E+00 0.  1.
</event>
<event>
 7    1  0.2900135E-009  0.1040416E+03  0.7561462E-02  0.1272019E+00
          2   -1    0    0  501    0  0.00000000000E+00  0.00000000000E+00  0.38297824481E+02  0.38297824481E+02  0.00000000000E+00 0.  1.
         -2   -1    0    0    0  501 -0.00000000000E+00 -0.00000000000E+00 -0.36356746323E+03  0.36356746323E+03  0.00000000000E+00 0. -1.
         25    2    1    2    0    0  0.29458082852E+02 -0.19238499154E+02 -0.24301854614E+03  0.27557525338E+03  0.12508320435E+03 0.  0.
          5    1    3    3  502    0 -0.46807863375E+02 -0.12707809183E+02 -0.60801030726E+02  0.77889037902E+02  0.41800000000E+01 0. -1.
         -5    1    3    3    0  502  0.76265946227E+02 -0.65306899710E+01 -0.18221751542E+03  0.19768621548E+03  0.41800000000E+01 0. -1.
        -11    1    1    2    0    0 -0.63084259334E+01 -0.28764789844E+02 -0.14345484155E+01  0.29483339392E+02  0.00000000000E+00 0.  1.
         11    1    1    2    0    0 -0.23149656919E+02  0.48003288998E+02 -0.80816544193E+02  0.96806694941E+02  0.00000000000E+00 0. -1.
</event>
<event>
 7    1  0.2900135E-009  0.1156401E+03  0.7561462E-02  0.1250468E+00
         -2   -1    0    0    0  501 -0.00000000000E+00  0.00000000000E+00  0.44695803856E+02  0.44695803856E+02  0.00000000000E+00 0.  1.
          2   -1    0    0  501    0  0.00000000000E+00 -0.00000000000E+00 -0.62342803696E+03  0.62342803696E+03  0.00000000000E+00 0. -1.
         25    2    1    2    0    0 -0.63066200639E+02 -0.19696962845E+02 -0.52288776370E+03  0.54169003951E+03  0.12510463405E+03 0.  0.
          5    1    3    3  502    0  0.18217430951E+02  0.20142875072E+02 -0.30582283705E+02  0.41113971873E+02  0.41800000000E+01 0.  1.
         -5    1    3    3    0  502 -0.81283631590E+02 -0.39839837917E+02 -0.49230548000E+03  0.50057606763E+03  0.41800000000E+01 0.  1.
        -11    1    1    2    0    0 -0.21800938787E+02 -0.90136573201E+01 -0.15119565142E+02  0.28020139192E+02  0.00000000000E+00 0. -1.
         11    1    1    2    0    0  0.84867139425E+02  0.28710620165E+02 -0.40724904258E+02  0.98413662117E+02  0.00000000000E+00 0.  1.
</event>
<event>
 7    1  0.2900135E-009  0.1190758E+03  0.7561462E-02  0.1244629E+00
          2   -1    0    0  501    0  0.00000000000E+00  0.00000000000E+00  0.27177021678E+04  0.27177021678E+04  0.00000000000E+00 0. -1.
         -2   -1    0    0    0  501 -0.00000000000E+00 -0.00000000000E+00 -0.91593905507E+02  0.91593905507E+02  0.00000000000E+00 0.  1.
         25    2    1    2    0    0 -0.44235512801E+02 -0.40059133262E+02  0.26841195872E+04  0.26876954539E+04  0.12508948784E+03 0.  0.
          5    1    3    3  502    0 -0.84064563949E+02 -0.42442047006E+01  0.15153437136E+04  0.15176853781E+04  0.41800000000E+01 0. -1.
         -5    1    3    3    0  502  0.39829051148E+02 -0.35814928561E+02  0.11687758736E+04  0.11700100758E+04  0.41800000000E+01 0. -1.
        -11    1    1    2    0    0 -0.23673786321E+02  0.74599158649E+01 -0.34861618606E+02  0.42795221174E+02  0.00000000000E+00 0.  1.
         11    1    1    2    0    0  0.67909299122E+02  0.32599217397E+02 -0.23149706306E+02  0.78805398192E+02  0.00000000000E+00 0. -1.
</event>
<event>
 7    1  0.2900135E-009  0.1367494E+03  0.7561462E-02  0.1217771E+00
          3   -1    0    0  501    0  0.00000000000E+00  0.00000000000E+00  0.15573652251E+03  0.15573652251E+03  0.00000000000E+00 0. -1.
         -3   -1    0    0    0  501 -0.00000000000E+00 -0.00000000000E+00 -0.17929219837E+03  0.17929219837E+03  0.00000000000E+00 0.  1.
         25    2    1    2    0    0 -0.46718057147E+02  0.10483502201E+03 -0.66095606406E+02  0.18217840078E+03  0.12508949525E+03 0.  0.
          5    1    3    3  502    0  0.12552140511E+02  0.91003657342E+02  0.36821656250E+00  0.91961023616E+02  0.41800000000E+01 0.  1.
         -5    1    3    3    0  502 -0.59270197658E+02  0.13831364670E+02 -0.66463822969E+02  0.90217377165E+02  0.41800000000E+01 0.  1.
        -11    1    1    2    0    0  0.23849927851E+02 -0.15802542986E+02 -0.25627894295E+02  0.38410003766E+02  0.00000000000E+00 0.  1.
         11    1    1    2    0    0  0.22868129296E+02 -0.89032479026E+02  0.68167824844E+02  0.11444031634E+03  0.00000000000E+00 0. -1.
</event>
<event>
 7    1  0.2900135E-009  0.1223408E+03  0.7561462E-02  0.1239285E+00
          1   -1    0    0  501    0  0.00000000000E+00  0.00000000000E+00  0.19054192831E+03  0.19054192831E+03  0.00000000000E+00 0. -1.
         -1   -1    0    0    0  501 -0.00000000000E+00 -0.00000000000E+00 -0.87945621069E+02  0.87945621069E+02  0.00000000000E+00 0.  1.
         25    2    1    2    0    0 -0.60287618709E+02 -0.37160750915E+02  0.59629567922E+02  0.15562173087E+03  0.12508764675E+03 0.  0.
          5    1    3    3  502    0 -0.70047660136E+02  0.25902059515E+02  0.52260614553E+02  0.91248208811E+02  0.41800000000E+01 0.  1.
         -5    1    3    3    0  502  0.97600414276E+01 -0.63062810430E+02  0.73689533691E+01  0.64373522055E+02  0.41800000000E+01 0.  1.
        -11    1    1    2    0    0 -0.19306861301E+02  0.10578876912E+02  0.31117026053E+02  0.38117408627E+02  0.00000000000E+00 0. -1.
         11    1    1    2    0    0  0.79594480010E+02  0.26581874002E+02  0.11849713265E+02  0.84748409885E+02  0.00000000000E+00 0.  1.
</event>
<event>
 7    1  0.2900135E-009  0.1822792E+03  0.7561462E-02  0.1165615E+00
          1   -1    0    0  501    0  0.00000000000E+00  0.00000000000E+00  0.84587651524E+02  0.84587651524E+02  0.00000000000E+00 0. -1.
         -1   -1    0    0    0  501 -0.00000000000E+00 -0.00000000000E+00 -0.50015217404E+03  0.50015217404E+03  0.00000000000E+00 0.  1.
         25    2    1    2    0    0  0.11047437475E+03  0.13436486115E+03 -0.23322010682E+03  0.31669892008E+03  0.12509230339E+03 0.  0.
          5    1    3    3  502    0  0.44739357105E+02  0.75670319088E+02 -0.20657199099E+03  0.22453745150E+03  0.41800000000E+01 0. -1.
         -5    1    3    3    0  502  0.65735017649E+02  0.58694542063E+02 -0.26648115827E+02  0.92161468578E+02  0.41800000000E+01 0. -1.
        -11    1    1    2    0    0 -0.11050415680E+03 -0.86163545910E+02 -0.98340851485E+02  0.17119067844E+03  0.00000000000E+00 0. -1.
         11    1    1    2    0    0  0.29782048176E-01 -0.48201315240E+02 -0.84003564208E+02  0.96850227040E+02  0.00000000000E+00 0.  1.
</event>
<event>
 7    1  0.2900135E-009  0.1392073E+03  0.7561462E-02  0.1214400E+00
         -2   -1    0    0    0  501 -0.00000000000E+00  0.00000000000E+00  0.15256126656E+03  0.15256126656E+03  0.00000000000E+00 0. -1.
          2   -1    0    0  501    0  0.00000000000E+00 -0.00000000000E+00 -0.15564285717E+03  0.15564285717E+03  0.00000000000E+00 0.  1.
         25    2    1    2    0    0  0.94041692420E+02  0.28024339303E+02 -0.49234242564E+02  0.16643416312E+03  0.12508843474E+03 0.  0.
          5    1    3    3  502    0 -0.18950432814E+00  0.57897073330E+02 -0.56621346010E+01  0.58323573110E+02  0.41800000000E+01 0. -1.
         -5    1    3    3    0  502  0.94231196749E+02 -0.29872734028E+02 -0.43572107963E+02  0.10811059001E+03  0.41800000000E+01 0. -1.
        -11    1    1    2    0    0 -0.48353396919E+02  0.22478286119E+02 -0.90737450129E+01  0.54089344506E+02  0.00000000000E+00 0.  1.
         11    1    1    2    0    0 -0.45688295501E+02 -0.50502625421E+02  0.55226396967E+02  0.87680616114E+02  0.00000000000E+00 0. -1.
</event>
<event>
 7    1  0.2900135E-009  0.9669411E+02  0.7561462E-02  0.1287405E+00
          2   -1    0    0  501    0  0.00000000000E+00  0.00000000000E+00  0.55596554645E+03  0.55596554645E+03  0.00000000000E+00 0. -1.
         -2   -1    0    0    0  501 -0.00000000000E+00 -0.00000000000E+00 -0.26687783525E+02  0.26687783525E+02  0.00000000000E+00 0.  1.
         25    2    1    2    0    0 -0.38264092052E+02  0.24468021498E+02  0.21975991482E+03  0.25691436576E+03  0.12509095233E+03 0.  0.
          5    1    3    3  502    0  0.35119959643E+02  0.37456302481E+02  0.13205105307E+03  0.14174392113E+03  0.41800000000E+01 0. -1.
         -5    1    3    3    0  502 -0.73384051695E+02 -0.12988280983E+02  0.87708861745E+02  0.11517044462E+03  0.41800000000E+01 0. -1.
        -11    1    1    2    0    0 -0.91941214924E+01  0.58664348264E+01 -0.23300529551E+00  0.10908767990E+02  0.00000000000E+00 0.  1.
         11    1    1    2    0    0  0.47458213544E+02 -0.30334456324E+02  0.30975085341E+03  0.31483019623E+03  0.00000000000E+00 0. -1.
</event>
<event>
 7    1  0.2900135E-009  0.8054824E+02  0.7561462E-02  0.1327503E+00
          1   -1    0    0  501    0  0.00000000000E+00  0.00000000000E+00  0.11046934116E+03  0.11046934116E+03  0.00000000000E+00 0. -1.
         -1   -1    0    0    0  501 -0.00000000000E+00 -0.00000000000E+00 -0.15672228722E+03  0.15672228722E+03  0.00000000000E+00 0.  1.
         25    2    1    2    0    0 -0.16718039837E+02  0.47747596093E+02 -0.82201633693E+02  0.15799959223E+03  0.12508971491E+03 0.  0.
          5    1    3    3  502    0 -0.30980145425E+02  0.63876653551E+02 -0.10470739279E+03  0.12657451080E+03  0.41800000000E+01 0. -1.
         -5    1    3    3    0  502  0.14262105588E+02 -0.16129057457E+02  0.22505759101E+02  0.31425081431E+02  0.41800000000E+01 0. -1.
        -11    1    1    2    0    0 -0.15530973670E+02 -0.10337142881E+02 -0.24713677324E+02  0.30965036944E+02  0.00000000000E+00 0.  1.
         11    1    1    2    0    0  0.32249013507E+02 -0.37410453212E+02  0.60662364953E+02  0.78226999197E+02  0.00000000000E+00 0. -1.
</event>
<event>
 7    1  0.2900135E-009  0.1693120E+03  0.7561462E-02  0.1178567E+00
          3   -1    0    0  501    0  0.00000000000E+00  0.00000000000E+00  0.10978187428E+03  0.10978187428E+03  0.00000000000E+00 0.  1.
         -3   -1    0    0    0  501 -0.00000000000E+00 -0.00000000000E+00 -0.28247719694E+03  0.28247719694E+03  0.00000000000E+00 0. -1.
         25    2    1    2    0    0  0.10215589840E+03  0.90275615316E+02 -0.11813789723E+03  0.21952017010E+03  0.12508808104E+03 0.  0.
          5    1    3    3  502    0  0.46461242495E+02 -0.21105188668E+02 -0.53951441067E+01  0.51484522167E+02  0.41800000000E+01 0.  1.
         -5    1    3    3    0  502  0.55694655904E+02  0.11138080398E+03 -0.11274275312E+03  0.16803564793E+03  0.41800000000E+01 0.  1.
        -11    1    1    2    0    0 -0.18899137304E+02 -0.76046215077E+02 -0.36131746978E+02  0.86288512318E+02  0.00000000000E+00 0. -1.
         11    1    1    2    0    0 -0.83256761094E+02 -0.14229400239E+02 -0.18425678449E+02  0.86450388810E+02  0.00000000000E+00 0.  1.
</event>
<event>
 7    1  0.2900135E-009  0.1714272E+03  0.7561462E-02  0.1176368E+00
         -1   -1    0    0    0  501 -0.00000000000E+00  0.00000000000E+00  0.13760402830E+04  0.13760402830E+04  0.00000000000E+00 0.  1.
          1   -1    0    0  501    0  0.00000000000E+00 -0.00000000000E+00 -0.24444583172E+02  0.24444583172E+02  0.00000000000E+00 0. -1.
         25    2    1    2    0    0 -0.46249621769E+02 -0.13154204146E+03  0.53170690556E+03  0.56373893825E+03  0.12508805255E+03 0.  0.
          5    1    3    3  502    0 -0.61862423618E+02 -0.14857434370E+03  0.49129821182E+03  0.51700357871E+03  0.41800000000E+01 0. -1.
         -5    1    3    3    0  502  0.15612801849E+02  0.17032302241E+02  0.40408693745E+02  0.46735359540E+02  0.41800000000E+01 0. -1.
        -11    1    1    2    0    0  0.30497117425E+02  0.50506780943E+01  0.76530207671E+02  0.82537604803E+02  0.00000000000E+00 0. -1.
         11    1    1    2    0    0  0.15752504344E+02  0.12649136337E+03  0.74335858656E+03  0.75420832309E+03  0.00000000000E+00 0.  1.
</event>
<event>
 7    1  0.2900135E-009  0.1171043E+03  0.7561462E-02  0.1247952E+00
         -1   -1    0    0    0  501 -0.00000000000E+00  0.00000000000E+00  0.14563008139E+02  0.14563008139E+02  0.00000000000E+00 0.  1.
          1   -1    0    0  501    0  0.00000000000E+00 -0.00000000000E+00 -0.10371441123E+04  0.10371441123E+04  0.00000000000E+00 0. -1.
         25    2    1    2    0    0 -0.49286088586E+02  0.18594055648E+02 -0.67020156618E+03  0.68380760643E+03  0.12509135006E+03 0.  0.
          5    1    3    3  502    0  0.38337088426E+02  0.27070960070E+02 -0.20677294020E+03  0.21207331380E+03  0.41800000000E+01 0.  1.
         -5    1    3    3    0  502 -0.87623177012E+02 -0.84769044216E+01 -0.46342862599E+03  0.47173429263E+03  0.41800000000E+01 0.  1.
        -11    1    1    2    0    0  0.30410634111E+02 -0.52201999725E+02 -0.27366172104E+03  0.28025094649E+03  0.00000000000E+00 0. -1.
         11    1    1    2    0    0  0.18875454474E+02  0.33607944077E+02 -0.78717816959E+02  0.87648567550E+02  0.00000000000E+00 0.  1.
</event>
<event>
 7    1  0.2900135E-009  0.4141987E+03  0.7561462E-02  0.1038971E+00
          1   -1    0    0  501    0  0.00000000000E+00  0.00000000000E+00  0.21264563512E+03  0.21264563512E+03  0.00000000000E+00 0. -1.
         -1   -1    0    0    0  501 -0.00000000000E+00 -0.00000000000E+00 -0.81500467029E+03  0.81500467029E+03  0.00000000000E+00 0.  1.
         25    2    1    2    0    0  0.10809089227E+03 -0.38637828025E+03 -0.29230285607E+03  0.51191809953E+03  0.12508942609E+03 0.  0.
          5    1    3    3  502    0  0.76638039833E+02 -0.37973003009E+03 -0.27569736061E+03  0.47549426069E+03  0.41800000000E+01 0.  1.
         -5    1    3    3    0  502  0.31452852437E+02 -0.66482501674E+01 -0.16605495455E+02  0.36423838843E+02  0.41800000000E+01 0.  1.
        -11    1    1    2    0    0 -0.36563645697E+02  0.26633117561E+03 -0.17108415403E+03  0.31865182103E+03  0.00000000000E+00 0. -1.
         11    1    1    2    0    0 -0.71527246573E+02  0.12004710465E+03 -0.13897202507E+03  0.19708038484E+03  0.00000000000E+00 0.  1.
</event>
<event>
 7    1  0.2900135E-009  0.1029254E+03  0.7561462E-02  0.1274262E+00
          1   -1    0    0  501    0  0.00000000000E+00  0.00000000000E+00  0.91578866388E+02  0.91578866388E+02  0.00000000000E+00 0. -1.
         -1   -1    0    0    0  501 -0.00000000000E+00 -0.00000000000E+00 -0.22081597741E+03  0.22081597741E+03  0.00000000000E+00 0.  1.
         25    2    1    2    0    0 -0.54234221627E+02  0.71079759101E+02 -0.39345295547E+02  0.15870874490E+03  0.12508689170E+03 0.  0.
          5    1    3    3  502    0 -0.18542921941E+01  0.48607023226E+02 -0.76349501320E+02  0.90624499216E+02  0.41800000000E+01 0. -1.
         -5    1    3    3    0  502 -0.52379929433E+02  0.22472735875E+02  0.37004205773E+02  0.68084245682E+02  0.41800000000E+01 0. -1.
        -11    1    1    2    0    0  0.19461165229E+02 -0.60468090514E+02 -0.97667393069E+02  0.11650771044E+03  0.00000000000E+00 0.  1.
         11    1    1    2    0    0  0.34773056398E+02 -0.10611668587E+02  0.77755775962E+01  0.37178388459E+02  0.00000000000E+00 0. -1.
</event>
<event>
 7    1  0.2900135E-009  0.8475712E+02  0.7561462E-02  0.1316069E+00
          1   -1    0    0  501    0  0.00000000000E+00  0.00000000000E+00  0.82549399256E+02  0.82549399256E+02  0.00000000000E+00 0. -1.
         -1   -1    0    0    0  501 -0.00000000000E+00 -0.00000000000E+00 -0.12188494843E+03  0.12188494843E+03  0.00000000000E+00 0.  1.
         25    2    1    2    0    0  0.21806101099E+02  0.10577179342E+02 -0.41462297968E+02  0.13402839749E+03  0.12512835975E+03 0.  0.
          5    1    3    3  502    0 -0.31986485294E+02 -0.37500094553E+02  0.23431519031E+01  0.49521259008E+02  0.41800000000E+01 0.  1.
         -5    1    3    3    0  502  0.53792586393E+02  0.48077273895E+02 -0.43805449871E+02  0.84507138482E+02  0.41800000000E+01 0.  1.
        -11    1    1    2    0    0  0.96213949263E+01  0.68824480877E+01 -0.23463397379E+02  0.26276802480E+02  0.00000000000E+00 0.  1.
         11    1    1    2    0    0 -0.31427496026E+02 -0.17459627430E+02  0.25590146176E+02  0.44129147712E+02  0.00000000000E+00 0. -1.
</event>
<event>
 7    1  0.2900135E-009  0.1193633E+03  0.7561462E-02  0.1244151E+00
          1   -1    0    0  501    0  0.00000000000E+00  0.00000000000E+00  0.94919061349E+02  0.94919061349E+02  0.00000000000E+00 0. -1.
         -1   -1    0    0    0  501 -0.00000000000E+00 -0.00000000000E+00 -0.19370758117E+03  0.19370758117E+03  0.00000000000E+00 0.  1.
         25    2    1    2    0    0  0.30403365989E+02 -0.42951178963E+02 -0.12233035530E+03  0.18270643629E+03  0.12509099726E+03 0.  0.
          5    1    3    3  502    0 -0.54935949904E+01 -0.81987709590E+02 -0.79489897847E+02  0.11440402252E+03  0.41800000000E+01 0. -1.
         -5    1    3    3    0  502  0.35896960980E+02  0.39036530627E+02 -0.42840457457E+02  0.68302413765E+02  0.41800000000E+01 0. -1.
        -11    1    1    2    0    0 -0.60620037952E+02  0.40566327109E+02  0.17555530153E+02  0.75024079704E+02  0.00000000000E+00 0. -1.
         11    1    1    2    0    0  0.30216671963E+02  0.23848518542E+01  0.59863053292E+01  0.30896126528E+02  0.00000000000E+00 0.  1.
</event>
<event>
 7    1  0.2900135E-009  0.9138240E+02  0.7561462E-02  0.1299538E+00
         -4   -1    0    0    0  501 -0.00000000000E+00  0.00000000000E+00  0.16902373283E+03  0.16902373283E+03  0.00000000000E+00 0. -1.
          4   -1    0    0  501    0  0.00000000000E+00 -0.00000000000E+00 -0.78594612152E+02  0.78594612152E+02  0.00000000000E+00 0.  1.
         25    2    1    2    0    0  0.16986689147E+02  0.54219486672E+01  0.90397899901E+02  0.15536034341E+03  0.12508841218E+03 0.  0.
          5    1    3    3  502    0  0.51595903645E+02 -0.32224448533E+02  0.83790517415E+02  0.10362854609E+03  0.41800000000E+01 0.  1.
         -5    1    3    3    0  502 -0.34609214498E+02  0.37646397201E+02  0.66073824866E+01  0.51731797317E+02  0.41800000000E+01 0.  1.
        -11    1    1    2    0    0 -0.37316334016E+02  0.16307822403E+02 -0.29537471203E+02  0.50308210672E+02  0.00000000000E+00 0.  1.
         11    1    1    2    0    0  0.20329644870E+02 -0.21729771070E+02  0.29568691975E+02  0.41949790899E+02  0.00000000000E+00 0. -1.
</event>
<event>
 7    1  0.2900135E-009  0.1026978E+03  0.7561462E-02  0.1274723E+00
          1   -1    0    0  501    0  0.00000000000E+00  0.00000000000E+00  0.85514377067E+03  0.85514377067E+03  0.00000000000E+00 0. -1.
         -1   -1    0    0    0  501 -0.00000000000E+00 -0.00000000000E+00 -0.16058136247E+02  0.16058136247E+02  0.00000000000E+00 0.  1.
         25    2    1    2    0    0  0.25114828751E+02  0.21130821620E+02  0.58944567087E+03  0.60346464798E+03  0.12508443635E+03 0.  0.
          5    1    3    3  502    0  0.55597404643E+02  0.50208773276E+02  0.48493974832E+03  0.49070971482E+03  0.41800000000E+01 0.  1.
         -5    1    3    3    0  502 -0.30482575892E+02 -0.29077951657E+02  0.10450592255E+03  0.11275493317E+03  0.41800000000E+01 0.  1.
        -11    1    1    2    0    0 -0.48174388481E+02 -0.36395796929E+02  0.21552037111E+03  0.22381790836E+03  0.00000000000E+00 0. -1.
         11    1    1    2    0    0  0.23059559730E+02  0.15264975310E+02  0.34119592446E+02  0.43919350574E+02  0.00000000000E+00 0.  1.
</event>
<event>
 7    1  0.2900135E-009  0.1305035E+03  0.7561462E-02  0.1226711E+00
         -1   -1    0    0    0  501 -0.00000000000E+00  0.00000000000E+00  0.19368414034E+03  0.19368414034E+03  0.00000000000E+00 0.  1.
          1   -1    0    0  501    0  0.00000000000E+00 -0.00000000000E+00 -0.15721932550E+03  0.15721932550E+03  0.00000000000E+00 0. -1.
         25    2    1    2    0    0 -0.56373530307E+02  0.87128459003E+02  0.10826252540E+03  0.19529172984E+03  0.12509493216E+03 0.  0.
          5    1    3    3  502    0 -0.66099972355E+01  0.88983764752E+02  0.16548689183E+02  0.90846760903E+02  0.41800000000E+01 0.  1.
         -5    1    3    3    0  502 -0.49763533072E+02 -0.18553057488E+01  0.91713836212E+02  0.10444496894E+03  0.41800000000E+01 0.  1.
        -11    1    1    2    0    0 -0.68294768203E+01 -0.45538113596E+02 -0.64985663656E+02  0.79646079780E+02  0.00000000000E+00 0. -1.
         11    1    1    2    0    0  0.63203007128E+02 -0.41590345407E+02 -0.68120468984E+01  0.75965656214E+02  0.00000000000E+00 0.  1.
</event>
<event>
 7    1  0.2900135E-009  0.1220930E+03  0.7561462E-02  0.1239684E+00
         -2   -1    0    0    0  501 -0.00000000000E+00  0.00000000000E+00  0.25151406280E+03  0.25151406280E+03  0.00000000000E+00 0.  1.
          2   -1    0    0  501    0  0.00000000000E+00 -0.00000000000E+00 -0.66592068527E+02  0.66592068527E+02  0.00000000000E+00 0. -1.
         25    2    1    2    0    0 -0.29240993796E+02  0.59986599978E+02  0.12870388368E+03  0.19148147476E+03  0.12508811936E+03 0.  0.
          5    1    3    3  502    0 -0.55620852109E+02  0.87157652565E+02  0.89494506818E+02  0.13680962956E+03  0.41800000000E+01 0.  1.
         -5    1    3    3    0  502  0.26379858313E+02 -0.27171052587E+02  0.39209376866E+02  0.54671845200E+02  0.41800000000E+01 0.  1.
        -11    1    1    2    0    0  0.50191831236E+02 -0.14052928749E+02  0.55494093940E+02  0.76133430183E+02  0.00000000000E+00 0.  1.
         11    1    1    2    0    0 -0.20950837440E+02 -0.45933671230E+02  0.72401665363E+00  0.50491226388E+02  0.00000000000E+00 0. -1.
</event>
<event>
 7    1  0.2900135E-009  0.1640412E+03  0.7561462E-02  0.1184208E+00
          2   -1    0    0  501    0  0.00000000000E+00  0.00000000000E+00  0.18873905300E+04  0.18873905300E+04  0.00000000000E+00 0. -1.
         -2   -1    0    0    0  501 -0.00000000000E+00 -0.00000000000E+00 -0.15981955360E+02  0.15981955360E+02  0.00000000000E+00 0.  1.
         25    2    1    2    0    0  0.31039652652E+02  0.13153018348E+03  0.91403346198E+03  0.93239928652E+03  0.12509041003E+03 0.  0.
          5    1    3    3  502    0 -0.28122083993E+02  0.86690793689E+01  0.38192428426E+03  0.38307915089E+03  0.41800000000E+01 0. -1.
         -5    1    3    3    0  502  0.59161736645E+02  0.12286110412E+03  0.53210917773E+03  0.54932013563E+03  0.41800000000E+01 0. -1.
        -11    1    1    2    0    0  0.22968737645E+02 -0.92466892970E+02  0.56352749338E+03  0.57152508694E+03  0.00000000000E+00 0.  1.
         11    1    1    2    0    0 -0.54008390297E+02 -0.39063290514E+02  0.39384761927E+03  0.39944811189E+03  0.00000000000E+00 0. -1.
</event>
<event>
 7    1  0.2900135E-009  0.1309641E+03  0.7561462E-02  0.1226032E+00
         -1   -1    0    0    0  501 -0.00000000000E+00  0.00000000000E+00  0.14738382899E+03  0.14738382899E+03  0.00000000000E+00 0.  1.
          1   -1    0    0  501    0  0.00000000000E+00 -0.00000000000E+00 -0.26006029268E+03  0.26006029268E+03  0.00000000000E+00 0. -1.
         25    2    1    2    0    0  0.94166345254E+02  0.76625068261E+02 -0.17096498470E+03  0.24416038247E+03  0.12508622910E+03 0.  0.
          5    1    3    3  502    0  0.42715101510E+02  0.58186690386E+02 -0.17484835838E+03  0.18920806448E+03  0.41800000000E+01 0.  1.
         -5    1    3    3    0  502  0.51451243744E+02  0.18438377875E+02  0.38833736829E+01  0.54952317991E+02  0.41800000000E+01 0.  1.
        -11    1    1    2    0    0 -0.35968244714E+02  0.31014336561E+01 -0.16252907739E+02  0.39591546175E+02  0.00000000000E+00 0. -1.
         11    1    1    2    0    0 -0.58198100540E+02 -0.79726501917E+02  0.74541428755E+02  0.12369219302E+03  0.00000000000E+00 0.  1.
</event>
<event>
 7    1  0.2900135E-009  0.1122596E+03  0.7561462E-02  0.1256442E+00
          1   -1    0    0  501    0  0.00000000000E+00  0.00000000000E+00  0.16460163360E+03  0.16460163360E+03  0.00000000000E+00 0. -1.
         -1   -1    0    0    0  501 -0.00000000000E+00 -0.00000000000E+00 -0.10236949295E+03  0.10236949295E+03  0.00000000000E+00 0.  1.
         25    2    1    2    0    0 -0.12183421653E+02 -0.52924899217E+02  0.82795898716E+02  0.15953822277E+03  0.12509117859E+03 0.  0.
          5    1    3    3  502    0 -0.59520822586E+02 -0.25835901670E+02  0.82235683563E+02  0.10483511906E+03  0.41800000000E+01 0.  1.
         -5    1    3    3    0  502  0.47337400933E+02 -0.27088997547E+02  0.56021515288E+00  0.54703103717E+02  0.41800000000E+01 0.  1.
        -11    1    1    2    0    0 -0.21762413373E+02  0.65172925883E+02 -0.19098725020E+02  0.71315315335E+02  0.00000000000E+00 0.  1.
         11    1    1    2    0    0  0.33945835026E+02 -0.12248026666E+02 -0.14650330474E+01  0.36117588439E+02  0.00000000000E+00 0. -1.
</event>
<event>
 7    1  0.2900135E-009  0.9306240E+02  0.7561462E-02  0.1295601E+00
          1   -1    0    0  501    0  0.00000000000E+00  0.00000000000E+00  0.57509255742E+02  0.57509255742E+02  0.00000000000E+00 0. -1.
         -1   -1    0    0    0  501 -0.00000000000E+00 -0.00000000000E+00 -0.42895468847E+03  0.42895468847E+03  0.00000000000E+00 0.  1.
         25    2    1    2    0    0  0.67869201996E+02  0.26890390486E+02 -0.33728721697E+03  0.36706918387E+03  0.12509115608E+03 0.  0.
          5    1    3    3  502    0 -0.43388085531E+01  0.75892212401E+01  0.87325499305E+01  0.13044208178E+02  0.41800000000E+01 0. -1.
         -5    1    3    3    0  502  0.72208010550E+02  0.19301169246E+02 -0.34601976691E+03  0.35402497569E+03  0.41800000000E+01 0. -1.
        -11    1    1    2    0    0  0.93925731030E+01  0.11869282990E+02 -0.29108270943E+02  0.32808409677E+02  0.00000000000E+00 0.  1.
         11    1    1    2    0    0 -0.77261775099E+02 -0.38759673476E+02 -0.50499448087E+01  0.86586350668E+02  0.00000000000E+00 0. -1.
</event>
<event>
 7    1  0.2900135E-009  0.1711377E+03  0.7561462E-02  0.1176667E+00
          2   -1    0    0  501    0  0.00000000000E+00  0.00000000000E+00  0.11076668259E+04  0.11076668259E+04  0.00000000000E+00 0. -1.
         -2   -1    0    0    0  501 -0.00000000000E+00 -0.00000000000E+00 -0.35713924971E+02  0.35713924971E+02  0.00000000000E+00 0.  1.
         25    2    1    2    0    0  0.78531532022E+02 -0.14488065766E+03  0.49606690928E+03  0.53748293780E+03  0.12509166023E+03 0.  0.
          5    1    3    3  502    0  0.89221032949E+02 -0.13542960154E+03  0.30173349172E+03  0.34258158462E+03  0.41800000000E+01 0. -1.
         -5    1    3    3    0  502 -0.10689500927E+02 -0.94510561214E+01  0.19433341756E+03  0.19490135318E+03  0.41800000000E+01 0. -1.
        -11    1    1    2    0    0 -0.34597610526E+02  0.75580693884E+02  0.14385195063E+03  0.16614096317E+03  0.00000000000E+00 0. -1.
         11    1    1    2    0    0 -0.43933921496E+02  0.69299963777E+02  0.43203404099E+03  0.43975684987E+03  0.00000000000E+00 0.  1.
</event>
<event>
 7    1  0.2900135E-009  0.8180138E+02  0.7561462E-02  0.1324016E+00
          1   -1    0    0  501    0  0.00000000000E+00  0.00000000000E+00  0.41963137623E+02  0.41963137623E+02  0.00000000000E+00 0. -1.
         -1   -1    0    0    0  501 -0.00000000000E+00 -0.00000000000E+00 -0.38754878288E+03  0.38754878288E+03  0.00000000000E+00 0.  1.
         25    2    1    2    0    0 -0.34658050035E+02 -0.14098547289E+02 -0.97630942237E+02  0.16303426980E+03  0.12509365603E+03 0.  0.
          5    1    3    3  502    0  0.15041132884E+02 -0.12407717700E+02  0.24212585588E+02  0.31367321177E+02  0.41800000000E+01 0. -1.
         -5    1    3    3    0  502 -0.49699182919E+02 -0.16908295887E+01 -0.12184352782E+03  0.13166694863E+03  0.41800000000E+01 0. -1.
        -11    1    1    2    0    0 -0.13459525682E+02 -0.27199839977E+02 -0.11853941923E+03  0.12236251076E+03  0.00000000000E+00 0.  1.
         11    1    1    2    0    0  0.48117575717E+02  0.41298387265E+02 -0.12941528378E+03  0.14411513994E+03  0.00000000000E+00 0. -1.
</event>
<event>
 7    1  0.2900135E-009  0.1019816E+03  0.7561462E-02  0.1276183E+00
          1   -1    0    0  501    0  0.00000000000E+00  0.00000000000E+00  0.77352914851E+02  0.77352914851E+02  0.00000000000E+00 0. -1.
         -1   -1    0    0    0  501 -0.00000000000E+00 -0.00000000000E+00 -0.17730243013E+03  0.17730243013E+03  0.00000000000E+00 0.  1.
         25    2    1    2    0    0  0.44752798879E+02 -0.56316211145E+01 -0.72869614755E+02  0.15165569466E+03  0.12511970590E+03 0.  0.
          5    1    3    3  502    0  0.37087391741E+02  0.46351438578E+02  0.26395743639E+01  0.59568198204E+02  0.41800000000E+01 0. -1.
         -5    1    3    3    0  502  0.76654071381E+01 -0.51983059692E+02 -0.75509189119E+02  0.92087496453E+02  0.41800000000E+01 0. -1.
        -11    1    1    2    0    0 -0.30848646077E+02 -0.36258014943E+02  0.58061003491E+01  0.47958246566E+02  0.00000000000E+00 0.  1.
         11    1    1    2    0    0 -0.13904152802E+02  0.41889636058E+02 -0.32886000871E+02  0.55041403756E+02  0.00000000000E+00 0. -1.
</event>
<event>
 7    1  0.2900135E-009  0.1333960E+03  0.7561462E-02  0.1222502E+00
         -2   -1    0    0    0  501 -0.00000000000E+00  0.00000000000E+00  0.28186022514E+02  0.28186022514E+02  0.00000000000E+00 0.  1.
          2   -1    0    0  501    0  0.00000000000E+00 -0.00000000000E+00 -0.16273828911E+04  0.16273828911E+04  0.00000000000E+00 0. -1.
         25    2    1    2    0    0 -0.30180311992E+02 -0.74916241174E+02 -0.14743222711E+04  0.14818220218E+04  0.12508817167E+03 0.  0.
          5    1    3    3  502    0  0.38303859958E+02 -0.67603451315E+02 -0.65687909702E+03  0.66147186850E+03  0.41800000000E+01 0.  1.
         -5    1    3    3    0  502 -0.68484171950E+02 -0.73127898591E+01 -0.81744317413E+03  0.82035015331E+03  0.41800000000E+01 0.  1.
        -11    1    1    2    0    0  0.30109286921E+02  0.95121618055E+02 -0.95637347523E+02  0.13820706791E+03  0.00000000000E+00 0. -1.
         11    1    1    2    0    0  0.71025071186E-01 -0.20205376882E+02 -0.29237249908E+02  0.35539823884E+02  0.00000000000E+00 0.  1.
</event>
<event>
 7    1  0.2900135E-009  0.2996758E+03  0.7561462E-02  0.1085403E+00
         -1   -1    0    0    0  501 -0.00000000000E+00  0.00000000000E+00  0.80180657909E+03  0.80180657909E+03  0.00000000000E+00 0.  1.
          1   -1    0    0  501    0  0.00000000000E+00 -0.00000000000E+00 -0.11419923073E+03  0.11419923073E+03  0.00000000000E+00 0. -1.
         25    2    1    2    0    0  0.14818889661E+03  0.24002474357E+03  0.38674432895E+03  0.49476007480E+03  0.12507809175E+03 0.  0.
          5    1    3    3  502    0  0.11436211974E+03  0.72402301479E+02  0.19981264541E+03  0.24137802998E+03  0.41800000000E+01 0. -1.
         -5    1    3    3    0  502  0.33826776872E+02  0.16762244209E+03  0.18693168354E+03  0.25338204482E+03  0.41800000000E+01 0. -1.
        -11    1    1    2    0    0 -0.40563649732E+02 -0.14068641644E+03  0.17464105245E+03  0.22789816728E+03  0.00000000000E+00 0.  1.
         11    1    1    2    0    0 -0.10762524688E+03 -0.99338327130E+02  0.12622196696E+03  0.19334756773E+03  0.00000000000E+00 0. -1.
</event>
<event>
 7    1  0.2900135E-009  0.1728141E+03  0.7561462E-02  0.1174945E+00
         -1   -1    0    0    0  501 -0.00000000000E+00  0.00000000000E+00  0.55571867829E+02  0.55571867829E+02  0.00000000000E+00 0.  1.
          1   -1    0    0  501    0  0.00000000000E+00 -0.00000000000E+00 -0.60426637350E+03  0.60426637350E+03  0.00000000000E+00 0. -1.
         25    2    1    2    0    0 -0.14369594657E+03  0.26495247675E+02 -0.33827838100E+03  0.38914062718E+03  0.12509053306E+03 0.  0.
          5    1    3    3  502    0 -0.13138191693E+03 -0.28544630115E+02 -0.21673152546E+03  0.25508043934E+03  0.41800000000E+01 0. -1.
         -5    1    3    3    0  502 -0.12314029642E+02  0.55039877790E+02 -0.12154685554E+03  0.13406018784E+03  0.41800000000E+01 0. -1.
        -11    1    1    2    0    0  0.72248334076E+02 -0.38883513887E+02 -0.16729510988E+03  0.18633143379E+03  0.00000000000E+00 0.  1.
         11    1    1    2    0    0  0.71447612496E+02  0.12388266212E+02 -0.43121014789E+02  0.84366180354E+02  0.00000000000E+00 0. -1.
</event>
<event>
 7    1  0.2900135E-009  0.1083807E+03  0.7561462E-02  0.1263598E+00
          2   -1    0    0  501    0  0.00000000000E+00  0.00000000000E+00  0.12475796984E+03  0.12475796984E+03  0.00000000000E+00 0. -1.
         -2   -1    0    0    0  501 -0.00000000000E+00 -0.00000000000E+00 -0.12942355487E+03  0.12942355487E+03  0.00000000000E+00 0.  1.
         25    2    1    2    0    0  0.58486957294E+01  0.50298394103E+02  0.39445814196E+02  0.14059699252E+03  0.12508959332E+03 0.  0.
          5    1    3    3  502    0  0.64431143355E+02  0.32252725643E+02  0.11443692270E+02  0.73075584419E+02  0.41800000000E+01 0.  1.
         -5    1    3    3    0  502 -0.58582447625E+02  0.18045668460E+02  0.28002121926E+02  0.67521408104E+02  0.41800000000E+01 0.  1.
        -11    1    1    2    0    0 -0.11319847244E+02  0.14344056168E+02  0.16634459371E+02  0.24710243373E+02  0.00000000000E+00 0. -1.
         11    1    1    2    0    0  0.54711515148E+01 -0.64642450272E+02 -0.60745858597E+02  0.88874288817E+02  0.00000000000E+00 0.  1.
</event>
<event>
 7    1  0.4992285E-009  0.9623471E+02  0.7561462E-02  0.1288419E+00
          3   -1    0    0  501    0  0.00000000000E+00  0.00000000000E+00  0.19418639696E+03  0.19418639696E+03  0.00000000000E+00 0. -1.
         -3   -1    0    0    0  501 -0.00000000000E+00 -0.00000000000E+00 -0.76814570521E+02  0.76814570521E+02  0.00000000000E+00 0.  1.
         25    2    1    2    0    0  0.31716092574E+02  0.22653154038E+01  0.14540455973E+02  0.12988341521E+03  0.12508890640E+03 0.  0.
          5    1    3    3  502    0 -0.43905632491E+01 -0.57608905602E+02  0.15003416195E+02  0.59838432031E+02  0.41800000000E+01 0. -1.
         -5    1    3    3    0  502  0.36106655823E+02  0.59874221006E+02 -0.46296022232E+00  0.70044983175E+02  0.41800000000E+01 0. -1.
        -11    1    1    2    0    0 -0.43684372053E+02  0.12551954985E+02  0.11133728264E+03  0.12025750056E+03  0.00000000000E+00 0. -1.
         11    1    1    2    0    0  0.11968279479E+02 -0.14817270389E+02 -0.85059121758E+01  0.20860051711E+02  0.00000000000E+00 0.  1.
</event>
<event>
 6    1  0.2900135E-009  0.8307171E+02  0.7561462E-02  0.1320554E+00
          2   -1    0    0  501    0  0.00000000000E+00  0.00000000000E+00  0.20343562631E+03  0.20343562631E+03  0.00000000000E+00 0.  1.
         -2   -1    0    0    0  501 -0.00000000000E+00 -0.00000000000E+00 -0.78367238562E+02  0.78367238562E+02  0.00000000000E+00 0. -1.
          5    1    1    2  502    0 -0.52840330639E+02  0.26940520857E+02  0.12125989693E+03  0.13505305331E+03  0.41800000000E+01 0.  1.
         -5    1    1    2    0  502 -0.52276473320E+01 -0.15149370646E+02 -0.27485456877E+02  0.32089787586E+02  0.41800000000E+01 0.  1.
        -11    1    1    2    0    0 -0.14273415055E+02 -0.10586598335E+02  0.38048507730E+02  0.41993992214E+02  0.00000000000E+00 0. -1.
         11    1    1    2    0    0  0.72341393026E+02 -0.12045518763E+01 -0.67545600336E+01  0.72666031758E+02  0.00000000000E+00 0.  1.
</event>
<event>
 7    1  0.2900135E-009  0.9500547E+02  0.7561462E-02  0.1291164E+00
          3   -1    0    0  501    0  0.00000000000E+00  0.00000000000E+00  0.15268210363E+02  0.15268210363E+02  0.00000000000E+00 0. -1.
         -3   -1    0    0    0  501 -0.00000000000E+00 -0.00000000000E+00 -0.91617046921E+03  0.91617046921E+03  0.00000000000E+00 0.  1.
         25    2    1    2    0    0 -0.22896824615E+02 -0.11259963129E+02 -0.67279698926E+03  0.68480234449E+03  0.12508961153E+03 0.  0.
          5    1    3    3  502    0  0.20258676006E+02  0.42325253593E+02 -0.42480325882E+03  0.42740744278E+03  0.41800000000E+01 0.  1.
         -5    1    3    3    0  502 -0.43155500622E+02 -0.53585216722E+02 -0.24799373044E+03  0.25739490170E+03  0.41800000000E+01 0.  1.
        -11    1    1    2    0    0 -0.32600120737E+01  0.37077099218E+02 -0.19032059988E+03  0.19392593871E+03  0.00000000000E+00 0.  1.
         11    1    1    2    0    0  0.26156836689E+02 -0.25817136089E+02 -0.37784669715E+02  0.52710396383E+02  0.00000000000E+00 0. -1.
</event>
<event>
 7    1  0.2900135E-009  0.2397819E+03  0.7561462E-02  0.1119938E+00
          2   -1    0    0  501    0  0.00000000000E+00  0.00000000000E+00  0.27998977840E+03  0.27998977840E+03  0.00000000000E+00 0. -1.
         -2   -1    0    0    0  501 -0.00000000000E+00 -0.00000000000E+00 -0.29364916995E+03  0.29364916995E+03  0.00000000000E+00 0.  1.
         25    2    1    2    0    0  0.21333218342E+03 -0.92976386289E+02 -0.13358743023E+03  0.29605485964E+03  0.12509056524E+03 0.  0.
          5    1    3    3  502    0  0.62761451786E+02 -0.62423801067E+02 -0.10888025386E+03  0.14038558633E+03  0.41800000000E+01 0.  1.
         -5    1    3    3    0  502  0.15057073163E+03 -0.30552585222E+02 -0.24707176368E+02  0.15566927331E+03  0.41800000000E+01 0.  1.
        -11    1    1    2    0    0 -0.12691226983E+03  0.30258595999E+02  0.21246531554E+02  0.13218820661E+03  0.00000000000E+00 0.  1.
         11    1    1    2    0    0 -0.86419913590E+02  0.62717790290E+02  0.98681507115E+02  0.14539588210E+03  0.00000000000E+00 0. -1.
</event>
<event>
 7    1  0.2900135E-009  0.1116977E+03  0.7561462E-02  0.1257458E+00
          2   -1    0    0  501    0  0.00000000000E+00  0.00000000000E+00  0.80210391136E+03  0.80210391136E+03  0.00000000000E+00 0. -1.
         -2   -1    0    0    0  501 -0.00000000000E+00 -0.00000000000E+00 -0.16979382729E+02  0.16979382729E+02  0.00000000000E+00 0.  1.
         25    2    1    2    0    0 -0.20816650415E+02  0.43048136384E+02  0.43699304835E+03  0.45705142382E+03  0.12508638907E+03 0.  0.
          5    1    3    3  502    0 -0.69507236084E+02  0.24419278521E+02  0.32748346836E+03  0.33569398488E+03  0.41800000000E+01 0. -1.
         -5    1    3    3    0  502  0.48690585670E+02  0.18628857863E+02  0.10950957999E+03  0.12135743895E+03  0.41800000000E+01 0. -1.
        -11    1    1    2    0    0  0.53863617718E+02 -0.22386070275E+02  0.24316254586E+03  0.25006089092E+03  0.00000000000E+00 0. -1.
         11    1    1    2    0    0 -0.33046967304E+02 -0.20662066109E+02  0.10496893442E+03  0.11197097935E+03  0.00000000000E+00 0.  1.
</event>
<event>
 7    1  0.2900135E-009  0.1837376E+03  0.7561462E-02  0.1164234E+00
         -1   -1    0    0    0  501 -0.00000000000E+00  0.00000000000E+00  0.62527802915E+02  0.62527802915E+02  0.00000000000E+00 0.  1.
          1   -1    0    0  501    0  0.00000000000E+00 -0.00000000000E+00 -0.80538422082E+03  0.80538422082E+03  0.00000000000E+00 0. -1.
         25    2    1    2    0    0 -0.14123866401E+03  0.57823981426E+02 -0.62225679043E+03  0.65279588024E+03  0.12508786903E+03 0.  0.
          5    1    3    3  502    0 -0.87114618504E+02  0.91283165264E+02 -0.32249759130E+03  0.34632895029E+03  0.41800000000E+01 0. -1.
         -5    1    3    3    0  502 -0.54124045506E+02 -0.33459183838E+02 -0.29975919913E+03  0.30646692994E+03  0.41800000000E+01 0. -1.
        -11    1    1    2    0    0  0.35184956725E+02 -0.62036366687E+02 -0.57726356443E+02  0.91754150858E+02  0.00000000000E+00 0. -1.
         11    1    1    2    0    0  0.10605370729E+03  0.42123852608E+01 -0.62873271034E+02  0.12336199264E+03  0.00000000000E+00 0.  1.
</event>
<event>
 7    1  0.2900135E-009  0.1023315E+03  0.7561462E-02  0.1275468E+00
          2   -1    0    0  501    0  0.00000000000E+00  0.00000000000E+00  0.49557896948E+03  0.49557896948E+03  0.00000000000E+00 0. -1.
         -2   -1    0    0    0  501 -0.00000000000E+00 -0.00000000000E+00 -0.46182746412E+02  0.46182746412E+02  0.00000000000E+00 0.  1.
         25    2    1    2    0    0 -0.54045561145E+02 -0.48949732979E+02  0.10797953927E+03  0.18062357120E+03  0.12509314343E+03 0.  0.
          5    1    3    3  502    0  0.91430459822E+01 -0.32363434937E+01  0.10172428348E+03  0.10227106853E+03  0.41800000000E+01 0.  1.
         -5    1    3    3    0  502 -0.63188607127E+02 -0.45713389485E+02  0.62552557904E+01  0.78352502665E+02  0.41800000000E+01 0.  1.
        -11    1    1    2    0    0  0.31939838055E+02 -0.23885615352E+02  0.14809984197E+03  0.15337613592E+03  0.00000000000E+00 0. -1.
         11    1    1    2    0    0  0.22105723090E+02  0.72835348330E+02  0.19331684183E+03  0.20776200878E+03  0.00000000000E+00 0.  1.
</event>
<event>
 7    1  0.2900135E-009  0.1078225E+03  0.7561462E-02  0.1264656E+00
          1   -1    0    0  501    0  0.00000000000E+00  0.00000000000E+00  0.19472133400E+04  0.19472133400E+04  0.00000000000E+00 0. -1.
         -1   -1    0    0    0  501 -0.00000000000E+00 -0.00000000000E+00 -0.11346326834E+02  0.11346326834E+02  0.00000000000E+00 0.  1.
         25    2    1    2    0    0  0.88947179050E+02 -0.14991025146E+01  0.14183549226E+04  0.14266368341E+04  0.12509245387E+03 0.  0.
          5    1    3    3  502    0  0.47586567127E+02  0.21394718546E+02  0.12655443178E+04  0.12666262701E+04  0.41800000000E+01 0. -1.
         -5    1    3    3    0  502  0.41360611923E+02 -0.22893821061E+02  0.15281060481E+03  0.16001056403E+03  0.41800000000E+01 0. -1.
        -11    1    1    2    0    0 -0.68371160111E+02 -0.32811895246E+02  0.41515431823E+03  0.42202410352E+03  0.00000000000E+00 0.  1.
         11    1    1    2    0    0 -0.20576018939E+02  0.34310997760E+02  0.10235777232E+03  0.10989872919E+03  0.00000000000E+00 0. -1.
</event>
<event>
 7    1  0.2900135E-009  0.1127267E+03  0.7561462E-02  0.1255602E+00
         -1   -1    0    0    0  501 -0.00000000000E+00  0.00000000000E+00  0.36907024460E+02  0.36907024460E+02  0.00000000000E+00 0.  1.
          1   -1    0    0  501    0  0.00000000000E+00 -0.00000000000E+00 -0.43309717965E+03  0.43309717965E+03  0.00000000000E+00 0. -1.
         25    2    1    2    0    0  0.57213116171E+00 -0.63333014826E+02 -0.25280762090E+03  0.28908586472E+03  0.12509015108E+03 0.  0.
          5    1    3    3  502    0 -0.97528064376E+01 -0.88380283660E+02 -0.24486979002E+03  0.26054726680E+03  0.41800000000E+01 0. -1.
         -5    1    3    3    0  502  0.10324937599E+02  0.25047268834E+02 -0.79378308850E+01  0.28538597927E+02  0.41800000000E+01 0. -1.
        -11    1    1    2    0    0  0.32713463037E+01  0.85986572524E+02 -0.12357026994E+03  0.15057889618E+03  0.00000000000E+00 0. -1.
         11    1    1    2    0    0 -0.38434774654E+01 -0.22653557699E+02 -0.19812264346E+02  0.30339443204E+02  0.00000000000E+00 0.  1.
</event>
<event>
 7    1  0.2900135E-009  0.1115813E+03  0.7561462E-02  0.1257669E+00
         -2   -1    0    0    0  501 -0.00000000000E+00  0.00000000000E+00  0.61821523702E+02  0.61821523702E+02  0.00000000000E+00 0.  1.
          2   -1    0    0  501    0  0.00000000000E+00 -0.00000000000E+00 -0.86140549369E+03  0.86140549369E+03  0.00000000000E+00 0. -1.
         25    2    1    2    0    0 -0.37490868827E+02  0.48919566555E+02 -0.80167053227E+03  0.81370875400E+03  0.12509038652E+03 0.  0.
          5    1    3    3  502    0  0.59818782863E+01  0.82712469842E+02 -0.53219073007E+03  0.53862935411E+03  0.41800000000E+01 0. -1.
         -5    1    3    3    0  502 -0.43472747114E+02 -0.33792903287E+02 -0.26947980220E+03  0.27507939990E+03  0.41800000000E+01 0. -1.
        -11    1    1    2    0    0  0.44258773769E+02 -0.58389957329E+02  0.30079005603E+02  0.79202100670E+02  0.00000000000E+00 0.  1.
         11    1    1    2    0    0 -0.67679049422E+01  0.94703907745E+01 -0.27992443324E+02  0.30316162719E+02  0.00000000000E+00 0. -1.
</event>
<event>
 7    1  0.2900135E-009  0.1049477E+03  0.7561462E-02  0.1270223E+00
         -3   -1    0    0    0  501 -0.00000000000E+00  0.00000000000E+00  0.30057323125E+02  0.30057323125E+02  0.00000000000E+00 0.  1.
          3   -1    0    0  501    0  0.00000000000E+00 -0.00000000000E+00 -0.76462718232E+03  0.76462718232E+03  0.00000000000E+00 0. -1.
         25    2    1    2    0    0 -0.43809047936E+02 -0.45459794004E+02 -0.17119762898E+03  0.22122769227E+03  0.12508892080E+03 0.  0.
          5    1    3    3  502    0 -0.19264530501E+02 -0.67314045571E+02 -0.30158388159E+02  0.76349876509E+02  0.41800000000E+01 0.  1.
         -5    1    3    3    0  502 -0.24544517435E+02  0.21854251567E+02 -0.14103924082E+03  0.14487781576E+03  0.41800000000E+01 0.  1.
        -11    1    1    2    0    0  0.47835687880E+02 -0.11763341312E+02 -0.23436680976E+03  0.23948785095E+03  0.00000000000E+00 0.  1.
         11    1    1    2    0    0 -0.40266399442E+01  0.57223135317E+02 -0.32900542046E+03  0.33396896223E+03  0.00000000000E+00 0. -1.
</event>
<event>
 7    1  0.2900135E-009  0.6989984E+02  0.7561462E-02  0.1360434E+00
         -1   -1    0    0    0  501 -0.00000000000E+00  0.00000000000E+00  0.17926098989E+02  0.17926098989E+02  0.00000000000E+00 0.  1.
          1   -1    0    0  501    0  0.00000000000E+00 -0.00000000000E+00 -0.86336747080E+03  0.86336747080E+03  0.00000000000E+00 0. -1.
         25    2    1    2    0    0 -0.24361957009E+02  0.27964341494E+02 -0.63948240817E+03  0.65265623255E+03  0.12508756204E+03 0.  0.
          5    1    3    3  502    0 -0.28933830114E+02  0.12899179840E+02 -0.63494294105E+03  0.63574646374E+03  0.41800000000E+01 0. -1.
         -5    1    3    3    0  502  0.45718731045E+01  0.15065161654E+02 -0.45394671175E+01  0.16909768805E+02  0.41800000000E+01 0. -1.
        -11    1    1    2    0    0 -0.12598761143E+02  0.24401058006E+02 -0.26855393093E+02  0.38410318305E+02  0.00000000000E+00 0.  1.
         11    1    1    2    0    0  0.36960718152E+02 -0.52365399500E+02 -0.17910357054E+03  0.19022701893E+03  0.00000000000E+00 0. -1.
</event>
<event>
 6    1  0.2900135E-009  0.2649400E+03  0.7561462E-02  0.1104211E+00
          2   -1    0    0  501    0  0.00000000000E+00  0.00000000000E+00  0.68157398213E+03  0.68157398213E+03  0.00000000000E+00 0. -1.
         -2   -1    0    0    0  501 -0.00000000000E+00 -0.00000000000E+00 -0.12199871012E+03  0.12199871012E+03  0.00000000000E+00 0.  1.
          5    1    1    2  502    0 -0.25817645032E+03 -0.42634138973E+02  0.13881888148E+03  0.29624466841E+03  0.41800000000E+01 0.  1.
         -5    1    1    2    0  502  0.80041214282E+01  0.10148902449E+02  0.27540826708E+02  0.30708886605E+02  0.41800000000E+01 0.  1.
        -11    1    1    2    0    0  0.46795022677E+02 -0.72883213508E+01  0.23693134966E+02  0.52955249220E+02  0.00000000000E+00 0.  1.
         11    1    1    2    0    0  0.20337730621E+03  0.39773557875E+02  0.36952242885E+03  0.42366388802E+03  0.00000000000E+00 0. -1.
</event>
<event>
 7    1  0.2900135E-009  0.9799478E+02  0.7561462E-02  0.1284570E+00
         -4   -1    0    0    0  501 -0.00000000000E+00  0.00000000000E+00  0.54160885890E+03  0.54160885890E+03  0.00000000000E+00 0. -1.
          4   -1    0    0  501    0  0.00000000000E+00 -0.00000000000E+00 -0.21939693256E+02  0.21939693256E+02  0.00000000000E+00 0.  1.
         25    2    1    2    0    0 -0.13721833634E+02 -0.67849238409E+01  0.30888381637E+03  0.33360277012E+03  0.12508905751E+03 0.  0.
          5    1    3    3  502    0 -0.44317012995E+02 -0.42848040263E+02  0.87066606159E+02  0.10676150291E+03  0.41800000000E+01 0.  1.
         -5    1    3    3    0  502  0.30595179361E+02  0.36063116422E+02  0.22181721021E+03  0.22684126721E+03  0.41800000000E+01 0.  1.
        -11    1    1    2    0    0  0.13455307187E+02  0.45787477458E+02  0.76991556070E+02  0.90582769275E+02  0.00000000000E+00 0. -1.
         11    1    1    2    0    0  0.26652644750E+00 -0.39002553617E+02  0.13379379320E+03  0.13936301276E+03  0.00000000000E+00 0.  1.
</event>
<event>
 7    1  0.3119291E-009  0.1434570E+03  0.7561462E-02  0.1208752E+00
          3   -1    0    0  501    0  0.00000000000E+00  0.00000000000E+00  0.13138341321E+03  0.13138341321E+03  0.00000000000E+00 0. -1.
         -3   -1    0    0    0  501 -0.00000000000E+00 -0.00000000000E+00 -0.18463678624E+03  0.18463678624E+03  0.00000000000E+00 0.  1.
         25    2    1    2    0    0 -0.90043600468E+02  0.32089010245E+02 -0.86595242219E+02  0.17967787779E+03  0.12509136352E+03 0.  0.
          5    1    3    3  502    0 -0.76046076411E+02  0.76513595993E+02 -0.44540378770E+02  0.11678464732E+03  0.41800000000E+01 0.  1.
         -5    1    3    3    0  502 -0.13997524057E+02 -0.44424585748E+02 -0.42054863449E+02  0.62893230465E+02  0.41800000000E+01 0.  1.
        -11    1    1    2    0    0  0.32332279708E+02 -0.59945525386E+02  0.16299098932E+02  0.70032156549E+02  0.00000000000E+00 0.  1.
         11    1    1    2    0    0  0.57711320760E+02  0.27856515141E+02  0.17042770255E+02  0.66310165115E+02  0.00000000000E+00 0. -1.
</event>
<event>
 7    1  0.2900135E-009  0.2126354E+03  0.7561462E-02  0.1139496E+00
          2   -1    0    0  501    0  0.00000000000E+00  0.00000000000E+00  0.13864839103E+04  0.13864839103E+04  0.00000000000E+00 0. -1.
         -2   -1    0    0    0  501 -0.00000000000E+00 -0.00000000000E+00 -0.42489717660E+02  0.42489717660E+02  0.00000000000E+00 0.  1.
         25    2    1    2    0    0 -0.40049948762E+01  0.20681742197E+03  0.49715844957E+03  0.55281546547E+03  0.12509567888E+03 0.  0.
          5    1    3    3  502    0 -0.18814740906E+02  0.17478714199E+03  0.48394597835E+03  0.51490360441E+03  0.41800000000E+01 0. -1.
         -5    1    3    3    0  502  0.14809746030E+02  0.32030279983E+02  0.13212471220E+02  0.37911861059E+02  0.41800000000E+01 0. -1.
        -11    1    1    2    0    0 -0.24959888000E+02 -0.79867167759E+02  0.47174224162E+03  0.47910594134E+03  0.00000000000E+00 0. -1.
         11    1    1    2    0    0  0.28964882876E+02 -0.12695025422E+03  0.37509350141E+03  0.39705222110E+03  0.00000000000E+00 0.  1.
</event>
<event>
 7    1  0.2900135E-009  0.1144537E+03  0.7561462E-02  0.1252538E+00
         -1   -1    0    0    0  501 -0.00000000000E+00  0.00000000000E+00  0.30123317213E+02  0.30123317213E+02  0.00000000000E+00 0.  1.
          1   -1    0    0  501    0  0.00000000000E+00 -0.00000000000E+00 -0.63329170278E+03  0.63329170278E+03  0.00000000000E+00 0. -1.
         25    2    1    2    0    0 -0.67557472316E+01  0.84852070516E+02 -0.34409033319E+03  0.37588728853E+03  0.12509029656E+03 0.  0.
          5    1    3    3  502    0 -0.49459237624E+01 -0.13995156444E+02 -0.20283916404E+03  0.20342449566E+03  0.41800000000E+01 0. -1.
         -5    1    3    3    0  502 -0.18098234692E+01  0.98847226960E+02 -0.14125116914E+03  0.17246279286E+03  0.41800000000E+01 0. -1.
        -11    1    1    2    0    0  0.41705880040E+02 -0.41325736217E+02 -0.75452238347E+02  0.95604587628E+02  0.00000000000E+00 0.  1.
         11    1    1    2    0    0 -0.34950132808E+02 -0.43526334298E+02 -0.18362581403E+03  0.19192314384E+03  0.00000000000E+00 0. -1.
</event>
<event>
 7    1  0.2900135E-009  0.1414939E+03  0.7561462E-02  0.1211333E+00
         -2   -1    0    0    0  501 -0.00000000000E+00  0.00000000000E+00  0.50700060069E+03  0.50700060069E+03  0.00000000000E+00 0.  1.
          2   -1    0    0  501    0  0.00000000000E+00 -0.00000000000E+00 -0.62248343526E+02  0.62248343526E+02  0.00000000000E+00 0. -1.
         25    2    1    2    0    0 -0.80835000074E+02 -0.65394001134E+02  0.28052339701E+03  0.32427127396E+03  0.12509120762E+03 0.  0.
          5    1    3    3  502    0 -0.96755338215E+01 -0.19869743836E+02  0.21783567343E+03  0.21899378004E+03  0.41800000000E+01 0. -1.
         -5    1    3    3    0  502 -0.71159466253E+02 -0.45524257298E+02  0.62687723581E+02  0.10527749393E+03  0.41800000000E+01 0. -1.
        -11    1    1    2    0    0  0.42205154317E+02  0.10946059478E+03  0.13698000226E+03  0.18035081890E+03  0.00000000000E+00 0. -1.
         11    1    1    2    0    0  0.38629845757E+02 -0.44066593645E+02  0.27248857891E+02  0.64626851347E+02  0.00000000000E+00 0.  1.
</event>
<event>
 7    1  0.2900135E-009  0.1067465E+03  0.7561462E-02  0.1266716E+00
          2   -1    0    0  501    0  0.00000000000E+00  0.00000000000E+00  0.44907642417E+02  0.44907642417E+02  0.00000000000E+00 0. -1.
         -2   -1    0    0    0  501 -0.00000000000E+00 -0.00000000000E+00 -0.32141146163E+03  0.32141146163E+03  0.00000000000E+00 0.  1.
         25    2    1    2    0    0 -0.16761899867E+02  0.32356530230E+02 -0.12772283028E+03  0.18245127014E+03  0.12508972087E+03 0.  0.
          5    1    3    3  502    0 -0.10266630550E+02 -0.40684552851E+02 -0.94271375704E+01  0.43208562419E+02  0.41800000000E+01 0.  1.
         -5    1    3    3    0  502 -0.64952693177E+01  0.73041083081E+02 -0.11829569271E+03  0.13924270773E+03  0.41800000000E+01 0.  1.
        -11    1    1    2    0    0 -0.35956760397E+02 -0.26842095904E+02 -0.30507129472E+02  0.54259300395E+02  0.00000000000E+00 0.  1.
         11    1    1    2    0    0  0.52718660265E+02 -0.55144343261E+01 -0.11827385946E+03  0.12960853351E+03  0.00000000000E+00 0. -1.
</event>
<event>
 7    1  0.2900135E-009  0.1235780E+03  0.7561462E-02  0.1237309E+00
         -1   -1    0    0    0  501 -0.00000000000E+00  0.00000000000E+00  0.13477323878E+03  0.13477323878E+03  0.00000000000E+00 0.  1.
          1   -1    0    0  501    0  0.00000000000E+00 -0.00000000000E+00 -0.12607774751E+03  0.12607774751E+03  0.00000000000E+00 0. -1.
         25    2    1    2    0    0  0.64235640907E+02 -0.88946353614E+01 -0.29048592616E+02  0.14386077710E+03  0.12508705111E+03 0.  0.
          5    1    3    3  502    0 -0.32710319771E+02  0.20940175641E+02 -0.37890014947E+01  0.39246463633E+02  0.41800000000E+01 0. -1.
         -5    1    3    3    0  502  0.96945960677E+02 -0.29834811002E+02 -0.25259591122E+02  0.10461431347E+03  0.41800000000E+01 0. -1.
        -11    1    1    2    0    0 -0.18733652834E+02  0.44833972194E+02  0.15050337957E+01  0.48613783415E+02  0.00000000000E+00 0. -1.
         11    1    1    2    0    0 -0.45501988073E+02 -0.35939336833E+02  0.36239050084E+02  0.68376425774E+02  0.00000000000E+00 0.  1.
</event>
<event>
 7    1  0.2900135E-009  0.7825683E+02  0.7561462E-02  0.1334072E+00
          1   -1    0    0  501    0  0.00000000000E+00  0.00000000000E+00  0.47349928228E+03  0.47349928228E+03  0.00000000000E+00 0. -1.
         -1   -1    0    0    0  501 -0.00000000000E+00 -0.00000000000E+00 -0.27450945387E+02  0.27450945387E+02  0.00000000000E+00 0.  1.
         25    2    1    2    0    0 -0.26414699233E+02  0.10291902055E+02  0.20949691581E+03  0.24564257675E+03  0.12509059996E+03 0.  0.
          5    1    3    3  502    0 -0.50997572697E+02  0.16507075573E+02  0.21302296986E+03  0.21970319537E+03  0.41800000000E+01 0.  1.
         -5    1    3    3    0  502  0.24582873464E+02 -0.62151735176E+01 -0.35260540575E+01  0.25939381388E+02  0.41800000000E+01 0.  1.
        -11    1    1    2    0    0  0.16865954624E+01  0.29852711372E+02  0.17621528729E+03  0.17873403833E+03  0.00000000000E+00 0. -1.
         11    1    1    2    0    0  0.24728103771E+02 -0.40144613427E+02  0.60336133796E+02  0.76573612588E+02  0.00000000000E+00 0.  1.
</event>
<event>
 7    1  0.2900135E-009  0.1350497E+03  0.7561462E-02  0.1220150E+00
         -2   -1    0    0    0  501 -0.00000000000E+00  0.00000000000E+00  0.10244632623E+03  0.10244632623E+03  0.00000000000E+00 0. -1.
          2   -1    0    0  501    0  0.00000000000E+00 -0.00000000000E+00 -0.29875740921E+03  0.29875740921E+03  0.00000000000E+00 0.  1.
         25    2    1    2    0    0 -0.81067828633E+02  0.72875624604E+02 -0.90494102643E+01  0.16616778760E+03  0.12508793830E+03 0.  0.
          5    1    3    3  502    0 -0.64246123627E+02 -0.19363477884E+02 -0.23476451695E+02  0.71211830907E+02  0.41800000000E+01 0.  1.
         -5    1    3    3    0  502 -0.16821705006E+02  0.92239102488E+02  0.14427041431E+02  0.94955956693E+02  0.41800000000E+01 0.  1.
        -11    1    1    2    0    0  0.24329424407E+02 -0.21143697963E+02  0.44103548294E+00  0.32236181036E+02  0.00000000000E+00 0. -1.
         11    1    1    2    0    0  0.56738404227E+02 -0.51731926641E+02 -0.18770270820E+03  0.20279976680E+03  0.00000000000E+00 0.  1.
</event>
<event>
 7    1  0.2900135E-009  0.1297115E+03  0.7561462E-02  0.1227884E+00
         -4   -1    0    0    0  501 -0.00000000000E+00  0.00000000000E+00  0.99234606679E+02  0.99234606679E+02  0.00000000000E+00 0.  1.
          4   -1    0    0  501    0  0.00000000000E+00 -0.00000000000E+00 -0.18367909857E+03  0.18367909857E+03  0.00000000000E+00 0. -1.
         25    2    1    2    0    0  0.72855070049E+02 -0.39646420015E+02 -0.74487592654E+02  0.16755590715E+03  0.12508749222E+03 0.  0.
          5    1    3    3  502    0 -0.31300409320E+02 -0.31747284104E+02 -0.14704813298E+02  0.47130771325E+02  0.41800000000E+01 0. -1.
         -5    1    3    3    0  502  0.10415547937E+03 -0.78991359113E+01 -0.59782779356E+02  0.12042513582E+03  0.41800000000E+01 0. -1.
        -11    1    1    2    0    0 -0.29753331925E+02 -0.20484934666E+02  0.12199960723E+02  0.38127842196E+02  0.00000000000E+00 0. -1.
         11    1    1    2    0    0 -0.43101738124E+02  0.60131354681E+02 -0.22156859955E+02  0.77229955899E+02  0.00000000000E+00 0.  1.
</event>
<event>
 7    1  0.2900135E-009  0.1512535E+03  0.7561462E-02  0.1198941E+00
         -2   -1    0    0    0  501 -0.00000000000E+00  0.00000000000E+00  0.29053986613E+02  0.29053986613E+02  0.00000000000E+00 0.  1.
          2   -1    0    0  501    0  0.00000000000E+00 -0.00000000000E+00 -0.95459565663E+03  0.95459565663E+03  0.00000000000E+00 0. -1.
         25    2    1    2    0    0  0.51935631067E+02  0.11444583758E+03 -0.52897557021E+03  0.55790511850E+03  0.12509119814E+03 0.  0.
          5    1    3    3  502    0  0.80449330651E+02  0.95527209208E+02 -0.49084361417E+03  0.50650021567E+03  0.41800000000E+01 0.  1.
         -5    1    3    3    0  502 -0.28513699584E+02  0.18918628371E+02 -0.38131956048E+02  0.51404902835E+02  0.41800000000E+01 0.  1.
        -11    1    1    2    0    0  0.11551989569E+02 -0.54657518058E+02 -0.24111398196E+03  0.24750120210E+03  0.00000000000E+00 0. -1.
         11    1    1    2    0    0 -0.63487620636E+02 -0.59788319522E+02 -0.15545211784E+03  0.17824332264E+03  0.00000000000E+00 0.  1.
</event>
<event>
 7    1  0.2900135E-009  0.1144571E+03  0.7561462E-02  0.1252532E+00
         -2   -1    0    0    0  501 -0.00000000000E+00  0.00000000000E+00  0.20826186039E+03  0.20826186039E+03  0.00000000000E+00 0. -1.
          2   -1    0    0  501    0  0.00000000000E+00 -0.00000000000E+00 -0.89410236155E+02  0.89410236155E+02  0.00000000000E+00 0.  1.
         25    2    1    2    0    0 -0.63324014913E+02  0.18499542766E+02  0.11989697814E+03  0.18540432208E+03  0.12508922149E+03 0.  0.
          5    1    3    3  502    0 -0.46664698491E+02 -0.49867252727E+02  0.76454733979E+02  0.10260183101E+03  0.41800000000E+01 0.  1.
         -5    1    3    3    0  502 -0.16659316422E+02  0.68366795493E+02  0.43442244158E+02  0.82802491068E+02  0.41800000000E+01 0.  1.
        -11    1    1    2    0    0  0.44162871971E+02 -0.41127978387E+02 -0.32912599841E+02  0.68739428971E+02  0.00000000000E+00 0.  1.
         11    1    1    2    0    0  0.19161142942E+02  0.22628435621E+02  0.31867245944E+02  0.43528345495E+02  0.00000000000E+00 0. -1.
</event>
<event>
 6    1  0.2900135E-009  0.1176487E+03  0.7561462E-02  0.1247027E+00
         -3   -1    0    0    0  501 -0.00000000000E+00  0.00000000000E+00  0.18030098180E+02  0.18030098180E+02  0.00000000000E+00 0.  1.
          3   -1    0    0  501    0  0.00000000000E+00 -0.00000000000E+00 -0.78586411129E+03  0.78586411129E+03  0.00000000000E+00 0. -1.
          5    1    1    2  502    0 -0.22250649720E+02  0.59517820772E+02 -0.26104929359E+03  0.26870368157E+03  0.41800000000E+01 0.  1.
         -5    1    1    2    0  502  0.61266462713E+02 -0.31822317120E+02 -0.21511134232E+03  0.22595707848E+03  0.41800000000E+01 0.  1.
        -11    1    1    2    0    0  0.26182417680E+02 -0.26489552274E+02 -0.95498547047E+02  0.10250457484E+03  0.00000000000E+00 0.  1.
         11    1    1    2    0    0 -0.65198230673E+02 -0.12059513787E+01 -0.19617483015E+03  0.20672887458E+03  0.00000000000E+00 0. -1.
</event>
<event>
 7    1  0.2900135E-009  0.8146166E+02  0.7561462E-02  0.1324954E+00
         -1   -1    0    0    0  501 -0.00000000000E+00  0.00000000000E+00  0.15516173817E+02  0.15516173817E+02  0.00000000000E+00 0.  1.
          1   -1    0    0  501    0  0.00000000000E+00 -0.00000000000E+00 -0.81834440739E+03  0.81834440739E+03  0.00000000000E+00 0. -1.
         25    2    1    2    0    0  0.78681905477E+01  0.27242003185E+02 -0.50775993677E+03  0.52370677048E+03  0.12507834704E+03 0.  0.
          5    1    3    3  502    0 -0.29837116118E+00 -0.19395877048E+02 -0.75306388443E+01  0.21224325507E+02  0.41800000000E+01 0.  1.
         -5    1    3    3    0  502  0.81665617089E+01  0.46637880233E+02 -0.50022929793E+03  0.50248244498E+03  0.41800000000E+01 0.  1.
        -11    1    1    2    0    0  0.41733278897E+02 -0.89556668204E+01 -0.13054676054E+03  0.13734746894E+03  0.00000000000E+00 0.  1.
         11    1    1    2    0    0 -0.49601469445E+02 -0.18286336365E+02 -0.16452153626E+03  0.17280634179E+03  0.00000000000E+00 0. -1.
</event>
<event>
 7    1  0.3443476E-009  0.9315888E+02  0.7561462E-02  0.1295377E+00
          1   -1    0    0  501    0  0.00000000000E+00  0.00000000000E+00  0.15661174200E+03  0.15661174200E+03  0.00000000000E+00 0. -1.
         -1   -1    0    0    0  501 -0.00000000000E+00 -0.00000000000E+00 -0.99196001025E+02  0.99196001025E+02  0.00000000000E+00 0.  1.
         25    2    1    2    0    0 -0.14163731266E+02 -0.12291476004E+02  0.92208986013E+02  0.15653020665E+03  0.12509003488E+03 0.  0.
          5    1    3    3  502    0  0.49792888511E+02 -0.16292709097E+02  0.72129388684E+02  0.89246317728E+02  0.41800000000E+01 0.  1.
         -5    1    3    3    0  502 -0.63956619777E+02  0.40012330930E+01  0.20079597330E+02  0.67283888922E+02  0.41800000000E+01 0.  1.
        -11    1    1    2    0    0 -0.27071390195E+02  0.70619462842E+01 -0.48090834277E+02  0.55636854636E+02  0.00000000000E+00 0.  1.
         11    1    1    2    0    0  0.41235121461E+02  0.52295297200E+01  0.13297589235E+02  0.43640681737E+02  0.00000000000E+00 0. -1.
</event>
<event>
 7    1  0.2900135E-009  0.1249915E+03  0.7561462E-02  0.1235083E+00
         -1   -1    0    0    0  501 -0.00000000000E+00  0.00000000000E+00  0.20416206325E+03  0.20416206325E+03  0.00000000000E+00 0.  1.
          1   -1    0    0  501    0  0.00000000000E+00 -0.00000000000E+00 -0.92188471077E+02  0.92188471077E+02  0.00000000000E+00 0. -1.
         25    2    1    2    0    0  0.78227900638E+02  0.18374081820E+02  0.50151021381E+02  0.15690889783E+03  0.12509222978E+03 0.  0.
          5    1    3    3  502    0 -0.17714555672E+02 -0.26016433624E+02 -0.12305431520E+02  0.34052259044E+02  0.41800000000E+01 0.  1.
         -5    1    3    3    0  502  0.95942456310E+02  0.44390515444E+02  0.62456452901E+02  0.12285663878E+03  0.41800000000E+01 0.  1.
        -11    1    1    2    0    0  0.12823300398E+02  0.10861925465E+02 -0.10258338680E+02  0.19688879358E+02  0.00000000000E+00 0. -1.
         11    1    1    2    0    0 -0.91051201037E+02 -0.29236007285E+02  0.72080909467E+02  0.11975275714E+03  0.00000000000E+00 0.  1.
</event>
<event>
 7    1  0.2900135E-009  0.1276611E+03  0.7561462E-02  0.1230968E+00
         -1   -1    0    0    0  501 -0.00000000000E+00  0.00000000000E+00  0.16769912854E+03  0.16769912854E+03  0.00000000000E+00 0.  1.
          1   -1    0    0  501    0  0.00000000000E+00 -0.00000000000E+00 -0.21758864294E+03  0.21758864294E+03  0.00000000000E+00 0. -1.
         25    2    1    2    0    0 -0.10224918480E+03 -0.40383135564E+02  0.85692464990E+02  0.18728650827E+03  0.12508934484E+03 0.  0.
          5    1    3    3  502    0 -0.23826888891E+02  0.19095345425E+02  0.83216717759E+02  0.88740336745E+02  0.41800000000E+01 0.  1.
         -5    1    3    3    0  502 -0.78422295913E+02 -0.59478480989E+02  0.24757472311E+01  0.98546171520E+02  0.41800000000E+01 0.  1.
        -11    1    1    2    0    0  0.33709723734E+02  0.46212573261E+02 -0.14928704395E+02  0.59116948640E+02  0.00000000000E+00 0.  1.
         11    1    1    2    0    0  0.68539461070E+02 -0.58294376974E+01 -0.12065327499E+03  0.13888431457E+03  0.00000000000E+00 0. -1.
</event>
<event>
 7    1  0.2900135E-009  0.1292168E+03  0.7561462E-02  0.1228623E+00
          1   -1    0    0  501    0  0.00000000000E+00  0.00000000000E+00  0.88875618738E+02  0.88875618738E+02  0.00000000000E+00 0. -1.
         -1   -1    0    0    0  501 -0.00000000000E+00 -0.00000000000E+00 -0.19176491989E+03  0.19176491989E+03  0.00000000000E+00 0.  1.
         25    2    1    2    0    0  0.61443729748E+02 -0.34019688841E+02 -0.42847943797E+02  0.14972138100E+03  0.12509146448E+03 0.  0.
          5    1    3    3  502    0  0.53473488732E+02  0.41223507747E+02 -0.21778610108E+02  0.71067375401E+02  0.41800000000E+01 0. -1.
         -5    1    3    3    0  502  0.79702410162E+01 -0.75243196588E+02 -0.21069333689E+02  0.78654005599E+02  0.41800000000E+01 0. -1.
        -11    1    1    2    0    0 -0.47691526805E+02  0.65285243333E+02 -0.50983293046E+02  0.95582115983E+02  0.00000000000E+00 0. -1.
         11    1    1    2    0    0 -0.13752202943E+02 -0.31265554492E+02 -0.90580643131E+01  0.35337041650E+02  0.00000000000E+00 0.  1.
</event>
<event>
 7    1  0.2900135E-009  0.1337668E+03  0.7561462E-02  0.1221971E+00
         -1   -1    0    0    0  501 -0.00000000000E+00  0.00000000000E+00  0.58417781672E+02  0.58417781672E+02  0.00000000000E+00 0.  1.
          1   -1    0    0  501    0  0.00000000000E+00 -0.00000000000E+00 -0.36699144257E+03  0.36699144257E+03  0.00000000000E+00 0. -1.
         25    2    1    2    0    0 -0.87042341649E+02  0.43559413150E+02 -0.17469636607E+03  0.23589052740E+03  0.12510686986E+03 0.  0.
          5    1    3    3  502    0  0.86311246538E+01 -0.27064893729E+02 -0.76175085839E+02  0.81407130449E+02  0.41800000000E+01 0.  1.
         -5    1    3    3    0  502 -0.95673466303E+02  0.70624306879E+02 -0.98521280230E+02  0.15448339696E+03  0.41800000000E+01 0.  1.
        -11    1    1    2    0    0  0.95314925718E+02 -0.23555146799E+02 -0.66077682347E+02  0.11834711703E+03  0.00000000000E+00 0.  1.
         11    1    1    2    0    0 -0.82725840691E+01 -0.20004266352E+02 -0.67799612481E+02  0.71171579805E+02  0.00000000000E+00 0. -1.
</event>
<event>
 7    1  0.2900135E-009  0.1008332E+03  0.7561462E-02  0.1278553E+00
         -2   -1    0    0    0  501 -0.00000000000E+00  0.00000000000E+00  0.31534370406E+02  0.31534370406E+02  0.00000000000E+00 0. -1.
          2   -1    0    0  501    0  0.00000000000E+00 -0.00000000000E+00 -0.45316889554E+03  0.45316889554E+03  0.00000000000E+00 0.  1.
         25    2    1    2    0    0  0.30356947716E+01 -0.15581285815E+02 -0.33145007724E+03  0.35462268792E+03  0.12508439221E+03 0.  0.
          5    1    3    3  502    0 -0.30988315755E+02  0.41004693053E+02 -0.84749558626E+02  0.99204942684E+02  0.41800000000E+01 0.  1.
         -5    1    3    3    0  502  0.34024010527E+02 -0.56585978868E+02 -0.24670051862E+03  0.25541774524E+03  0.41800000000E+01 0.  1.
        -11    1    1    2    0    0 -0.35933787247E+02 -0.15079373751E+02 -0.71404059944E+02  0.81345954756E+02  0.00000000000E+00 0.  1.
         11    1    1    2    0    0  0.32898092476E+02  0.30660659566E+02 -0.18780387947E+02  0.48734623267E+02  0.00000000000E+00 0. -1.
</event>
<event>
 7    1  0.2960694E-009  0.1396825E+03  0.7561462E-02  0.1213757E+00
          2   -1    0    0  501    0  0.00000000000E+00  0.00000000000E+00  0.15536239220E+04  0.15536239220E+04  0.00000000000E+00 0.  1.
         -2   -1    0    0    0  501 -0.00000000000E+00 -0.00000000000E+00 -0.13512794302E+02  0.13512794302E+02  0.00000000000E+00 0. -1.
         25    2    1    2    0    0 -0.70283602626E+02  0.54042360175E+02  0.10347880713E+04  0.10460850141E+04  0.12508853981E+03 0.  0.
          5    1    3    3  502    0  0.69042856352E+01  0.73066640171E+02  0.52372934092E+03  0.52886321295E+03  0.41800000000E+01 0. -1.
         -5    1    3    3    0  502 -0.77187888261E+02 -0.19024279996E+02  0.51105873033E+03  0.51722180114E+03  0.41800000000E+01 0. -1.
        -11    1    1    2    0    0  0.55468336437E+02  0.13508824804E+02  0.25806815176E+03  0.26430738856E+03  0.00000000000E+00 0.  1.
         11    1    1    2    0    0  0.14815266188E+02 -0.67551184979E+02  0.24725490466E+03  0.25674431363E+03  0.00000000000E+00 0. -1.
</event>
<event>
 7    1  0.2900135E-009  0.9555473E+02  0.7561462E-02  0.1289932E+00
         -1   -1    0    0    0  501 -0.00000000000E+00  0.00000000000E+00  0.97919844796E+02  0.97919844796E+02  0.00000000000E+00 0.  1.
          1   -1    0    0  501    0  0.00000000000E+00 -0.00000000000E+00 -0.20103655975E+03  0.20103655975E+03  0.00000000000E+00 0. -1.
         25    2    1    2    0    0  0.39396027742E+01  0.39774257508E+02  0.28327657515E+02  0.13435476721E+03  0.12510489703E+03 0.  0.
          5    1    3    3  502    0 -0.30506477205E+02  0.65668175181E+02 -0.13930797493E+02  0.73854545574E+02  0.41800000000E+01 0.  1.
         -5    1    3    3    0  502  0.34446079980E+02 -0.25893917673E+02  0.42258455008E+02  0.60500221637E+02  0.41800000000E+01 0.  1.
        -11    1    1    2    0    0  0.73181239915E+01  0.16418615429E+02  0.32090036147E+01  0.18259889802E+02  0.00000000000E+00 0.  1.
         11    1    1    2    0    0 -0.11257726766E+02 -0.56192872937E+02 -0.13465337609E+03  0.14634174754E+03  0.00000000000E+00 0. -1.
</event>
<event>
 7    1  0.3004760E-009  0.1870897E+03  0.7561462E-02  0.1161113E+00
         -1   -1    0    0    0  501 -0.00000000000E+00  0.00000000000E+00  0.90337976134E+02  0.90337976134E+02  0.00000000000E+00 0.  1.
          1   -1    0    0  501    0  0.00000000000E+00 -0.00000000000E+00 -0.47896511714E+03  0.47896511714E+03  0.00000000000E+00 0. -1.
         25    2    1    2    0    0  0.31469935929E+02 -0.17026524611E+03 -0.25414512322E+03  0.33199069528E+03  0.12508983649E+03 0.  0.
          5    1    3    3  502    0 -0.23933242331E+02 -0.16336000796E+02  0.51484366073E+00  0.29281435663E+02  0.41800000000E+01 0.  1.
         -5    1    3    3    0  502  0.55403178260E+02 -0.15392924532E+03 -0.25465996688E+03  0.30270925961E+03  0.41800000000E+01 0. -1.
        -11    1    1    2    0    0  0.14984255371E+02  0.54291351026E+02 -0.36915663023E+01  0.56442062037E+02  0.00000000000E+00 0.  1.
         11    1    1    2    0    0 -0.46454191300E+02  0.11597389509E+03 -0.13079045149E+03  0.18087033596E+03  0.00000000000E+00 0. -1.
</event>
<event>
 7    1  0.2900135E-009  0.8180829E+02  0.7561462E-02  0.1323997E+00
          1   -1    0    0  501    0  0.00000000000E+00  0.00000000000E+00  0.58689377643E+02  0.58689377643E+02  0.00000000000E+00 0. -1.
         -1   -1    0    0    0  501 -0.00000000000E+00 -0.00000000000E+00 -0.25986145965E+03  0.25986145965E+03  0.00000000000E+00 0.  1.
         25    2    1    2    0    0 -0.53606703883E+02 -0.19428556138E+02 -0.12689947793E+03  0.18708081157E+03  0.12507839568E+03 0.  0.
          5    1    3    3  502    0 -0.34811020772E+02 -0.38561902358E+02  0.50555134918E+01  0.52362754868E+02  0.41800000000E+01 0.  1.
         -5    1    3    3    0  502 -0.18795683110E+02  0.19133346220E+02 -0.13195499142E+03  0.13471805670E+03  0.41800000000E+01 0.  1.
        -11    1    1    2    0    0 -0.14238900798E+02  0.35520284510E+01  0.13130325511E+02  0.19691842221E+02  0.00000000000E+00 0. -1.
         11    1    1    2    0    0  0.67845604681E+02  0.15876527687E+02 -0.87402929595E+02  0.11177818350E+03  0.00000000000E+00 0.  1.
</event>
<event>
 7    1  0.2900135E-009  0.1083750E+03  0.7561462E-02  0.1263609E+00
         -1   -1    0    0    0  501 -0.00000000000E+00  0.00000000000E+00  0.10146368966E+03  0.10146368966E+03  0.00000000000E+00 0.  1.
          1   -1    0    0  501    0  0.00000000000E+00 -0.00000000000E+00 -0.12018488111E+03  0.12018488111E+03  0.00000000000E+00 0. -1.
         25    2    1    2    0    0 -0.27584782747E+01  0.10504542051E+01 -0.31538714493E+02  0.12903755672E+03  0.12508911973E+03 0.  0.
          5    1    3    3  502    0 -0.48211903153E+02  0.41738805037E+02 -0.18278154995E+02  0.66468630206E+02  0.41800000000E+01 0. -1.
         -5    1    3    3    0  502  0.45453424878E+02 -0.40688350832E+02 -0.13260559498E+02  0.62568926511E+02  0.41800000000E+01 0. -1.
        -11    1    1    2    0    0 -0.35293243002E+02 -0.28013806507E+02  0.73468656255E+01  0.45654822211E+02  0.00000000000E+00 0.  1.
         11    1    1    2    0    0  0.38051721277E+02  0.26963352302E+02  0.54706574234E+01  0.46956191840E+02  0.00000000000E+00 0. -1.
</event>
<event>
 7    1  0.2900135E-009  0.1317764E+03  0.7561462E-02  0.1224843E+00
         -2   -1    0    0    0  501 -0.00000000000E+00  0.00000000000E+00  0.44829585264E+02  0.44829585264E+02  0.00000000000E+00 0.  1.
          2   -1    0    0  501    0  0.00000000000E+00 -0.00000000000E+00 -0.55096908317E+03  0.55096908317E+03  0.00000000000E+00 0. -1.
         25    2    1    2    0    0  0.95716364584E+02  0.23046041708E+02 -0.18296075595E+03  0.24251804498E+03  0.12509045302E+03 0.  0.
          5    1    3    3  502    0  0.60335838877E+02 -0.26604796178E+02 -0.20871373265E+02  0.69291523685E+02  0.41800000000E+01 0. -1.
         -5    1    3    3    0  502  0.35380525707E+02  0.49650837886E+02 -0.16208938268E+03  0.17322652129E+03  0.41800000000E+01 0. -1.
        -11    1    1    2    0    0 -0.11413962268E+03 -0.27519822298E+02 -0.30578801067E+03  0.32755381474E+03  0.00000000000E+00 0. -1.
         11    1    1    2    0    0  0.18423258094E+02  0.44737805901E+01 -0.17390731290E+02  0.25726808709E+02  0.00000000000E+00 0.  1.
</event>
<event>
 7    1  0.2900135E-009  0.1211339E+03  0.7561462E-02  0.1241238E+00
         -1   -1    0    0    0  501 -0.00000000000E+00  0.00000000000E+00  0.75457357614E+03  0.75457357614E+03  0.00000000000E+00 0.  1.
          1   -1    0    0  501    0  0.00000000000E+00 -0.00000000000E+00 -0.23759080339E+02  0.23759080339E+02  0.00000000000E+00 0. -1.
         25    2    1    2    0    0  0.23810156834E+02 -0.59896225130E+02  0.27085088717E+03  0.30522311433E+03  0.12508583089E+03 0.  0.
          5    1    3    3  502    0 -0.27487707905E+02 -0.76512539366E+02  0.20116022178E+03  0.21700840996E+03  0.41800000000E+01 0.  1.
         -5    1    3    3    0  502  0.51297864739E+02  0.16616314235E+02  0.69690665385E+02  0.88214704372E+02  0.41800000000E+01 0.  1.
        -11    1    1    2    0    0  0.29413066046E+02  0.40660805980E+02  0.27986144809E+03  0.28432527099E+03  0.00000000000E+00 0.  1.
         11    1    1    2    0    0 -0.53223222880E+02  0.19235419150E+02  0.18010216054E+03  0.18878427116E+03  0.00000000000E+00 0. -1.
</event>
<event>
 7    1  0.2900135E-009  0.1011388E+03  0.7561462E-02  0.1277919E+00
          4   -1    0    0  501    0  0.00000000000E+00  0.00000000000E+00  0.31208279151E+02  0.31208279151E+02  0.00000000000E+00 0. -1.
         -4   -1    0    0    0  501 -0.00000000000E+00 -0.00000000000E+00 -0.57485299133E+03  0.57485299133E+03  0.00000000000E+00 0.  1.
         25    2    1    2    0    0 -0.19582072969E+02  0.75951190592E+02 -0.29179425103E+03  0.32702243248E+03  0.12509094882E+03 0.  0.
          5    1    3    3  502    0 -0.41141198613E+02  0.64524312668E+02 -0.69826077467E+02  0.10367805285E+03  0.41800000000E+01 0.  1.
         -5    1    3    3    0  502  0.21559125644E+02  0.11426877925E+02 -0.22196817357E+03  0.22334437963E+03  0.41800000000E+01 0.  1.
        -11    1    1    2    0    0 -0.23380043086E+02 -0.28788248998E+02 -0.17628504516E+03  0.18014385041E+03  0.00000000000E+00 0.  1.
         11    1    1    2    0    0  0.42962116055E+02 -0.47162941595E+02 -0.75565415984E+02  0.98894987581E+02  0.00000000000E+00 0. -1.
</event>
<event>
 7    1  0.2900135E-009  0.8907869E+02  0.7561462E-02  0.1305098E+00
         -2   -1    0    0    0  501 -0.00000000000E+00  0.00000000000E+00  0.17591587105E+03  0.17591587105E+03  0.00000000000E+00 0.  1.
          2   -1    0    0  501    0  0.00000000000E+00 -0.00000000000E+00 -0.68600898844E+02  0.68600898844E+02  0.00000000000E+00 0. -1.
         25    2    1    2    0    0 -0.14502290300E+02  0.30683691764E+01  0.48173195663E+02  0.13487952937E+03  0.12510835044E+03 0.  0.
          5    1    3    3  502    0  0.23571069085E+02  0.53786775393E+02  0.73227926452E+01  0.59327128677E+02  0.41800000000E+01 0. -1.
         -5    1    3    3    0  502 -0.38073359384E+02 -0.50718406216E+02  0.40850403018E+02  0.75552400694E+02  0.41800000000E+01 0. -1.
        -11    1    1    2    0    0  0.28121106662E+02  0.15954851521E+02  0.74797713365E+02  0.81486513311E+02  0.00000000000E+00 0.  1.
         11    1    1    2    0    0 -0.13618816362E+02 -0.19023220698E+02 -0.15655936821E+02  0.28150727212E+02  0.00000000000E+00 0. -1.
</event>
<event>
 7    1  0.2900135E-009  0.9120924E+02  0.7561462E-02  0.1299949E+00
         -2   -1    0    0    0  501 -0.00000000000E+00  0.00000000000E+00  0.56535842828E+02  0.56535842828E+02  0.00000000000E+00 0.  1.
          2   -1    0    0  501    0  0.00000000000E+00 -0.00000000000E+00 -0.26349809417E+03  0.26349809417E+03  0.00000000000E+00 0. -1.
         25    2    1    2    0    0  0.29671668735E+01 -0.47740565780E+02 -0.76351462776E+02  0.15416171100E+03  0.12509325150E+03 0.  0.
          5    1    3    3  502    0  0.28583832542E+02 -0.58492504870E+02 -0.98666530787E+02  0.11828341095E+03  0.41800000000E+01 0. -1.
         -5    1    3    3    0  502 -0.25616665668E+02  0.10751939091E+02  0.22315068011E+02  0.35878300050E+02  0.41800000000E+01 0. -1.
        -11    1    1    2    0    0  0.33660563039E+02  0.38834476361E+02 -0.11326281930E+03  0.12437691223E+03  0.00000000000E+00 0.  1.
         11    1    1    2    0    0 -0.36627729913E+02  0.89060894192E+01 -0.17347969262E+02  0.41495313770E+02  0.00000000000E+00 0. -1.
</event>
<event>
 7    1  0.2900135E-009  0.1253404E+03  0.7561462E-02  0.1234538E+00
          1   -1    0    0  501    0  0.00000000000E+00  0.00000000000E+00  0.30670689388E+03  0.30670689388E+03  0.00000000000E+00 0. -1.
         -1   -1    0    0    0  501 -0.00000000000E+00 -0.00000000000E+00 -0.69759069266E+02  0.69759069266E+02  0.00000000000E+00 0.  1.
         25    2    1    2    0    0  0.15152693820E+01  0.76684195019E+02  0.50334057014E+02  0.15512195716E+03  0.12508614028E+03 0.  0.
          5    1    3    3  502    0 -0.48624507578E+02  0.75306625979E+02  0.93687386073E+01  0.90225696543E+02  0.41800000000E+01 0. -1.
         -5    1    3    3    0  502  0.50139776960E+02  0.13775690401E+01  0.40965318407E+02  0.64896260618E+02  0.41800000000E+01 0. -1.
        -11    1    1    2    0    0  0.10803336265E+02  0.14787165912E+02  0.73850717285E+01  0.19746180254E+02  0.00000000000E+00 0.  1.
         11    1    1    2    0    0 -0.12318605647E+02 -0.91471360931E+02  0.17922869588E+03  0.20159782573E+03  0.00000000000E+00 0. -1.
</event>
<event>
 7    1  0.2900135E-009  0.9628544E+02  0.7561462E-02  0.1288307E+00
         -1   -1    0    0    0  501 -0.00000000000E+00  0.00000000000E+00  0.86557918392E+02  0.86557918392E+02  0.00000000000E+00 0.  1.
          1   -1    0    0  501    0  0.00000000000E+00 -0.00000000000E+00 -0.23948719509E+03  0.23948719509E+03  0.00000000000E+00 0. -1.
         25    2    1    2    0    0 -0.56163784332E+02  0.22272048059E+02 -0.16690458291E+03  0.21715190620E+03  0.12508955102E+03 0.  0.
          5    1    3    3  502    0  0.19644161530E+01  0.50546601993E+02 -0.13643059587E+03  0.14556647208E+03  0.41800000000E+01 0. -1.
         -5    1    3    3    0  502 -0.58128200485E+02 -0.28274553933E+02 -0.30473987036E+02  0.71585434116E+02  0.41800000000E+01 0. -1.
        -11    1    1    2    0    0  0.55017999931E+02 -0.34380034348E+02  0.42721937386E+02  0.77679669233E+02  0.00000000000E+00 0.  1.
         11    1    1    2    0    0  0.11457844011E+01  0.12107986288E+02 -0.28746631178E+02  0.31213538055E+02  0.00000000000E+00 0. -1.
</event>
<event>
 7    1  0.2900135E-009  0.2703902E+03  0.7561462E-02  0.1101056E+00
         -2   -1    0    0    0  501 -0.00000000000E+00  0.00000000000E+00  0.43892757459E+03  0.43892757459E+03  0.00000000000E+00 0.  1.
          2   -1    0    0  501    0  0.00000000000E+00 -0.00000000000E+00 -0.27391223272E+03  0.27391223272E+03  0.00000000000E+00 0. -1.
         25    2    1    2    0    0  0.24205222756E+03  0.10726902598E+03 -0.11581051366E+03  0.31488871324E+03  0.12508757673E+03 0.  0.
          5    1    3    3  502    0  0.17509104823E+03  0.47535339635E+02 -0.13095313554E+03  0.22379159902E+03  0.41800000000E+01 0.  1.
         -5    1    3    3    0  502  0.66961179324E+02  0.59733686346E+02  0.15142621884E+02  0.91097114216E+02  0.41800000000E+01 0.  1.
        -11    1    1    2    0    0 -0.15587858978E+03 -0.42191956308E+02  0.10838129063E+03  0.19448598943E+03  0.00000000000E+00 0.  1.
         11    1    1    2    0    0 -0.86173637777E+02 -0.65077069673E+02  0.17244456490E+03  0.20346510464E+03  0.00000000000E+00 0. -1.
</event>
<event>
 7    1  0.2900135E-009  0.1084166E+03  0.7561462E-02  0.1263531E+00
          2   -1    0    0  501    0  0.00000000000E+00  0.00000000000E+00  0.74048243001E+03  0.74048243001E+03  0.00000000000E+00 0. -1.
         -2   -1    0    0    0  501 -0.00000000000E+00 -0.00000000000E+00 -0.24824142384E+02  0.24824142384E+02  0.00000000000E+00 0.  1.
         25    2    1    2    0    0  0.76327337237E+02  0.52524192150E+02  0.46228938273E+03  0.48779418775E+03  0.12508814112E+03 0.  0.
          5    1    3    3  502    0  0.64454070055E+02  0.70910454449E+02  0.17433816976E+03  0.19898213370E+03  0.41800000000E+01 0. -1.
         -5    1    3    3    0  502  0.11873267182E+02 -0.18386262299E+02  0.28795121297E+03  0.28881205405E+03  0.41800000000E+01 0. -1.
        -11    1    1    2    0    0 -0.45535544882E+02 -0.10836644780E+02  0.53743384482E+02  0.71268998122E+02  0.00000000000E+00 0.  1.
         11    1    1    2    0    0 -0.30791792354E+02 -0.41687547371E+02  0.19962552041E+03  0.20624338652E+03  0.00000000000E+00 0. -1.
</event>
<event>
 7    1  0.2900135E-009  0.7582267E+02  0.7561462E-02  0.1341342E+00
         -3   -1    0    0    0  501 -0.00000000000E+00  0.00000000000E+00  0.13629287031E+03  0.13629287031E+03  0.00000000000E+00 0.  1.
          3   -1    0    0  501    0  0.00000000000E+00 -0.00000000000E+00 -0.12911654009E+03  0.12911654009E+03  0.00000000000E+00 0. -1.
         25    2    1    2    0    0  0.22570621504E+02 -0.62425660029E+02 -0.33886350891E+02  0.14560845560E+03  0.12508853497E+03 0.  0.
          5    1    3    3  502    0 -0.80028591874E+00  0.57352304461E+01 -0.66159840831E+02  0.66544197828E+02  0.41800000000E+01 0.  1.
         -5    1    3    3    0  502  0.23370907422E+02 -0.68160890475E+02  0.32273489940E+02  0.79064257771E+02  0.41800000000E+01 0.  1.
        -11    1    1    2    0    0 -0.26638035390E+02  0.32029565246E+02  0.67494054039E+02  0.79315353557E+02  0.00000000000E+00 0.  1.
         11    1    1    2    0    0  0.40674138860E+01  0.30396094783E+02 -0.26431372926E+02  0.40485601250E+02  0.00000000000E+00 0. -1.
</event>
<event>
 7    1  0.2900135E-009  0.1105567E+03  0.7561462E-02  0.1259543E+00
         -4   -1    0    0    0  501 -0.00000000000E+00  0.00000000000E+00  0.93351751131E+03  0.93351751131E+03  0.00000000000E+00 0. -1.
          4   -1    0    0  501    0  0.00000000000E+00 -0.00000000000E+00 -0.15442212242E+02  0.15442212242E+02  0.00000000000E+00 0.  1.
         25    2    1    2    0    0 -0.39136591799E+02 -0.19546731450E+02  0.62259608582E+03  0.63654304018E+03  0.12508960146E+03 0.  0.
          5    1    3    3  502    0 -0.20624575668E+02  0.53222760068E+02  0.25795168899E+03  0.26422449085E+03  0.41800000000E+01 0.  1.
         -5    1    3    3    0  502 -0.18512016131E+02 -0.72769491519E+02  0.36464439683E+03  0.37231854933E+03  0.41800000000E+01 0.  1.
        -11    1    1    2    0    0  0.10308531164E+02  0.47450275009E+02  0.82811516293E+02  0.95997612699E+02  0.00000000000E+00 0.  1.
         11    1    1    2    0    0  0.28828060635E+02 -0.27903543559E+02  0.21266769695E+03  0.21641907067E+03  0.00000000000E+00 0. -1.
</event>
<event>
 7    1  0.2900135E-009  0.1248023E+03  0.7561462E-02  0.1235379E+00
          2   -1    0    0  501    0  0.00000000000E+00  0.00000000000E+00  0.39237349208E+02  0.39237349208E+02  0.00000000000E+00 0. -1.
         -2   -1    0    0    0  501 -0.00000000000E+00 -0.00000000000E+00 -0.56915440927E+03  0.56915440927E+03  0.00000000000E+00 0.  1.
         25    2    1    2    0    0 -0.29104068143E+02  0.63877393896E+02 -0.43819635736E+03  0.46107634012E+03  0.12509186856E+03 0.  0.
          5    1    3    3  502    0  0.29228797534E+02  0.77523753050E+02 -0.23633768742E+03  0.25047401020E+03  0.41800000000E+01 0. -1.
         -5    1    3    3    0  502 -0.58332865677E+02 -0.13646359154E+02 -0.20185866994E+03  0.21060232991E+03  0.41800000000E+01 0. -1.
        -11    1    1    2    0    0 -0.27800195464E+02 -0.27208552622E+02 -0.62424460003E+02  0.73552494249E+02  0.00000000000E+00 0. -1.
         11    1    1    2    0    0  0.56904263606E+02 -0.36668841275E+02 -0.29296242700E+02  0.73762924111E+02  0.00000000000E+00 0.  1.
</event>
<event>
 7    1  0.2900135E-009  0.8811978E+02  0.7561462E-02  0.1307470E+00
         -1   -1    0    0    0  501 -0.00000000000E+00  0.00000000000E+00  0.20002128044E+02  0.20002128044E+02  0.00000000000E+00 0.  1.
          1   -1    0    0  501    0  0.00000000000E+00 -0.00000000000E+00 -0.77415055534E+03  0.77415055534E+03  0.00000000000E+00 0. -1.
         25    2    1    2    0    0 -0.53043245567E+02 -0.27095792755E+02 -0.43856571651E+03  0.45992655148E+03  0.12507908365E+03 0.  0.
          5    1    3    3  502    0 -0.45373891153E+02 -0.90896358202E+01 -0.43742014359E+03  0.43988096787E+03  0.41800000000E+01 0. -1.
         -5    1    3    3    0  502 -0.76693544149E+01 -0.18006156935E+02 -0.11455729226E+01  0.20045583604E+02  0.41800000000E+01 0. -1.
        -11    1    1    2    0    0 -0.69517929270E+01 -0.27670398239E+02 -0.93336535350E+02  0.97599627021E+02  0.00000000000E+00 0. -1.
         11    1    1    2    0    0  0.59995038495E+02  0.54766190994E+02 -0.22224617543E+03  0.23662650488E+03  0.00000000000E+00 0.  1.
</event>
<event>
 7    1  0.2900135E-009  0.1277698E+03  0.7561462E-02  0.1230803E+00
          1   -1    0    0  501    0  0.00000000000E+00  0.00000000000E+00  0.54451509854E+03  0.54451509854E+03  0.00000000000E+00 0. -1.
         -1   -1    0    0    0  501 -0.00000000000E+00 -0.00000000000E+00 -0.45295358438E+02  0.45295358438E+02  0.00000000000E+00 0.  1.
         25    2    1    2    0    0 -0.44249186075E+02 -0.61390856049E+02  0.11063406159E+03  0.18334561593E+03  0.12509552998E+03 0.  0.
          5    1    3    3  502    0  0.19748565929E+02  0.22945033744E+02  0.56160973093E+00  0.30565801728E+02  0.41800000000E+01 0.  1.
         -5    1    3    3    0  502 -0.63997752005E+02 -0.84335889793E+02  0.11007245186E+03  0.15277981420E+03  0.41800000000E+01 0.  1.
        -11    1    1    2    0    0  0.72415553748E+02  0.52662268609E+02  0.28186083503E+03  0.29574119984E+03  0.00000000000E+00 0. -1.
         11    1    1    2    0    0 -0.28166367673E+02  0.87285874403E+01  0.10672484348E+03  0.11072364120E+03  0.00000000000E+00 0.  1.
</event>
<event>
 7    1  0.2900135E-009  0.2561542E+03  0.7561462E-02  0.1109476E+00
         -1   -1    0    0    0  501 -0.00000000000E+00  0.00000000000E+00  0.84137885720E+02  0.84137885720E+02  0.00000000000E+00 0.  1.
          1   -1    0    0  501    0  0.00000000000E+00 -0.00000000000E+00 -0.10913769028E+04  0.10913769028E+04  0.00000000000E+00 0. -1.
         25    2    1    2    0    0 -0.20230505467E+03 -0.13388345942E+03 -0.79504132083E+03  0.84058933306E+03  0.12509040405E+03 0.  0.
          5    1    3    3  502    0  0.37321321275E+01  0.13174948515E+02 -0.16133201098E+02  0.21569901629E+02  0.41800000000E+01 0.  1.
         -5    1    3    3    0  502 -0.20603718679E+03 -0.14705840793E+03 -0.77890811973E+03  0.81901943143E+03  0.41800000000E+01 0.  1.
        -11    1    1    2    0    0  0.10553660863E+03  0.50110291862E+02 -0.46958030688E+02  0.12591296104E+03  0.00000000000E+00 0.  1.
         11    1    1    2    0    0  0.96768446032E+02  0.83773167553E+02 -0.16523966560E+03  0.20901249446E+03  0.00000000000E+00 0. -1.
</event>
<event>
 7    1  0.2900135E-009  0.9926650E+02  0.7561462E-02  0.1281846E+00
         -3   -1    0    0    0  501 -0.00000000000E+00  0.00000000000E+00  0.28959159619E+02  0.28959159619E+02  0.00000000000E+00 0.  1.
          3   -1    0    0  501    0  0.00000000000E+00 -0.00000000000E+00 -0.45091420574E+03  0.45091420574E+03  0.00000000000E+00 0. -1.
         25    2    1    2    0    0  0.98593018637E+01 -0.32534056678E+02 -0.24589621818E+03  0.27797158122E+03  0.12509028409E+03 0.  0.
          5    1    3    3  502    0 -0.11447024759E+02  0.31404849905E+02 -0.18171583758E+03  0.18481184215E+03  0.41800000000E+01 0. -1.
         -5    1    3    3    0  502  0.21306326623E+02 -0.63938906583E+02 -0.64180380603E+02  0.93159739070E+02  0.41800000000E+01 0. -1.
        -11    1    1    2    0    0  0.34570727321E+02  0.39342154005E+02 -0.77014285714E+02  0.93135065755E+02  0.00000000000E+00 0.  1.
         11    1    1    2    0    0 -0.44430029185E+02 -0.68080973268E+01 -0.99044542230E+02  0.10876671838E+03  0.00000000000E+00 0. -1.
</event>
<event>
 7    1  0.2900135E-009  0.9880690E+02  0.7561462E-02  0.1282825E+00
          4   -1    0    0  501    0  0.00000000000E+00  0.00000000000E+00  0.18682709130E+03  0.18682709130E+03  0.00000000000E+00 0. -1.
         -4   -1    0    0    0  501 -0.00000000000E+00 -0.00000000000E+00 -0.84963420693E+02  0.84963420693E+02  0.00000000000E+00 0.  1.
         25    2    1    2    0    0  0.13611085431E+02  0.63254012581E+02  0.47362769164E+02  0.14858081601E+03  0.12508675082E+03 0.  0.
          5    1    3    3  502    0  0.45079086173E+02  0.23423794112E+02 -0.27589483115E+02  0.57960763620E+02  0.41800000000E+01 0. -1.
         -5    1    3    3    0  502 -0.31468000743E+02  0.39830218468E+02  0.74952252279E+02  0.90620052393E+02  0.41800000000E+01 0. -1.
        -11    1    1    2    0    0 -0.41477617888E+02 -0.49656938320E+02  0.51227248334E+01  0.64903363694E+02  0.00000000000E+00 0.  1.
         11    1    1    2    0    0  0.27866532458E+02 -0.13597074261E+02  0.49378176612E+02  0.58306332291E+02  0.00000000000E+00 0. -1.
</event>
<event>
 7    1  0.2900135E-009  0.1177739E+03  0.7561462E-02  0.1246815E+00
          1   -1    0    0  501    0  0.00000000000E+00  0.00000000000E+00  0.81876211444E+02  0.81876211444E+02  0.00000000000E+00 0. -1.
         -1   -1    0    0    0  501 -0.00000000000E+00 -0.00000000000E+00 -0.21741539466E+03  0.21741539466E+03  0.00000000000E+00 0.  1.
         25    2    1    2    0    0 -0.35506010095E+02 -0.68278653470E+02 -0.83018445485E+02  0.16870765866E+03  0.12509020956E+03 0.  0.
          5    1    3    3  502    0 -0.63712492130E+02 -0.67893339549E+02 -0.14278922571E+02  0.94287577328E+02  0.41800000000E+01 0.  1.
         -5    1    3    3    0  502  0.28206482035E+02 -0.38531392093E+00 -0.68739522913E+02  0.74420081335E+02  0.41800000000E+01 0.  1.
        -11    1    1    2    0    0  0.53364264566E+02  0.77215100629E+02 -0.57407680398E+02  0.11002526195E+03  0.00000000000E+00 0. -1.
         11    1    1    2    0    0 -0.17858254472E+02 -0.89364471590E+01  0.48869426662E+01  0.20558685494E+02  0.00000000000E+00 0.  1.
</event>
<event>
 6    1  0.2900135E-009  0.9545584E+02  0.7561462E-02  0.1290153E+00
          1   -1    0    0  501    0  0.00000000000E+00  0.00000000000E+00  0.21129118404E+03  0.21129118404E+03  0.00000000000E+00 0. -1.
         -1   -1    0    0    0  501 -0.00000000000E+00 -0.00000000000E+00 -0.74537176311E+02  0.74537176311E+02  0.00000000000E+00 0.  1.
          5    1    1    2  502    0  0.63042951192E+02 -0.72101040714E+01  0.34763137972E+02  0.72473080915E+02  0.41800000000E+01 0.  1.
         -5    1    1    2    0  502 -0.52727848675E+02 -0.47201015562E+02  0.73134120173E+02  0.10185398289E+03  0.41800000000E+01 0.  1.
        -11    1    1    2    0    0 -0.12608480507E+02  0.44210383428E+02  0.61751132541E+02  0.76985285306E+02  0.00000000000E+00 0. -1.
         11    1    1    2    0    0  0.22933779902E+01  0.10200736206E+02 -0.32894382960E+02  0.34516011242E+02  0.00000000000E+00 0.  1.
</event>
<event>
 7    1  0.2900135E-009  0.9173810E+02  0.7561462E-02  0.1298696E+00
          1   -1    0    0  501    0  0.00000000000E+00  0.00000000000E+00  0.44409143486E+03  0.44409143486E+03  0.00000000000E+00 0. -1.
         -1   -1    0    0    0  501 -0.00000000000E+00 -0.00000000000E+00 -0.79120031897E+02  0.79120031897E+02  0.00000000000E+00 0.  1.
         25    2    1    2    0    0 -0.41707197073E+02 -0.53852650973E+02  0.20715961028E+01  0.14244739335E+03  0.12508944822E+03 0.  0.
          5    1    3    3  502    0 -0.43329198039E+02 -0.57555388763E+02  0.54040100810E+02  0.90154573228E+02  0.41800000000E+01 0. -1.
         -5    1    3    3    0  502  0.16220009666E+01  0.37027377898E+01 -0.51968504707E+02  0.52292820117E+02  0.41800000000E+01 0. -1.
        -11    1    1    2    0    0 -0.20916301920E+02  0.33789178512E+02  0.69256547166E+02  0.79847790176E+02  0.00000000000E+00 0.  1.
         11    1    1    2    0    0  0.62623498993E+02  0.20063472462E+02  0.29364325969E+03  0.30091628323E+03  0.00000000000E+00 0. -1.
</event>
<event>
 7    1  0.2900135E-009  0.9025541E+02  0.7561462E-02  0.1302234E+00
         -2   -1    0    0    0  501 -0.00000000000E+00  0.00000000000E+00  0.36002121001E+02  0.36002121001E+02  0.00000000000E+00 0.  1.
          2   -1    0    0  501    0  0.00000000000E+00 -0.00000000000E+00 -0.53073663173E+03  0.53073663173E+03  0.00000000000E+00 0. -1.
         25    2    1    2    0    0 -0.15822281421E+02  0.77996166359E+02 -0.34804546626E+03  0.37830767135E+03  0.12508917245E+03 0.  0.
          5    1    3    3  502    0  0.21077506980E+02  0.49711812422E+02 -0.31848031560E+03  0.32305217755E+03  0.41800000000E+01 0. -1.
         -5    1    3    3    0  502 -0.36899788401E+02  0.28284353937E+02 -0.29565150656E+02  0.55255493799E+02  0.41800000000E+01 0. -1.
        -11    1    1    2    0    0  0.25562618279E+01 -0.20918060062E+02  0.83650666078E+01  0.22673201156E+02  0.00000000000E+00 0.  1.
         11    1    1    2    0    0  0.13266019593E+02 -0.57078106296E+02 -0.15505411108E+03  0.16575788023E+03  0.00000000000E+00 0. -1.
</event>
<event>
 6    1  0.3288733E-009  0.1531624E+03  0.7561462E-02  0.1196640E+00
          1   -1    0    0  501    0  0.00000000000E+00  0.00000000000E+00  0.43820670963E+03  0.43820670963E+03  0.00000000000E+00 0. -1.
         -1   -1    0    0    0  501 -0.00000000000E+00 -0.00000000000E+00 -0.69122357344E+02  0.69122357344E+02  0.00000000000E+00 0.  1.
          5    1    1    2  502    0  0.93616982704E+02  0.25441634158E+02  0.18394518103E+02  0.98829382754E+02  0.41800000000E+01 0.  1.
         -5    1    1    2    0  502  0.32139373687E+02 -0.42433755909E+02  0.96737931140E+02  0.11049553250E+03  0.41800000000E+01 0.  1.
        -11    1    1    2    0    0 -0.30840742005E+02  0.47057783613E+02  0.96997374682E+02  0.11213419220E+03  0.00000000000E+00 0.  1.
         11    1    1    2    0    0 -0.94915614386E+02 -0.30065661861E+02  0.15695452836E+03  0.18586995951E+03  0.00000000000E+00 0. -1.
</event>
<event>
 7    1  0.2900135E-009  0.6433853E+02  0.7561462E-02  0.1380477E+00
         -1   -1    0    0    0  501 -0.00000000000E+00  0.00000000000E+00  0.11409337123E+03  0.11409337123E+03  0.00000000000E+00 0.  1.
          1   -1    0    0  501    0  0.00000000000E+00 -0.00000000000E+00 -0.18578634955E+03  0.18578634955E+03  0.00000000000E+00 0. -1.
         25    2    1    2    0    0  0.22188718998E+01 -0.29926664270E+02  0.10333161938E+02  0.12905232842E+03  0.12508877091E+03 0.  0.
          5    1    3    3  502    0  0.68724597979E+01 -0.16188340308E+01 -0.56032938165E+02  0.56630503147E+02  0.41800000000E+01 0. -1.
         -5    1    3    3    0  502 -0.46535878982E+01 -0.28307830239E+02  0.66366100102E+02  0.72421825274E+02  0.41800000000E+01 0. -1.
        -11    1    1    2    0    0 -0.43975474857E+02  0.21215723635E+02 -0.10963553031E+03  0.12001624401E+03  0.00000000000E+00 0. -1.
         11    1    1    2    0    0  0.41756602957E+02  0.87109406344E+01  0.27609390059E+02  0.50811148351E+02  0.00000000000E+00 0.  1.
</event>
<event>
 7    1  0.2900135E-009  0.2680426E+03  0.7561462E-02  0.1102405E+00
          2   -1    0    0  501    0  0.00000000000E+00  0.00000000000E+00  0.17026352625E+04  0.17026352625E+04  0.00000000000E+00 0. -1.
         -2   -1    0    0    0  501 -0.00000000000E+00 -0.00000000000E+00 -0.50809433771E+02  0.50809433771E+02  0.00000000000E+00 0.  1.
         25    2    1    2    0    0 -0.94246903841E+02  0.24385365388E+03  0.10780124109E+04  0.11162910059E+04  0.12509104093E+03 0.  0.
          5    1    3    3  502    0 -0.62620687932E+02  0.81089739130E+02  0.63543634876E+03  0.64365652492E+03  0.41800000000E+01 0. -1.
         -5    1    3    3    0  502 -0.31626215908E+02  0.16276391475E+03  0.44257606211E+03  0.47263448100E+03  0.41800000000E+01 0.  1.
        -11    1    1    2    0    0  0.65217815031E+02 -0.90168404491E+02  0.32236221730E+03  0.34102947630E+03  0.00000000000E+00 0. -1.
         11    1    1    2    0    0  0.29029088809E+02 -0.15368524939E+03  0.25145120054E+03  0.29612421402E+03  0.00000000000E+00 0.  1.
</event>
<event>
 7    1  0.2900135E-009  0.1000577E+03  0.7561462E-02  0.1280175E+00
         -2   -1    0    0    0  501 -0.00000000000E+00  0.00000000000E+00  0.17607851845E+02  0.17607851845E+02  0.00000000000E+00 0.  1.
          2   -1    0    0  501    0  0.00000000000E+00 -0.00000000000E+00 -0.15276547462E+04  0.15276547462E+04  0.00000000000E+00 0. -1.
         25    2    1    2    0    0 -0.71861506222E+02 -0.39242755883E+02 -0.12404243681E+04  0.12494016201E+04  0.12509086826E+03 0.  0.
          5    1    3    3  502    0 -0.36530548162E+02  0.31997613101E+01 -0.10606078122E+04  0.10612497930E+04  0.41800000000E+01 0.  1.
         -5    1    3    3    0  502 -0.35330958061E+02 -0.42442517193E+02 -0.17981655594E+03  0.18815182713E+03  0.41800000000E+01 0.  1.
        -11    1    1    2    0    0  0.82414377635E+02  0.46865757652E+02 -0.26593662731E+03  0.28233104439E+03  0.00000000000E+00 0. -1.
         11    1    1    2    0    0 -0.10552871413E+02 -0.76230017687E+01 -0.36858989221E+01  0.13529933551E+02  0.00000000000E+00 0.  1.
</event>
<event>
 6    1  0.2900135E-009  0.1206605E+03  0.7561462E-02  0.1242011E+00
          1   -1    0    0  501    0  0.00000000000E+00  0.00000000000E+00  0.60344730804E+03  0.60344730804E+03  0.00000000000E+00 0. -1.
         -1   -1    0    0    0  501 -0.00000000000E+00 -0.00000000000E+00 -0.57799587768E+02  0.57799587768E+02  0.00000000000E+00 0.  1.
          5    1    1    2  502    0 -0.77353718308E+02 -0.60756181022E+01  0.32335766816E+03  0.33256302385E+03  0.41800000000E+01 0. -1.
         -5    1    1    2    0  502  0.27058666298E+02 -0.65521761428E+02  0.18344429350E+03  0.19670931310E+03  0.41800000000E+01 0. -1.
        -11    1    1    2    0    0  0.22431115036E+02  0.56769703485E+02 -0.20804133995E+02  0.64488496236E+02  0.00000000000E+00 0.  1.
         11    1    1    2    0    0  0.27863936974E+02  0.14827676046E+02  0.59649892605E+02  0.67486062623E+02  0.00000000000E+00 0. -1.
</event>
<event>
 7    1  0.2900135E-009  0.2217909E+03  0.7561462E-02  0.1132555E+00
         -1   -1    0    0    0  501 -0.00000000000E+00  0.00000000000E+00  0.27520274361E+03  0.27520274361E+03  0.00000000000E+00 0.  1.
          1   -1    0    0  501    0  0.00000000000E+00 -0.00000000000E+00 -0.22763891321E+03  0.22763891321E+03  0.00000000000E+00 0. -1.
         25    2    1    2    0    0  0.15524959298E+03 -0.13813834949E+03 -0.61335082218E+02  0.25018800607E+03  0.12508959328E+03 0.  0.
          5    1    3    3  502    0  0.11615825120E+03 -0.64702778760E+02  0.19101541314E+02  0.13439319247E+03  0.41800000000E+01 0.  1.
         -5    1    3    3    0  502  0.39091341780E+02 -0.73435570734E+02 -0.80436623532E+02  0.11579481360E+03  0.41800000000E+01 0.  1.
        -11    1    1    2    0    0 -0.70707796639E+02  0.12226279713E+03  0.77355139101E+02  0.16103292090E+03  0.00000000000E+00 0. -1.
         11    1    1    2    0    0 -0.84541796342E+02  0.15875552361E+02  0.31543773510E+02  0.91620729853E+02  0.00000000000E+00 0.  1.
</event>
<event>
 7    1  0.2900135E-009  0.1433414E+03  0.7561462E-02  0.1208902E+00
         -2   -1    0    0    0  501 -0.00000000000E+00  0.00000000000E+00  0.43945429843E+02  0.43945429843E+02  0.00000000000E+00 0. -1.
          2   -1    0    0  501    0  0.00000000000E+00 -0.00000000000E+00 -0.59465981517E+03  0.59465981517E+03  0.00000000000E+00 0.  1.
         25    2    1    2    0    0  0.10742681079E+03  0.10931707437E+01 -0.18898161179E+03  0.25080406694E+03  0.12508763207E+03 0.  0.
          5    1    3    3  502    0 -0.77924583579E+01 -0.36378766352E+02 -0.18899583721E+02  0.41938093822E+02  0.41800000000E+01 0.  1.
         -5    1    3    3    0  502  0.11521926915E+03  0.37471937096E+02 -0.17008202807E+03  0.20886597311E+03  0.41800000000E+01 0.  1.
        -11    1    1    2    0    0 -0.54062959754E+02 -0.35355168325E+02 -0.10439252645E+03  0.12276233593E+03  0.00000000000E+00 0. -1.
         11    1    1    2    0    0 -0.53363851036E+02  0.34261997581E+02 -0.25734024709E+03  0.26503884215E+03  0.00000000000E+00 0.  1.
</event>
<event>
 7    1  0.2900135E-009  0.1195024E+03  0.7561462E-02  0.1243920E+00
          2   -1    0    0  501    0  0.00000000000E+00  0.00000000000E+00  0.59986299876E+02  0.59986299876E+02  0.00000000000E+00 0. -1.
         -2   -1    0    0    0  501 -0.00000000000E+00 -0.00000000000E+00 -0.39440870018E+03  0.39440870018E+03  0.00000000000E+00 0.  1.
         25    2    1    2    0    0 -0.77334601630E+02 -0.18026377623E+02 -0.28906923100E+03  0.32482981421E+03  0.12509115473E+03 0.  0.
          5    1    3    3  502    0 -0.48922320386E+02 -0.70112877123E+02 -0.20196955206E+03  0.21935902381E+03  0.41800000000E+01 0. -1.
         -5    1    3    3    0  502 -0.28412281243E+02  0.52086499500E+02 -0.87099678941E+02  0.10547079040E+03  0.41800000000E+01 0. -1.
        -11    1    1    2    0    0  0.43668568163E+02 -0.15576549388E+02 -0.63525976085E+02  0.78645548977E+02  0.00000000000E+00 0.  1.
         11    1    1    2    0    0  0.33666033467E+02  0.33602927011E+02  0.18172806774E+02  0.50919636872E+02  0.00000000000E+00 0. -1.
</event>
<event>
 7    1  0.2900135E-009  0.1031232E+03  0.7561462E-02  0.1273862E+00
         -2   -1    0    0    0  501 -0.00000000000E+00  0.00000000000E+00  0.12077979342E+02  0.12077979342E+02  0.00000000000E+00 0.  1.
          2   -1    0    0  501    0  0.00000000000E+00 -0.00000000000E+00 -0.14792785550E+04  0.14792785550E+04  0.00000000000E+00 0. -1.
         25    2    1    2    0    0 -0.75504410137E+02 -0.18552953902E+01 -0.93713655346E+03  0.94846316489E+03  0.12511233849E+03 0.  0.
          5    1    3    3  502    0 -0.79981967351E+01 -0.17337423274E+02 -0.72508881850E+03  0.72535220721E+03  0.41800000000E+01 0.  1.
         -5    1    3    3    0  502 -0.67506213402E+02  0.15482127884E+02 -0.21204773496E+03  0.22311095768E+03  0.41800000000E+01 0.  1.
        -11    1    1    2    0    0  0.60818716386E+02  0.42435637840E+02 -0.33846574401E+03  0.34649496315E+03  0.00000000000E+00 0.  1.
         11    1    1    2    0    0  0.14685693751E+02 -0.40580342449E+02 -0.19159827818E+03  0.19639840630E+03  0.00000000000E+00 0. -1.
</event>
<event>
 7    1  0.2900135E-009  0.8487894E+02  0.7561462E-02  0.1315749E+00
          2   -1    0    0  501    0  0.00000000000E+00  0.00000000000E+00  0.12484900283E+03  0.12484900283E+03  0.00000000000E+00 0. -1.
         -2   -1    0    0    0  501 -0.00000000000E+00 -0.00000000000E+00 -0.16958837951E+03  0.16958837951E+03  0.00000000000E+00 0.  1.
         25    2    1    2    0    0 -0.21351408390E+02 -0.43143022824E+02  0.61470075718E+02  0.14745565119E+03  0.12508955112E+03 0.  0.
          5    1    3    3  502    0 -0.37591043133E+02 -0.15825312527E+01 -0.28203398091E+02  0.47206937974E+02  0.41800000000E+01 0. -1.
         -5    1    3    3    0  502  0.16239634743E+02 -0.41560491572E+02  0.89673473809E+02  0.10024871321E+03  0.41800000000E+01 0. -1.
        -11    1    1    2    0    0 -0.24582433000E+02  0.77240260908E+00 -0.10028501993E+01  0.24615002062E+02  0.00000000000E+00 0. -1.
         11    1    1    2    0    0  0.45933841391E+02  0.42370620215E+02 -0.10520660220E+03  0.12236672909E+03  0.00000000000E+00 0.  1.
</event>
<event>
 7    1  0.2966380E-009  0.8860998E+02  0.7561462E-02  0.1306253E+00
         -2   -1    0    0    0  501 -0.00000000000E+00  0.00000000000E+00  0.25592151476E+03  0.25592151476E+03  0.00000000000E+00 0.  1.
          2   -1    0    0  501    0  0.00000000000E+00 -0.00000000000E+00 -0.56067057312E+02  0.56067057312E+02  0.00000000000E+00 0. -1.
         25    2    1    2    0    0 -0.42166014028E+02  0.26118901553E+02  0.12724027186E+03  0.18519587595E+03  0.12508899204E+03 0.  0.
          5    1    3    3  502    0 -0.25901838400E+02 -0.30152208566E+02 -0.52139518853E+01  0.40307798355E+02  0.41800000000E+01 0. -1.
         -5    1    3    3    0  502 -0.16264175628E+02  0.56271110119E+02  0.13245422374E+03  0.14488807760E+03  0.41800000000E+01 0. -1.
        -11    1    1    2    0    0  0.28152388957E+02 -0.46163144580E+02  0.83934378173E+02  0.99842740151E+02  0.00000000000E+00 0.  1.
         11    1    1    2    0    0  0.14013625071E+02  0.20044243027E+02 -0.11320192587E+02  0.26949955963E+02  0.00000000000E+00 0. -1.
</event>
<event>
 7    1  0.2900135E-009  0.9827058E+02  0.7561462E-02  0.1283975E+00
         -1   -1    0    0    0  501 -0.00000000000E+00  0.00000000000E+00  0.81843303305E+03  0.81843303305E+03  0.00000000000E+00 0.  1.
          1   -1    0    0  501    0  0.00000000000E+00 -0.00000000000E+00 -0.15455947551E+02  0.15455947551E+02  0.00000000000E+00 0. -1.
         25    2    1    2    0    0 -0.22433732097E+02  0.13686795694E+02  0.51420942561E+03  0.52985735286E+03  0.12508749051E+03 0.  0.
          5    1    3    3  502    0  0.32099083821E+02 -0.20111571001E+02  0.37009371094E+03  0.37205060643E+03  0.41800000000E+01 0. -1.
         -5    1    3    3    0  502 -0.54532815917E+02  0.33798366695E+02  0.14411571467E+03  0.15780674643E+03  0.41800000000E+01 0. -1.
        -11    1    1    2    0    0  0.38294613436E+02 -0.44969167407E+02  0.15931230939E+03  0.16990913854E+03  0.00000000000E+00 0. -1.
         11    1    1    2    0    0 -0.15860881340E+02  0.31282371713E+02  0.12945535050E+03  0.13412248920E+03  0.00000000000E+00 0.  1.
</event>
<event>
 7    1  0.2900135E-009  0.1269300E+03  0.7561462E-02  0.1232084E+00
         -2   -1    0    0    0  501 -0.00000000000E+00  0.00000000000E+00  0.70556363882E+02  0.70556363882E+02  0.00000000000E+00 0.  1.
          2   -1    0    0  501    0  0.00000000000E+00 -0.00000000000E+00 -0.28915418543E+03  0.28915418543E+03  0.00000000000E+00 0. -1.
         25    2    1    2    0    0 -0.79481578179E+02 -0.42517718702E+02 -0.98048591534E+02  0.18271651270E+03  0.12508684998E+03 0.  0.
          5    1    3    3  502    0 -0.60119004428E+02  0.25366573974E+02 -0.90429686469E+02  0.11159192786E+03  0.41800000000E+01 0. -1.
         -5    1    3    3    0  502 -0.19362573751E+02 -0.67884292676E+02 -0.76189050647E+01  0.71124584841E+02  0.41800000000E+01 0. -1.
        -11    1    1    2    0    0  0.49087113071E+02  0.63914307113E+02 -0.43811836576E+02  0.91728187312E+02  0.00000000000E+00 0.  1.
         11    1    1    2    0    0  0.30394465108E+02 -0.21396588411E+02 -0.76737393436E+02  0.85265849296E+02  0.00000000000E+00 0. -1.
</event>
<event>
 7    1  0.2900135E-009  0.1712242E+03  0.7561462E-02  0.1176577E+00
         -2   -1    0    0    0  501 -0.00000000000E+00  0.00000000000E+00  0.52463871924E+02  0.52463871924E+02  0.00000000000E+00 0.  1.
          2   -1    0    0  501    0  0.00000000000E+00 -0.00000000000E+00 -0.70172700243E+03  0.70172700243E+03  0.00000000000E+00 0. -1.
         25    2    1    2    0    0  0.14010007484E+03  0.71866998474E+02 -0.35380938210E+03  0.40696453706E+03  0.12508460788E+03 0.  0.
          5    1    3    3  502    0 -0.37216657935E+00  0.85596131460E+01 -0.15553164129E+03  0.15582351981E+03  0.41800000000E+01 0.  1.
         -5    1    3    3    0  502  0.14047224142E+03  0.63307385328E+02 -0.19827774081E+03  0.25114101725E+03  0.41800000000E+01 0.  1.
        -11    1    1    2    0    0 -0.14611955497E+03 -0.81581736883E+02 -0.25360663644E+03  0.30384672153E+03  0.00000000000E+00 0.  1.
         11    1    1    2    0    0  0.60194801314E+01  0.97147384092E+01 -0.41847111973E+02  0.43379615765E+02  0.00000000000E+00 0. -1.
</event>
<event>
 7    1  0.2900135E-009  0.6916481E+02  0.7561462E-02  0.1362956E+00
         -2   -1    0    0    0  501 -0.00000000000E+00  0.00000000000E+00  0.37072987911E+02  0.37072987911E+02  0.00000000000E+00 0.  1.
          2   -1    0    0  501    0  0.00000000000E+00 -0.00000000000E+00 -0.34941696860E+03  0.34941696860E+03  0.00000000000E+00 0. -1.
         25    2    1    2    0    0  0.24537371246E+01  0.34663222670E+02 -0.16803357732E+03  0.21234654749E+03  0.12509281871E+03 0.  0.
          5    1    3    3  502    0 -0.24988400589E+02  0.20016692629E+02 -0.17682815767E+03  0.17975193432E+03  0.41800000000E+01 0.  1.
         -5    1    3    3    0  502  0.27442137714E+02  0.14646530040E+02  0.87945803448E+01  0.32594613174E+02  0.41800000000E+01 0.  1.
        -11    1    1    2    0    0 -0.33139467124E+02 -0.27694590612E+02 -0.23226668166E+02  0.49037666590E+02  0.00000000000E+00 0.  1.
         11    1    1    2    0    0  0.30685730000E+02 -0.69686320575E+01 -0.12108373520E+03  0.12510574243E+03  0.00000000000E+00 0. -1.
</event>
<event>
 7    1  0.2900135E-009  0.1197709E+03  0.7561462E-02  0.1243475E+00
          2   -1    0    0  501    0  0.00000000000E+00  0.00000000000E+00  0.13798559400E+03  0.13798559400E+03  0.00000000000E+00 0.  1.
         -2   -1    0    0    0  501 -0.00000000000E+00 -0.00000000000E+00 -0.12183801077E+03  0.12183801077E+03  0.00000000000E+00 0. -1.
         25    2    1    2    0    0 -0.38104113553E+02 -0.57573089309E+02  0.29595754643E+02  0.14591262845E+03  0.12509197563E+03 0.  0.
          5    1    3    3  502    0  0.29976255355E+02  0.20069512917E+02  0.21604592593E+02  0.42256266457E+02  0.41800000000E+01 0. -1.
         -5    1    3    3    0  502 -0.68080368908E+02 -0.77642602226E+02  0.79911620498E+01  0.10365636199E+03  0.41800000000E+01 0. -1.
        -11    1    1    2    0    0  0.59622896860E+02  0.37399306469E+02 -0.33797604666E+02  0.78076091318E+02  0.00000000000E+00 0. -1.
         11    1    1    2    0    0 -0.21518783307E+02  0.20173782840E+02  0.20349433259E+02  0.35834885002E+02  0.00000000000E+00 0.  1.
</event>
<event>
 7    1  0.2900135E-009  0.1614982E+03  0.7561462E-02  0.1187016E+00
          1   -1    0    0  501    0  0.00000000000E+00  0.00000000000E+00  0.76401361677E+03  0.76401361677E+03  0.00000000000E+00 0. -1.
         -1   -1    0    0    0  501 -0.00000000000E+00 -0.00000000000E+00 -0.41566699436E+02  0.41566699436E+02  0.00000000000E+00 0.  1.
         25    2    1    2    0    0 -0.12614421189E+03 -0.46570517439E+02  0.28312675485E+03  0.33747857140E+03  0.12509936672E+03 0.  0.
          5    1    3    3  502    0 -0.13262124909E+03 -0.76214136313E+02  0.23737192688E+03  0.28241794270E+03  0.41800000000E+01 0. -1.
         -5    1    3    3    0  502  0.64770372001E+01  0.29643618874E+02  0.45754827963E+02  0.55060628700E+02  0.41800000000E+01 0. -1.
        -11    1    1    2    0    0  0.46930542917E+01  0.12285547286E+02  0.24604598225E+01  0.13379584943E+02  0.00000000000E+00 0.  1.
         11    1    1    2    0    0  0.12145115760E+03  0.34284970152E+02  0.43685970266E+03  0.45472215986E+03  0.00000000000E+00 0. -1.
</event>
<event>
 6    1  0.2900135E-009  0.8441393E+02  0.7561462E-02  0.1316972E+00
         -1   -1    0    0    0  501 -0.00000000000E+00  0.00000000000E+00  0.66471690101E+03  0.66471690101E+03  0.00000000000E+00 0.  1.
          1   -1    0    0  501    0  0.00000000000E+00 -0.00000000000E+00 -0.19054599096E+02  0.19054599096E+02  0.00000000000E+00 0. -1.
          5    1    1    2  502    0  0.25247749415E+02 -0.37632114827E+01  0.31236017008E+03  0.31342935227E+03  0.41800000000E+01 0.  1.
         -5    1    1    2    0  502 -0.41733432330E+02 -0.21046559584E+02  0.40078424139E+02  0.61712150552E+02  0.41800000000E+01 0.  1.
        -11    1    1    2    0    0  0.46734662911E+02  0.40604620915E+02  0.17798737095E+03  0.18844725569E+03  0.00000000000E+00 0.  1.
         11    1    1    2    0    0 -0.30248979996E+02 -0.15794849849E+02  0.11523633674E+03  0.12018274160E+03  0.00000000000E+00 0. -1.
</event>
<event>
 7    1  0.2900135E-009  0.9698556E+02  0.7561462E-02  0.1286766E+00
          1   -1    0    0  501    0  0.00000000000E+00  0.00000000000E+00  0.13474497834E+03  0.13474497834E+03  0.00000000000E+00 0. -1.
         -1   -1    0    0    0  501 -0.00000000000E+00 -0.00000000000E+00 -0.10993397214E+03  0.10993397214E+03  0.00000000000E+00 0.  1.
         25    2    1    2    0    0 -0.18324449577E+02 -0.45467508376E+02  0.26094356457E+02  0.13686441092E+03  0.12509145362E+03 0.  0.
          5    1    3    3  502    0 -0.44387146317E+02 -0.72870197861E+02  0.42518223643E+02  0.95423038289E+02  0.41800000000E+01 0.  1.
         -5    1    3    3    0  502  0.26062696740E+02  0.27402689485E+02 -0.16423867186E+02  0.41441372633E+02  0.41800000000E+01 0.  1.
        -11    1    1    2    0    0 -0.14201525319E+02  0.32524342273E+02  0.40140660338E+02  0.53579742199E+02  0.00000000000E+00 0. -1.
         11    1    1    2    0    0  0.32525974896E+02  0.12943166103E+02 -0.41424010591E+02  0.54234797364E+02  0.00000000000E+00 0.  1.
</event>
<event>
 7    1  0.2900135E-009  0.1012096E+03  0.7561462E-02  0.1277773E+00
         -1   -1    0    0    0  501 -0.00000000000E+00  0.00000000000E+00  0.65886435442E+02  0.65886435442E+02  0.00000000000E+00 0.  1.
          1   -1    0    0  501    0  0.00000000000E+00 -0.00000000000E+00 -0.19135275037E+03  0.19135275037E+03  0.00000000000E+00 0. -1.
         25    2    1    2    0    0 -0.18367708455E+02 -0.11019912644E+02 -0.44319352200E+02  0.13442674973E+03  0.12509010702E+03 0.  0.
          5    1    3    3  502    0 -0.69729194397E+02 -0.36462198408E+01 -0.43484241914E+02  0.82363870509E+02  0.41800000000E+01 0.  1.
         -5    1    3    3    0  502  0.51361485942E+02 -0.73736928036E+01 -0.83511028565E+00  0.52062879222E+02  0.41800000000E+01 0.  1.
        -11    1    1    2    0    0  0.36994280483E+02 -0.21608496039E+02 -0.72573559434E+02  0.84275888714E+02  0.00000000000E+00 0. -1.
         11    1    1    2    0    0 -0.18626572028E+02  0.32628408684E+02 -0.85734032916E+01  0.38536547364E+02  0.00000000000E+00 0.  1.
</event>
<event>
 7    1  0.2900135E-009  0.1564693E+03  0.7561462E-02  0.1192742E+00
         -1   -1    0    0    0  501 -0.00000000000E+00  0.00000000000E+00  0.16066088999E+03  0.16066088999E+03  0.00000000000E+00 0.  1.
          1   -1    0    0  501    0  0.00000000000E+00 -0.00000000000E+00 -0.17630988782E+03  0.17630988782E+03  0.00000000000E+00 0. -1.
         25    2    1    2    0    0  0.87843910270E+01 -0.12714291185E+03 -0.26395864471E+02  0.18051775312E+03  0.12508969570E+03 0.  0.
          5    1    3    3  502    0 -0.93130154932E+01 -0.14722670373E+03 -0.84930332903E+01  0.14782435037E+03  0.41800000000E+01 0. -1.
         -5    1    3    3    0  502  0.18097406520E+02  0.20083791877E+02 -0.17902831181E+02  0.32693402747E+02  0.41800000000E+01 0. -1.
        -11    1    1    2    0    0 -0.29103254212E+02  0.46644063718E+02  0.40471542701E+02  0.68268688683E+02  0.00000000000E+00 0.  1.
         11    1    1    2    0    0  0.20318863185E+02  0.80498848131E+02 -0.29724676064E+02  0.88184336016E+02  0.00000000000E+00 0. -1.
</event>
<event>
 7    1  0.2900135E-009  0.3141125E+03  0.7561462E-02  0.1078391E+00
          3   -1    0    0  501    0  0.00000000000E+00  0.00000000000E+00  0.51138484392E+03  0.51138484392E+03  0.00000000000E+00 0. -1.
         -3   -1    0    0    0  501 -0.00000000000E+00 -0.00000000000E+00 -0.20668923511E+03  0.20668923511E+03  0.00000000000E+00 0.  1.
         25    2    1    2    0    0 -0.26341852813E+03 -0.14341080056E+03  0.22262446769E+03  0.39391011174E+03  0.12509014284E+03 0.  0.
          5    1    3    3  502    0 -0.46187630491E+02 -0.74960580878E+02  0.10641828290E+03  0.13818360696E+03  0.41800000000E+01 0.  1.
         -5    1    3    3    0  502 -0.21723089764E+03 -0.68450219686E+02  0.11620618478E+03  0.25572650478E+03  0.41800000000E+01 0.  1.
        -11    1    1    2    0    0  0.24512943859E+03  0.99210402950E+02  0.80014016384E+02  0.27628497704E+03  0.00000000000E+00 0. -1.
         11    1    1    2    0    0  0.18289089541E+02  0.44200397614E+02  0.20571247381E+01  0.47878990253E+02  0.00000000000E+00 0.  1.
</event>
<event>
 7    1  0.2900135E-009  0.1316321E+03  0.7561462E-02  0.1225054E+00
          1   -1    0    0  501    0  0.00000000000E+00  0.00000000000E+00  0.21519298570E+03  0.21519298570E+03  0.00000000000E+00 0. -1.
         -1   -1    0    0    0  501 -0.00000000000E+00 -0.00000000000E+00 -0.98870729103E+02  0.98870729103E+02  0.00000000000E+00 0.  1.
         25    2    1    2    0    0  0.17602881581E+02  0.92756090278E+02  0.41681199490E+02  0.16216502468E+03  0.12508644657E+03 0.  0.
          5    1    3    3  502    0  0.78946766866E+00  0.11172816682E+03  0.63390547290E+02  0.12852875322E+03  0.41800000000E+01 0. -1.
         -5    1    3    3    0  502  0.16813413912E+02 -0.18972076540E+02 -0.21709347800E+02  0.33636271457E+02  0.41800000000E+01 0. -1.
        -11    1    1    2    0    0 -0.50576444992E+02 -0.44803944609E+02  0.16322560367E+02  0.69511122976E+02  0.00000000000E+00 0.  1.
         11    1    1    2    0    0  0.32973563411E+02 -0.47952145669E+02  0.58318496739E+02  0.82387567145E+02  0.00000000000E+00 0. -1.
</event>
<event>
 7    1  0.2900135E-009  0.1150823E+03  0.7561462E-02  0.1251437E+00
         -2   -1    0    0    0  501 -0.00000000000E+00  0.00000000000E+00  0.13676904238E+02  0.13676904238E+02  0.00000000000E+00 0. -1.
          2   -1    0    0  501    0  0.00000000000E+00 -0.00000000000E+00 -0.11494939365E+04  0.11494939365E+04  0.00000000000E+00 0.  1.
         25    2    1    2    0    0  0.50669360979E+02  0.35815649329E+02 -0.71700243642E+03  0.73047257372E+03  0.12509013647E+03 0.  0.
          5    1    3    3  502    0  0.79624834180E+02 -0.35336587967E+01 -0.56872795886E+03  0.57430093553E+03  0.41800000000E+01 0. -1.
         -5    1    3    3    0  502 -0.28955473201E+02  0.39349308125E+02 -0.14827447756E+03  0.15617163819E+03  0.41800000000E+01 0. -1.
        -11    1    1    2    0    0 -0.71281981191E+02 -0.16712260798E+02 -0.36179766348E+03  0.36913137201E+03  0.00000000000E+00 0. -1.
         11    1    1    2    0    0  0.20612620212E+02 -0.19103388530E+02 -0.57016932382E+02  0.63566895029E+02  0.00000000000E+00 0.  1.
</event>
<event>
 7    1  0.2900135E-009  0.8591367E+02  0.7561462E-02  0.1313060E+00
          2   -1    0    0  501    0  0.00000000000E+00  0.00000000000E+00  0.47139849311E+03  0.47139849311E+03  0.00000000000E+00 0. -1.
         -2   -1    0    0    0  501 -0.00000000000E+00 -0.00000000000E+00 -0.35607847428E+02  0.35607847428E+02  0.00000000000E+00 0.  1.
         25    2    1    2    0    0  0.54591847663E+01  0.39334626334E+02  0.35010622759E+03  0.37389630116E+03  0.12508820048E+03 0.  0.
          5    1    3    3  502    0  0.27524558214E+01 -0.26987327095E+02  0.13142592892E+02  0.30431759474E+02  0.41800000000E+01 0.  1.
         -5    1    3    3    0  502  0.27067289449E+01  0.66321953429E+02  0.33696363470E+03  0.34346454169E+03  0.41800000000E+01 0.  1.
        -11    1    1    2    0    0  0.23130208659E+02 -0.43218885661E+02  0.72690457658E+01  0.49555198080E+02  0.00000000000E+00 0.  1.
         11    1    1    2    0    0 -0.28589393425E+02  0.38842593264E+01  0.78415372321E+02  0.83554841291E+02  0.00000000000E+00 0. -1.
</event>
<event>
 7    1  0.2900135E-009  0.1053846E+03  0.7561462E-02  0.1269364E+00
          2   -1    0    0  501    0  0.00000000000E+00  0.00000000000E+00  0.54867877897E+02  0.54867877897E+02  0.00000000000E+00 0. -1.
         -2   -1    0    0    0  501 -0.00000000000E+00 -0.00000000000E+00 -0.36811412870E+03  0.36811412870E+03  0.00000000000E+00 0.  1.
         25    2    1    2    0    0 -0.33054450816E+02  0.50003306744E+02 -0.68309589348E+02  0.15461085910E+03  0.12508153481E+03 0.  0.
          5    1    3    3  502    0  0.38544203802E+02 -0.12571124284E+02 -0.68957005106E+01  0.41336568533E+02  0.41800000000E+01 0. -1.
         -5    1    3    3    0  502 -0.71598654619E+02  0.62574431027E+02 -0.61413888838E+02  0.11327429057E+03  0.41800000000E+01 0. -1.
        -11    1    1    2    0    0  0.43402039558E+02 -0.47176164348E+02 -0.24883377330E+03  0.25695831229E+03  0.00000000000E+00 0.  1.
         11    1    1    2    0    0 -0.10347588741E+02 -0.28271423952E+01  0.38971118386E+01  0.11412835212E+02  0.00000000000E+00 0. -1.
</event>
<event>
 7    1  0.2900135E-009  0.1205559E+03  0.7561462E-02  0.1242183E+00
         -1   -1    0    0    0  501 -0.00000000000E+00  0.00000000000E+00  0.54967616338E+02  0.54967616338E+02  0.00000000000E+00 0.  1.
          1   -1    0    0  501    0  0.00000000000E+00 -0.00000000000E+00 -0.55801195687E+03  0.55801195687E+03  0.00000000000E+00 0. -1.
         25    2    1    2    0    0 -0.83783577287E+02 -0.81970161687E+02 -0.15101838657E+03  0.22844430291E+03  0.12506578757E+03 0.  0.
          5    1    3    3  502    0 -0.19467402328E+02 -0.39729233921E+01 -0.12130230093E+03  0.12298977390E+03  0.41800000000E+01 0.  1.
         -5    1    3    3    0  502 -0.64316174959E+02 -0.77997238295E+02 -0.29716085640E+02  0.10545452901E+03  0.41800000000E+01 0.  1.
        -11    1    1    2    0    0  0.59088360851E+02  0.41458967108E+02 -0.77375760091E+02  0.10581724147E+03  0.00000000000E+00 0.  1.
         11    1    1    2    0    0  0.24695216436E+02  0.40511194579E+02 -0.27465019388E+03  0.27871802884E+03  0.00000000000E+00 0. -1.
</event>
<event>
 7    1  0.2900135E-009  0.1220523E+03  0.7561462E-02  0.1239749E+00
         -2   -1    0    0    0  501 -0.00000000000E+00  0.00000000000E+00  0.41129427282E+02  0.41129427282E+02  0.00000000000E+00 0.  1.
          2   -1    0    0  501    0  0.00000000000E+00 -0.00000000000E+00 -0.57273655206E+03  0.57273655206E+03  0.00000000000E+00 0. -1.
         25    2    1    2    0    0 -0.95389402936E+02 -0.49947631545E+02 -0.23966275077E+03  0.29099820394E+03  0.12509123271E+03 0.  0.
          5    1    3    3  502    0 -0.72774306112E+02 -0.29694170061E+01 -0.22521128585E+03  0.23673299885E+03  0.41800000000E+01 0. -1.
         -5    1    3    3    0  502 -0.22615096824E+02 -0.46978214539E+02 -0.14451464914E+02  0.54265205093E+02  0.41800000000E+01 0. -1.
        -11    1    1    2    0    0  0.76065800436E+02  0.13027857587E+02 -0.99271096397E+02  0.12573973775E+03  0.00000000000E+00 0.  1.
         11    1    1    2    0    0  0.19323602499E+02  0.36919773958E+02 -0.19267327761E+03  0.19712803765E+03  0.00000000000E+00 0. -1.
</event>
<event>
 7    1  0.2900135E-009  0.8347071E+02  0.7561462E-02  0.1319481E+00
          1   -1    0    0  501    0  0.00000000000E+00  0.00000000000E+00  0.10989884241E+04  0.10989884241E+04  0.00000000000E+00 0. -1.
         -1   -1    0    0    0  501 -0.00000000000E+00 -0.00000000000E+00 -0.17416409861E+02  0.17416409861E+02  0.00000000000E+00 0.  1.
         25    2    1    2    0    0  0.78423417933E+01 -0.67817256489E+02  0.88221420279E+03  0.89365039279E+03  0.12509373410E+03 0.  0.
          5    1    3    3  502    0 -0.21996757286E+02 -0.32651818923E+01  0.65805178210E+03  0.65844068759E+03  0.41800000000E+01 0.  1.
         -5    1    3    3    0  502  0.29839099079E+02 -0.64552074597E+02  0.22416242069E+03  0.23520970520E+03  0.41800000000E+01 0.  1.
        -11    1    1    2    0    0 -0.17462280217E+02  0.40097295961E+02  0.18497920349E+03  0.19007901014E+03  0.00000000000E+00 0. -1.
         11    1    1    2    0    0  0.96199384233E+01  0.27719960528E+02  0.14378607973E+02  0.32675431048E+02  0.00000000000E+00 0.  1.
</event>
<event>
 7    1  0.2900135E-009  0.6123577E+02  0.7561462E-02  0.1392718E+00
          2   -1    0    0  501    0  0.00000000000E+00  0.00000000000E+00  0.82902356502E+02  0.82902356502E+02  0.00000000000E+00 0. -1.
         -2   -1    0    0    0  501 -0.00000000000E+00 -0.00000000000E+00 -0.17403618388E+03  0.17403618388E+03  0.00000000000E+00 0.  1.
         25    2    1    2    0    0 -0.68449244747E+01 -0.25908989506E+02  0.12900861704E+01  0.12793135552E+03  0.12508652475E+03 0.  0.
          5    1    3    3  502    0 -0.26184878191E+02  0.26474417729E+01  0.56631971249E+02  0.62588412357E+02  0.41800000000E+01 0. -1.
         -5    1    3    3    0  502  0.19339953717E+02 -0.28556431279E+02 -0.55341885079E+02  0.65342943163E+02  0.41800000000E+01 0. -1.
        -11    1    1    2    0    0  0.29950106062E+02  0.59191146234E+01 -0.93578938581E+02  0.98433035700E+02  0.00000000000E+00 0.  1.
         11    1    1    2    0    0 -0.23105181588E+02  0.19989874883E+02  0.11550250346E+01  0.30574149160E+02  0.00000000000E+00 0. -1.
</event>
<event>
 7    1  0.2900135E-009  0.2100208E+03  0.7561462E-02  0.1141550E+00
         -2   -1    0    0    0  501 -0.00000000000E+00  0.00000000000E+00  0.34131903116E+03  0.34131903116E+03  0.00000000000E+00 0.  1.
          2   -1    0    0  501    0  0.00000000000E+00 -0.00000000000E+00 -0.14945453896E+03  0.14945453896E+03  0.00000000000E+00 0. -1.
         25    2    1    2    0    0 -0.18465736176E+03 -0.59959565002E+02  0.14082473803E+03  0.27050648030E+03  0.12509459763E+03 0.  0.
          5    1    3    3  502    0 -0.34387208650E+02 -0.62334527610E+02  0.11588459994E+02  0.72248448123E+02  0.41800000000E+01 0.  1.
         -5    1    3    3    0  502 -0.15027015311E+03  0.23749626079E+01  0.12923627804E+03  0.19825803218E+03  0.41800000000E+01 0.  1.
        -11    1    1    2    0    0  0.64215426123E+02  0.41690688896E+02 -0.20152945930E+02  0.79169916777E+02  0.00000000000E+00 0. -1.
         11    1    1    2    0    0  0.12044193563E+03  0.18268876106E+02  0.71192700093E+02  0.14109717304E+03  0.00000000000E+00 0.  1.
</event>
<event>
 7    1  0.2900135E-009  0.1236792E+03  0.7561462E-02  0.1237148E+00
          1   -1    0    0  501    0  0.00000000000E+00  0.00000000000E+00  0.70833239711E+02  0.70833239711E+02  0.00000000000E+00 0. -1.
         -1   -1    0    0    0  501 -0.00000000000E+00 -0.00000000000E+00 -0.46778354024E+03  0.46778354024E+03  0.00000000000E+00 0.  1.
         25    2    1    2    0    0  0.42426245402E+02  0.97080303808E+02 -0.35964397109E+03  0.39524169331E+03  0.12509052122E+03 0.  0.
          5    1    3    3  502    0  0.57758972788E+01  0.82398313751E+02 -0.34188828492E+03  0.35174979014E+03  0.41800000000E+01 0.  1.
         -5    1    3    3    0  502  0.36650348123E+02  0.14681990057E+02 -0.17755686174E+02  0.43491903167E+02  0.41800000000E+01 0.  1.
        -11    1    1    2    0    0 -0.21366293714E+02  0.39667894149E+01  0.16206966173E+02  0.27109402020E+02  0.00000000000E+00 0. -1.
         11    1    1    2    0    0 -0.21059951688E+02 -0.10104709322E+03 -0.53513295605E+02  0.11626568462E+03  0.00000000000E+00 0.  1.
</event>
<event>
 7    1  0.2900135E-009  0.1108023E+03  0.7561462E-02  0.1259091E+00
         -1   -1    0    0    0  501 -0.00000000000E+00  0.00000000000E+00  0.48538373044E+02  0.48538373044E+02  0.00000000000E+00 0.  1.
          1   -1    0    0  501    0  0.00000000000E+00 -0.00000000000E+00 -0.42339423863E+03  0.42339423863E+03  0.00000000000E+00 0. -1.
         25    2    1    2    0    0 -0.45920681930E+02 -0.58578118650E+02 -0.11188831787E+03  0.18359924865E+03  0.12509829501E+03 0.  0.
          5    1    3    3  502    0 -0.54875614621E+02 -0.72844464199E+02 -0.24531592693E+02  0.94535286980E+02  0.41800000000E+01 0.  1.
         -5    1    3    3    0  502  0.89549326915E+01  0.14266345548E+02 -0.87356725174E+02  0.89063961668E+02  0.41800000000E+01 0.  1.
        -11    1    1    2    0    0  0.19282583448E+02  0.77767629329E+02 -0.14258679278E+03  0.16355615449E+03  0.00000000000E+00 0.  1.
         11    1    1    2    0    0  0.26638098482E+02 -0.19189510678E+02 -0.12038075494E+03  0.12477720854E+03  0.00000000000E+00 0. -1.
</event>
<event>
 7    1  0.2900135E-009  0.1254567E+03  0.7561462E-02  0.1234357E+00
          1   -1    0    0  501    0  0.00000000000E+00  0.00000000000E+00  0.74437410568E+02  0.74437410568E+02  0.00000000000E+00 0. -1.
         -1   -1    0    0    0  501 -0.00000000000E+00 -0.00000000000E+00 -0.45973369192E+03  0.45973369192E+03  0.00000000000E+00 0.  1.
         25    2    1    2    0    0 -0.59313983209E+02  0.41213892652E+02 -0.15540178768E+02  0.14524012846E+03  0.12504584842E+03 0.  0.
          5    1    3    3  502    0 -0.64833151219E+01 -0.43511585850E+02 -0.89573707900E+01  0.45088783191E+02  0.41800000000E+01 0.  1.
         -5    1    3    3    0  502 -0.52830668087E+02  0.84725478502E+02 -0.65828079778E+01  0.10015134527E+03  0.41800000000E+01 0.  1.
        -11    1    1    2    0    0 -0.18186985100E+02  0.15839432321E+01 -0.16032892977E+02  0.24296686202E+02  0.00000000000E+00 0. -1.
         11    1    1    2    0    0  0.77500968309E+02 -0.42797835884E+02 -0.35372320961E+03  0.36463428783E+03  0.00000000000E+00 0.  1.
</event>
<event>
 7    1  0.2900135E-009  0.1336626E+03  0.7561462E-02  0.1222120E+00
          1   -1    0    0  501    0  0.00000000000E+00  0.00000000000E+00  0.10888488218E+04  0.10888488218E+04  0.00000000000E+00 0. -1.
         -1   -1    0    0    0  501 -0.00000000000E+00 -0.00000000000E+00 -0.21027154261E+02  0.21027154261E+02  0.00000000000E+00 0.  1.
         25    2    1    2    0    0 -0.47398668340E+02  0.61673238150E+02  0.80057321890E+03  0.81401230864E+03  0.12509331614E+03 0.  0.
          5    1    3    3  502    0  0.34486582802E+00  0.89124876809E+02  0.41335456523E+03  0.42287448681E+03  0.41800000000E+01 0.  1.
         -5    1    3    3    0  502 -0.47743534168E+02 -0.27451638659E+02  0.38721865367E+03  0.39113782183E+03  0.41800000000E+01 0.  1.
        -11    1    1    2    0    0  0.36715026528E+02  0.19105156682E+02  0.57519373803E+02  0.70862391630E+02  0.00000000000E+00 0.  1.
         11    1    1    2    0    0  0.10683641812E+02 -0.80778394832E+02  0.20972907485E+03  0.22500127580E+03  0.00000000000E+00 0. -1.
</event>
<event>
 7    1  0.2900135E-009  0.2753162E+03  0.7561462E-02  0.1098275E+00
         -1   -1    0    0    0  501 -0.00000000000E+00  0.00000000000E+00  0.12477561532E+03  0.12477561532E+03  0.00000000000E+00 0. -1.
          1   -1    0    0  501    0  0.00000000000E+00 -0.00000000000E+00 -0.64293266185E+03  0.64293266185E+03  0.00000000000E+00 0.  1.
         25    2    1    2    0    0  0.26029464810E+03 -0.16601378876E+02 -0.26764092546E+03  0.39409176212E+03  0.12509093644E+03 0.  0.
          5    1    3    3  502    0  0.97573907501E+02 -0.66923964489E+02 -0.12120903936E+03  0.16943608845E+03  0.41800000000E+01 0.  1.
         -5    1    3    3    0  502  0.16272074060E+03  0.50322585613E+02 -0.14643188611E+03  0.22465567367E+03  0.41800000000E+01 0.  1.
        -11    1    1    2    0    0 -0.16717707673E+03  0.21845127436E+02 -0.98478243678E+02  0.19525201421E+03  0.00000000000E+00 0.  1.
         11    1    1    2    0    0 -0.93117571368E+02 -0.52437485596E+01 -0.15203787739E+03  0.17836450084E+03  0.00000000000E+00 0. -1.
</event>
<event>
 6    1  0.2900135E-009  0.2850377E+03  0.7561462E-02  0.1092969E+00
         -2   -1    0    0    0  501 -0.00000000000E+00  0.00000000000E+00  0.11113178067E+03  0.11113178067E+03  0.00000000000E+00 0.  1.
          2   -1    0    0  501    0  0.00000000000E+00 -0.00000000000E+00 -0.79949209228E+03  0.79949209228E+03  0.00000000000E+00 0. -1.
          5    1    1    2  502    0 -0.19952702409E+03  0.18982027935E+03 -0.44425151483E+03  0.52270417314E+03  0.41800000000E+01 0.  1.
         -5    1    1    2    0  502  0.71179481851E+01  0.22254820264E+00  0.38163703037E+01  0.90968014359E+01  0.41800000000E+01 0.  1.
        -11    1    1    2    0    0  0.13259788817E+03 -0.64769787339E+02 -0.13073761070E+03  0.19715386923E+03  0.00000000000E+00 0. -1.
         11    1    1    2    0    0  0.59811187735E+02 -0.12527304021E+03 -0.11718755639E+03  0.18166902915E+03  0.00000000000E+00 0.  1.
</event>
<event>
 7    1  0.2900135E-009  0.9143128E+02  0.7561462E-02  0.1299422E+00
         -2   -1    0    0    0  501 -0.00000000000E+00  0.00000000000E+00  0.19540700919E+03  0.19540700919E+03  0.00000000000E+00 0.  1.
          2   -1    0    0  501    0  0.00000000000E+00 -0.00000000000E+00 -0.65436467287E+02  0.65436467287E+02  0.00000000000E+00 0. -1.
         25    2    1    2    0    0  0.32923895804E+02  0.15074582411E+02  0.77339690326E+02  0.15144624567E+03  0.12507322527E+03 0.  0.
          5    1    3    3  502    0  0.79335695299E+02  0.10024255376E+02  0.64568607495E+02  0.10286503642E+03  0.41800000000E+01 0.  1.
         -5    1    3    3    0  502 -0.46411799495E+02  0.50503270350E+01  0.12771082831E+02  0.48581209250E+02  0.41800000000E+01 0.  1.
        -11    1    1    2    0    0 -0.53416674530E+01 -0.25779911709E+02  0.70208687501E+02  0.74982645055E+02  0.00000000000E+00 0.  1.
         11    1    1    2    0    0 -0.27582228351E+02  0.10705329298E+02 -0.17577835928E+02  0.34414585746E+02  0.00000000000E+00 0. -1.
</event>
<event>
 7    1  0.2900135E-009  0.9175038E+02  0.7561462E-02  0.1298667E+00
          1   -1    0    0  501    0  0.00000000000E+00  0.00000000000E+00  0.85600186948E+02  0.85600186948E+02  0.00000000000E+00 0. -1.
         -1   -1    0    0    0  501 -0.00000000000E+00 -0.00000000000E+00 -0.15296717175E+03  0.15296717175E+03  0.00000000000E+00 0.  1.
         25    2    1    2    0    0  0.62224567503E+01 -0.23417296638E+02 -0.63973322816E+02  0.14257516797E+03  0.12509198112E+03 0.  0.
          5    1    3    3  502    0 -0.42641317261E+02 -0.14134594480E+02 -0.78543193632E+02  0.90579105564E+02  0.41800000000E+01 0.  1.
         -5    1    3    3    0  502  0.48863774012E+02 -0.92827021579E+01  0.14569870816E+02  0.51996062405E+02  0.41800000000E+01 0.  1.
        -11    1    1    2    0    0 -0.39261869677E+02 -0.10987922720E+02 -0.20093508044E+02  0.45453029841E+02  0.00000000000E+00 0.  1.
         11    1    1    2    0    0  0.33039412926E+02  0.34405219357E+02  0.16699846054E+02  0.50539160893E+02  0.00000000000E+00 0. -1.
</event>
<event>
 7    1  0.2900135E-009  0.9437059E+02  0.7561462E-02  0.1292600E+00
          1   -1    0    0  501    0  0.00000000000E+00  0.00000000000E+00  0.74960729743E+02  0.74960729743E+02  0.00000000000E+00 0. -1.
         -1   -1    0    0    0  501 -0.00000000000E+00 -0.00000000000E+00 -0.19241422000E+03  0.19241422000E+03  0.00000000000E+00 0.  1.
         25    2    1    2    0    0 -0.38652774995E+02 -0.29307981207E+02 -0.78508411882E+02  0.15544904926E+03  0.12509133225E+03 0.  0.
          5    1    3    3  502    0 -0.60390246685E+02 -0.22732964761E+02 -0.10310979370E+03  0.12170814080E+03  0.41800000000E+01 0.  1.
         -5    1    3    3    0  502  0.21737471691E+02 -0.65750164455E+01  0.24601381813E+02  0.33740908463E+02  0.41800000000E+01 0.  1.
        -11    1    1    2    0    0  0.29629549725E+02  0.61118334383E+02 -0.11360648454E+02  0.68865269533E+02  0.00000000000E+00 0. -1.
         11    1    1    2    0    0  0.90232252702E+01 -0.31810353176E+02 -0.27584429925E+02  0.43060630949E+02  0.00000000000E+00 0.  1.
</event>
<event>
 7    1  0.2900135E-009  0.2556733E+03  0.7561462E-02  0.1109771E+00
         -4   -1    0    0    0  501 -0.00000000000E+00  0.00000000000E+00  0.85939101104E+02  0.85939101104E+02  0.00000000000E+00 0.  1.
          4   -1    0    0  501    0  0.00000000000E+00 -0.00000000000E+00 -0.84947923929E+03  0.84947923929E+03  0.00000000000E+00 0. -1.
         25    2    1    2    0    0 -0.14828023749E+02 -0.24189458852E+03 -0.48492523066E+03  0.55635673571E+03  0.12508987091E+03 0.  0.
          5    1    3    3  502    0 -0.56438528610E+02 -0.20677523604E+03 -0.34536091452E+03  0.40648854772E+03  0.41800000000E+01 0.  1.
         -5    1    3    3    0  502  0.41610504860E+02 -0.35119352481E+02 -0.13956431614E+03  0.14986818799E+03  0.41800000000E+01 0.  1.
        -11    1    1    2    0    0  0.48998003885E+01  0.95515845328E+02 -0.17505732956E+03  0.19948020801E+03  0.00000000000E+00 0.  1.
         11    1    1    2    0    0  0.99282233606E+01  0.14637874319E+03 -0.10355757797E+03  0.17958139668E+03  0.00000000000E+00 0. -1.
</event>
<event>
 7    1  0.2900135E-009  0.9443924E+02  0.7561462E-02  0.1292444E+00
         -2   -1    0    0    0  501 -0.00000000000E+00  0.00000000000E+00  0.29758280235E+03  0.29758280235E+03  0.00000000000E+00 0.  1.
          2   -1    0    0  501    0  0.00000000000E+00 -0.00000000000E+00 -0.41399767508E+02  0.41399767508E+02  0.00000000000E+00 0. -1.
         25    2    1    2    0    0 -0.19722798887E+02 -0.21151014116E+02  0.14143163040E+03  0.19102110497E+03  0.12509916975E+03 0.  0.
          5    1    3    3  502    0  0.47150652300E+02  0.11685247526E+01  0.21864671530E+02  0.52154441072E+02  0.41800000000E+01 0. -1.
         -5    1    3    3    0  502 -0.66873451186E+02 -0.22319538869E+02  0.11956695887E+03  0.13886666390E+03  0.41800000000E+01 0. -1.
        -11    1    1    2    0    0  0.12400898215E+02  0.44624727053E+02  0.20668179059E+02  0.50718065487E+02  0.00000000000E+00 0. -1.
         11    1    1    2    0    0  0.73219006718E+01 -0.23473712937E+02  0.94083225384E+02  0.97243399401E+02  0.00000000000E+00 0.  1.
</event>
<event>
 7    1  0.2900135E-009  0.1816575E+03  0.7561462E-02  0.1166208E+00
          1   -1    0    0  501    0  0.00000000000E+00  0.00000000000E+00  0.14955155013E+03  0.14955155013E+03  0.00000000000E+00 0. -1.
         -1   -1    0    0    0  501 -0.00000000000E+00 -0.00000000000E+00 -0.27232424392E+03  0.27232424392E+03  0.00000000000E+00 0.  1.
         25    2    1    2    0    0 -0.13130742702E+03 -0.66204258535E+02 -0.14984735243E+03  0.24438443361E+03  0.12507948722E+03 0.  0.
          5    1    3    3  502    0 -0.13337304147E+03 -0.92236671973E+02 -0.10799105203E+03  0.19487306527E+03  0.41800000000E+01 0. -1.
         -5    1    3    3    0  502  0.20656144491E+01  0.26032413438E+02 -0.41856300400E+02  0.49511368347E+02  0.41800000000E+01 0. -1.
        -11    1    1    2    0    0  0.36754370315E+02  0.71032268966E+02  0.20631338360E+02  0.82596120334E+02  0.00000000000E+00 0.  1.
         11    1    1    2    0    0  0.94553056708E+02 -0.48280104313E+01  0.64433202741E+01  0.94895240100E+02  0.00000000000E+00 0. -1.
</event>
<event>
 7    1  0.2900135E-009  0.2224886E+03  0.7561462E-02  0.1132041E+00
         -2   -1    0    0    0  501 -0.00000000000E+00  0.00000000000E+00  0.84327771776E+03  0.84327771776E+03  0.00000000000E+00 0.  1.
          2   -1    0    0  501    0  0.00000000000E+00 -0.00000000000E+00 -0.65751131588E+02  0.65751131588E+02  0.00000000000E+00 0. -1.
         25    2    1    2    0    0  0.15856338736E+03 -0.13565404664E+03  0.37326324368E+03  0.44555229380E+03  0.12508808595E+03 0.  0.
          5    1    3    3  502    0 -0.17722947487E+01 -0.20159242715E+02  0.13227969345E+03  0.13388400126E+03  0.41800000000E+01 0.  1.
         -5    1    3    3    0  502  0.16033568210E+03 -0.11549480392E+03  0.24098355023E+03  0.31166829253E+03  0.41800000000E+01 0.  1.
        -11    1    1    2    0    0  0.10131503923E+02  0.19107821165E+02  0.37400803039E+02  0.43203891831E+02  0.00000000000E+00 0.  1.
         11    1    1    2    0    0 -0.16869489128E+03  0.11654622547E+03  0.36686253946E+03  0.42027266372E+03  0.00000000000E+00 0. -1.
</event>
<event>
 7    1  0.2900135E-009  0.1021300E+03  0.7561462E-02  0.1275880E+00
          2   -1    0    0  501    0  0.00000000000E+00  0.00000000000E+00  0.23702557245E+03  0.23702557245E+03  0.00000000000E+00 0. -1.
         -2   -1    0    0    0  501 -0.00000000000E+00 -0.00000000000E+00 -0.67089897171E+02  0.67089897171E+02  0.00000000000E+00 0.  1.
         25    2    1    2    0    0 -0.45564701009E+02  0.47961635559E+02  0.68298726679E+02  0.15712510513E+03  0.12508845723E+03 0.  0.
          5    1    3    3  502    0 -0.61156696411E+02  0.61297354398E+02  0.10534914879E+01  0.86695382902E+02  0.41800000000E+01 0. -1.
         -5    1    3    3    0  502  0.15591995402E+02 -0.13335718839E+02  0.67245235191E+02  0.70429722230E+02  0.41800000000E+01 0. -1.
        -11    1    1    2    0    0  0.28857715686E+02  0.14272802053E+02  0.77440698228E+01  0.33112705273E+02  0.00000000000E+00 0.  1.
         11    1    1    2    0    0  0.16706985323E+02 -0.62234437613E+02  0.93892878781E+02  0.11387765922E+03  0.00000000000E+00 0. -1.
</event>
<event>
 7    1  0.2900135E-009  0.2942191E+03  0.7561462E-02  0.1088167E+00
         -3   -1    0    0    0  501 -0.00000000000E+00  0.00000000000E+00  0.12684153083E+03  0.12684153083E+03  0.00000000000E+00 0.  1.
          3   -1    0    0  501    0  0.00000000000E+00 -0.00000000000E+00 -0.70979344697E+03  0.70979344697E+03  0.00000000000E+00 0. -1.
         25    2    1    2    0    0  0.25153930007E+03  0.11511760675E+03 -0.27213109601E+03  0.40770960570E+03  0.12509079222E+03 0.  0.
          5    1    3    3  502    0  0.17125079680E+03  0.12751237842E+03 -0.14999900376E+03  0.26096631120E+03  0.41800000000E+01 0. -1.
         -5    1    3    3    0  502  0.80288503278E+02 -0.12394771670E+02 -0.12213209224E+03  0.14674329449E+03  0.41800000000E+01 0. -1.
        -11    1    1    2    0    0 -0.15966888335E+03 -0.19358210836E+02 -0.14506937384E+03  0.21659643548E+03  0.00000000000E+00 0. -1.
         11    1    1    2    0    0 -0.91870416722E+02 -0.95759395911E+02 -0.16575144630E+03  0.21232893661E+03  0.00000000000E+00 0.  1.
</event>
<event>
 7    1  0.2900135E-009  0.1122155E+03  0.7561462E-02  0.1256521E+00
         -2   -1    0    0    0  501 -0.00000000000E+00  0.00000000000E+00  0.50557258091E+02  0.50557258091E+02  0.00000000000E+00 0.  1.
          2   -1    0    0  501    0  0.00000000000E+00 -0.00000000000E+00 -0.36852394628E+03  0.36852394628E+03  0.00000000000E+00 0. -1.
         25    2    1    2    0    0  0.76778991786E+02  0.30859038481E+02 -0.21944954412E+03  0.26580711492E+03  0.12509207046E+03 0.  0.
          5    1    3    3  502    0  0.35663830517E+02 -0.31029861152E+02 -0.17498815755E+02  0.50581044306E+02  0.41800000000E+01 0.  1.
         -5    1    3    3    0  502  0.41115161269E+02  0.61888899633E+02 -0.20195072836E+03  0.21522607061E+03  0.41800000000E+01 0.  1.
        -11    1    1    2    0    0 -0.48522615887E+02  0.13133872617E+02 -0.11202914428E+02  0.51501923790E+02  0.00000000000E+00 0.  1.
         11    1    1    2    0    0 -0.28256375900E+02 -0.43992911098E+02 -0.87314229637E+02  0.10177216566E+03  0.00000000000E+00 0. -1.
</event>
<event>
 7    1  0.2900135E-009  0.2903566E+03  0.7561462E-02  0.1090163E+00
         -1   -1    0    0    0  501 -0.00000000000E+00  0.00000000000E+00  0.71186274483E+02  0.71186274483E+02  0.00000000000E+00 0.  1.
          1   -1    0    0  501    0  0.00000000000E+00 -0.00000000000E+00 -0.13156289538E+04  0.13156289538E+04  0.00000000000E+00 0. -1.
         25    2    1    2    0    0  0.17270905824E+02 -0.28260274449E+03 -0.54487040997E+03  0.62665335049E+03  0.12509221654E+03 0.  0.
          5    1    3    3  502    0  0.10588464857E+02 -0.96114644676E+02 -0.32049207747E+03  0.33478767097E+03  0.41800000000E+01 0.  1.
         -5    1    3    3    0  502  0.66824409669E+01 -0.18648809981E+03 -0.22437833250E+03  0.29186567952E+03  0.41800000000E+01 0.  1.
        -11    1    1    2    0    0  0.30089136991E+02  0.19836247082E+03 -0.48234533984E+03  0.52240793720E+03  0.00000000000E+00 0.  1.
         11    1    1    2    0    0 -0.47360042814E+02  0.84240273670E+02 -0.21722692956E+03  0.23775394064E+03  0.00000000000E+00 0. -1.
</event>
<event>
 7    1  0.2900135E-009  0.2000333E+03  0.7561462E-02  0.1149711E+00
          1   -1    0    0  501    0  0.00000000000E+00  0.00000000000E+00  0.39669954000E+03  0.39669954000E+03  0.00000000000E+00 0. -1.
         -1   -1    0    0    0  501 -0.00000000000E+00 -0.00000000000E+00 -0.14300596323E+03  0.14300596323E+03  0.00000000000E+00 0.  1.
         25    2    1    2    0    0  0.11005327896E+02  0.17995880494E+03  0.49910936628E+01  0.21949705574E+03  0.12509099786E+03 0.  0.
          5    1    3    3  502    0  0.44580630258E+00 -0.14340257051E+02  0.19221227257E+02  0.24346862073E+02  0.41800000000E+01 0. -1.
         -5    1    3    3    0  502  0.10559521594E+02  0.19429906199E+03 -0.14230133594E+02  0.19515019367E+03  0.41800000000E+01 0. -1.
        -11    1    1    2    0    0 -0.34224377032E+02 -0.67719111595E+02  0.50158992536E+02  0.90956641267E+02  0.00000000000E+00 0.  1.
         11    1    1    2    0    0  0.23219049135E+02 -0.11223969335E+03  0.19854349058E+03  0.22925180622E+03  0.00000000000E+00 0. -1.
</event>
<event>
 7    1  0.2900135E-009  0.9242142E+02  0.7561462E-02  0.1297092E+00
          1   -1    0    0  501    0  0.00000000000E+00  0.00000000000E+00  0.20140406747E+03  0.20140406747E+03  0.00000000000E+00 0. -1.
         -1   -1    0    0    0  501 -0.00000000000E+00 -0.00000000000E+00 -0.93340436049E+02  0.93340436049E+02  0.00000000000E+00 0.  1.
         25    2    1    2    0    0  0.81251283401E+02 -0.80046747460E+00  0.83347752644E+02  0.17087070047E+03  0.12509011394E+03 0.  0.
          5    1    3    3  502    0  0.14335631426E+01 -0.15545559673E+02 -0.28409327745E+02  0.32684580948E+02  0.41800000000E+01 0. -1.
         -5    1    3    3    0  502  0.79817720258E+02  0.14745092198E+02  0.11175708039E+03  0.13818611952E+03  0.41800000000E+01 0. -1.
        -11    1    1    2    0    0 -0.40791724639E+02  0.16505961843E+02  0.55379092982E+02  0.70733694340E+02  0.00000000000E+00 0. -1.
         11    1    1    2    0    0 -0.40459558762E+02 -0.15705494368E+02 -0.30663214205E+02  0.53140108712E+02  0.00000000000E+00 0.  1.
</event>
<event>
 7    1  0.2900135E-009  0.1199359E+03  0.7561462E-02  0.1243203E+00
         -1   -1    0    0    0  501 -0.00000000000E+00  0.00000000000E+00  0.39675273276E+03  0.39675273276E+03  0.00000000000E+00 0.  1.
          1   -1    0    0  501    0  0.00000000000E+00 -0.00000000000E+00 -0.52772072996E+02  0.52772072996E+02  0.00000000000E+00 0. -1.
         25    2    1    2    0    0  0.83171688312E+02  0.52780028131E+02  0.18458989251E+03  0.24377130194E+03  0.12509099938E+03 0.  0.
          5    1    3    3  502    0  0.45264083325E+02 -0.73908072129E+01  0.15236003546E+00  0.46053847658E+02  0.41800000000E+01 0. -1.
         -5    1    3    3    0  502  0.37907604987E+02  0.60170835344E+02  0.18443753248E+03  0.19771745428E+03  0.41800000000E+01 0. -1.
        -11    1    1    2    0    0 -0.93156260883E+02 -0.30264499923E+02  0.93506894071E+02  0.13541627722E+03  0.00000000000E+00 0. -1.
         11    1    1    2    0    0  0.99845725714E+01 -0.22515528207E+02  0.65883873180E+02  0.70337226595E+02  0.00000000000E+00 0.  1.
</event>
<event>
 7    1  0.2900135E-009  0.7908080E+02  0.7561462E-02  0.1331680E+00
         -1   -1    0    0    0  501 -0.00000000000E+00  0.00000000000E+00  0.32187511670E+02  0.32187511670E+02  0.00000000000E+00 0.  1.
          1   -1    0    0  501    0  0.00000000000E+00 -0.00000000000E+00 -0.41153635359E+03  0.41153635359E+03  0.00000000000E+00 0. -1.
         25    2    1    2    0    0 -0.37163679193E+02  0.27356104217E+02 -0.24807986871E+03  0.28164199411E+03  0.12509634726E+03 0.  0.
          5    1    3    3  502    0 -0.34501838365E+02 -0.11101819288E+02 -0.66095200048E+01  0.37078098614E+02  0.41800000000E+01 0.  1.
         -5    1    3    3    0  502 -0.26618408280E+01  0.38457923505E+02 -0.24147034870E+03  0.24456389549E+03  0.41800000000E+01 0.  1.
        -11    1    1    2    0    0  0.57705824002E+02 -0.20753708744E+02 -0.12560171901E+03  0.13977292430E+03  0.00000000000E+00 0. -1.
         11    1    1    2    0    0 -0.20542144808E+02 -0.66023954728E+01 -0.56672542040E+01  0.22308946849E+02  0.00000000000E+00 0.  1.
</event>
<event>
 7    1  0.2900135E-009  0.8982094E+02  0.7561462E-02  0.1303286E+00
         -1   -1    0    0    0  501 -0.00000000000E+00  0.00000000000E+00  0.32104300647E+02  0.32104300647E+02  0.00000000000E+00 0.  1.
          1   -1    0    0  501    0  0.00000000000E+00 -0.00000000000E+00 -0.49225088365E+03  0.49225088365E+03  0.00000000000E+00 0. -1.
         25    2    1    2    0    0 -0.16647887717E+02  0.28077412996E+02 -0.37264610024E+03  0.39443464204E+03  0.12509227608E+03 0.  0.
          5    1    3    3  502    0 -0.30982496460E+02  0.70396745107E+02 -0.16640556080E+03  0.18336820846E+03  0.41800000000E+01 0. -1.
         -5    1    3    3    0  502  0.14334608743E+02 -0.42319332111E+02 -0.20624053944E+03  0.21106643358E+03  0.41800000000E+01 0. -1.
        -11    1    1    2    0    0  0.33539665552E+02 -0.19457295948E+02  0.16160053480E+01  0.38808594464E+02  0.00000000000E+00 0.  1.
         11    1    1    2    0    0 -0.16891777835E+02 -0.86201170485E+01 -0.89116488113E+02  0.91111947789E+02  0.00000000000E+00 0. -1.
</event>
<event>
 7    1  0.2900135E-009  0.1369361E+03  0.7561462E-02  0.1217512E+00
         -4   -1    0    0    0  501 -0.00000000000E+00  0.00000000000E+00  0.20525312912E+03  0.20525312912E+03  0.00000000000E+00 0.  1.
          4   -1    0    0  501    0  0.00000000000E+00 -0.00000000000E+00 -0.24053289713E+03  0.24053289713E+03  0.00000000000E+00 0. -1.
         25    2    1    2    0    0 -0.11401870169E+03  0.15474885740E+02  0.13747041158E+03  0.21859917892E+03  0.12509096906E+03 0.  0.
          5    1    3    3  502    0 -0.12167154108E+03  0.40812258223E+02  0.70536317345E+02  0.14650067848E+03  0.41800000000E+01 0.  1.
         -5    1    3    3    0  502  0.76528393923E+01 -0.25337372482E+02  0.66934094232E+02  0.72098500441E+02  0.41800000000E+01 0.  1.
        -11    1    1    2    0    0  0.35437371517E+02 -0.18617307066E+02 -0.30462423814E+01  0.40145871707E+02  0.00000000000E+00 0.  1.
         11    1    1    2    0    0  0.78581330168E+02  0.31424213255E+01 -0.16970393720E+03  0.18704097563E+03  0.00000000000E+00 0. -1.
</event>
<event>
 7    1  0.2900135E-009  0.6148534E+02  0.7561462E-02  0.1391702E+00
         -2   -1    0    0    0  501 -0.00000000000E+00  0.00000000000E+00  0.22455766325E+02  0.22455766325E+02  0.00000000000E+00 0.  1.
          2   -1    0    0  501    0  0.00000000000E+00 -0.00000000000E+00 -0.88643071748E+03  0.88643071748E+03  0.00000000000E+00 0. -1.
         25    2    1    2    0    0 -0.46837752237E+01 -0.28404609587E+02 -0.74197688353E+03  0.75299812820E+03  0.12509087011E+03 0.  0.
          5    1    3    3  502    0 -0.87978010749E+01 -0.16750065986E+02 -0.73945592324E+03  0.73970974093E+03  0.41800000000E+01 0. -1.
         -5    1    3    3    0  502  0.41140258512E+01 -0.11654543601E+02 -0.25209602822E+01  0.13288387261E+02  0.41800000000E+01 0. -1.
        -11    1    1    2    0    0 -0.35966894196E+02 -0.69984034787E+01 -0.23280672436E+02  0.43411805288E+02  0.00000000000E+00 0.  1.
         11    1    1    2    0    0  0.40650669419E+02  0.35403013066E+02 -0.98717395192E+02  0.11247655032E+03  0.00000000000E+00 0. -1.
</event>
<event>
 7    1  0.2900135E-009  0.1329327E+03  0.7561462E-02  0.1223168E+00
          2   -1    0    0  501    0  0.00000000000E+00  0.00000000000E+00  0.13676736827E+03  0.13676736827E+03  0.00000000000E+00 0. -1.
         -2   -1    0    0    0  501 -0.00000000000E+00 -0.00000000000E+00 -0.19072631936E+03  0.19072631936E+03  0.00000000000E+00 0.  1.
         25    2    1    2    0    0  0.14383777616E+02  0.11837513012E+03 -0.73649880608E+02  0.18786056627E+03  0.12509085880E+03 0.  0.
          5    1    3    3  502    0  0.26272856568E+01 -0.41081396264E+01  0.27674508989E+02  0.28410038524E+02  0.41800000000E+01 0. -1.
         -5    1    3    3    0  502  0.11756491959E+02  0.12248326974E+03 -0.10132438960E+03  0.15945052774E+03  0.41800000000E+01 0. -1.
        -11    1    1    2    0    0  0.22441533115E+02 -0.80212221697E+02  0.67896906131E+00  0.83295161426E+02  0.00000000000E+00 0. -1.
         11    1    1    2    0    0 -0.36825310730E+02 -0.38162908419E+02  0.19011960462E+02  0.56337959938E+02  0.00000000000E+00 0.  1.
</event>
<event>
 7    1  0.2900135E-009  0.1360131E+03  0.7561462E-02  0.1218797E+00
          2   -1    0    0  501    0  0.00000000000E+00  0.00000000000E+00  0.62445789496E+03  0.62445789496E+03  0.00000000000E+00 0. -1.
         -2   -1    0    0    0  501 -0.00000000000E+00 -0.00000000000E+00 -0.32897409366E+02  0.32897409366E+02  0.00000000000E+00 0.  1.
         25    2    1    2    0    0 -0.55309414393E+02 -0.74447240130E+02  0.29586845764E+03  0.33434564502E+03  0.12508934102E+03 0.  0.
          5    1    3    3  502    0  0.31319121163E+02  0.62473316883E+01  0.10380194515E+03  0.10868409599E+03  0.41800000000E+01 0. -1.
         -5    1    3    3    0  502 -0.86628535556E+02 -0.80694571819E+02  0.19206651249E+03  0.22566154904E+03  0.41800000000E+01 0. -1.
        -11    1    1    2    0    0  0.57925948840E+02  0.12382967424E+02  0.86866275186E+02  0.10514039754E+03  0.00000000000E+00 0. -1.
         11    1    1    2    0    0 -0.26165344473E+01  0.62064272707E+02  0.20882575277E+03  0.21786926175E+03  0.00000000000E+00 0.  1.
</event>
<event>
 7    1  0.2900135E-009  0.1361744E+03  0.7561462E-02  0.1218571E+00
          2   -1    0    0  501    0  0.00000000000E+00  0.00000000000E+00  0.12174560657E+04  0.12174560657E+04  0.00000000000E+00 0. -1.
         -2   -1    0    0    0  501 -0.00000000000E+00 -0.00000000000E+00 -0.19313705899E+02  0.19313705899E+02  0.00000000000E+00 0.  1.
         25    2    1    2    0    0  0.94360716758E+02 -0.11226210802E+02  0.85452506922E+03  0.86884426962E+03  0.12508916117E+03 0.  0.
          5    1    3    3  502    0  0.83944345706E+02  0.39197828049E+02  0.36485383451E+03  0.37645572895E+03  0.41800000000E+01 0. -1.
         -5    1    3    3    0  502  0.10416371052E+02 -0.50424038851E+02  0.48967123471E+03  0.49238854067E+03  0.41800000000E+01 0. -1.
        -11    1    1    2    0    0 -0.38131316170E+02  0.47594628060E+02  0.12171441659E+03  0.13613833075E+03  0.00000000000E+00 0.  1.
         11    1    1    2    0    0 -0.56229400588E+02 -0.36368417258E+02  0.22190287401E+03  0.23178717126E+03  0.00000000000E+00 0. -1.
</event>
<event>
 7    1  0.2900135E-009  0.1334218E+03  0.7561462E-02  0.1222465E+00
         -3   -1    0    0    0  501 -0.00000000000E+00  0.00000000000E+00  0.32489342344E+03  0.32489342344E+03  0.00000000000E+00 0.  1.
          3   -1    0    0  501    0  0.00000000000E+00 -0.00000000000E+00 -0.67066206597E+02  0.67066206597E+02  0.00000000000E+00 0. -1.
         25    2    1    2    0    0 -0.58640615464E+02  0.80233910258E+02  0.17928728415E+03  0.24016804514E+03  0.12514214921E+03 0.  0.
          5    1    3    3  502    0  0.34943178773E+02  0.48826759623E+02  0.56355105372E+02  0.82452704622E+02  0.41800000000E+01 0. -1.
         -5    1    3    3    0  502 -0.93583794237E+02  0.31407150635E+02  0.12293217878E+03  0.15771534052E+03  0.41800000000E+01 0. -1.
        -11    1    1    2    0    0  0.44962168321E+00 -0.32736229711E+02  0.68613028093E+02  0.76023749706E+02  0.00000000000E+00 0.  1.
         11    1    1    2    0    0  0.58190993780E+02 -0.47497680547E+02  0.99269045961E+01  0.75767835190E+02  0.00000000000E+00 0. -1.
</event>
<event>
 7    1  0.2900135E-009  0.1012705E+03  0.7561462E-02  0.1277647E+00
          2   -1    0    0  501    0  0.00000000000E+00  0.00000000000E+00  0.20252432909E+03  0.20252432909E+03  0.00000000000E+00 0. -1.
         -2   -1    0    0    0  501 -0.00000000000E+00 -0.00000000000E+00 -0.65275043079E+02  0.65275043079E+02  0.00000000000E+00 0.  1.
         25    2    1    2    0    0 -0.84739028099E+01 -0.43043368671E+02  0.12104319943E+03  0.17950912170E+03  0.12509008766E+03 0.  0.
          5    1    3    3  502    0 -0.33415027145E+02  0.27115531701E+02  0.78280673814E+01  0.43938219553E+02  0.41800000000E+01 0. -1.
         -5    1    3    3    0  502  0.24941124335E+02 -0.70158900372E+02  0.11321513205E+03  0.13557090215E+03  0.41800000000E+01 0. -1.
        -11    1    1    2    0    0  0.13173776991E+00 -0.20569897188E+02  0.12401810775E+02  0.24019636460E+02  0.00000000000E+00 0. -1.
         11    1    1    2    0    0  0.83421650400E+01  0.63613265859E+02  0.38042758096E+01  0.64270614010E+02  0.00000000000E+00 0.  1.
</event>
<event>
 7    1  0.2900135E-009  0.1392093E+03  0.7561462E-02  0.1214397E+00
         -3   -1    0    0    0  501 -0.00000000000E+00  0.00000000000E+00  0.21318864523E+03  0.21318864523E+03  0.00000000000E+00 0.  1.
          3   -1    0    0  501    0  0.00000000000E+00 -0.00000000000E+00 -0.12157143857E+03  0.12157143857E+03  0.00000000000E+00 0. -1.
         25    2    1    2    0    0  0.97981883882E+02  0.24346992558E+02  0.11442567515E+03  0.19732325582E+03  0.12509998616E+03 0.  0.
          5    1    3    3  502    0  0.11397860061E+03 -0.30974650667E+01  0.11911235285E+03  0.16494223440E+03  0.41800000000E+01 0.  1.
         -5    1    3    3    0  502 -0.15996716725E+02  0.27444457625E+02 -0.46866777034E+01  0.32381021420E+02  0.41800000000E+01 0.  1.
        -11    1    1    2    0    0 -0.13985490898E+02  0.29402795721E+02  0.71039125326E+01  0.33325424606E+02  0.00000000000E+00 0.  1.
         11    1    1    2    0    0 -0.83996392983E+02 -0.53749788279E+02 -0.29912381025E+02  0.10411140338E+03  0.00000000000E+00 0. -1.
</event>
<event>
 7    1  0.2900135E-009  0.7410775E+02  0.7561462E-02  0.1346657E+00
         -1   -1    0    0    0  501 -0.00000000000E+00  0.00000000000E+00  0.32150193502E+03  0.32150193502E+03  0.00000000000E+00 0.  1.
          1   -1    0    0  501    0  0.00000000000E+00 -0.00000000000E+00 -0.62239341226E+02  0.62239341226E+02  0.00000000000E+00 0. -1.
         25    2    1    2    0    0 -0.11802055418E+02  0.70014935795E+01  0.26572685984E+03  0.29401826039E+03  0.12509062306E+03 0.  0.
          5    1    3    3  502    0 -0.44929521985E+02 -0.12276150739E+02  0.24657085235E+03  0.25096617990E+03  0.41800000000E+01 0.  1.
         -5    1    3    3    0  502  0.33127466567E+02  0.19277644318E+02  0.19156007487E+02  0.43052080490E+02  0.41800000000E+01 0.  1.
        -11    1    1    2    0    0  0.32315792376E+02  0.12445762813E+02 -0.35225381530E+02  0.49396709939E+02  0.00000000000E+00 0. -1.
         11    1    1    2    0    0 -0.20513736958E+02 -0.19447256392E+02  0.28761115484E+02  0.40326305919E+02  0.00000000000E+00 0.  1.
</event>
<event>
 7    1  0.2900135E-009  0.7311340E+02  0.7561462E-02  0.1349815E+00
          2   -1    0    0  501    0  0.00000000000E+00  0.00000000000E+00  0.15691063042E+03  0.15691063042E+03  0.00000000000E+00 0.  1.
         -2   -1    0    0    0  501 -0.00000000000E+00 -0.00000000000E+00 -0.99177570485E+02  0.99177570485E+02  0.00000000000E+00 0. -1.
         25    2    1    2    0    0  0.14827780730E+02  0.17342301862E+01  0.91550861569E+02  0.15573052169E+03  0.12509022542E+03 0.  0.
          5    1    3    3  502    0 -0.23130624004E+02 -0.39884603764E+01  0.11027020405E+03  0.11281810087E+03  0.41800000000E+01 0.  1.
         -5    1    3    3    0  502  0.37958404734E+02  0.57226905626E+01 -0.18719342481E+02  0.42912420815E+02  0.41800000000E+01 0.  1.
        -11    1    1    2    0    0 -0.31861677860E+02  0.32512775933E+02 -0.41205457946E+02  0.61401440370E+02  0.00000000000E+00 0.  1.
         11    1    1    2    0    0  0.17033897130E+02 -0.34247006119E+02  0.73876563143E+01  0.38956238850E+02  0.00000000000E+00 0. -1.
</event>
<event>
 7    1  0.2900135E-009  0.1506997E+03  0.7561462E-02  0.1199616E+00
          1   -1    0    0  501    0  0.00000000000E+00  0.00000000000E+00  0.67521739063E+03  0.67521739063E+03  0.00000000000E+00 0. -1.
         -1   -1    0    0    0  501 -0.00000000000E+00 -0.00000000000E+00 -0.34376257298E+02  0.34376257298E+02  0.00000000000E+00 0.  1.
         25    2    1    2    0    0 -0.89998628128E+02 -0.54141624378E+02  0.29896991255E+03  0.34068047249E+03  0.12509639153E+03 0.  0.
          5    1    3    3  502    0 -0.10783567442E+03 -0.19822321702E+01  0.19138808740E+03  0.21972558868E+03  0.41800000000E+01 0.  1.
         -5    1    3    3    0  502  0.17837046296E+02 -0.52159392207E+02  0.10758182515E+03  0.12095488382E+03  0.41800000000E+01 0.  1.
        -11    1    1    2    0    0  0.93243410166E+02  0.73390207659E+02  0.30324535007E+03  0.32563506945E+03  0.00000000000E+00 0.  1.
         11    1    1    2    0    0 -0.32447820381E+01 -0.19248583281E+02  0.38625870718E+02  0.43278105983E+02  0.00000000000E+00 0. -1.
</event>
<event>
 7    1  0.3210513E-009  0.1195958E+03  0.7561462E-02  0.1243765E+00
         -2   -1    0    0    0  501 -0.00000000000E+00  0.00000000000E+00  0.23866751844E+02  0.23866751844E+02  0.00000000000E+00 0.  1.
          2   -1    0    0  501    0  0.00000000000E+00 -0.00000000000E+00 -0.69841657943E+03  0.69841657943E+03  0.00000000000E+00 0. -1.
         25    2    1    2    0    0  0.50188930821E+02  0.27011890959E+02 -0.26112855274E+03  0.29510082716E+03  0.12509119114E+03 0.  0.
          5    1    3    3  502    0  0.62833391461E+01  0.69853983033E+02 -0.18057451447E+03  0.19376193376E+03  0.41800000000E+01 0. -1.
         -5    1    3    3    0  502  0.43905591674E+02 -0.42842092074E+02 -0.80554038271E+02  0.10133889340E+03  0.41800000000E+01 0. -1.
        -11    1    1    2    0    0 -0.14110938212E+02 -0.58119031911E+02 -0.23962955778E+03  0.24698029356E+03  0.00000000000E+00 0. -1.
         11    1    1    2    0    0 -0.36077992609E+02  0.31107140952E+02 -0.17379171707E+03  0.18020221056E+03  0.00000000000E+00 0.  1.
</event>
<event>
 7    1  0.2900135E-009  0.7529033E+02  0.7561462E-02  0.1342974E+00
          1   -1    0    0  501    0  0.00000000000E+00  0.00000000000E+00  0.20740672703E+02  0.20740672703E+02  0.00000000000E+00 0. -1.
         -1   -1    0    0    0  501 -0.00000000000E+00 -0.00000000000E+00 -0.71606843262E+03  0.71606843262E+03  0.00000000000E+00 0.  1.
         25    2    1    2    0    0  0.39516223281E+02 -0.10044370109E+01 -0.50556141706E+03  0.52230588799E+03  0.12509417818E+03 0.  0.
          5    1    3    3  502    0  0.34966779128E+02 -0.14074614932E+02 -0.50640634416E+03  0.50782440689E+03  0.41800000000E+01 0. -1.
         -5    1    3    3    0  502  0.45494441535E+01  0.13070177921E+02  0.84492710347E+00  0.14481481099E+02  0.41800000000E+01 0. -1.
        -11    1    1    2    0    0 -0.23991429852E+02  0.45300775247E+02 -0.78660749803E+02  0.93889629373E+02  0.00000000000E+00 0.  1.
         11    1    1    2    0    0 -0.15524793430E+02 -0.44296338236E+02 -0.11110559306E+03  0.12061358796E+03  0.00000000000E+00 0. -1.
</event>
<event>
 7    1  0.2900135E-009  0.5253484E+03  0.7561462E-02  0.1007366E+00
          1   -1    0    0  501    0  0.00000000000E+00  0.00000000000E+00  0.93888738149E+03  0.93888738149E+03  0.00000000000E+00 0. -1.
         -1   -1    0    0    0  501 -0.00000000000E+00 -0.00000000000E+00 -0.33606121568E+03  0.33606121568E+03  0.00000000000E+00 0.  1.
         25    2    1    2    0    0 -0.30193356061E+03 -0.42500079604E+03  0.99874090986E+02  0.54535549836E+03  0.12509290100E+03 0.  0.
          5    1    3    3  502    0 -0.90598815751E+02 -0.10001228278E+03 -0.26516921996E+02  0.13759077612E+03  0.41800000000E+01 0. -1.
         -5    1    3    3    0  502 -0.21133474485E+03 -0.32498851326E+03  0.12639101298E+03  0.40776472223E+03  0.41800000000E+01 0. -1.
        -11    1    1    2    0    0  0.29553608939E+03  0.37434025083E+03  0.44425328587E+03  0.65179228711E+03  0.00000000000E+00 0. -1.
         11    1    1    2    0    0  0.63974712122E+01  0.50660545209E+02  0.58698788946E+02  0.77800811709E+02  0.00000000000E+00 0.  1.
</event>
<event>
 7    1  0.2900135E-009  0.1690434E+03  0.7561462E-02  0.1178849E+00
         -1   -1    0    0    0  501 -0.00000000000E+00  0.00000000000E+00  0.18855443377E+03  0.18855443377E+03  0.00000000000E+00 0. -1.
          1   -1    0    0  501    0  0.00000000000E+00 -0.00000000000E+00 -0.19659546500E+03  0.19659546500E+03  0.00000000000E+00 0.  1.
         25    2    1    2    0    0 -0.67277198847E+02  0.14163103280E+03  0.21022030889E+02  0.20167984384E+03  0.12508901908E+03 0.  0.
          5    1    3    3  502    0 -0.23678169530E+02  0.47882603491E+02  0.69216427020E+02  0.87531626278E+02  0.41800000000E+01 0. -1.
         -5    1    3    3    0  502 -0.43599029317E+02  0.93748429306E+02 -0.48194396132E+02  0.11414821757E+03  0.41800000000E+01 0. -1.
        -11    1    1    2    0    0  0.89164140079E+02 -0.99866129340E+02 -0.18521968042E+02  0.13515380485E+03  0.00000000000E+00 0.  1.
         11    1    1    2    0    0 -0.21886941232E+02 -0.41764903457E+02 -0.10541094069E+02  0.48316250077E+02  0.00000000000E+00 0. -1.
</event>
<event>
 7    1  0.2900135E-009  0.2142720E+03  0.7561462E-02  0.1138227E+00
          1   -1    0    0  501    0  0.00000000000E+00  0.00000000000E+00  0.43343274445E+03  0.43343274445E+03  0.00000000000E+00 0. -1.
         -1   -1    0    0    0  501 -0.00000000000E+00 -0.00000000000E+00 -0.10916439617E+03  0.10916439617E+03  0.00000000000E+00 0.  1.
         25    2    1    2    0    0 -0.67566431820E+02 -0.17223012633E+03  0.21533310110E+03  0.31025307034E+03  0.12514065727E+03 0.  0.
          5    1    3    3  502    0 -0.86497575364E+02 -0.50828778944E+02  0.97790099824E+02  0.14016337373E+03  0.41800000000E+01 0. -1.
         -5    1    3    3    0  502  0.18931143544E+02 -0.12140134738E+03  0.11754300127E+03  0.17008969661E+03  0.41800000000E+01 0. -1.
        -11    1    1    2    0    0  0.30564965355E+02  0.16459644095E+03  0.90481013917E+02  0.19029718695E+03  0.00000000000E+00 0. -1.
         11    1    1    2    0    0  0.37001466464E+02  0.76336853749E+01  0.18454233263E+02  0.42046883336E+02  0.00000000000E+00 0.  1.
</event>
<event>
 7    1  0.2900135E-009  0.1077640E+03  0.7561462E-02  0.1264768E+00
          2   -1    0    0  501    0  0.00000000000E+00  0.00000000000E+00  0.27356720939E+03  0.27356720939E+03  0.00000000000E+00 0. -1.
         -2   -1    0    0    0  501 -0.00000000000E+00 -0.00000000000E+00 -0.63776057983E+02  0.63776057983E+02  0.00000000000E+00 0.  1.
         25    2    1    2    0    0  0.40732348875E+02 -0.59716468095E+02  0.91874840315E+02  0.17121065050E+03  0.12508764830E+03 0.  0.
          5    1    3    3  502    0 -0.18899453164E+02 -0.49325056181E+02 -0.87537772146E+01  0.53705227982E+02  0.41800000000E+01 0. -1.
         -5    1    3    3    0  502  0.59631802039E+02 -0.10391411915E+02  0.10062861753E+03  0.11750542252E+03  0.41800000000E+01 0. -1.
        -11    1    1    2    0    0 -0.59871581582E+01  0.66243460965E+02  0.33206969396E+02  0.74342080949E+02  0.00000000000E+00 0.  1.
         11    1    1    2    0    0 -0.34745190716E+02 -0.65269928692E+01  0.84709341695E+02  0.91790535919E+02  0.00000000000E+00 0. -1.
</event>
<event>
 7    1  0.2900135E-009  0.1382043E+03  0.7561462E-02  0.1215766E+00
         -1   -1    0    0    0  501 -0.00000000000E+00  0.00000000000E+00  0.43311639509E+03  0.43311639509E+03  0.00000000000E+00 0.  1.
          1   -1    0    0  501    0  0.00000000000E+00 -0.00000000000E+00 -0.57553692117E+02  0.57553692117E+02  0.00000000000E+00 0. -1.
         25    2    1    2    0    0 -0.66017221861E+02 -0.74961031362E+02  0.29083358790E+03  0.33197703192E+03  0.12508854488E+03 0.  0.
          5    1    3    3  502    0 -0.59868041270E+02  0.16971612267E+02  0.16150513738E+03  0.17312885314E+03  0.41800000000E+01 0.  1.
         -5    1    3    3    0  502 -0.61491805913E+01 -0.91932643628E+02  0.12932845053E+03  0.15884817878E+03  0.41800000000E+01 0.  1.
        -11    1    1    2    0    0  0.59867248335E+02  0.88552190454E+02  0.44493616000E+02  0.11578108534E+03  0.00000000000E+00 0. -1.
         11    1    1    2    0    0  0.61499735258E+01 -0.13591159093E+02  0.40235499070E+02  0.42911969953E+02  0.00000000000E+00 0.  1.
</event>
<event>
 7    1  0.2900135E-009  0.1504000E+03  0.7561462E-02  0.1199982E+00
          2   -1    0    0  501    0  0.00000000000E+00  0.00000000000E+00  0.14398945772E+03  0.14398945772E+03  0.00000000000E+00 0. -1.
         -2   -1    0    0    0  501 -0.00000000000E+00 -0.00000000000E+00 -0.17948865385E+03  0.17948865385E+03  0.00000000000E+00 0.  1.
         25    2    1    2    0    0  0.11029819626E+03 -0.42478689023E+02 -0.23154265444E+02  0.17365203072E+03  0.12509507044E+03 0.  0.
          5    1    3    3  502    0  0.21857153071E+02 -0.67643201461E+02 -0.37522927543E+02  0.80490871132E+02  0.41800000000E+01 0. -1.
         -5    1    3    3    0  502  0.88441043186E+02  0.25164512437E+02  0.14368662099E+02  0.93161159592E+02  0.41800000000E+01 0. -1.
        -11    1    1    2    0    0  0.62848319088E+01  0.17116892729E+02  0.19136495184E+02  0.26432793586E+02  0.00000000000E+00 0. -1.
         11    1    1    2    0    0 -0.11658302817E+03  0.25361796294E+02 -0.31481425866E+02  0.12339328727E+03  0.00000000000E+00 0.  1.
</event>
<event>
 7    1  0.2900135E-009  0.1044430E+03  0.7561462E-02  0.1271221E+00
         -1   -1    0    0    0  501 -0.00000000000E+00  0.00000000000E+00  0.73160439580E+02  0.73160439580E+02  0.00000000000E+00 0.  1.
          1   -1    0    0  501    0  0.00000000000E+00 -0.00000000000E+00 -0.17093324275E+03  0.17093324275E+03  0.00000000000E+00 0. -1.
         25    2    1    2    0    0 -0.24734614450E+02  0.72511018855E+01 -0.46481917206E+02  0.13592144958E+03  0.12509872981E+03 0.  0.
          5    1    3    3  502    0  0.48384113466E+02  0.97013804745E+01 -0.37446436030E+02  0.62087415716E+02  0.41800000000E+01 0. -1.
         -5    1    3    3    0  502 -0.73118727916E+02 -0.24502785891E+01 -0.90354811764E+01  0.73834033869E+02  0.41800000000E+01 0. -1.
        -11    1    1    2    0    0  0.31693544660E+02 -0.40888422098E+02 -0.52626994990E+02  0.73796642447E+02  0.00000000000E+00 0.  1.
         11    1    1    2    0    0 -0.69589302096E+01  0.33637320213E+02  0.13361090306E+01  0.34375590295E+02  0.00000000000E+00 0. -1.
</event>
<event>
 7    1  0.2900135E-009  0.1350287E+03  0.7561462E-02  0.1220179E+00
          1   -1    0    0  501    0  0.00000000000E+00  0.00000000000E+00  0.82728642171E+02  0.82728642171E+02  0.00000000000E+00 0. -1.
         -1   -1    0    0    0  501 -0.00000000000E+00 -0.00000000000E+00 -0.27617399688E+03  0.27617399688E+03  0.00000000000E+00 0.  1.
         25    2    1    2    0    0  0.61498514892E+02  0.75772052123E+02 -0.14871260033E+03  0.21745142770E+03  0.12508482999E+03 0.  0.
          5    1    3    3  502    0  0.83790287545E+02  0.22647830721E+02 -0.42926103449E+02  0.96921923632E+02  0.41800000000E+01 0.  1.
         -5    1    3    3    0  502 -0.22291772653E+02  0.53124221401E+02 -0.10578649688E+03  0.12052950407E+03  0.41800000000E+01 0.  1.
        -11    1    1    2    0    0 -0.27839110496E+01 -0.65778819162E+02  0.18114802878E+01  0.65862619686E+02  0.00000000000E+00 0. -1.
         11    1    1    2    0    0 -0.58714603842E+02 -0.99932329602E+01 -0.46544234661E+02  0.75588591663E+02  0.00000000000E+00 0.  1.
</event>
<event>
 6    1  0.2900135E-009  0.7655874E+02  0.7561462E-02  0.1339111E+00
         -2   -1    0    0    0  501 -0.00000000000E+00  0.00000000000E+00  0.48007993606E+02  0.48007993606E+02  0.00000000000E+00 0. -1.
          2   -1    0    0  501    0  0.00000000000E+00 -0.00000000000E+00 -0.24237623746E+03  0.24237623746E+03  0.00000000000E+00 0.  1.
          5    1    1    2  502    0  0.49069734542E+02  0.39590399187E+02 -0.45888876666E+02  0.78092893130E+02  0.41800000000E+01 0.  1.
         -5    1    1    2    0  502 -0.41811390869E+02 -0.36157516760E+02 -0.99896327349E+02  0.11424669379E+03  0.41800000000E+01 0.  1.
        -11    1    1    2    0    0 -0.73668207923E+01  0.14657126585E+02  0.20715315643E+02  0.26423960916E+02  0.00000000000E+00 0. -1.
         11    1    1    2    0    0  0.10847711987E+00 -0.18090009011E+02 -0.69298355482E+02  0.71620683227E+02  0.00000000000E+00 0.  1.
</event>
<event>
 7    1  0.2900135E-009  0.1312396E+03  0.7561462E-02  0.1225628E+00
          1   -1    0    0  501    0  0.00000000000E+00  0.00000000000E+00  0.49835571934E+02  0.49835571934E+02  0.00000000000E+00 0. -1.
         -1   -1    0    0    0  501 -0.00000000000E+00 -0.00000000000E+00 -0.55101463480E+03  0.55101463480E+03  0.00000000000E+00 0.  1.
         25    2    1    2    0    0  0.48225670467E+02 -0.11097986351E+03 -0.31928117796E+03  0.36363484591E+03  0.12509030802E+03 0.  0.
          5    1    3    3  502    0  0.19979417617E+02  0.38091703156E+01  0.23927369119E+01  0.20901782143E+02  0.41800000000E+01 0.  1.
         -5    1    3    3    0  502  0.28246252850E+02 -0.11478903383E+03 -0.32167391488E+03  0.34273306377E+03  0.41800000000E+01 0.  1.
        -11    1    1    2    0    0 -0.17924788852E+02  0.71201260040E+02 -0.17091530065E+03  0.18601870197E+03  0.00000000000E+00 0.  1.
         11    1    1    2    0    0 -0.30300881615E+02  0.39778603475E+02 -0.10982584255E+02  0.51196658856E+02  0.00000000000E+00 0. -1.
</event>
<event>
 7    1  0.2900135E-009  0.1127018E+03  0.7561462E-02  0.1255647E+00
          1   -1    0    0  501    0  0.00000000000E+00  0.00000000000E+00  0.65630779234E+03  0.65630779234E+03  0.00000000000E+00 0. -1.
         -1   -1    0    0    0  501 -0.00000000000E+00 -0.00000000000E+00 -0.29048979273E+02  0.29048979273E+02  0.00000000000E+00 0.  1.
         25    2    1    2    0    0  0.83642519576E+01  0.40957073575E+02  0.52380266894E+03  0.54014809173E+03  0.12507310830E+03 0.  0.
          5    1    3    3  502    0 -0.10695847400E+02  0.80135438674E+02  0.24757918891E+03  0.26047843839E+03  0.41800000000E+01 0.  1.
         -5    1    3    3    0  502  0.19060099358E+02 -0.39178365099E+02  0.27622348003E+03  0.27966965334E+03  0.41800000000E+01 0.  1.
        -11    1    1    2    0    0  0.36919271874E+02 -0.41299859702E+02  0.67915531721E+02  0.87642629445E+02  0.00000000000E+00 0. -1.
         11    1    1    2    0    0 -0.45283523832E+02  0.34278612660E+00  0.35540612402E+02  0.57566050437E+02  0.00000000000E+00 0.  1.
</event>
<event>
 7    1  0.2900135E-009  0.8777242E+02  0.7561462E-02  0.1308338E+00
          1   -1    0    0  501    0  0.00000000000E+00  0.00000000000E+00  0.68922439035E+02  0.68922439035E+02  0.00000000000E+00 0. -1.
         -1   -1    0    0    0  501 -0.00000000000E+00 -0.00000000000E+00 -0.20672620610E+03  0.20672620610E+03  0.00000000000E+00 0.  1.
         25    2    1    2    0    0  0.30377330427E+02 -0.41222975425E+02 -0.96650266101E+02  0.16616644643E+03  0.12509155876E+03 0.  0.
          5    1    3    3  502    0  0.66791407021E+02 -0.41096825808E+01 -0.14096289414E+02  0.68513935210E+02  0.41800000000E+01 0.  1.
         -5    1    3    3    0  502 -0.36414076594E+02 -0.37113292844E+02 -0.82553976687E+02  0.97652511216E+02  0.41800000000E+01 0.  1.
        -11    1    1    2    0    0 -0.11914957454E+02  0.34806355723E+02  0.22345007741E+02  0.43043559109E+02  0.00000000000E+00 0. -1.
         11    1    1    2    0    0 -0.18462372972E+02  0.64166197018E+01 -0.63498508708E+02  0.66438639603E+02  0.00000000000E+00 0.  1.
</event>
<event>
 7    1  0.2900135E-009  0.9059816E+02  0.7561462E-02  0.1301410E+00
         -2   -1    0    0    0  501 -0.00000000000E+00  0.00000000000E+00  0.85195843258E+02  0.85195843258E+02  0.00000000000E+00 0.  1.
          2   -1    0    0  501    0  0.00000000000E+00 -0.00000000000E+00 -0.15261835711E+03  0.15261835711E+03  0.00000000000E+00 0. -1.
         25    2    1    2    0    0 -0.25453345819E+02  0.36452984865E+02 -0.33792459859E+02  0.13698244409E+03  0.12508223985E+03 0.  0.
          5    1    3    3  502    0 -0.38439328993E+02 -0.39335833581E+02 -0.77953701458E+01  0.55705744880E+02  0.41800000000E+01 0.  1.
         -5    1    3    3    0  502  0.12985983174E+02  0.75788818446E+02 -0.25997089713E+02  0.81276699207E+02  0.41800000000E+01 0.  1.
        -11    1    1    2    0    0  0.22698638148E+02 -0.14561765776E+02 -0.60396444631E+02  0.66143810900E+02  0.00000000000E+00 0. -1.
         11    1    1    2    0    0  0.27547076705E+01 -0.21891219090E+02  0.26766390632E+02  0.34687945386E+02  0.00000000000E+00 0.  1.
</event>
<event>
 7    1  0.2900135E-009  0.1328761E+03  0.7561462E-02  0.1223250E+00
         -1   -1    0    0    0  501 -0.00000000000E+00  0.00000000000E+00  0.21008608116E+02  0.21008608116E+02  0.00000000000E+00 0.  1.
          1   -1    0    0  501    0  0.00000000000E+00 -0.00000000000E+00 -0.12091060269E+04  0.12091060269E+04  0.00000000000E+00 0. -1.
         25    2    1    2    0    0 -0.38574720967E+02  0.96637502128E+02 -0.82792696881E+03  0.84377025091E+03  0.12513334778E+03 0.  0.
          5    1    3    3  502    0  0.29519871241E+02  0.85864373915E+02 -0.39156894733E+03  0.40197988310E+03  0.41800000000E+01 0. -1.
         -5    1    3    3    0  502 -0.68094592209E+02  0.10773128213E+02 -0.43635802148E+03  0.44179036781E+03  0.41800000000E+01 0. -1.
        -11    1    1    2    0    0  0.14794145279E+02 -0.16323723669E+02 -0.66140727554E+01  0.23001666187E+02  0.00000000000E+00 0.  1.
         11    1    1    2    0    0  0.23780575689E+02 -0.80313778458E+02 -0.35355637717E+03  0.36334271787E+03  0.00000000000E+00 0. -1.
</event>
<event>
 7    1  0.3002426E-009  0.9711352E+02  0.7561462E-02  0.1286486E+00
         -1   -1    0    0    0  501 -0.00000000000E+00  0.00000000000E+00  0.24741279484E+02  0.24741279484E+02  0.00000000000E+00 0.  1.
          1   -1    0    0  501    0  0.00000000000E+00 -0.00000000000E+00 -0.65105115438E+03  0.65105115438E+03  0.00000000000E+00 0. -1.
         25    2    1    2    0    0  0.70040577358E+01 -0.62592796460E+02 -0.30530027748E+03  0.33588934362E+03  0.12508587744E+03 0.  0.
          5    1    3    3  502    0 -0.26678939974E+02 -0.45031593967E+02 -0.35468375725E+02  0.63364724965E+02  0.41800000000E+01 0.  1.
         -5    1    3    3    0  502  0.33682997709E+02 -0.17561202493E+02 -0.26983190176E+03  0.27252461866E+03  0.41800000000E+01 0.  1.
        -11    1    1    2    0    0  0.37232933723E+02  0.20809801834E+02 -0.73094466917E+02  0.84629429278E+02  0.00000000000E+00 0.  1.
         11    1    1    2    0    0 -0.44236991459E+02  0.41782994626E+02 -0.24791513050E+03  0.25527366097E+03  0.00000000000E+00 0. -1.
</event>
<event>
 7    1  0.2900135E-009  0.2407134E+03  0.7561462E-02  0.1119318E+00
         -1   -1    0    0    0  501 -0.00000000000E+00  0.00000000000E+00  0.52816052373E+03  0.52816052373E+03  0.00000000000E+00 0.  1.
          1   -1    0    0  501    0  0.00000000000E+00 -0.00000000000E+00 -0.12309347117E+03  0.12309347117E+03  0.00000000000E+00 0. -1.
         25    2    1    2    0    0 -0.22589070533E+03 -0.23762192995E+02  0.22839549564E+03  0.34554822624E+03  0.12509125334E+03 0.  0.
          5    1    3    3  502    0 -0.23684456556E+03 -0.24774518865E+02  0.23273586633E+03  0.33300537667E+03  0.41800000000E+01 0.  1.
         -5    1    3    3    0  502  0.10953860229E+02  0.10123258705E+01 -0.43403706908E+01  0.12542849569E+02  0.41800000000E+01 0.  1.
        -11    1    1    2    0    0  0.15084185276E+03 -0.54785482447E+01  0.16615358767E+03  0.22447782458E+03  0.00000000000E+00 0.  1.
         11    1    1    2    0    0  0.75048852570E+02  0.29240741240E+02  0.10517969255E+02  0.81227944068E+02  0.00000000000E+00 0. -1.
</event>
<event>
 7    1  0.2900135E-009  0.1070153E+03  0.7561462E-02  0.1266199E+00
         -1   -1    0    0    0  501 -0.00000000000E+00  0.00000000000E+00  0.12737328470E+03  0.12737328470E+03  0.00000000000E+00 0.  1.
          1   -1    0    0  501    0  0.00000000000E+00 -0.00000000000E+00 -0.13070774020E+03  0.13070774020E+03  0.00000000000E+00 0. -1.
         25    2    1    2    0    0 -0.51182368674E+01  0.64258371434E+02 -0.26703569419E+02  0.14323537430E+03  0.12509179502E+03 0.  0.
          5    1    3    3  502    0  0.17121045949E+01  0.98597056647E+02  0.49889196686E+00  0.98701733394E+02  0.41800000000E+01 0. -1.
         -5    1    3    3    0  502 -0.68303414622E+01 -0.34338685214E+02 -0.27202461386E+02  0.44533640904E+02  0.41800000000E+01 0. -1.
        -11    1    1    2    0    0  0.13753700892E+02  0.14195697550E+01  0.43473103850E+02  0.45618967819E+02  0.00000000000E+00 0.  1.
         11    1    1    2    0    0 -0.86354640247E+01 -0.65677941189E+02 -0.20103989935E+02  0.69226682782E+02  0.00000000000E+00 0. -1.
</event>
<event>
 7    1  0.2900135E-009  0.1243418E+03  0.7561462E-02  0.1236102E+00
         -1   -1    0    0    0  501 -0.00000000000E+00  0.00000000000E+00  0.22801881109E+03  0.22801881109E+03  0.00000000000E+00 0.  1.
          1   -1    0    0  501    0  0.00000000000E+00 -0.00000000000E+00 -0.14479463765E+03  0.14479463765E+03  0.00000000000E+00 0. -1.
         25    2    1    2    0    0 -0.11698981256E+02  0.90977574463E+02 -0.71060061919E+02  0.17061943297E+03  0.12509066028E+03 0.  0.
          5    1    3    3  502    0 -0.50231139873E+02  0.99763144408E+02 -0.35457388827E+02  0.11726274437E+03  0.41800000000E+01 0.  1.
         -5    1    3    3    0  502  0.38532158617E+02 -0.87855699450E+01 -0.35602673092E+02  0.53356688599E+02  0.41800000000E+01 0.  1.
        -11    1    1    2    0    0  0.22878036526E+02 -0.58083301772E+02  0.15536251442E+03  0.16743531702E+03  0.00000000000E+00 0.  1.
         11    1    1    2    0    0 -0.11179055270E+02 -0.32894272692E+02 -0.10782790558E+01  0.34758698744E+02  0.00000000000E+00 0. -1.
</event>
<event>
 7    1  0.2900135E-009  0.1070560E+03  0.7561462E-02  0.1266121E+00
          2   -1    0    0  501    0  0.00000000000E+00  0.00000000000E+00  0.22195025430E+04  0.22195025430E+04  0.00000000000E+00 0. -1.
         -2   -1    0    0    0  501 -0.00000000000E+00 -0.00000000000E+00 -0.70541146111E+01  0.70541146111E+01  0.00000000000E+00 0.  1.
         25    2    1    2    0    0  0.23923334602E+02  0.23310933363E+02  0.16557639111E+04  0.16608183668E+04  0.12509113723E+03 0.  0.
          5    1    3    3  502    0  0.16132844293E+02 -0.43150947390E+02  0.11081806811E+04  0.11091456925E+04  0.41800000000E+01 0. -1.
         -5    1    3    3    0  502  0.77904903094E+01  0.66461880753E+02  0.54758322998E+03  0.55167267423E+03  0.41800000000E+01 0. -1.
        -11    1    1    2    0    0 -0.60948895800E+02 -0.12283579988E+02  0.34406198943E+03  0.34963453320E+03  0.00000000000E+00 0.  1.
         11    1    1    2    0    0  0.37025561197E+02 -0.11027353375E+02  0.21262252790E+03  0.21610375766E+03  0.00000000000E+00 0. -1.
</event>
<event>
 7    1  0.2900135E-009  0.1520977E+03  0.7561462E-02  0.1197919E+00
          2   -1    0    0  501    0  0.00000000000E+00  0.00000000000E+00  0.66377055209E+02  0.66377055209E+02  0.00000000000E+00 0.  1.
         -2   -1    0    0    0  501 -0.00000000000E+00 -0.00000000000E+00 -0.43443554673E+03  0.43443554673E+03  0.00000000000E+00 0. -1.
         25    2    1    2    0    0 -0.12007100271E+03 -0.41343632512E+02 -0.24863793993E+03  0.30592809432E+03  0.12507930318E+03 0.  0.
          5    1    3    3  502    0  0.91498063792E+01  0.82416503550E+01 -0.10722023467E+03  0.10800599465E+03  0.41800000000E+01 0.  1.
         -5    1    3    3    0  502 -0.12922080909E+03 -0.49585282867E+02 -0.14141770525E+03  0.19792209967E+03  0.41800000000E+01 0.  1.
        -11    1    1    2    0    0  0.10138943114E+03 -0.62593267788E+01 -0.67218556523E+02  0.12180858040E+03  0.00000000000E+00 0.  1.
         11    1    1    2    0    0  0.18681571568E+02  0.47602959291E+02 -0.52201995070E+02  0.73075927218E+02  0.00000000000E+00 0. -1.
</event>
<event>
 7    1  0.2900135E-009  0.1514983E+03  0.7561462E-02  0.1198644E+00
          2   -1    0    0  501    0  0.00000000000E+00  0.00000000000E+00  0.51272818557E+03  0.51272818557E+03  0.00000000000E+00 0. -1.
         -2   -1    0    0    0  501 -0.00000000000E+00 -0.00000000000E+00 -0.47188505604E+02  0.47188505604E+02  0.00000000000E+00 0.  1.
         25    2    1    2    0    0 -0.21035894540E+02  0.10330423867E+03  0.26837325370E+03  0.31430181825E+03  0.12508858887E+03 0.  0.
          5    1    3    3  502    0 -0.17546142801E+02 -0.26483555333E+02  0.72535813280E+02  0.79297934642E+02  0.41800000000E+01 0.  1.
         -5    1    3    3    0  502 -0.34897517393E+01  0.12978779400E+03  0.19583744042E+03  0.23500388360E+03  0.41800000000E+01 0.  1.
        -11    1    1    2    0    0  0.42902530874E+02 -0.11009208888E+03  0.18545773914E+03  0.21989876807E+03  0.00000000000E+00 0. -1.
         11    1    1    2    0    0 -0.21866636333E+02  0.67878502129E+01  0.11708687128E+02  0.25716104862E+02  0.00000000000E+00 0.  1.
</event>
<event>
 7    1  0.2900135E-009  0.1111891E+03  0.7561462E-02  0.1258384E+00
         -2   -1    0    0    0  501 -0.00000000000E+00  0.00000000000E+00  0.81741694716E+02  0.81741694716E+02  0.00000000000E+00 0.  1.
          2   -1    0    0  501    0  0.00000000000E+00 -0.00000000000E+00 -0.21601074957E+03  0.21601074957E+03  0.00000000000E+00 0. -1.
         25    2    1    2    0    0 -0.68007677553E+02 -0.31154378347E+02 -0.60264646393E+02  0.15771730913E+03  0.12508909824E+03 0.  0.
          5    1    3    3  502    0 -0.32340465063E+02  0.33784221279E+02 -0.68507248635E+02  0.83054167888E+02  0.41800000000E+01 0. -1.
         -5    1    3    3    0  502 -0.35667212490E+02 -0.64938599626E+02  0.82426022422E+01  0.74663141241E+02  0.41800000000E+01 0. -1.
        -11    1    1    2    0    0  0.76751307342E+02  0.88502794977E+01 -0.83954715183E+02  0.11409419279E+03  0.00000000000E+00 0. -1.
         11    1    1    2    0    0 -0.87436297890E+01  0.22304098849E+02  0.99503067208E+01  0.25940942373E+02  0.00000000000E+00 0.  1.
</event>
<event>
 7    1  0.2900135E-009  0.1438062E+03  0.7561462E-02  0.1208297E+00
         -3   -1    0    0    0  501 -0.00000000000E+00  0.00000000000E+00  0.71476233792E+02  0.71476233792E+02  0.00000000000E+00 0.  1.
          3   -1    0    0  501    0  0.00000000000E+00 -0.00000000000E+00 -0.34750147770E+03  0.34750147770E+03  0.00000000000E+00 0. -1.
         25    2    1    2    0    0 -0.10680476430E+03 -0.32186494467E+02 -0.11687722988E+03  0.20433153321E+03  0.12509140856E+03 0.  0.
          5    1    3    3  502    0  0.18678264130E+02  0.11946359861E+02  0.58386387157E+01  0.23305689582E+02  0.41800000000E+01 0. -1.
         -5    1    3    3    0  502 -0.12548302843E+03 -0.44132854328E+02 -0.12271586860E+03  0.18102584363E+03  0.41800000000E+01 0. -1.
        -11    1    1    2    0    0  0.88703362443E+02  0.53823882903E+02 -0.81207040160E+02  0.13175689831E+03  0.00000000000E+00 0.  1.
         11    1    1    2    0    0  0.18101401859E+02 -0.21637388436E+02 -0.77940973864E+02  0.82889279973E+02  0.00000000000E+00 0. -1.
</event>
<event>
 7    1  0.2900135E-009  0.9847973E+02  0.7561462E-02  0.1283526E+00
         -2   -1    0    0    0  501 -0.00000000000E+00  0.00000000000E+00  0.99388323128E+02  0.99388323128E+02  0.00000000000E+00 0. -1.
          2   -1    0    0  501    0  0.00000000000E+00 -0.00000000000E+00 -0.15604289976E+03  0.15604289976E+03  0.00000000000E+00 0.  1.
         25    2    1    2    0    0 -0.38183569213E+01  0.64264934454E+02 -0.93446756315E+01  0.14099145391E+03  0.12508679172E+03 0.  0.
          5    1    3    3  502    0  0.20358688614E+01  0.78726906355E+02 -0.52615193170E+02  0.94804543660E+02  0.41800000000E+01 0.  1.
         -5    1    3    3    0  502 -0.58542257827E+01 -0.14461971900E+02  0.43270517538E+02  0.46186910254E+02  0.41800000000E+01 0.  1.
        -11    1    1    2    0    0  0.26401411128E+02 -0.73078396235E+02 -0.25354496014E+02  0.81733328416E+02  0.00000000000E+00 0. -1.
         11    1    1    2    0    0 -0.22583054207E+02  0.88134617806E+01 -0.21955404985E+02  0.32706440557E+02  0.00000000000E+00 0.  1.
</event>
<event>
 7    1  0.2900135E-009  0.9528497E+02  0.7561462E-02  0.1290536E+00
          2   -1    0    0  501    0  0.00000000000E+00  0.00000000000E+00  0.48201631273E+03  0.48201631273E+03  0.00000000000E+00 0.  1.
         -2   -1    0    0    0  501 -0.00000000000E+00 -0.00000000000E+00 -0.32565422196E+02  0.32565422196E+02  0.00000000000E+00 0. -1.
         25    2    1    2    0    0  0.32384475024E+01  0.62011599289E+02  0.22612751298E+03  0.26577597279E+03  0.12508912660E+03 0.  0.
          5    1    3    3  502    0 -0.13990265132E+02 -0.23744258834E+01 -0.11630048968E+02  0.18817434887E+02  0.41800000000E+01 0.  1.
         -5    1    3    3    0  502  0.17228712634E+02  0.64386025173E+02  0.23775756195E+03  0.24695853790E+03  0.41800000000E+01 0.  1.
        -11    1    1    2    0    0  0.40229353374E+02 -0.10467704770E+02  0.99056210460E+02  0.10742488793E+03  0.00000000000E+00 0.  1.
         11    1    1    2    0    0 -0.43467800877E+02 -0.51543894520E+02  0.12426716710E+03  0.14138087421E+03  0.00000000000E+00 0. -1.
</event>
<event>
 7    1  0.2900135E-009  0.1849063E+03  0.7561462E-02  0.1163137E+00
         -1   -1    0    0    0  501 -0.00000000000E+00  0.00000000000E+00  0.18760419659E+03  0.18760419659E+03  0.00000000000E+00 0.  1.
          1   -1    0    0  501    0  0.00000000000E+00 -0.00000000000E+00 -0.22608987729E+03  0.22608987729E+03  0.00000000000E+00 0. -1.
         25    2    1    2    0    0 -0.71375732598E+02 -0.15540855212E+03 -0.60645207693E+02  0.22039025168E+03  0.12509080119E+03 0.  0.
          5    1    3    3  502    0 -0.37368766955E+02 -0.14847474393E+03 -0.87422425152E+02  0.17635568363E+03  0.41800000000E+01 0. -1.
         -5    1    3    3    0  502 -0.34006965643E+02 -0.69338081922E+01  0.26777217459E+02  0.44034568047E+02  0.41800000000E+01 0. -1.
        -11    1    1    2    0    0 -0.10724357052E+00  0.71347955223E+02  0.39581707117E+02  0.81591995649E+02  0.00000000000E+00 0.  1.
         11    1    1    2    0    0  0.71482976169E+02  0.84060596902E+02 -0.17422180122E+02  0.11171182656E+03  0.00000000000E+00 0. -1.
</event>
<event>
 7    1  0.2900135E-009  0.1054180E+03  0.7561462E-02  0.1269298E+00
          2   -1    0    0  501    0  0.00000000000E+00  0.00000000000E+00  0.49481586267E+03  0.49481586267E+03  0.00000000000E+00 0. -1.
         -2   -1    0    0    0  501 -0.00000000000E+00 -0.00000000000E+00 -0.36283351965E+02  0.36283351965E+02  0.00000000000E+00 0.  1.
         25    2    1    2    0    0  0.10237431939E+02  0.64601096193E+02  0.34330915482E+03  0.37119941949E+03  0.12509886734E+03 0.  0.
          5    1    3    3  502    0  0.20785900965E+02  0.99710664660E+02  0.21964398741E+03  0.24214711217E+03  0.41800000000E+01 0.  1.
         -5    1    3    3    0  502 -0.10548469025E+02 -0.35109568467E+02  0.12366516741E+03  0.12905230733E+03  0.41800000000E+01 0.  1.
        -11    1    1    2    0    0  0.83034833505E+01 -0.41769725808E+02  0.16920474867E+01  0.42620662296E+02  0.00000000000E+00 0.  1.
         11    1    1    2    0    0 -0.18540915290E+02 -0.22831370385E+02  0.11353130840E+03  0.11727913285E+03  0.00000000000E+00 0. -1.
</event>
<event>
 7    1  0.2900135E-009  0.8512868E+02  0.7561462E-02  0.1315096E+00
         -1   -1    0    0    0  501 -0.00000000000E+00  0.00000000000E+00  0.45774401107E+03  0.45774401107E+03  0.00000000000E+00 0.  1.
          1   -1    0    0  501    0  0.00000000000E+00 -0.00000000000E+00 -0.36149271766E+02  0.36149271766E+02  0.00000000000E+00 0. -1.
         25    2    1    2    0    0 -0.59272816151E+02  0.12419280412E+02  0.29630744310E+03  0.32728143590E+03  0.12509009629E+03 0.  0.
          5    1    3    3  502    0  0.46827002313E+01  0.78294899052E+01  0.24459561059E+03  0.24480137604E+03  0.41800000000E+01 0. -1.
         -5    1    3    3    0  502 -0.63955516382E+02  0.45897905067E+01  0.51711832511E+02  0.82480059859E+02  0.41800000000E+01 0. -1.
        -11    1    1    2    0    0  0.65840778297E+02  0.15203552727E+02  0.12001907850E+03  0.13773429241E+03  0.00000000000E+00 0.  1.
         11    1    1    2    0    0 -0.65679621465E+01 -0.27622833139E+02  0.52682177039E+01  0.28877554522E+02  0.00000000000E+00 0. -1.
</event>
<event>
 7    1  0.2900135E-009  0.1611719E+03  0.7561462E-02  0.1187380E+00
         -2   -1    0    0    0  501 -0.00000000000E+00  0.00000000000E+00  0.21293999714E+03  0.21293999714E+03  0.00000000000E+00 0.  1.
          2   -1    0    0  501    0  0.00000000000E+00 -0.00000000000E+00 -0.13075613636E+03  0.13075613636E+03  0.00000000000E+00 0. -1.
         25    2    1    2    0    0 -0.95055226308E+02  0.81238954817E+02  0.21830894644E+02  0.17821094823E+03  0.12508912935E+03 0.  0.
          5    1    3    3  502    0 -0.12926996101E+02  0.92050915724E+02  0.20390996941E+02  0.95256199116E+02  0.41800000000E+01 0. -1.
         -5    1    3    3    0  502 -0.82128230207E+02 -0.10811960908E+02  0.14398977030E+01  0.82954749116E+02  0.41800000000E+01 0. -1.
        -11    1    1    2    0    0  0.59362478599E+02 -0.91630283646E+02  0.66454461730E+02  0.12781317706E+03  0.00000000000E+00 0.  1.
         11    1    1    2    0    0  0.35692747709E+02  0.10391328829E+02 -0.61014955928E+01  0.37672008206E+02  0.00000000000E+00 0. -1.
</event>
<event>
 7    1  0.2900135E-009  0.1267960E+03  0.7561462E-02  0.1232289E+00
         -1   -1    0    0    0  501 -0.00000000000E+00  0.00000000000E+00  0.14306331749E+03  0.14306331749E+03  0.00000000000E+00 0.  1.
          1   -1    0    0  501    0  0.00000000000E+00 -0.00000000000E+00 -0.22291158372E+03  0.22291158372E+03  0.00000000000E+00 0. -1.
         25    2    1    2    0    0 -0.31872819589E+01  0.10452997911E+03 -0.14030897520E+03  0.21510531088E+03  0.12508801280E+03 0.  0.
          5    1    3    3  502    0  0.11274154154E+01 -0.14206108483E+02 -0.80803644162E+02  0.82157080606E+02  0.41800000000E+01 0. -1.
         -5    1    3    3    0  502 -0.43146973743E+01  0.11873608759E+03 -0.59505331042E+02  0.13294823027E+03  0.41800000000E+01 0. -1.
        -11    1    1    2    0    0 -0.27241674451E+02 -0.38657667035E+02  0.62383799817E+02  0.78283219959E+02  0.00000000000E+00 0.  1.
         11    1    1    2    0    0  0.30428956410E+02 -0.65872312071E+02 -0.19230908415E+01  0.72586370375E+02  0.00000000000E+00 0. -1.
</event>
<event>
 7    1  0.2900135E-009  0.1227162E+03  0.7561462E-02  0.1238682E+00
          2   -1    0    0  501    0  0.00000000000E+00  0.00000000000E+00  0.49308104481E+03  0.49308104481E+03  0.00000000000E+00 0. -1.
         -2   -1    0    0    0  501 -0.00000000000E+00 -0.00000000000E+00 -0.49587315244E+02  0.49587315244E+02  0.00000000000E+00 0.  1.
         25    2    1    2    0    0  0.53041381601E+02 -0.35843431740E+02  0.78369651046E+02  0.16089526423E+03  0.12508934441E+03 0.  0.
          5    1    3    3  502    0  0.71300313284E+02  0.25187305880E+02  0.51756494533E+02  0.91729723526E+02  0.41800000000E+01 0.  1.
         -5    1    3    3    0  502 -0.18258931682E+02 -0.61030737620E+02  0.26613156513E+02  0.69165540700E+02  0.41800000000E+01 0.  1.
        -11    1    1    2    0    0 -0.27373584342E+01  0.52725722244E+02  0.12213638091E+03  0.13305934939E+03  0.00000000000E+00 0.  1.
         11    1    1    2    0    0 -0.50304023167E+02 -0.16882290504E+02  0.24298769760E+03  0.24871374643E+03  0.00000000000E+00 0. -1.
</event>
<event>
 7    1  0.2900135E-009  0.1091776E+03  0.7561462E-02  0.1262100E+00
          1   -1    0    0  501    0  0.00000000000E+00  0.00000000000E+00  0.17142190145E+03  0.17142190145E+03  0.00000000000E+00 0.  1.
         -1   -1    0    0    0  501 -0.00000000000E+00 -0.00000000000E+00 -0.87088960127E+02  0.87088960127E+02  0.00000000000E+00 0. -1.
         25    2    1    2    0    0  0.63286609989E+01 -0.28275485464E+02  0.86523759212E+02  0.15483435357E+03  0.12509101130E+03 0.  0.
          5    1    3    3  502    0 -0.12137229663E+02 -0.75913755854E+02  0.55570571871E+02  0.94951416682E+02  0.41800000000E+01 0. -1.
         -5    1    3    3    0  502  0.18465890662E+02  0.47638270390E+02  0.30953187341E+02  0.59882936888E+02  0.41800000000E+01 0. -1.
        -11    1    1    2    0    0 -0.43131831185E+02 -0.89242908376E+00 -0.26670023582E+02  0.50719241407E+02  0.00000000000E+00 0. -1.
         11    1    1    2    0    0  0.36803170186E+02  0.29167914548E+02  0.24479205697E+02  0.52957266606E+02  0.00000000000E+00 0.  1.
</event>
<event>
 7    1  0.2900135E-009  0.9414362E+02  0.7561462E-02  0.1293117E+00
          1   -1    0    0  501    0  0.00000000000E+00  0.00000000000E+00  0.44961145252E+03  0.44961145252E+03  0.00000000000E+00 0. -1.
         -1   -1    0    0    0  501 -0.00000000000E+00 -0.00000000000E+00 -0.28831047364E+02  0.28831047364E+02  0.00000000000E+00 0.  1.
         25    2    1    2    0    0 -0.31821398511E+02 -0.25433151307E+02  0.24937460430E+03  0.28194928703E+03  0.12509300779E+03 0.  0.
          5    1    3    3  502    0 -0.15502784677E+02 -0.76205317778E+02  0.14039167335E+03  0.16054557340E+03  0.41800000000E+01 0.  1.
         -5    1    3    3    0  502 -0.16318613834E+02  0.50772166470E+02  0.10898293095E+03  0.12140371363E+03  0.41800000000E+01 0.  1.
        -11    1    1    2    0    0  0.41822189646E+01  0.28772453613E+02  0.16549874239E+03  0.16803326687E+03  0.00000000000E+00 0. -1.
         11    1    1    2    0    0  0.27639179547E+02 -0.33393023054E+01  0.59070584670E+01  0.28459945988E+02  0.00000000000E+00 0.  1.
</event>
<event>
 7    1  0.2900135E-009  0.5211591E+02  0.7561462E-02  0.1434252E+00
          2   -1    0    0  501    0  0.00000000000E+00  0.00000000000E+00  0.55527654639E+03  0.55527654639E+03  0.00000000000E+00 0.  1.
         -2   -1    0    0    0  501 -0.00000000000E+00 -0.00000000000E+00 -0.21876866294E+02  0.21876866294E+02  0.00000000000E+00 0. -1.
         25    2    1    2    0    0  0.55130969745E+01  0.11488247825E+02  0.26827589748E+03  0.29627968865E+03  0.12508925879E+03 0.  0.
          5    1    3    3  502    0  0.48292145364E+01  0.71281829630E+01  0.28153288116E+03  0.28169552336E+03  0.41800000000E+01 0. -1.
         -5    1    3    3    0  502  0.68388243809E+00  0.43600648617E+01 -0.13256983685E+02  0.14584165291E+02  0.41800000000E+01 0. -1.
        -11    1    1    2    0    0  0.20182482046E+02 -0.43250317013E+02  0.10051440400E+03  0.11127024722E+03  0.00000000000E+00 0. -1.
         11    1    1    2    0    0 -0.25695579021E+02  0.31762069188E+02  0.16460937862E+03  0.16960347682E+03  0.00000000000E+00 0.  1.
</event>
<event>
 7    1  0.2900135E-009  0.1271368E+03  0.7561462E-02  0.1231767E+00
          1   -1    0    0  501    0  0.00000000000E+00  0.00000000000E+00  0.39932229346E+03  0.39932229346E+03  0.00000000000E+00 0. -1.
         -1   -1    0    0    0  501 -0.00000000000E+00 -0.00000000000E+00 -0.42318122711E+02  0.42318122711E+02  0.00000000000E+00 0.  1.
         25    2    1    2    0    0  0.22976034522E+02 -0.67919730230E+02  0.18140031490E+03  0.23172188205E+03  0.12509184010E+03 0.  0.
          5    1    3    3  502    0  0.20009025676E+02  0.33503052654E+02  0.29918835866E+02  0.49350023153E+02  0.41800000000E+01 0. -1.
         -5    1    3    3    0  502  0.29670088466E+01 -0.10142278288E+03  0.15148147903E+03  0.18237185890E+03  0.41800000000E+01 0. -1.
        -11    1    1    2    0    0  0.27185796868E+02  0.55496574267E+02  0.11249129951E+03  0.12834808051E+03  0.00000000000E+00 0.  1.
         11    1    1    2    0    0 -0.50161831390E+02  0.12423155963E+02  0.63112556338E+02  0.81570453597E+02  0.00000000000E+00 0. -1.
</event>
<event>
 7    1  0.2900135E-009  0.1550269E+03  0.7561462E-02  0.1194429E+00
         -1   -1    0    0    0  501 -0.00000000000E+00  0.00000000000E+00  0.25439329680E+02  0.25439329680E+02  0.00000000000E+00 0.  1.
          1   -1    0    0  501    0  0.00000000000E+00 -0.00000000000E+00 -0.14981502838E+04  0.14981502838E+04  0.00000000000E+00 0. -1.
         25    2    1    2    0    0  0.10479028985E+03 -0.76500669753E+02 -0.11505391569E+04  0.11645692902E+04  0.12509165828E+03 0.  0.
          5    1    3    3  502    0 -0.27522395892E+02 -0.27321445677E+02 -0.25104969620E+03  0.25406173666E+03  0.41800000000E+01 0.  1.
         -5    1    3    3    0  502  0.13231268575E+03 -0.49179224076E+02 -0.89948946067E+03  0.91050755359E+03  0.41800000000E+01 0.  1.
        -11    1    1    2    0    0 -0.49947891679E+02  0.33539189391E+02 -0.25586615476E+03  0.26284436128E+03  0.00000000000E+00 0. -1.
         11    1    1    2    0    0 -0.54842398175E+02  0.42961480361E+02 -0.66305642521E+02  0.96175961979E+02  0.00000000000E+00 0.  1.
</event>
<event>
 7    1  0.2900135E-009  0.8724625E+02  0.7561462E-02  0.1309661E+00
         -2   -1    0    0    0  501 -0.00000000000E+00  0.00000000000E+00  0.58211644239E+02  0.58211644239E+02  0.00000000000E+00 0.  1.
          2   -1    0    0  501    0  0.00000000000E+00 -0.00000000000E+00 -0.25104543461E+03  0.25104543461E+03  0.00000000000E+00 0. -1.
         25    2    1    2    0    0 -0.41168719883E+02 -0.36288925072E+02 -0.10583567994E+03  0.17280060405E+03  0.12508840087E+03 0.  0.
          5    1    3    3  502    0  0.31897087390E+02  0.48271036584E-01  0.75470362473E+01  0.33043254534E+02  0.41800000000E+01 0. -1.
         -5    1    3    3    0  502 -0.73065807274E+02 -0.36337196109E+02 -0.11338271619E+03  0.13975734951E+03  0.41800000000E+01 0. -1.
        -11    1    1    2    0    0  0.24228077013E+02  0.36335439986E+02  0.40371018905E+01  0.43858432558E+02  0.00000000000E+00 0.  1.
         11    1    1    2    0    0  0.16940642870E+02 -0.46514914170E-01 -0.91035212320E+02  0.92598042239E+02  0.00000000000E+00 0. -1.
</event>
<event>
 7    1  0.2900135E-009  0.1341424E+03  0.7561462E-02  0.1221435E+00
         -2   -1    0    0    0  501 -0.00000000000E+00  0.00000000000E+00  0.54121193317E+02  0.54121193317E+02  0.00000000000E+00 0. -1.
          2   -1    0    0  501    0  0.00000000000E+00 -0.00000000000E+00 -0.44622178331E+03  0.44622178331E+03  0.00000000000E+00 0.  1.
         25    2    1    2    0    0  0.68312623840E+02  0.91197713884E+02 -0.18908236639E+03  0.25373816423E+03  0.12508907672E+03 0.  0.
          5    1    3    3  502    0  0.76516331138E+02  0.91295344409E+02 -0.78383581920E+02  0.14265709641E+03  0.41800000000E+01 0.  1.
         -5    1    3    3    0  502 -0.82037072979E+01 -0.97630524431E-01 -0.11069878447E+03  0.11108106782E+03  0.41800000000E+01 0.  1.
        -11    1    1    2    0    0  0.90445254828E+01 -0.52710997110E+02 -0.82353436475E+02  0.98195423299E+02  0.00000000000E+00 0.  1.
         11    1    1    2    0    0 -0.77357149323E+02 -0.38486716774E+02 -0.12066478713E+03  0.14840938909E+03  0.00000000000E+00 0. -1.
</event>
<event>
 7    1  0.2900135E-009  0.8505282E+02  0.7561462E-02  0.1315294E+00
         -1   -1    0    0    0  501 -0.00000000000E+00  0.00000000000E+00  0.21900319812E+03  0.21900319812E+03  0.00000000000E+00 0.  1.
          1   -1    0    0  501    0  0.00000000000E+00 -0.00000000000E+00 -0.71175245070E+02  0.71175245070E+02  0.00000000000E+00 0. -1.
         25    2    1    2    0    0  0.12312108610E+02 -0.55573846933E+02  0.60182677516E+02  0.15003337966E+03  0.12509204554E+03 0.  0.
          5    1    3    3  502    0 -0.30491242741E+02 -0.62027444290E+02  0.76865486368E+02  0.10345479749E+03  0.41800000000E+01 0. -1.
         -5    1    3    3    0  502  0.42803351351E+02  0.64535973574E+01 -0.16682808852E+02  0.46578582170E+02  0.41800000000E+01 0. -1.
        -11    1    1    2    0    0 -0.70829479438E+01  0.16556065207E+02  0.97837121425E+02  0.99480519577E+02  0.00000000000E+00 0.  1.
         11    1    1    2    0    0 -0.52291606663E+01  0.39017781726E+02 -0.10191845892E+02  0.40664543952E+02  0.00000000000E+00 0. -1.
</event>
<event>
 7    1  0.2900135E-009  0.1524859E+03  0.7561462E-02  0.1197451E+00
         -3   -1    0    0    0  501 -0.00000000000E+00  0.00000000000E+00  0.16272364720E+03  0.16272364720E+03  0.00000000000E+00 0.  1.
          3   -1    0    0  501    0  0.00000000000E+00 -0.00000000000E+00 -0.18687690617E+03  0.18687690617E+03  0.00000000000E+00 0. -1.
         25    2    1    2    0    0  0.12136330068E+03 -0.60989661509E+02 -0.20808056521E+01  0.18466404873E+03  0.12509073338E+03 0.  0.
          5    1    3    3  502    0  0.11787557417E+03 -0.69958009704E+02 -0.41972954685E+02  0.14341539469E+03  0.41800000000E+01 0. -1.
         -5    1    3    3    0  502  0.34877265075E+01  0.89683481946E+01  0.39892149032E+02  0.41248654038E+02  0.41800000000E+01 0. -1.
        -11    1    1    2    0    0 -0.10233365133E+03  0.80416858315E+02 -0.38116668800E+00  0.13015065341E+03  0.00000000000E+00 0.  1.
         11    1    1    2    0    0 -0.19029649355E+02 -0.19427196806E+02 -0.21691286631E+02  0.34785851233E+02  0.00000000000E+00 0. -1.
</event>
<event>
 7    1  0.2900135E-009  0.9360504E+02  0.7561462E-02  0.1294349E+00
          1   -1    0    0  501    0  0.00000000000E+00  0.00000000000E+00  0.33653263009E+03  0.33653263009E+03  0.00000000000E+00 0. -1.
         -1   -1    0    0    0  501 -0.00000000000E+00 -0.00000000000E+00 -0.67787428978E+02  0.67787428978E+02  0.00000000000E+00 0.  1.
         25    2    1    2    0    0 -0.49979441062E+02  0.28938157475E+02  0.24999226047E+03  0.28544222450E+03  0.12508305938E+03 0.  0.
          5    1    3    3  502    0  0.98000258364E+01  0.91396692249E+01 -0.10426022057E+02  0.17485662580E+02  0.41800000000E+01 0.  1.
         -5    1    3    3    0  502 -0.59779466899E+02  0.19798488250E+02  0.26041828253E+03  0.26795656192E+03  0.41800000000E+01 0.  1.
        -11    1    1    2    0    0  0.78084126411E+02 -0.21373679572E+02 -0.52862423027E+01  0.81128967290E+02  0.00000000000E+00 0.  1.
         11    1    1    2    0    0 -0.28104685349E+02 -0.75644779021E+01  0.24039182944E+02  0.37748867282E+02  0.00000000000E+00 0. -1.
</event>
<event>
 7    1  0.2900135E-009  0.4256836E+03  0.7561462E-02  0.1035232E+00
          1   -1    0    0  501    0  0.00000000000E+00  0.00000000000E+00  0.69413191361E+03  0.69413191361E+03  0.00000000000E+00 0. -1.
         -1   -1    0    0    0  501 -0.00000000000E+00 -0.00000000000E+00 -0.26767717080E+03  0.26767717080E+03  0.00000000000E+00 0.  1.
         25    2    1    2    0    0 -0.40063716263E+03 -0.10916914118E+03  0.23238809668E+03  0.49201537268E+03  0.12508741746E+03 0.  0.
          5    1    3    3  502    0 -0.18558961935E+03  0.64863826271E+01  0.68827466479E+02  0.19809157608E+03  0.41800000000E+01 0.  1.
         -5    1    3    3    0  502 -0.21504754328E+03 -0.11565552381E+03  0.16356063020E+03  0.29392379660E+03  0.41800000000E+01 0. -1.
        -11    1    1    2    0    0  0.16630028593E+03  0.89586074656E+01  0.11700272063E+03  0.20353299089E+03  0.00000000000E+00 0. -1.
         11    1    1    2    0    0  0.23433687670E+03  0.10021053371E+03  0.77063925500E+02  0.26626072084E+03  0.00000000000E+00 0.  1.
</event>
<event>
 7    1  0.2900135E-009  0.1059150E+03  0.7561462E-02  0.1268327E+00
          3   -1    0    0  501    0  0.00000000000E+00  0.00000000000E+00  0.17291133992E+02  0.17291133992E+02  0.00000000000E+00 0. -1.
         -3   -1    0    0    0  501 -0.00000000000E+00 -0.00000000000E+00 -0.17437612219E+04  0.17437612219E+04  0.00000000000E+00 0.  1.
         25    2    1    2    0    0 -0.55183044658E+02 -0.47946119046E+02 -0.14818286455E+04  0.14888947706E+04  0.12508998564E+03 0.  0.
          5    1    3    3  502    0 -0.31191743023E+02  0.15283334493E+02 -0.11078470716E+03  0.11617757480E+03  0.41800000000E+01 0. -1.
         -5    1    3    3    0  502 -0.23991301635E+02 -0.63229453539E+02 -0.13710439383E+04  0.13727171958E+04  0.41800000000E+01 0. -1.
        -11    1    1    2    0    0  0.68346893838E+02  0.10189937251E+02 -0.20294598707E+03  0.21438798097E+03  0.00000000000E+00 0.  1.
         11    1    1    2    0    0 -0.13163849181E+02  0.37756181795E+02 -0.41695455350E+02  0.57769604342E+02  0.00000000000E+00 0. -1.
</event>
<event>
 7    1  0.2900135E-009  0.2634361E+03  0.7561462E-02  0.1105096E+00
         -2   -1    0    0    0  501 -0.00000000000E+00  0.00000000000E+00  0.18136927624E+03  0.18136927624E+03  0.00000000000E+00 0.  1.
          2   -1    0    0  501    0  0.00000000000E+00 -0.00000000000E+00 -0.48894793231E+03  0.48894793231E+03  0.00000000000E+00 0. -1.
         25    2    1    2    0    0 -0.25688280471E+03  0.55632549821E+02 -0.25579038315E+03  0.38750690628E+03  0.12509646816E+03 0.  0.
          5    1    3    3  502    0 -0.15292943439E+03  0.24299576164E+02 -0.22750159915E+03  0.27523141413E+03  0.41800000000E+01 0.  1.
         -5    1    3    3    0  502 -0.10395337031E+03  0.31332973658E+02 -0.28288784000E+02  0.11227549215E+03  0.41800000000E+01 0.  1.
        -11    1    1    2    0    0  0.12547691771E+03 -0.19077823148E+02 -0.70423103383E+02  0.14514762728E+03  0.00000000000E+00 0. -1.
         11    1    1    2    0    0  0.13140588700E+03 -0.36554726673E+02  0.18634830462E+02  0.13766267499E+03  0.00000000000E+00 0.  1.
</event>
<event>
 7    1  0.2900135E-009  0.1863768E+03  0.7561462E-02  0.1161770E+00
          2   -1    0    0  501    0  0.00000000000E+00  0.00000000000E+00  0.18090141106E+04  0.18090141106E+04  0.00000000000E+00 0. -1.
         -2   -1    0    0    0  501 -0.00000000000E+00 -0.00000000000E+00 -0.24182241864E+02  0.24182241864E+02  0.00000000000E+00 0.  1.
         25    2    1    2    0    0  0.92200182913E+02 -0.14588353613E+03  0.75704776039E+03  0.78648077055E+03  0.12509121106E+03 0.  0.
          5    1    3    3  502    0  0.94526072781E+02 -0.14714123759E+03  0.76055672608E+03  0.78041638131E+03  0.41800000000E+01 0.  1.
         -5    1    3    3    0  502 -0.23258898681E+01  0.12577014611E+01 -0.35089656858E+01  0.60643892378E+01  0.41800000000E+01 0.  1.
        -11    1    1    2    0    0 -0.10814198210E+03  0.11347302288E+03  0.91376450140E+03  0.92711184828E+03  0.00000000000E+00 0. -1.
         11    1    1    2    0    0  0.15941799191E+02  0.32410513251E+02  0.11401960696E+03  0.11960373365E+03  0.00000000000E+00 0.  1.
</event>
<event>
 7    1  0.2900135E-009  0.7882421E+02  0.7561462E-02  0.1332422E+00
          2   -1    0    0  501    0  0.00000000000E+00  0.00000000000E+00  0.11959409083E+03  0.11959409083E+03  0.00000000000E+00 0.  1.
         -2   -1    0    0    0  501 -0.00000000000E+00 -0.00000000000E+00 -0.13496404176E+03  0.13496404176E+03  0.00000000000E+00 0. -1.
         25    2    1    2    0    0  0.44783334120E+02 -0.41666534075E+02 -0.36701014154E+02  0.14399240919E+03  0.12508078344E+03 0.  0.
          5    1    3    3  502    0  0.42488374664E+02 -0.15415526454E+02  0.41414968330E+02  0.61445686905E+02  0.41800000000E+01 0.  1.
         -5    1    3    3    0  502  0.22949594557E+01 -0.26251007621E+02 -0.78115982484E+02  0.82546722281E+02  0.41800000000E+01 0.  1.
        -11    1    1    2    0    0  0.41352310157E+01 -0.12158810708E+02 -0.22311085115E+02  0.25743374534E+02  0.00000000000E+00 0. -1.
         11    1    1    2    0    0 -0.48918565136E+02  0.53825344783E+02  0.43642148342E+02  0.84822348870E+02  0.00000000000E+00 0.  1.
</event>
<event>
 7    1  0.2900135E-009  0.1019605E+03  0.7561462E-02  0.1276226E+00
          2   -1    0    0  501    0  0.00000000000E+00  0.00000000000E+00  0.28445727445E+03  0.28445727445E+03  0.00000000000E+00 0. -1.
         -2   -1    0    0    0  501 -0.00000000000E+00 -0.00000000000E+00 -0.94782997021E+02  0.94782997021E+02  0.00000000000E+00 0.  1.
         25    2    1    2    0    0  0.21903852874E+02 -0.37634047854E+02  0.23384203673E+03  0.26874884622E+03  0.12509094241E+03 0.  0.
          5    1    3    3  502    0  0.21043614660E+02  0.39383169252E+02  0.39890484167E+02  0.60021586661E+02  0.41800000000E+01 0. -1.
         -5    1    3    3    0  502  0.86023821384E+00 -0.77017217105E+02  0.19395155256E+03  0.20872725956E+03  0.41800000000E+01 0.  1.
        -11    1    1    2    0    0  0.22946401672E+02 -0.67095198561E+00 -0.46077130053E+02  0.51479019417E+02  0.00000000000E+00 0.  1.
         11    1    1    2    0    0 -0.44850254546E+02  0.38304999839E+02  0.19093707484E+01  0.59012405833E+02  0.00000000000E+00 0. -1.
</event>
<event>
 7    1  0.4236514E-009  0.1065476E+03  0.7561462E-02  0.1267100E+00
         -2   -1    0    0    0  501 -0.00000000000E+00  0.00000000000E+00  0.49609423156E+02  0.49609423156E+02  0.00000000000E+00 0.  1.
          2   -1    0    0  501    0  0.00000000000E+00 -0.00000000000E+00 -0.29085686063E+03  0.29085686063E+03  0.00000000000E+00 0. -1.
         25    2    1    2    0    0  0.49803366695E+02  0.41450486702E+01 -0.15347307091E+03  0.20420793042E+03  0.12509731648E+03 0.  0.
          5    1    3    3  502    0  0.85216561352E+02  0.23642321085E+02 -0.12997218702E+03  0.15726113148E+03  0.41800000000E+01 0. -1.
         -5    1    3    3    0  502 -0.35413194657E+02 -0.19497272415E+02 -0.23500883891E+02  0.46946798944E+02  0.41800000000E+01 0. -1.
        -11    1    1    2    0    0 -0.17047287061E+02  0.31309644331E+02  0.49458144195E+00  0.35653168654E+02  0.00000000000E+00 0.  1.
         11    1    1    2    0    0 -0.32756079634E+02 -0.35454693001E+02 -0.88268948004E+02  0.10060518471E+03  0.00000000000E+00 0. -1.
</event>
<event>
 7    1  0.2900135E-009  0.9694348E+02  0.7561462E-02  0.1286858E+00
         -2   -1    0    0    0  501 -0.00000000000E+00  0.00000000000E+00  0.46244024518E+02  0.46244024518E+02  0.00000000000E+00 0. -1.
          2   -1    0    0  501    0  0.00000000000E+00 -0.00000000000E+00 -0.37229772259E+03  0.37229772259E+03  0.00000000000E+00 0.  1.
         25    2    1    2    0    0  0.25890786965E+01  0.66176453981E+02 -0.12680186707E+03  0.19003244111E+03  0.12509032254E+03 0.  0.
          5    1    3    3  502    0  0.21304687409E+02  0.12550997378E+02  0.20317081228E+02  0.32274966001E+02  0.41800000000E+01 0.  1.
         -5    1    3    3    0  502 -0.18715608713E+02  0.53625456604E+02 -0.14711894829E+03  0.15775747511E+03  0.41800000000E+01 0.  1.
        -11    1    1    2    0    0 -0.37055394790E+02 -0.67895216314E+02 -0.13939883622E+03  0.15942050753E+03  0.00000000000E+00 0.  1.
         11    1    1    2    0    0  0.34466316093E+02  0.17187623332E+01 -0.59852994784E+02  0.69088798467E+02  0.00000000000E+00 0. -1.
</event>
<event>
 7    1  0.2900135E-009  0.1231592E+03  0.7561462E-02  0.1237975E+00
         -1   -1    0    0    0  501 -0.00000000000E+00  0.00000000000E+00  0.28267136145E+02  0.28267136145E+02  0.00000000000E+00 0.  1.
          1   -1    0    0  501    0  0.00000000000E+00 -0.00000000000E+00 -0.71258286047E+03  0.71258286047E+03  0.00000000000E+00 0. -1.
         25    2    1    2    0    0 -0.72215430441E+01  0.69941367490E+02 -0.52763703891E+03  0.54680154254E+03  0.12508851475E+03 0.  0.
          5    1    3    3  502    0  0.47205599211E+02  0.62207619916E+02 -0.20349457248E+03  0.21800383024E+03  0.41800000000E+01 0.  1.
         -5    1    3    3    0  502 -0.54427142255E+02  0.77337475739E+01 -0.32414246644E+03  0.32879771230E+03  0.41800000000E+01 0.  1.
        -11    1    1    2    0    0  0.47482004745E+02 -0.29398271195E+02 -0.61810274653E+02  0.83302516028E+02  0.00000000000E+00 0.  1.
         11    1    1    2    0    0 -0.40260461701E+02 -0.40543096295E+02 -0.94868410756E+02  0.11074593804E+03  0.00000000000E+00 0. -1.
</event>
<event>
 7    1  0.2900135E-009  0.1689184E+03  0.7561462E-02  0.1178981E+00
          2   -1    0    0  501    0  0.00000000000E+00  0.00000000000E+00  0.85745205794E+03  0.85745205794E+03  0.00000000000E+00 0. -1.
         -2   -1    0    0    0  501 -0.00000000000E+00 -0.00000000000E+00 -0.37257165677E+02  0.37257165677E+02  0.00000000000E+00 0.  1.
         25    2    1    2    0    0  0.13627097210E+03  0.32219296231E+02  0.35318727845E+03  0.39999541207E+03  0.12508882896E+03 0.  0.
          5    1    3    3  502    0  0.15829638536E+03  0.17612510272E+02  0.31905672177E+03  0.35662670994E+03  0.41800000000E+01 0.  1.
         -5    1    3    3    0  502 -0.22025413258E+02  0.14606785960E+02  0.34130556686E+02  0.43368702136E+02  0.41800000000E+01 0.  1.
        -11    1    1    2    0    0 -0.38365318330E+02 -0.37573156869E+02  0.86813926485E+02  0.10207985893E+03  0.00000000000E+00 0.  1.
         11    1    1    2    0    0 -0.97905653768E+02  0.53538606377E+01  0.38019368732E+03  0.39263395261E+03  0.00000000000E+00 0. -1.
</event>
<event>
 7    1  0.2900135E-009  0.2133731E+03  0.7561462E-02  0.1138922E+00
         -3   -1    0    0    0  501 -0.00000000000E+00  0.00000000000E+00  0.73915417482E+03  0.73915417482E+03  0.00000000000E+00 0.  1.
          3   -1    0    0  501    0  0.00000000000E+00 -0.00000000000E+00 -0.66032507964E+02  0.66032507964E+02  0.00000000000E+00 0. -1.
         25    2    1    2    0    0  0.96809276390E+02  0.16455632080E+03  0.31167355629E+03  0.38631344226E+03  0.12508737453E+03 0.  0.
          5    1    3    3  502    0 -0.17375485421E+02  0.50731665253E+02  0.29618463113E+02  0.61403054567E+02  0.41800000000E+01 0.  1.
         -5    1    3    3    0  502  0.11418476181E+03  0.11382465555E+03  0.28205509318E+03  0.32491038769E+03  0.41800000000E+01 0.  1.
        -11    1    1    2    0    0 -0.10648012107E+03 -0.98938273759E+02  0.24667912956E+03  0.28631694179E+03  0.00000000000E+00 0.  1.
         11    1    1    2    0    0  0.96708446759E+01 -0.65618047039E+02  0.11476898100E+03  0.13255629874E+03  0.00000000000E+00 0. -1.
</event>
<event>
 7    1  0.2900135E-009  0.1018906E+03  0.7561462E-02  0.1276370E+00
          1   -1    0    0  501    0  0.00000000000E+00  0.00000000000E+00  0.74103895107E+03  0.74103895107E+03  0.00000000000E+00 0. -1.
         -1   -1    0    0    0  501 -0.00000000000E+00 -0.00000000000E+00 -0.16305803797E+02  0.16305803797E+02  0.00000000000E+00 0.  1.
         25    2    1    2    0    0 -0.93930219462E+01 -0.76120306443E+00  0.48616409324E+03  0.50208578112E+03  0.12508316335E+03 0.  0.
          5    1    3    3  502    0  0.23222135736E+02 -0.52995411038E+02  0.16140378160E+03  0.17151219868E+03  0.41800000000E+01 0. -1.
         -5    1    3    3    0  502 -0.32615157683E+02  0.52234207973E+02  0.32476031164E+03  0.33057358244E+03  0.41800000000E+01 0. -1.
        -11    1    1    2    0    0  0.53065005470E+01 -0.41375145482E+02  0.16677778673E+03  0.17191536220E+03  0.00000000000E+00 0.  1.
         11    1    1    2    0    0  0.40865213992E+01  0.42136348546E+02  0.71791267295E+02  0.83343611547E+02  0.00000000000E+00 0. -1.
</event>
<event>
 7    1  0.2900135E-009  0.3662535E+03  0.7561462E-02  0.1056135E+00
          1   -1    0    0  501    0  0.00000000000E+00  0.00000000000E+00  0.26214232304E+04  0.26214232304E+04  0.00000000000E+00 0. -1.
         -1   -1    0    0    0  501 -0.00000000000E+00 -0.00000000000E+00 -0.70766286126E+02  0.70766286126E+02  0.00000000000E+00 0.  1.
         25    2    1    2    0    0 -0.14725522859E+03  0.33381053379E+03  0.19166086777E+04  0.19550318993E+04  0.12508928416E+03 0.  0.
          5    1    3    3  502    0 -0.16100993008E+02  0.66847390271E+02  0.17265039315E+03  0.18588557292E+03  0.41800000000E+01 0. -1.
         -5    1    3    3    0  502 -0.13115423558E+03  0.26696314352E+03  0.17439582845E+04  0.17691463264E+04  0.41800000000E+01 0. -1.
        -11    1    1    2    0    0  0.12826154654E+03 -0.31136450082E+03  0.61766493610E+03  0.70349758350E+03  0.00000000000E+00 0.  1.
         11    1    1    2    0    0  0.18993682049E+02 -0.22446032967E+02  0.16383330475E+02  0.33660033737E+02  0.00000000000E+00 0. -1.
</event>
<event>
 7    1  0.2900135E-009  0.2476179E+03  0.7561462E-02  0.1114820E+00
          1   -1    0    0  501    0  0.00000000000E+00  0.00000000000E+00  0.21114417714E+03  0.21114417714E+03  0.00000000000E+00 0. -1.
         -1   -1    0    0    0  501 -0.00000000000E+00 -0.00000000000E+00 -0.34007814065E+03  0.34007814065E+03  0.00000000000E+00 0.  1.
         25    2    1    2    0    0 -0.24130129351E+03 -0.18289773374E+02 -0.98821422308E+02  0.28978156571E+03  0.12508737850E+03 0.  0.
          5    1    3    3  502    0 -0.20210354569E+03 -0.11961693538E+02 -0.22626718559E+02  0.20376056067E+03  0.41800000000E+01 0. -1.
         -5    1    3    3    0  502 -0.39197747821E+02 -0.63280798355E+01 -0.76194703749E+02  0.86021005040E+02  0.41800000000E+01 0. -1.
        -11    1    1    2    0    0  0.37230273959E+02  0.30853592263E+02 -0.30150687471E+02  0.56983343264E+02  0.00000000000E+00 0. -1.
         11    1    1    2    0    0  0.20407101955E+03 -0.12563818889E+02  0.38146263062E-01  0.20445740882E+03  0.00000000000E+00 0.  1.
</event>
<event>
 7    1  0.2900135E-009  0.1087358E+03  0.7561462E-02  0.1262929E+00
          3   -1    0    0  501    0  0.00000000000E+00  0.00000000000E+00  0.21464649081E+03  0.21464649081E+03  0.00000000000E+00 0. -1.
         -3   -1    0    0    0  501 -0.00000000000E+00 -0.00000000000E+00 -0.60851957306E+02  0.60851957306E+02  0.00000000000E+00 0.  1.
         25    2    1    2    0    0 -0.14793519840E+02  0.22267861703E+02  0.11939078694E+03  0.17497224046E+03  0.12508564679E+03 0.  0.
          5    1    3    3  502    0 -0.67075948656E+02 -0.66362220883E+01  0.55602897584E+02  0.87477865494E+02  0.41800000000E+01 0. -1.
         -5    1    3    3    0  502  0.52282428816E+02  0.28904083791E+02  0.63787889353E+02  0.87494374967E+02  0.41800000000E+01 0. -1.
        -11    1    1    2    0    0 -0.35676591306E+02 -0.16322827765E+02  0.13696263416E+00  0.39233565123E+02  0.00000000000E+00 0.  1.
         11    1    1    2    0    0  0.50470111146E+02 -0.59450339381E+01  0.34266783934E+02  0.61292642534E+02  0.00000000000E+00 0. -1.
</event>
<event>
 7    1  0.2900135E-009  0.5617123E+02  0.7561462E-02  0.1414640E+00
          2   -1    0    0  501    0  0.00000000000E+00  0.00000000000E+00  0.13641816359E+04  0.13641816359E+04  0.00000000000E+00 0. -1.
         -2   -1    0    0    0  501 -0.00000000000E+00 -0.00000000000E+00 -0.19139823684E+02  0.19139823684E+02  0.00000000000E+00 0.  1.
         25    2    1    2    0    0  0.36367823234E+01  0.52707989323E+01  0.12258642594E+04  0.12322465265E+04  0.12508921711E+03 0.  0.
          5    1    3    3  502    0  0.32309879343E+01 -0.57540353535E+01  0.12180959426E+04  0.12181209899E+04  0.41800000000E+01 0. -1.
         -5    1    3    3    0  502  0.40579438909E+00  0.11024834286E+02  0.77683167603E+01  0.14125536641E+02  0.41800000000E+01 0. -1.
        -11    1    1    2    0    0 -0.20227496798E+02 -0.45186313373E+02  0.59905259742E+02  0.77714829265E+02  0.00000000000E+00 0.  1.
         11    1    1    2    0    0  0.16590714475E+02  0.39915514441E+02  0.59272293170E+02  0.73360103854E+02  0.00000000000E+00 0. -1.
</event>
<event>
 7    1  0.2900135E-009  0.1080783E+03  0.7561462E-02  0.1264171E+00
         -1   -1    0    0    0  501 -0.00000000000E+00  0.00000000000E+00  0.36737801367E+02  0.36737801367E+02  0.00000000000E+00 0.  1.
          1   -1    0    0  501    0  0.00000000000E+00 -0.00000000000E+00 -0.33328612539E+03  0.33328612539E+03  0.00000000000E+00 0. -1.
         25    2    1    2    0    0  0.13264584591E+02 -0.13621657848E+02 -0.14238118814E+03  0.19047125662E+03  0.12508156577E+03 0.  0.
          5    1    3    3  502    0  0.32526638160E+02 -0.62962663205E+02 -0.99307233231E+02  0.12207242981E+03  0.41800000000E+01 0.  1.
         -5    1    3    3    0  502 -0.19262053569E+02  0.49341005357E+02 -0.43073954908E+02  0.68398826808E+02  0.41800000000E+01 0.  1.
        -11    1    1    2    0    0 -0.35240541116E+02 -0.27970914112E+02 -0.76581715674E+02  0.88820194494E+02  0.00000000000E+00 0.  1.
         11    1    1    2    0    0  0.21975956525E+02  0.41592571961E+02 -0.77585420211E+02  0.90732475645E+02  0.00000000000E+00 0. -1.
</event>
<event>
 7    1  0.2900135E-009  0.1444258E+03  0.7561462E-02  0.1207495E+00
          1   -1    0    0  501    0  0.00000000000E+00  0.00000000000E+00  0.46589313249E+03  0.46589313249E+03  0.00000000000E+00 0. -1.
         -1   -1    0    0    0  501 -0.00000000000E+00 -0.00000000000E+00 -0.62047108881E+02  0.62047108881E+02  0.00000000000E+00 0.  1.
         25    2    1    2    0    0 -0.10010717152E+03  0.80584947895E+02  0.24864729516E+03  0.30657616399E+03  0.12509231518E+03 0.  0.
          5    1    3    3  502    0 -0.67192019649E+02 -0.58225154722E+01  0.17720774853E+03  0.18965423203E+03  0.41800000000E+01 0. -1.
         -5    1    3    3    0  502 -0.32915151874E+02  0.86407463367E+02  0.71439546630E+02  0.11692193195E+03  0.41800000000E+01 0. -1.
        -11    1    1    2    0    0  0.41334782455E+02 -0.37923337331E+02  0.72635785865E+01  0.56564152330E+02  0.00000000000E+00 0.  1.
         11    1    1    2    0    0  0.58772389067E+02 -0.42661610564E+02  0.14793514986E+03  0.16479992505E+03  0.00000000000E+00 0. -1.
</event>
<event>
 7    1  0.2900135E-009  0.1654519E+03  0.7561462E-02  0.1182676E+00
         -2   -1    0    0    0  501 -0.00000000000E+00  0.00000000000E+00  0.69717112740E+02  0.69717112740E+02  0.00000000000E+00 0.  1.
          2   -1    0    0  501    0  0.00000000000E+00 -0.00000000000E+00 -0.41495312669E+03  0.41495312669E+03  0.00000000000E+00 0. -1.
         25    2    1    2    0    0  0.18092151515E+02 -0.12545364899E+03 -0.16401319843E+03  0.24210245389E+03  0.12508926783E+03 0.  0.
          5    1    3    3  502    0 -0.45997483906E+02 -0.15152067845E+02 -0.30454116135E+02  0.57360956017E+02  0.41800000000E+01 0. -1.
         -5    1    3    3    0  502  0.64089635420E+02 -0.11030158114E+03 -0.13355908230E+03  0.18474149787E+03  0.41800000000E+01 0. -1.
        -11    1    1    2    0    0 -0.52306890399E+02  0.52658126359E+02 -0.52993365292E+02  0.91198606458E+02  0.00000000000E+00 0.  1.
         11    1    1    2    0    0  0.34214738885E+02  0.72795522630E+02 -0.12822945023E+03  0.15136917909E+03  0.00000000000E+00 0. -1.
</event>
<event>
 7    1  0.2900135E-009  0.1819951E+03  0.7561462E-02  0.1165886E+00
         -2   -1    0    0    0  501 -0.00000000000E+00  0.00000000000E+00  0.13093449392E+03  0.13093449392E+03  0.00000000000E+00 0.  1.
          2   -1    0    0  501    0  0.00000000000E+00 -0.00000000000E+00 -0.28766490932E+03  0.28766490932E+03  0.00000000000E+00 0. -1.
         25    2    1    2    0    0 -0.15170367836E+03  0.42117386082E+02 -0.11407051342E+03  0.23118876261E+03  0.12509309208E+03 0.  0.
          5    1    3    3  502    0 -0.15132690537E+03  0.70318637361E+02 -0.75438773957E+02  0.18317484561E+03  0.41800000000E+01 0. -1.
         -5    1    3    3    0  502 -0.37677299511E+00 -0.28201251279E+02 -0.38631739463E+02  0.48013916999E+02  0.41800000000E+01 0. -1.
        -11    1    1    2    0    0  0.11813901994E+03 -0.46135461071E+01 -0.61991536082E+02  0.13349555568E+03  0.00000000000E+00 0. -1.
         11    1    1    2    0    0  0.33564658426E+02 -0.37503839975E+02  0.19331634105E+02  0.53915084951E+02  0.00000000000E+00 0.  1.
</event>
<event>
 7    1  0.2900135E-009  0.1127844E+03  0.7561462E-02  0.1255499E+00
         -4   -1    0    0    0  501 -0.00000000000E+00  0.00000000000E+00  0.11191750902E+02  0.11191750902E+02  0.00000000000E+00 0.  1.
          4   -1    0    0  501    0  0.00000000000E+00 -0.00000000000E+00 -0.13135141066E+04  0.13135141066E+04  0.00000000000E+00 0. -1.
         25    2    1    2    0    0  0.29495327207E+02 -0.33340263010E+02 -0.91033214540E+03  0.91996464970E+03  0.12509514088E+03 0.  0.
          5    1    3    3  502    0 -0.41763862857E+02  0.81633461513E+01 -0.47126935553E+03  0.47320517571E+03  0.41800000000E+01 0. -1.
         -5    1    3    3    0  502  0.71259190064E+02 -0.41503609161E+02 -0.43906278988E+03  0.44675947399E+03  0.41800000000E+01 0. -1.
        -11    1    1    2    0    0  0.29979230240E+02 -0.36490583500E+01 -0.99504123778E+02  0.10398625160E+03  0.00000000000E+00 0.  1.
         11    1    1    2    0    0 -0.59474557447E+02  0.36989321360E+02 -0.29248608655E+03  0.30075495625E+03  0.00000000000E+00 0. -1.
</event>
<event>
 7    1  0.2900135E-009  0.1112887E+03  0.7561462E-02  0.1258202E+00
          1   -1    0    0  501    0  0.00000000000E+00  0.00000000000E+00  0.47072530798E+02  0.47072530798E+02  0.00000000000E+00 0. -1.
         -1   -1    0    0    0  501 -0.00000000000E+00 -0.00000000000E+00 -0.36797055365E+03  0.36797055365E+03  0.00000000000E+00 0.  1.
         25    2    1    2    0    0  0.70519566359E+02  0.25592411503E+02 -0.18829972502E+03  0.23818557668E+03  0.12509037425E+03 0.  0.
          5    1    3    3  502    0  0.33626699583E+02 -0.34730404437E+02 -0.15001629892E+03  0.15766838066E+03  0.41800000000E+01 0.  1.
         -5    1    3    3    0  502  0.36892866776E+02  0.60322815940E+02 -0.38283426099E+02  0.80517196025E+02  0.41800000000E+01 0.  1.
        -11    1    1    2    0    0 -0.47599736435E+02  0.20436780154E+02 -0.10816159672E+03  0.11992634363E+03  0.00000000000E+00 0.  1.
         11    1    1    2    0    0 -0.22919829924E+02 -0.46029191656E+02 -0.24436701111E+02  0.56931164132E+02  0.00000000000E+00 0. -1.
</event>
<event>
 7    1  0.2900135E-009  0.1375858E+03  0.7561462E-02  0.1216615E+00
          2   -1    0    0  501    0  0.00000000000E+00  0.00000000000E+00  0.20696920749E+03  0.20696920749E+03  0.00000000000E+00 0. -1.
         -2   -1    0    0    0  501 -0.00000000000E+00 -0.00000000000E+00 -0.15747988090E+03  0.15747988090E+03  0.00000000000E+00 0.  1.
         25    2    1    2    0    0 -0.12283400799E+03 -0.14492812766E+02 -0.50172119122E+02  0.18292949307E+03  0.12509085801E+03 0.  0.
          5    1    3    3  502    0 -0.73831965482E+02 -0.61226307510E+01  0.36676544559E+02  0.82772501805E+02  0.41800000000E+01 0. -1.
         -5    1    3    3    0  502 -0.49002042507E+02 -0.83701820152E+01 -0.86848663681E+02  0.10015699127E+03  0.41800000000E+01 0. -1.
        -11    1    1    2    0    0  0.59826608447E+02 -0.36450062484E+02  0.54497731189E+02  0.88757156546E+02  0.00000000000E+00 0.  1.
         11    1    1    2    0    0  0.63007399542E+02  0.50942875250E+02  0.45163714529E+02  0.92762438766E+02  0.00000000000E+00 0. -1.
</event>
<event>
 7    1  0.2900135E-009  0.1062862E+03  0.7561462E-02  0.1267606E+00
          1   -1    0    0  501    0  0.00000000000E+00  0.00000000000E+00  0.52396838896E+03  0.52396838896E+03  0.00000000000E+00 0. -1.
         -1   -1    0    0    0  501 -0.00000000000E+00 -0.00000000000E+00 -0.29650350993E+02  0.29650350993E+02  0.00000000000E+00 0.  1.
         25    2    1    2    0    0 -0.59688196529E+02  0.74389938429E+01  0.30074580593E+03  0.33123292767E+03  0.12509673520E+03 0.  0.
          5    1    3    3  502    0  0.14058031047E+02  0.43297618371E+02  0.17637523225E+03  0.18220320234E+03  0.41800000000E+01 0. -1.
         -5    1    3    3    0  502 -0.73746227576E+02 -0.35858624528E+02  0.12437057368E+03  0.14902972533E+03  0.41800000000E+01 0. -1.
        -11    1    1    2    0    0  0.59077969234E+02  0.16076492390E+02  0.56507679166E+02  0.83317332297E+02  0.00000000000E+00 0.  1.
         11    1    1    2    0    0  0.61022729508E+00 -0.23515486233E+02  0.13706455288E+03  0.13906847999E+03  0.00000000000E+00 0. -1.
</event>
<event>
 7    1  0.2900135E-009  0.8988120E+02  0.7561462E-02  0.1303140E+00
          1   -1    0    0  501    0  0.00000000000E+00  0.00000000000E+00  0.35434512986E+03  0.35434512986E+03  0.00000000000E+00 0. -1.
         -1   -1    0    0    0  501 -0.00000000000E+00 -0.00000000000E+00 -0.50145268893E+02  0.50145268893E+02  0.00000000000E+00 0.  1.
         25    2    1    2    0    0  0.14448366294E+02 -0.39106726022E+02  0.27579617996E+03  0.30569471348E+03  0.12509050188E+03 0.  0.
          5    1    3    3  502    0  0.22376746890E+02 -0.83292457532E+02  0.16930410694E+03  0.19005184900E+03  0.41800000000E+01 0. -1.
         -5    1    3    3    0  502 -0.79283805959E+01  0.44185731510E+02  0.10649207303E+03  0.11564286448E+03  0.41800000000E+01 0. -1.
        -11    1    1    2    0    0 -0.17441674577E+02  0.12266821808E+02 -0.28625853514E+02  0.35694907462E+02  0.00000000000E+00 0.  1.
         11    1    1    2    0    0  0.29933082825E+01  0.26839904215E+02  0.57029534520E+02  0.63100777810E+02  0.00000000000E+00 0. -1.
</event>
<event>
 7    1  0.2900135E-009  0.1544090E+03  0.7561462E-02  0.1195158E+00
          2   -1    0    0  501    0  0.00000000000E+00  0.00000000000E+00  0.47562958814E+03  0.47562958814E+03  0.00000000000E+00 0. -1.
         -2   -1    0    0    0  501 -0.00000000000E+00 -0.00000000000E+00 -0.57343414197E+02  0.57343414197E+02  0.00000000000E+00 0.  1.
         25    2    1    2    0    0  0.33039909570E+02 -0.11311298602E+03  0.16712527018E+03  0.23971763109E+03  0.12508998157E+03 0.  0.
          5    1    3    3  502    0 -0.25761025623E+02  0.44042534701E+01 -0.76116507049E+00  0.26477908944E+02  0.41800000000E+01 0. -1.
         -5    1    3    3    0  502  0.58800935193E+02 -0.11751723949E+03  0.16788643526E+03  0.21323972214E+03  0.41800000000E+01 0. -1.
        -11    1    1    2    0    0  0.20945784662E+02 -0.45378485426E+01  0.27884133091E+02  0.35168776532E+02  0.00000000000E+00 0.  1.
         11    1    1    2    0    0 -0.53985694232E+02  0.11765083456E+03  0.22327677067E+03  0.25808659472E+03  0.00000000000E+00 0. -1.
</event>
<event>
 7    1  0.2900135E-009  0.1516900E+03  0.7561462E-02  0.1198412E+00
         -2   -1    0    0    0  501 -0.00000000000E+00  0.00000000000E+00  0.43736067041E+03  0.43736067041E+03  0.00000000000E+00 0.  1.
          2   -1    0    0  501    0  0.00000000000E+00 -0.00000000000E+00 -0.15165358087E+03  0.15165358087E+03  0.00000000000E+00 0. -1.
         25    2    1    2    0    0 -0.35656025568E+02  0.11108784549E+03  0.36957947352E+03  0.40724595404E+03  0.12509363796E+03 0.  0.
          5    1    3    3  502    0  0.36878836299E+02  0.51718331005E+02  0.76542846203E+02  0.99554578165E+02  0.41800000000E+01 0. -1.
         -5    1    3    3    0  502 -0.72534861868E+02  0.59369514482E+02  0.29303662732E+03  0.30769137587E+03  0.41800000000E+01 0. -1.
        -11    1    1    2    0    0  0.59750722947E+02 -0.10536873421E+03 -0.95653359771E+02  0.15434469306E+03  0.00000000000E+00 0. -1.
         11    1    1    2    0    0 -0.24094697378E+02 -0.57191112819E+01  0.11780975784E+02  0.27423604176E+02  0.00000000000E+00 0.  1.
</event>
<event>
 7    1  0.2900135E-009  0.1129104E+03  0.7561462E-02  0.1255273E+00
          1   -1    0    0  501    0  0.00000000000E+00  0.00000000000E+00  0.63785005798E+03  0.63785005798E+03  0.00000000000E+00 0. -1.
         -1   -1    0    0    0  501 -0.00000000000E+00 -0.00000000000E+00 -0.24256231669E+02  0.24256231669E+02  0.00000000000E+00 0.  1.
         25    2    1    2    0    0 -0.36561902285E+02 -0.76861518098E+01  0.46959934662E+03  0.48740689233E+03  0.12508430243E+03 0.  0.
          5    1    3    3  502    0 -0.10260757863E+02 -0.64769347291E+02  0.19880662706E+03  0.20938457170E+03  0.41800000000E+01 0. -1.
         -5    1    3    3    0  502 -0.26301144422E+02  0.57083195481E+02  0.27079271956E+03  0.27802232063E+03  0.41800000000E+01 0. -1.
        -11    1    1    2    0    0  0.60717710045E+02  0.26749462829E+02  0.11290019054E+03  0.13095276667E+03  0.00000000000E+00 0. -1.
         11    1    1    2    0    0 -0.24155807760E+02 -0.19063311019E+02  0.31094289156E+02  0.43746630655E+02  0.00000000000E+00 0.  1.
</event>
<event>
 7    1  0.2900135E-009  0.7842857E+02  0.7561462E-02  0.1333571E+00
         -2   -1    0    0    0  501 -0.00000000000E+00  0.00000000000E+00  0.54627075313E+02  0.54627075313E+02  0.00000000000E+00 0.  1.
          2   -1    0    0  501    0  0.00000000000E+00 -0.00000000000E+00 -0.28505880987E+03  0.28505880987E+03  0.00000000000E+00 0. -1.
         25    2    1    2    0    0  0.31061900817E+02  0.49870959512E+02 -0.10438241585E+03  0.17319326786E+03  0.12509302541E+03 0.  0.
          5    1    3    3  502    0  0.27986596791E+02 -0.15615611042E+02  0.15992417343E+02  0.36060043270E+02  0.41800000000E+01 0. -1.
         -5    1    3    3    0  502  0.30753040258E+01  0.65486570554E+02 -0.12037483320E+03  0.13713322459E+03  0.41800000000E+01 0. -1.
        -11    1    1    2    0    0 -0.18600058353E+02 -0.32848500117E+02 -0.13743142040E+03  0.14252151221E+03  0.00000000000E+00 0. -1.
         11    1    1    2    0    0 -0.12461842464E+02 -0.17022459395E+02  0.11382101696E+02  0.23971105116E+02  0.00000000000E+00 0.  1.
</event>
<event>
 7    1  0.2900135E-009  0.1113404E+03  0.7561462E-02  0.1258108E+00
         -2   -1    0    0    0  501 -0.00000000000E+00  0.00000000000E+00  0.42817799628E+02  0.42817799628E+02  0.00000000000E+00 0.  1.
          2   -1    0    0  501    0  0.00000000000E+00 -0.00000000000E+00 -0.60490185563E+03  0.60490185563E+03  0.00000000000E+00 0. -1.
         25    2    1    2    0    0 -0.20852428114E+01 -0.78415205758E+02 -0.47686343061E+03  0.49919521956E+03  0.12507534949E+03 0.  0.
          5    1    3    3  502    0  0.39192910242E+02 -0.61679207307E+02 -0.12780905049E+03  0.14728555467E+03  0.41800000000E+01 0.  1.
         -5    1    3    3    0  502 -0.41278153054E+02 -0.16735998451E+02 -0.34905438012E+03  0.35190966489E+03  0.41800000000E+01 0.  1.
        -11    1    1    2    0    0 -0.33668483901E+02  0.39392387984E+02 -0.80033831497E+02  0.95345378616E+02  0.00000000000E+00 0. -1.
         11    1    1    2    0    0  0.35753726712E+02  0.39022817775E+02 -0.51867938931E+01  0.53179057079E+02  0.00000000000E+00 0.  1.
</event>
<event>
 7    1  0.3372293E-009  0.1884501E+03  0.7561462E-02  0.1159867E+00
          1   -1    0    0  501    0  0.00000000000E+00  0.00000000000E+00  0.16532608573E+04  0.16532608573E+04  0.00000000000E+00 0. -1.
         -1   -1    0    0    0  501 -0.00000000000E+00 -0.00000000000E+00 -0.22405321902E+02  0.22405321902E+02  0.00000000000E+00 0.  1.
         25    2    1    2    0    0  0.70187465711E+02 -0.13953797142E+03  0.97652053993E+03  0.99681278910E+03  0.12508495432E+03 0.  0.
          5    1    3    3  502    0 -0.18510072711E+02  0.12511193040E+02  0.15296779808E+03  0.15464725149E+03  0.41800000000E+01 0. -1.
         -5    1    3    3    0  502  0.88697538422E+02 -0.15204916446E+03  0.82355274185E+03  0.84216553761E+03  0.41800000000E+01 0. -1.
        -11    1    1    2    0    0 -0.13003141591E+02  0.11522090267E+03  0.36724446186E+03  0.38511483076E+03  0.00000000000E+00 0.  1.
         11    1    1    2    0    0 -0.57184324120E+02  0.24317068746E+02  0.28709053361E+03  0.29373855934E+03  0.00000000000E+00 0. -1.
</event>
<event>
 7    1  0.2900135E-009  0.1254739E+03  0.7561462E-02  0.1234331E+00
         -1   -1    0    0    0  501 -0.00000000000E+00  0.00000000000E+00  0.22742503870E+02  0.22742503870E+02  0.00000000000E+00 0.  1.
          1   -1    0    0  501    0  0.00000000000E+00 -0.00000000000E+00 -0.87851714706E+03  0.87851714706E+03  0.00000000000E+00 0. -1.
         25    2    1    2    0    0 -0.15111578920E+02 -0.91367512505E+02 -0.51768878907E+03  0.54057755326E+03  0.12508407816E+03 0.  0.
          5    1    3    3  502    0  0.30498049652E+02 -0.71929328497E+02 -0.14663194935E+03  0.16619976023E+03  0.41800000000E+01 0.  1.
         -5    1    3    3    0  502 -0.45609628572E+02 -0.19438184008E+02 -0.37105683972E+03  0.37437779304E+03  0.41800000000E+01 0.  1.
        -11    1    1    2    0    0  0.45715564238E+02  0.76043060309E+02 -0.20726040851E+03  0.22545362443E+03  0.00000000000E+00 0.  1.
         11    1    1    2    0    0 -0.30603985318E+02  0.15324452196E+02 -0.13082544562E+03  0.13522847323E+03  0.00000000000E+00 0. -1.
</event>
<event>
 7    1  0.2900135E-009  0.1610141E+03  0.7561462E-02  0.1187557E+00
          1   -1    0    0  501    0  0.00000000000E+00  0.00000000000E+00  0.14137290179E+03  0.14137290179E+03  0.00000000000E+00 0. -1.
         -1   -1    0    0    0  501 -0.00000000000E+00 -0.00000000000E+00 -0.23994330272E+03  0.23994330272E+03  0.00000000000E+00 0.  1.
         25    2    1    2    0    0  0.54026922625E+02  0.11982887442E+03 -0.12262497110E+03  0.21900475495E+03  0.12509329175E+03 0.  0.
          5    1    3    3  502    0  0.48400928733E+02  0.14434601632E+03 -0.87654275503E+02  0.17572469020E+03  0.41800000000E+01 0.  1.
         -5    1    3    3    0  502  0.56259938918E+01 -0.24517141905E+02 -0.34970695597E+02  0.43280064752E+02  0.41800000000E+01 0.  1.
        -11    1    1    2    0    0 -0.44755366174E+02 -0.29906721092E+02 -0.25122608216E+02  0.59402021947E+02  0.00000000000E+00 0.  1.
         11    1    1    2    0    0 -0.92715564507E+01 -0.89922153325E+02  0.49177178381E+02  0.10290942761E+03  0.00000000000E+00 0. -1.
</event>
<event>
 7    1  0.2900135E-009  0.8661504E+02  0.7561462E-02  0.1311262E+00
         -1   -1    0    0    0  501 -0.00000000000E+00  0.00000000000E+00  0.11527111397E+03  0.11527111397E+03  0.00000000000E+00 0.  1.
          1   -1    0    0  501    0  0.00000000000E+00 -0.00000000000E+00 -0.12050597180E+03  0.12050597180E+03  0.00000000000E+00 0. -1.
         25    2    1    2    0    0  0.26499207808E+02 -0.29830536510E+02 -0.22237985107E+02  0.13317147453E+03  0.12509214493E+03 0.  0.
          5    1    3    3  502    0  0.28701530545E+02 -0.56248151377E+02  0.33283293179E+02  0.71504422198E+02  0.41800000000E+01 0.  1.
         -5    1    3    3    0  502 -0.22023227376E+01  0.26417614867E+02 -0.55521278286E+02  0.61667052331E+02  0.41800000000E+01 0.  1.
        -11    1    1    2    0    0 -0.81743176155E+01 -0.24469430145E+02 -0.21483868788E+02  0.33572743383E+02  0.00000000000E+00 0. -1.
         11    1    1    2    0    0 -0.18324890192E+02  0.54299966656E+02  0.38486996058E+02  0.69032867860E+02  0.00000000000E+00 0.  1.
</event>
<event>
 7    1  0.2900135E-009  0.1026724E+03  0.7561462E-02  0.1274774E+00
          2   -1    0    0  501    0  0.00000000000E+00  0.00000000000E+00  0.38217634944E+03  0.38217634944E+03  0.00000000000E+00 0.  1.
         -2   -1    0    0    0  501 -0.00000000000E+00 -0.00000000000E+00 -0.39493430353E+02  0.39493430353E+02  0.00000000000E+00 0. -1.
         25    2    1    2    0    0  0.48312069128E+02  0.14445691284E+02  0.14205871746E+03  0.19587699166E+03  0.12507750652E+03 0.  0.
          5    1    3    3  502    0 -0.83474610786E+01  0.39011135019E+02  0.12557025209E+03  0.13182150572E+03  0.41800000000E+01 0. -1.
         -5    1    3    3    0  502  0.56659530206E+02 -0.24565443735E+02  0.16488465370E+02  0.64055485942E+02  0.41800000000E+01 0. -1.
        -11    1    1    2    0    0  0.21688325899E+02  0.16049367179E+02  0.59673184706E+02  0.65489347531E+02  0.00000000000E+00 0.  1.
         11    1    1    2    0    0 -0.70000395027E+02 -0.30495058463E+02  0.14095101693E+03  0.16030344060E+03  0.00000000000E+00 0. -1.
</event>
<event>
 7    1  0.2900135E-009  0.1443715E+03  0.7561462E-02  0.1207565E+00
         -1   -1    0    0    0  501 -0.00000000000E+00  0.00000000000E+00  0.25705982243E+03  0.25705982243E+03  0.00000000000E+00 0.  1.
          1   -1    0    0  501    0  0.00000000000E+00 -0.00000000000E+00 -0.11028794730E+03  0.11028794730E+03  0.00000000000E+00 0. -1.
         25    2    1    2    0    0  0.11888262879E+03 -0.28403021286E+02  0.12208697500E+03  0.21328912400E+03  0.12508880807E+03 0.  0.
          5    1    3    3  502    0  0.56029873268E+02  0.28757048839E+02  0.11075534778E+03  0.12747758242E+03  0.41800000000E+01 0.  1.
         -5    1    3    3    0  502  0.62852755518E+02 -0.57160070125E+02  0.11331627219E+02  0.85811541580E+02  0.41800000000E+01 0.  1.
        -11    1    1    2    0    0 -0.37884459929E+02  0.44018208841E+02  0.39517944769E+02  0.70246017485E+02  0.00000000000E+00 0.  1.
         11    1    1    2    0    0 -0.80998168857E+02 -0.15615187555E+02 -0.14833044645E+02  0.83812628249E+02  0.00000000000E+00 0. -1.
</event>
<event>
 7    1  0.2900135E-009  0.1030449E+03  0.7561462E-02  0.1274020E+00
          3   -1    0    0  501    0  0.00000000000E+00  0.00000000000E+00  0.22515933803E+03  0.22515933803E+03  0.00000000000E+00 0. -1.
         -3   -1    0    0    0  501 -0.00000000000E+00 -0.00000000000E+00 -0.10449684004E+03  0.10449684004E+03  0.00000000000E+00 0.  1.
         25    2    1    2    0    0 -0.67980642167E+02 -0.41969353293E+01  0.15701891881E+03  0.21199394435E+03  0.12509000600E+03 0.  0.
          5    1    3    3  502    0  0.11789414510E+02 -0.74826023136E+01 -0.15850221976E+02  0.21533266556E+02  0.41800000000E+01 0. -1.
         -5    1    3    3    0  502 -0.79770056677E+02  0.32856669843E+01  0.17286914079E+03  0.19046067779E+03  0.41800000000E+01 0. -1.
        -11    1    1    2    0    0  0.53327227149E+02 -0.38925674118E+02 -0.17006460781E+02  0.68177862750E+02  0.00000000000E+00 0. -1.
         11    1    1    2    0    0  0.14653415018E+02  0.43122609448E+02 -0.19349960033E+02  0.49484370973E+02  0.00000000000E+00 0.  1.
</event>
<event>
 7    1  0.2900135E-009  0.8243082E+02  0.7561462E-02  0.1322291E+00
          2   -1    0    0  501    0  0.00000000000E+00  0.00000000000E+00  0.29626165088E+03  0.29626165088E+03  0.00000000000E+00 0. -1.
         -2   -1    0    0    0  501 -0.00000000000E+00 -0.00000000000E+00 -0.61756360513E+02  0.61756360513E+02  0.00000000000E+00 0.  1.
         25    2    1    2    0    0 -0.23146526454E+01  0.41549593400E+02  0.21927017492E+03  0.25584828519E+03  0.12508880483E+03 0.  0.
          5    1    3    3  502    0  0.36074947964E+02  0.18858912989E+02  0.20469753333E+03  0.20874772579E+03  0.41800000000E+01 0.  1.
         -5    1    3    3    0  502 -0.38389600610E+02  0.22690680411E+02  0.14572641586E+02  0.47100559395E+02  0.41800000000E+01 0.  1.
        -11    1    1    2    0    0  0.20972712299E+02  0.10789806063E+02 -0.24385331897E+02  0.33925196945E+02  0.00000000000E+00 0.  1.
         11    1    1    2    0    0 -0.18658059654E+02 -0.52339399463E+02  0.39620447339E+02  0.68244529257E+02  0.00000000000E+00 0. -1.
</event>
<event>
 7    1  0.2900135E-009  0.1407422E+03  0.7561462E-02  0.1212334E+00
         -2   -1    0    0    0  501 -0.00000000000E+00  0.00000000000E+00  0.18913939927E+02  0.18913939927E+02  0.00000000000E+00 0.  1.
          2   -1    0    0  501    0  0.00000000000E+00 -0.00000000000E+00 -0.11843533101E+04  0.11843533101E+04  0.00000000000E+00 0. -1.
         25    2    1    2    0    0  0.62055079048E+02 -0.78231915800E+02 -0.75859543554E+03  0.77529685625E+03  0.12508842874E+03 0.  0.
          5    1    3    3  502    0 -0.35481845988E+02 -0.20693661688E+02 -0.30396052887E+03  0.30675179631E+03  0.41800000000E+01 0. -1.
         -5    1    3    3    0  502  0.97536925036E+02 -0.57538254112E+02 -0.45463490667E+03  0.46854505994E+03  0.41800000000E+01 0. -1.
        -11    1    1    2    0    0 -0.69906212118E+02  0.26829881286E+02 -0.29917236344E+03  0.30840042813E+03  0.00000000000E+00 0.  1.
         11    1    1    2    0    0  0.78511330695E+01  0.51402034514E+02 -0.10767157121E+03  0.11956996567E+03  0.00000000000E+00 0. -1.
</event>
<event>
 7    1  0.2900135E-009  0.1665122E+03  0.7561462E-02  0.1181535E+00
         -1   -1    0    0    0  501 -0.00000000000E+00  0.00000000000E+00  0.15598310674E+03  0.15598310674E+03  0.00000000000E+00 0.  1.
          1   -1    0    0  501    0  0.00000000000E+00 -0.00000000000E+00 -0.20047513888E+03  0.20047513888E+03  0.00000000000E+00 0. -1.
         25    2    1    2    0    0 -0.12322824171E+03 -0.48295256055E+02 -0.61961224767E+02  0.19236440576E+03  0.12508892804E+03 0.  0.
          5    1    3    3  502    0 -0.50388753137E+00  0.27149521654E+02 -0.37021415607E+02  0.46102147913E+02  0.41800000000E+01 0. -1.
         -5    1    3    3    0  502 -0.12272435417E+03 -0.75444777709E+02 -0.24939809160E+02  0.14626225785E+03  0.41800000000E+01 0. -1.
        -11    1    1    2    0    0  0.35626246712E+02 -0.27960085855E+02 -0.57562009402E+01  0.45652269440E+02  0.00000000000E+00 0. -1.
         11    1    1    2    0    0  0.87601994994E+02  0.76255341911E+02  0.23225393567E+02  0.11844157042E+03  0.00000000000E+00 0.  1.
</event>
<event>
 7    1  0.2900135E-009  0.1613946E+03  0.7561462E-02  0.1187131E+00
          1   -1    0    0  501    0  0.00000000000E+00  0.00000000000E+00  0.10049972861E+04  0.10049972861E+04  0.00000000000E+00 0. -1.
         -1   -1    0    0    0  501 -0.00000000000E+00 -0.00000000000E+00 -0.27705817038E+02  0.27705817038E+02  0.00000000000E+00 0.  1.
         25    2    1    2    0    0 -0.10660270507E+03 -0.62154648140E+02  0.44537631142E+03  0.47878429916E+03  0.12508800636E+03 0.  0.
          5    1    3    3  502    0  0.25137208392E+02 -0.68136283228E+01  0.12814164760E+03  0.13082835712E+03  0.41800000000E+01 0.  1.
         -5    1    3    3    0  502 -0.13173991346E+03 -0.55341019817E+02  0.31723466382E+03  0.34795594204E+03  0.41800000000E+01 0.  1.
        -11    1    1    2    0    0  0.57197368540E+02  0.82200072347E+02  0.31433495636E+03  0.32990128167E+03  0.00000000000E+00 0.  1.
         11    1    1    2    0    0  0.49405336529E+02 -0.20045424207E+02  0.21758020133E+03  0.22401752235E+03  0.00000000000E+00 0. -1.
</event>
<event>
 6    1  0.2900135E-009  0.1960086E+03  0.7561462E-02  0.1153151E+00
         -2   -1    0    0    0  501 -0.00000000000E+00  0.00000000000E+00  0.71589926655E+02  0.71589926655E+02  0.00000000000E+00 0.  1.
          2   -1    0    0  501    0  0.00000000000E+00 -0.00000000000E+00 -0.60130465182E+03  0.60130465182E+03  0.00000000000E+00 0. -1.
          5    1    1    2  502    0 -0.51698082060E+01  0.34263969601E+02 -0.38297407841E+02  0.51816120822E+02  0.41800000000E+01 0.  1.
         -5    1    1    2    0  502 -0.15341364641E+03 -0.73061456076E+02 -0.13069018139E+03  0.21440876657E+03  0.41800000000E+01 0.  1.
        -11    1    1    2    0    0  0.10123732967E+03 -0.21961870629E+02 -0.18305645816E+03  0.21033541678E+03  0.00000000000E+00 0. -1.
         11    1    1    2    0    0  0.57346124950E+02  0.60759357104E+02 -0.17767067778E+03  0.19633427430E+03  0.00000000000E+00 0.  1.
</event>
<event>
 7    1  0.2900135E-009  0.1142448E+03  0.7561462E-02  0.1252905E+00
         -2   -1    0    0    0  501 -0.00000000000E+00  0.00000000000E+00  0.12579350419E+02  0.12579350419E+02  0.00000000000E+00 0.  1.
          2   -1    0    0  501    0  0.00000000000E+00 -0.00000000000E+00 -0.10904759192E+04  0.10904759192E+04  0.00000000000E+00 0. -1.
         25    2    1    2    0    0 -0.42989014864E+02  0.17765834805E+01 -0.64955536865E+03  0.66288827161E+03  0.12508985585E+03 0.  0.
          5    1    3    3  502    0 -0.60332522562E+02  0.50184247745E+02 -0.44765848317E+03  0.45450419355E+03  0.41800000000E+01 0. -1.
         -5    1    3    3    0  502  0.17343507698E+02 -0.48407664265E+02 -0.20189688548E+03  0.20838407805E+03  0.41800000000E+01 0. -1.
        -11    1    1    2    0    0  0.60371335624E+02 -0.28240404165E+02 -0.33605169466E+03  0.34259737313E+03  0.00000000000E+00 0.  1.
         11    1    1    2    0    0 -0.17382320760E+02  0.26463820685E+02 -0.92289505443E+02  0.97569624859E+02  0.00000000000E+00 0. -1.
</event>
<event>
 7    1  0.2900135E-009  0.1333012E+03  0.7561462E-02  0.1222638E+00
          1   -1    0    0  501    0  0.00000000000E+00  0.00000000000E+00  0.28124001081E+03  0.28124001081E+03  0.00000000000E+00 0. -1.
         -1   -1    0    0    0  501 -0.00000000000E+00 -0.00000000000E+00 -0.76075530185E+02  0.76075530185E+02  0.00000000000E+00 0.  1.
         25    2    1    2    0    0  0.91277120137E+01 -0.90921923502E+02  0.15388836818E+03  0.21835508169E+03  0.12508877064E+03 0.  0.
          5    1    3    3  502    0  0.46977650690E+02 -0.87658392495E+02  0.58177222267E+02  0.11529507808E+03  0.41800000000E+01 0.  1.
         -5    1    3    3    0  502 -0.37849938677E+02 -0.32635310072E+01  0.95711145909E+02  0.10306000361E+03  0.41800000000E+01 0.  1.
        -11    1    1    2    0    0 -0.48964609232E+02  0.35025021567E+02  0.28783919407E+02  0.66729297235E+02  0.00000000000E+00 0.  1.
         11    1    1    2    0    0  0.39836897219E+02  0.55896901935E+02  0.22492193039E+02  0.72231162068E+02  0.00000000000E+00 0. -1.
</event>
<event>
 7    1  0.2900135E-009  0.1015833E+03  0.7561462E-02  0.1277001E+00
         -3   -1    0    0    0  501 -0.00000000000E+00  0.00000000000E+00  0.26978264037E+03  0.26978264037E+03  0.00000000000E+00 0.  1.
          3   -1    0    0  501    0  0.00000000000E+00 -0.00000000000E+00 -0.68699099859E+02  0.68699099859E+02  0.00000000000E+00 0. -1.
         25    2    1    2    0    0 -0.33544146712E+02 -0.21374741480E+02  0.19879651522E+03  0.23822243639E+03  0.12509110834E+03 0.  0.
          5    1    3    3  502    0 -0.60873208725E+02 -0.52037976629E+02  0.16975801298E+03  0.18774651508E+03  0.41800000000E+01 0. -1.
         -5    1    3    3    0  502  0.27329062014E+02  0.30663235148E+02  0.29038502233E+02  0.50475921312E+02  0.41800000000E+01 0. -1.
        -11    1    1    2    0    0  0.33276475705E+02  0.46157760952E+02 -0.26076652996E+02  0.62592767656E+02  0.00000000000E+00 0. -1.
         11    1    1    2    0    0  0.26767100679E+00 -0.24783019471E+02  0.28363678292E+02  0.37666536185E+02  0.00000000000E+00 0.  1.
</event>
<event>
 6    1  0.2900135E-009  0.1085303E+03  0.7561462E-02  0.1263316E+00
          1   -1    0    0  501    0  0.00000000000E+00  0.00000000000E+00  0.47622642671E+03  0.47622642671E+03  0.00000000000E+00 0. -1.
         -1   -1    0    0    0  501 -0.00000000000E+00 -0.00000000000E+00 -0.34468742989E+02  0.34468742989E+02  0.00000000000E+00 0.  1.
          5    1    1    2  502    0  0.51887326054E+02  0.21938389311E+02  0.18067101888E+03  0.18929626777E+03  0.41800000000E+01 0. -1.
         -5    1    1    2    0  502 -0.71501472421E+02  0.55370030242E+01  0.17307349575E+03  0.18739003786E+03  0.41800000000E+01 0. -1.
        -11    1    1    2    0    0  0.12810787058E+02  0.29076813028E+02  0.65427106132E+02  0.72734335342E+02  0.00000000000E+00 0. -1.
         11    1    1    2    0    0  0.68033593080E+01 -0.56552205362E+02  0.22586062962E+02  0.61274528716E+02  0.00000000000E+00 0.  1.
</event>
<event>
 7    1  0.2900135E-009  0.9772187E+02  0.7561462E-02  0.1285161E+00
         -1   -1    0    0    0  501 -0.00000000000E+00  0.00000000000E+00  0.10602024358E+03  0.10602024358E+03  0.00000000000E+00 0.  1.
          1   -1    0    0  501    0  0.00000000000E+00 -0.00000000000E+00 -0.26473549069E+03  0.26473549069E+03  0.00000000000E+00 0. -1.
         25    2    1    2    0    0  0.25825674501E+02 -0.37774028906E+02  0.46553006664E+02  0.14109768993E+03  0.12509009933E+03 0.  0.
          5    1    3    3  502    0 -0.28665270547E+01 -0.80891764749E+02  0.24713615367E+02  0.84734466222E+02  0.41800000000E+01 0.  1.
         -5    1    3    3    0  502  0.28692201556E+02  0.43117735842E+02  0.21839391297E+02  0.56363223706E+02  0.41800000000E+01 0.  1.
        -11    1    1    2    0    0  0.78655746306E+01  0.25320401281E+02 -0.60078984416E+01  0.27186114636E+02  0.00000000000E+00 0.  1.
         11    1    1    2    0    0 -0.33691249132E+02  0.12453627625E+02 -0.19926035533E+03  0.20247192970E+03  0.00000000000E+00 0. -1.
</event>
<event>
 7    1  0.2900135E-009  0.8354650E+02  0.7561462E-02  0.1319278E+00
          1   -1    0    0  501    0  0.00000000000E+00  0.00000000000E+00  0.10916807464E+03  0.10916807464E+03  0.00000000000E+00 0. -1.
         -1   -1    0    0    0  501 -0.00000000000E+00 -0.00000000000E+00 -0.18119622186E+03  0.18119622186E+03  0.00000000000E+00 0.  1.
         25    2    1    2    0    0 -0.28318422445E+02  0.40831766801E+02 -0.11576696547E+03  0.17753634956E+03  0.12509196174E+03 0.  0.
          5    1    3    3  502    0  0.33458744040E+02 -0.98583427716E+01  0.19634743912E+01  0.35185254108E+02  0.41800000000E+01 0. -1.
         -5    1    3    3    0  502 -0.61777166486E+02  0.50690109573E+02 -0.11773043986E+03  0.14235109545E+03  0.41800000000E+01 0. -1.
        -11    1    1    2    0    0  0.17991500242E+02 -0.12834038875E+02 -0.27683020729E+02  0.35422539032E+02  0.00000000000E+00 0.  1.
         11    1    1    2    0    0  0.10326922204E+02 -0.27997727926E+02  0.71421838979E+02  0.77405407914E+02  0.00000000000E+00 0. -1.
</event>
<event>
 7    1  0.2900135E-009  0.6012488E+02  0.7561462E-02  0.1397308E+00
          2   -1    0    0  501    0  0.00000000000E+00  0.00000000000E+00  0.69428819370E+03  0.69428819370E+03  0.00000000000E+00 0. -1.
         -2   -1    0    0    0  501 -0.00000000000E+00 -0.00000000000E+00 -0.19156404207E+02  0.19156404207E+02  0.00000000000E+00 0.  1.
         25    2    1    2    0    0 -0.33494438946E+01  0.33825573080E+00  0.26066887113E+03  0.28914818920E+03  0.12508829582E+03 0.  0.
          5    1    3    3  502    0 -0.13763423241E+02 -0.81970347165E+01 -0.91804393692E+01  0.18930823132E+02  0.41800000000E+01 0.  1.
         -5    1    3    3    0  502  0.10413979346E+02  0.85352904473E+01  0.26984931050E+03  0.27021736607E+03  0.41800000000E+01 0.  1.
        -11    1    1    2    0    0  0.39233013140E+02  0.24225284037E+02  0.24782166593E+03  0.25207473458E+03  0.00000000000E+00 0.  1.
         11    1    1    2    0    0 -0.35883569245E+02 -0.24563539768E+02  0.16664125243E+03  0.17222167413E+03  0.00000000000E+00 0. -1.
</event>
<event>
 7    1  0.2900135E-009  0.1198591E+03  0.7561462E-02  0.1243330E+00
          1   -1    0    0  501    0  0.00000000000E+00  0.00000000000E+00  0.86258712188E+03  0.86258712188E+03  0.00000000000E+00 0. -1.
         -1   -1    0    0    0  501 -0.00000000000E+00 -0.00000000000E+00 -0.82488935832E+02  0.82488935832E+02  0.00000000000E+00 0.  1.
         25    2    1    2    0    0 -0.35682281059E+02 -0.89459874952E+02  0.79619677489E+03  0.81169776748E+03  0.12509063506E+03 0.  0.
          5    1    3    3  502    0  0.18492554100E+02 -0.17128241217E+02  0.26901371715E+02  0.37101312706E+02  0.41800000000E+01 0.  1.
         -5    1    3    3    0  502 -0.54174835159E+02 -0.72331633735E+02  0.76929540318E+03  0.77459645478E+03  0.41800000000E+01 0.  1.
        -11    1    1    2    0    0 -0.24857797254E+02  0.27676224574E+02  0.16819269475E+02  0.40826110721E+02  0.00000000000E+00 0. -1.
         11    1    1    2    0    0  0.60540078313E+02  0.61783650378E+02 -0.32917858316E+02  0.92552179511E+02  0.00000000000E+00 0.  1.
</event>
<event>
 7    1  0.2900135E-009  0.1087466E+03  0.7561462E-02  0.1262909E+00
          2   -1    0    0  501    0  0.00000000000E+00  0.00000000000E+00  0.34629909449E+03  0.34629909449E+03  0.00000000000E+00 0. -1.
         -2   -1    0    0    0  501 -0.00000000000E+00 -0.00000000000E+00 -0.11387874271E+03  0.11387874271E+03  0.00000000000E+00 0.  1.
         25    2    1    2    0    0  0.43183899724E+02 -0.68741642880E+02 -0.45795245432E+02  0.15600473060E+03  0.12509999522E+03 0.  0.
          5    1    3    3  502    0  0.15820898146E+02  0.26635102388E+02  0.19783295111E+02  0.36994332847E+02  0.41800000000E+01 0.  1.
         -5    1    3    3    0  502  0.27363001578E+02 -0.95376745268E+02 -0.65578540543E+02  0.11901039775E+03  0.41800000000E+01 0.  1.
        -11    1    1    2    0    0 -0.13702909856E+02  0.50331727403E+02  0.25951282568E+03  0.26470353079E+03  0.00000000000E+00 0. -1.
         11    1    1    2    0    0 -0.29480989867E+02  0.18409915478E+02  0.18702771532E+02  0.39469575808E+02  0.00000000000E+00 0.  1.
</event>
<event>
 7    1  0.2900135E-009  0.1353452E+03  0.7561462E-02  0.1219733E+00
          2   -1    0    0  501    0  0.00000000000E+00  0.00000000000E+00  0.18039865513E+03  0.18039865513E+03  0.00000000000E+00 0. -1.
         -2   -1    0    0    0  501 -0.00000000000E+00 -0.00000000000E+00 -0.11793539153E+03  0.11793539153E+03  0.00000000000E+00 0.  1.
         25    2    1    2    0    0 -0.96780145592E+02 -0.26945302033E+02  0.50179549328E+01  0.16051158419E+03  0.12508534248E+03 0.  0.
          5    1    3    3  502    0 -0.81466644830E+01  0.37706842210E+02  0.28620274473E+02  0.48215833526E+02  0.41800000000E+01 0.  1.
         -5    1    3    3    0  502 -0.88633481109E+02 -0.64652144243E+02 -0.23602319540E+02  0.11229575066E+03  0.41800000000E+01 0.  1.
        -11    1    1    2    0    0  0.98604287394E+02  0.41825862490E+02  0.38850280654E+02  0.11393661647E+03  0.00000000000E+00 0.  1.
         11    1    1    2    0    0 -0.18241418016E+01 -0.14880560457E+02  0.18595028006E+02  0.23885846005E+02  0.00000000000E+00 0. -1.
</event>
<event>
 7    1  0.2900135E-009  0.9884827E+02  0.7561462E-02  0.1282737E+00
         -2   -1    0    0    0  501 -0.00000000000E+00  0.00000000000E+00  0.14099264402E+03  0.14099264402E+03  0.00000000000E+00 0.  1.
          2   -1    0    0  501    0  0.00000000000E+00 -0.00000000000E+00 -0.10858380824E+03  0.10858380824E+03  0.00000000000E+00 0. -1.
         25    2    1    2    0    0 -0.49137734924E+02 -0.12871390266E+02  0.37312442604E+02  0.14007067486E+03  0.12508951156E+03 0.  0.
          5    1    3    3  502    0 -0.21139018956E+02 -0.43073610871E+02  0.71618920573E+02  0.86307220208E+02  0.41800000000E+01 0.  1.
         -5    1    3    3    0  502 -0.27998715967E+02  0.30202220605E+02 -0.34306477970E+02  0.53763454651E+02  0.41800000000E+01 0.  1.
        -11    1    1    2    0    0  0.30323387311E+02 -0.41046212509E+02  0.59484864199E+01  0.51377853886E+02  0.00000000000E+00 0. -1.
         11    1    1    2    0    0  0.18814347613E+02  0.53917602775E+02 -0.10852093240E+02  0.58127923520E+02  0.00000000000E+00 0.  1.
</event>
<event>
 7    1  0.2900135E-009  0.9276370E+02  0.7561462E-02  0.1296294E+00
         -2   -1    0    0    0  501 -0.00000000000E+00  0.00000000000E+00  0.32893305626E+02  0.32893305626E+02  0.00000000000E+00 0.  1.
          2   -1    0    0  501    0  0.00000000000E+00 -0.00000000000E+00 -0.46441982885E+03  0.46441982885E+03  0.00000000000E+00 0. -1.
         25    2    1    2    0    0  0.48919971137E+02 -0.23817506338E+02 -0.28566697610E+03  0.31656546903E+03  0.12509051830E+03 0.  0.
          5    1    3    3  502    0  0.78253883553E+02  0.10534258557E+02 -0.23786940509E+03  0.25066704445E+03  0.41800000000E+01 0. -1.
         -5    1    3    3    0  502 -0.29333912416E+02 -0.34351764895E+02 -0.47797571005E+02  0.65898424586E+02  0.41800000000E+01 0. -1.
        -11    1    1    2    0    0 -0.20986476835E+02  0.25598698565E+02 -0.90360997938E+00  0.33114076904E+02  0.00000000000E+00 0.  1.
         11    1    1    2    0    0 -0.27933494302E+02 -0.17811922272E+01 -0.14495593715E+03  0.14763358854E+03  0.00000000000E+00 0. -1.
</event>
<event>
 7    1  0.2900135E-009  0.1311607E+03  0.7561462E-02  0.1225744E+00
          2   -1    0    0  501    0  0.00000000000E+00  0.00000000000E+00  0.13735759065E+03  0.13735759065E+03  0.00000000000E+00 0. -1.
         -2   -1    0    0    0  501 -0.00000000000E+00 -0.00000000000E+00 -0.14127443551E+03  0.14127443551E+03  0.00000000000E+00 0.  1.
         25    2    1    2    0    0  0.64904701444E+02 -0.34655412540E+02  0.40112836860E+02  0.15056632714E+03  0.12509021264E+03 0.  0.
          5    1    3    3  502    0 -0.34835118503E+02  0.42850112289E+01 -0.20759870304E+01  0.35406622608E+02  0.41800000000E+01 0.  1.
         -5    1    3    3    0  502  0.99739819948E+02 -0.38940423769E+02  0.42188823890E+02  0.11515970453E+03  0.41800000000E+01 0.  1.
        -11    1    1    2    0    0 -0.58266943228E+02  0.65850936319E+02 -0.37059657564E+02  0.95419079360E+02  0.00000000000E+00 0.  1.
         11    1    1    2    0    0 -0.66377582166E+01 -0.31195523779E+02 -0.69700241557E+01  0.32646619652E+02  0.00000000000E+00 0. -1.
</event>
<event>
 7    1  0.2900135E-009  0.7966264E+02  0.7561462E-02  0.1330012E+00
          3   -1    0    0  501    0  0.00000000000E+00  0.00000000000E+00  0.72828943525E+02  0.72828943525E+02  0.00000000000E+00 0. -1.
         -3   -1    0    0    0  501 -0.00000000000E+00 -0.00000000000E+00 -0.24711423671E+03  0.24711423671E+03  0.00000000000E+00 0.  1.
         25    2    1    2    0    0  0.51509057309E+02  0.37129432535E+02 -0.14992283156E+03  0.20531384579E+03  0.12508054247E+03 0.  0.
          5    1    3    3  502    0  0.39056228941E+02  0.38822271138E+02 -0.42319915959E+00  0.55228699541E+02  0.41800000000E+01 0. -1.
         -5    1    3    3    0  502  0.12452828368E+02 -0.16928386034E+01 -0.14949963240E+03  0.15008514625E+03  0.41800000000E+01 0. -1.
        -11    1    1    2    0    0  0.15687181017E+02 -0.81050048368E+01 -0.36393247512E+02  0.40450552730E+02  0.00000000000E+00 0.  1.
         11    1    1    2    0    0 -0.67196238326E+02 -0.29024427698E+02  0.12030785883E+02  0.74178781719E+02  0.00000000000E+00 0. -1.
</event>
<event>
 7    1  0.2900135E-009  0.1926111E+03  0.7561462E-02  0.1156127E+00
          1   -1    0    0  501    0  0.00000000000E+00  0.00000000000E+00  0.14594190382E+04  0.14594190382E+04  0.00000000000E+00 0. -1.
         -1   -1    0    0    0  501 -0.00000000000E+00 -0.00000000000E+00 -0.28143055294E+02  0.28143055294E+02  0.00000000000E+00 0.  1.
         25    2    1    2    0    0 -0.10123452924E+03 -0.13287413903E+03  0.63365665997E+03  0.66713989415E+03  0.12510359274E+03 0.  0.
          5    1    3    3  502    0 -0.19246001783E+02 -0.10450496756E+03  0.46979457626E+03  0.48168050938E+03  0.41800000000E+01 0. -1.
         -5    1    3    3    0  502 -0.81988527460E+02 -0.28369171465E+02  0.16386208371E+03  0.18545938478E+03  0.41800000000E+01 0. -1.
        -11    1    1    2    0    0  0.11900760362E+03  0.12496349375E+03  0.72300305150E+03  0.74331157463E+03  0.00000000000E+00 0. -1.
         11    1    1    2    0    0 -0.17773074375E+02  0.79106452762E+01  0.74616271481E+02  0.77110624762E+02  0.00000000000E+00 0.  1.
</event>
<event>
 7    1  0.2900135E-009  0.2599524E+03  0.7561462E-02  0.1107172E+00
          1   -1    0    0  501    0  0.00000000000E+00  0.00000000000E+00  0.57362050510E+03  0.57362050510E+03  0.00000000000E+00 0. -1.
         -1   -1    0    0    0  501 -0.00000000000E+00 -0.00000000000E+00 -0.14786185527E+03  0.14786185527E+03  0.00000000000E+00 0.  1.
         25    2    1    2    0    0  0.23586898907E+03 -0.87549201007E+02  0.34782231919E+03  0.44713201338E+03  0.12509048348E+03 0.  0.
          5    1    3    3  502    0  0.66900700597E+01 -0.25070046046E+02  0.10173480085E+03  0.10507476553E+03  0.41800000000E+01 0. -1.
         -5    1    3    3    0  502  0.22917891901E+03 -0.62479154961E+02  0.24608751834E+03  0.34205724785E+03  0.41800000000E+01 0. -1.
        -11    1    1    2    0    0 -0.18211679265E+03  0.88058008901E+02  0.86337958047E+02  0.21994313378E+03  0.00000000000E+00 0. -1.
         11    1    1    2    0    0 -0.53752196426E+02 -0.50880789354E+00 -0.84016274051E+01  0.54407213208E+02  0.00000000000E+00 0.  1.
</event>
<event>
 7    1  0.2900135E-009  0.7252973E+02  0.7561462E-02  0.1351696E+00
          1   -1    0    0  501    0  0.00000000000E+00  0.00000000000E+00  0.13860922742E+03  0.13860922742E+03  0.00000000000E+00 0. -1.
         -1   -1    0    0    0  501 -0.00000000000E+00 -0.00000000000E+00 -0.16990407986E+03  0.16990407986E+03  0.00000000000E+00 0.  1.
         25    2    1    2    0    0 -0.31379501514E+01  0.61981939432E+02  0.71778678444E+02  0.15700643512E+03  0.12508890615E+03 0.  0.
          5    1    3    3  502    0 -0.73143172618E+01  0.17342851361E+00  0.91478607913E+02  0.91865866458E+02  0.41800000000E+01 0.  1.
         -5    1    3    3    0  502  0.41763671103E+01  0.61808510919E+02 -0.19699929469E+02  0.65140568660E+02  0.41800000000E+01 0.  1.
        -11    1    1    2    0    0  0.21790787174E+02 -0.25297838436E+02  0.68919844518E+01  0.34092792272E+02  0.00000000000E+00 0. -1.
         11    1    1    2    0    0 -0.18652837023E+02 -0.36684100997E+02 -0.10996551533E+03  0.11741407990E+03  0.00000000000E+00 0.  1.
</event>
<event>
 7    1  0.2900135E-009  0.1863276E+03  0.7561462E-02  0.1161816E+00
         -3   -1    0    0    0  501 -0.00000000000E+00  0.00000000000E+00  0.18333049246E+04  0.18333049246E+04  0.00000000000E+00 0.  1.
          3   -1    0    0  501    0  0.00000000000E+00 -0.00000000000E+00 -0.29874972959E+02  0.29874972959E+02  0.00000000000E+00 0. -1.
         25    2    1    2    0    0 -0.49484828626E+02  0.16393964731E+03  0.13999693961E+04  0.14159377598E+04  0.12506187831E+03 0.  0.
          5    1    3    3  502    0  0.33320988909E+02  0.39080841306E+02  0.19540331357E+03  0.20208297260E+03  0.41800000000E+01 0.  1.
         -5    1    3    3    0  502 -0.82805817535E+02  0.12485880600E+03  0.12045660825E+04  0.12138547872E+04  0.41800000000E+01 0.  1.
        -11    1    1    2    0    0  0.13227088647E+02 -0.45237758013E+02  0.35769650374E+02  0.59168222147E+02  0.00000000000E+00 0. -1.
         11    1    1    2    0    0  0.36257739979E+02 -0.11870188930E+03  0.36769090519E+03  0.38807391563E+03  0.00000000000E+00 0.  1.
</event>
<event>
 7    1  0.2900135E-009  0.2438144E+03  0.7561462E-02  0.1117278E+00
          1   -1    0    0  501    0  0.00000000000E+00  0.00000000000E+00  0.31209804281E+03  0.31209804281E+03  0.00000000000E+00 0. -1.
         -1   -1    0    0    0  501 -0.00000000000E+00 -0.00000000000E+00 -0.20535111136E+03  0.20535111136E+03  0.00000000000E+00 0.  1.
         25    2    1    2    0    0  0.21817586490E+03 -0.23307766205E+02 -0.98752899907E+01  0.25276275882E+03  0.12509009115E+03 0.  0.
          5    1    3    3  502    0  0.16104070857E+03 -0.72876842187E+02 -0.65467290170E+01  0.17693353556E+03  0.41800000000E+01 0. -1.
         -5    1    3    3    0  502  0.57135156328E+02  0.49569075983E+02 -0.33285609737E+01  0.75829223262E+02  0.41800000000E+01 0. -1.
        -11    1    1    2    0    0 -0.68134521760E+02 -0.31837575575E+02  0.55824817632E+02  0.93660848478E+02  0.00000000000E+00 0. -1.
         11    1    1    2    0    0 -0.15004134314E+03  0.55145341779E+02  0.60797403805E+02  0.17102554687E+03  0.00000000000E+00 0.  1.
</event>
<event>
 7    1  0.2900135E-009  0.1001722E+03  0.7561462E-02  0.1279934E+00
          2   -1    0    0  501    0  0.00000000000E+00  0.00000000000E+00  0.19829456480E+03  0.19829456480E+03  0.00000000000E+00 0. -1.
         -2   -1    0    0    0  501 -0.00000000000E+00 -0.00000000000E+00 -0.65465639681E+02  0.65465639681E+02  0.00000000000E+00 0.  1.
         25    2    1    2    0    0  0.28226664996E+02  0.20629493868E+02  0.77601268229E+02  0.15130266890E+03  0.12509284613E+03 0.  0.
          5    1    3    3  502    0 -0.23308837565E+02  0.40853763905E+02 -0.93505164731E+01  0.48137682663E+02  0.41800000000E+01 0. -1.
         -5    1    3    3    0  502  0.51535502561E+02 -0.20224270037E+02  0.86951784702E+02  0.10316498624E+03  0.41800000000E+01 0. -1.
        -11    1    1    2    0    0  0.33453846832E+02 -0.10742762026E+02  0.15325735432E+02  0.38333340193E+02  0.00000000000E+00 0.  1.
         11    1    1    2    0    0 -0.61680511828E+02 -0.98867318416E+01  0.39901921461E+02  0.74124195390E+02  0.00000000000E+00 0. -1.
</event>
<event>
 7    1  0.2900135E-009  0.5821778E+02  0.7561462E-02  0.1405467E+00
          3   -1    0    0  501    0  0.00000000000E+00  0.00000000000E+00  0.62369960866E+02  0.62369960866E+02  0.00000000000E+00 0. -1.
         -3   -1    0    0    0  501 -0.00000000000E+00 -0.00000000000E+00 -0.22640675712E+03  0.22640675712E+03  0.00000000000E+00 0.  1.
         25    2    1    2    0    0  0.96087133250E+01  0.29018538062E+02 -0.13308618029E+03  0.18518448119E+03  0.12508780024E+03 0.  0.
          5    1    3    3  502    0 -0.23106521556E+01  0.87700263598E+01  0.24157442092E+02  0.26140139330E+02  0.41800000000E+01 0. -1.
         -5    1    3    3    0  502  0.11919365481E+02  0.20248511702E+02 -0.15724362238E+03  0.15904434186E+03  0.41800000000E+01 0. -1.
        -11    1    1    2    0    0  0.12672237207E+02  0.22852149714E+02  0.15589932303E+02  0.30427821670E+02  0.00000000000E+00 0. -1.
         11    1    1    2    0    0 -0.22280950532E+02 -0.51870687776E+02 -0.46540548266E+02  0.73164415120E+02  0.00000000000E+00 0.  1.
</event>
<event>
 7    1  0.2900135E-009  0.1431680E+03  0.7561462E-02  0.1209129E+00
         -2   -1    0    0    0  501 -0.00000000000E+00  0.00000000000E+00  0.47695056409E+02  0.47695056409E+02  0.00000000000E+00 0.  1.
          2   -1    0    0  501    0  0.00000000000E+00 -0.00000000000E+00 -0.59228122064E+03  0.59228122064E+03  0.00000000000E+00 0. -1.
         25    2    1    2    0    0 -0.99471988905E+02 -0.58990147899E+02 -0.39717988993E+03  0.43217029750E+03  0.12507912278E+03 0.  0.
          5    1    3    3  502    0 -0.46047607079E+02  0.15078301274E+02 -0.27664708465E+03  0.28088933609E+03  0.41800000000E+01 0. -1.
         -5    1    3    3    0  502 -0.53424381825E+02 -0.74068449173E+02 -0.12053280528E+03  0.15128096141E+03  0.41800000000E+01 0. -1.
        -11    1    1    2    0    0 -0.14749735282E+02 -0.47286547332E+01 -0.12476317160E+02  0.19889026028E+02  0.00000000000E+00 0. -1.
         11    1    1    2    0    0  0.11422172419E+03  0.63718802632E+02 -0.13492995714E+03  0.18791695352E+03  0.00000000000E+00 0.  1.
</event>
<event>
 7    1  0.3785423E-009  0.1070426E+03  0.7561462E-02  0.1266147E+00
         -1   -1    0    0    0  501 -0.00000000000E+00  0.00000000000E+00  0.21913444467E+02  0.21913444467E+02  0.00000000000E+00 0.  1.
          1   -1    0    0  501    0  0.00000000000E+00 -0.00000000000E+00 -0.64144452846E+03  0.64144452846E+03  0.00000000000E+00 0. -1.
         25    2    1    2    0    0 -0.21481450644E+02  0.40768676959E+02 -0.38672097512E+03  0.40905251924E+03  0.12508922078E+03 0.  0.
          5    1    3    3  502    0 -0.11479754503E+02  0.79705314313E+02 -0.16467077045E+03  0.18335391170E+03  0.41800000000E+01 0. -1.
         -5    1    3    3    0  502 -0.10001696141E+02 -0.38936637353E+02 -0.22205020467E+03  0.22569860755E+03  0.41800000000E+01 0. -1.
        -11    1    1    2    0    0 -0.20393732449E+02 -0.46490900490E+02 -0.17796739787E+03  0.18506675243E+03  0.00000000000E+00 0.  1.
         11    1    1    2    0    0  0.41875183093E+02  0.57222235306E+01 -0.54842711002E+02  0.69238701254E+02  0.00000000000E+00 0. -1.
</event>
<event>
 7    1  0.2900135E-009  0.1168029E+03  0.7561462E-02  0.1248466E+00
         -2   -1    0    0    0  501 -0.00000000000E+00  0.00000000000E+00  0.77363014703E+02  0.77363014703E+02  0.00000000000E+00 0.  1.
          2   -1    0    0  501    0  0.00000000000E+00 -0.00000000000E+00 -0.31015063563E+03  0.31015063563E+03  0.00000000000E+00 0. -1.
         25    2    1    2    0    0  0.11808846692E-01  0.96900020707E+02 -0.18902392748E+03  0.24650910662E+03  0.12508829016E+03 0.  0.
          5    1    3    3  502    0 -0.15600562557E+02  0.58960502994E+02 -0.19543678728E+03  0.20477482435E+03  0.41800000000E+01 0.  1.
         -5    1    3    3    0  502  0.15612371403E+02  0.37939517713E+02  0.64128598068E+01  0.41734282264E+02  0.41800000000E+01 0.  1.
        -11    1    1    2    0    0  0.30037269619E+02 -0.26817539741E+00  0.16534791495E+01  0.30083940525E+02  0.00000000000E+00 0. -1.
         11    1    1    2    0    0 -0.30049078466E+02 -0.96631845310E+02 -0.45417172595E+02  0.11092060319E+03  0.00000000000E+00 0.  1.
</event>
<event>
 7    1  0.2900135E-009  0.1059485E+03  0.7561462E-02  0.1268262E+00
         -4   -1    0    0    0  501 -0.00000000000E+00  0.00000000000E+00  0.15666641755E+03  0.15666641755E+03  0.00000000000E+00 0. -1.
          4   -1    0    0  501    0  0.00000000000E+00 -0.00000000000E+00 -0.13995671396E+03  0.13995671396E+03  0.00000000000E+00 0.  1.
         25    2    1    2    0    0 -0.39507354983E+02  0.39867948377E+01  0.10151605983E+03  0.16592171898E+03  0.12509108999E+03 0.  0.
          5    1    3    3  502    0  0.29495978334E+02 -0.25314721111E+02 -0.69097078950E+00  0.39099842499E+02  0.41800000000E+01 0. -1.
         -5    1    3    3    0  502 -0.69003333317E+02  0.29301515949E+02  0.10220703062E+03  0.12682187648E+03  0.41800000000E+01 0. -1.
        -11    1    1    2    0    0 -0.26831483884E+02 -0.14585827383E+02 -0.38342858028E+02  0.49018870343E+02  0.00000000000E+00 0.  1.
         11    1    1    2    0    0  0.66338838867E+02  0.10599032546E+02 -0.46463498214E+02  0.81682542195E+02  0.00000000000E+00 0. -1.
</event>
<event>
 7    1  0.2900135E-009  0.7033021E+02  0.7561462E-02  0.1358974E+00
         -1   -1    0    0    0  501 -0.00000000000E+00  0.00000000000E+00  0.72948045629E+02  0.72948045629E+02  0.00000000000E+00 0.  1.
          1   -1    0    0  501    0  0.00000000000E+00 -0.00000000000E+00 -0.20370574586E+03  0.20370574586E+03  0.00000000000E+00 0. -1.
         25    2    1    2    0    0  0.13304691884E+02 -0.54785011725E+02 -0.76162629299E+02  0.15692907542E+03  0.12509027250E+03 0.  0.
          5    1    3    3  502    0  0.22203290936E+02 -0.14603198136E+02 -0.10376695733E+03  0.10719745033E+03  0.41800000000E+01 0.  1.
         -5    1    3    3    0  502 -0.88985990521E+01 -0.40181813589E+02  0.27604328029E+02  0.49731625092E+02  0.41800000000E+01 0.  1.
        -11    1    1    2    0    0  0.12664892223E+02  0.10479292612E+01  0.20304775293E+02  0.23953737714E+02  0.00000000000E+00 0.  1.
         11    1    1    2    0    0 -0.25969584107E+02  0.53737082463E+02 -0.74899846226E+02  0.95770978355E+02  0.00000000000E+00 0. -1.
</event>
<event>
 7    1  0.2900135E-009  0.1312172E+03  0.7561462E-02  0.1225661E+00
          2   -1    0    0  501    0  0.00000000000E+00  0.00000000000E+00  0.97724819418E+03  0.97724819418E+03  0.00000000000E+00 0. -1.
         -2   -1    0    0    0  501 -0.00000000000E+00 -0.00000000000E+00 -0.22001108316E+02  0.22001108316E+02  0.00000000000E+00 0.  1.
         25    2    1    2    0    0  0.22703408273E+02 -0.78761925858E+02  0.70130769001E+03  0.71707727722E+03  0.12509380372E+03 0.  0.
          5    1    3    3  502    0  0.58242950541E+02  0.44709410651E+01  0.30114983347E+03  0.30679133821E+03  0.41800000000E+01 0.  1.
         -5    1    3    3    0  502 -0.35539542267E+02 -0.83232866923E+02  0.40015785654E+03  0.41028593902E+03  0.41800000000E+01 0.  1.
        -11    1    1    2    0    0 -0.17351795748E+02  0.94794365559E+02  0.24451391936E+03  0.26281954516E+03  0.00000000000E+00 0. -1.
         11    1    1    2    0    0 -0.53516125252E+01 -0.16032439701E+02  0.94254764944E+01  0.19352480113E+02  0.00000000000E+00 0.  1.
</event>
<event>
 7    1  0.2900135E-009  0.1188501E+03  0.7561462E-02  0.1245006E+00
         -1   -1    0    0    0  501 -0.00000000000E+00  0.00000000000E+00  0.21141831996E+02  0.21141831996E+02  0.00000000000E+00 0.  1.
          1   -1    0    0  501    0  0.00000000000E+00 -0.00000000000E+00 -0.91868304076E+03  0.91868304076E+03  0.00000000000E+00 0. -1.
         25    2    1    2    0    0 -0.80648635606E+02  0.84213856056E+01 -0.58548171144E+03  0.60416225288E+03  0.12509225082E+03 0.  0.
          5    1    3    3  502    0  0.26053881506E+02 -0.24666377223E+02 -0.17771213298E+03  0.18134582850E+03  0.41800000000E+01 0.  1.
         -5    1    3    3    0  502 -0.10670251711E+03  0.33087762829E+02 -0.40776957846E+03  0.42281642438E+03  0.41800000000E+01 0.  1.
        -11    1    1    2    0    0  0.22961248733E+01 -0.11152284706E+02  0.23496134789E+01  0.11626105414E+02  0.00000000000E+00 0.  1.
         11    1    1    2    0    0  0.78352510733E+02  0.27308991000E+01 -0.31440911081E+03  0.32403651447E+03  0.00000000000E+00 0. -1.
</event>
<event>
 7    1  0.2900135E-009  0.1372737E+03  0.7561462E-02  0.1217045E+00
          3   -1    0    0  501    0  0.00000000000E+00  0.00000000000E+00  0.89053177427E+02  0.89053177427E+02  0.00000000000E+00 0. -1.
         -3   -1    0    0    0  501 -0.00000000000E+00 -0.00000000000E+00 -0.38872030346E+03  0.38872030346E+03  0.00000000000E+00 0.  1.
         25    2    1    2    0    0 -0.88638754138E+02  0.53027905875E+02 -0.30610349156E+03  0.34643280220E+03  0.12509017293E+03 0.  0.
          5    1    3    3  502    0  0.16031825418E+02 -0.11851215729E+02 -0.12950044704E+03  0.13109274932E+03  0.41800000000E+01 0.  1.
         -5    1    3    3    0  502 -0.10467057956E+03  0.64879121604E+02 -0.17660304452E+03  0.21534005289E+03  0.41800000000E+01 0.  1.
        -11    1    1    2    0    0  0.22257839763E+02 -0.60208525847E+02 -0.67825383695E+00  0.64194532819E+02  0.00000000000E+00 0.  1.
         11    1    1    2    0    0  0.66380914375E+02  0.71806199717E+01  0.71146193548E+01  0.67146145868E+02  0.00000000000E+00 0. -1.
</event>
<event>
 7    1  0.2900135E-009  0.8709943E+02  0.7561462E-02  0.1310032E+00
          1   -1    0    0  501    0  0.00000000000E+00  0.00000000000E+00  0.35004322050E+02  0.35004322050E+02  0.00000000000E+00 0. -1.
         -1   -1    0    0    0  501 -0.00000000000E+00 -0.00000000000E+00 -0.35254614572E+03  0.35254614572E+03  0.00000000000E+00 0.  1.
         25    2    1    2    0    0 -0.20822098957E+02 -0.10348492169E+02 -0.17894213618E+03  0.21956543213E+03  0.12509212521E+03 0.  0.
          5    1    3    3  502    0 -0.86286060084E+01 -0.44849206133E+02 -0.10374647590E+02  0.47021376469E+02  0.41800000000E+01 0. -1.
         -5    1    3    3    0  502 -0.12193492949E+02  0.34500713964E+02 -0.16856748859E+03  0.17254405566E+03  0.41800000000E+01 0. -1.
        -11    1    1    2    0    0  0.34710918175E+02 -0.31832620364E+02 -0.48889702864E+02  0.67884951248E+02  0.00000000000E+00 0. -1.
         11    1    1    2    0    0 -0.13888819218E+02  0.42181112534E+02 -0.89709984627E+02  0.10010008439E+03  0.00000000000E+00 0.  1.
</event>
<event>
 7    1  0.2900135E-009  0.9321259E+02  0.7561462E-02  0.1295253E+00
         -2   -1    0    0    0  501 -0.00000000000E+00  0.00000000000E+00  0.10369352910E+03  0.10369352910E+03  0.00000000000E+00 0.  1.
          2   -1    0    0  501    0  0.00000000000E+00 -0.00000000000E+00 -0.14995994288E+03  0.14995994288E+03  0.00000000000E+00 0. -1.
         25    2    1    2    0    0 -0.16616014802E+01  0.31523315646E+02 -0.80110088327E+02  0.15185867030E+03  0.12508776577E+03 0.  0.
          5    1    3    3  502    0 -0.11769247513E+02 -0.31028405545E+02 -0.81759256704E+02  0.88336434129E+02  0.41800000000E+01 0. -1.
         -5    1    3    3    0  502  0.10107646033E+02  0.62551721192E+02  0.16491683771E+01  0.63522236176E+02  0.41800000000E+01 0. -1.
        -11    1    1    2    0    0  0.35536498388E+02  0.90010443986E+01 -0.39166407790E+01  0.36867351315E+02  0.00000000000E+00 0.  1.
         11    1    1    2    0    0 -0.33874896908E+02 -0.40524360045E+02  0.37760315319E+02  0.64927450363E+02  0.00000000000E+00 0. -1.
</event>
<event>
 7    1  0.2900135E-009  0.1096146E+03  0.7561462E-02  0.1261285E+00
          2   -1    0    0  501    0  0.00000000000E+00  0.00000000000E+00  0.16220876363E+03  0.16220876363E+03  0.00000000000E+00 0. -1.
         -2   -1    0    0    0  501 -0.00000000000E+00 -0.00000000000E+00 -0.10906485596E+03  0.10906485596E+03  0.00000000000E+00 0.  1.
         25    2    1    2    0    0  0.64458250665E+02 -0.26411202743E+02  0.57112084290E+02  0.15415077680E+03  0.12509298185E+03 0.  0.
          5    1    3    3  502    0  0.94312483506E+02 -0.20162080799E+02  0.88945106417E+01  0.96942966567E+02  0.41800000000E+01 0.  1.
         -5    1    3    3    0  502 -0.29854232841E+02 -0.62491219434E+01  0.48217573648E+02  0.57207810237E+02  0.41800000000E+01 0.  1.
        -11    1    1    2    0    0 -0.74523868862E+02  0.31164116253E+02  0.26237146470E+02  0.84931719792E+02  0.00000000000E+00 0. -1.
         11    1    1    2    0    0  0.10065618197E+02 -0.47529135109E+01 -0.30205323087E+02  0.32191122989E+02  0.00000000000E+00 0.  1.
</event>
<event>
 7    1  0.2900135E-009  0.1353998E+03  0.7561462E-02  0.1219656E+00
         -2   -1    0    0    0  501 -0.00000000000E+00  0.00000000000E+00  0.33615635900E+02  0.33615635900E+02  0.00000000000E+00 0.  1.
          2   -1    0    0  501    0  0.00000000000E+00 -0.00000000000E+00 -0.77809294983E+03  0.77809294983E+03  0.00000000000E+00 0. -1.
         25    2    1    2    0    0 -0.96363218888E+02 -0.69002468266E+02 -0.47377813291E+03  0.50414353683E+03  0.12509107054E+03 0.  0.
          5    1    3    3  502    0 -0.45479489628E+02  0.11873303377E+02 -0.46348183347E+02  0.66143675506E+02  0.41800000000E+01 0.  1.
         -5    1    3    3    0  502 -0.50883729260E+02 -0.80875771643E+02 -0.42742994956E+03  0.43799986133E+03  0.41800000000E+01 0.  1.
        -11    1    1    2    0    0  0.31520934054E+01  0.24457183529E+02 -0.90642452738E+01  0.26272610479E+02  0.00000000000E+00 0.  1.
         11    1    1    2    0    0  0.93211125482E+02  0.44545284737E+02 -0.26163493575E+03  0.28129243841E+03  0.00000000000E+00 0. -1.
</event>
<event>
 7    1  0.2900135E-009  0.2254259E+03  0.7561462E-02  0.1129901E+00
          3   -1    0    0  501    0  0.00000000000E+00  0.00000000000E+00  0.25875103476E+03  0.25875103476E+03  0.00000000000E+00 0. -1.
         -3   -1    0    0    0  501 -0.00000000000E+00 -0.00000000000E+00 -0.23821953541E+03  0.23821953541E+03  0.00000000000E+00 0.  1.
         25    2    1    2    0    0 -0.21427044507E+03  0.55246145140E+02 -0.12492846704E+02  0.25449677579E+03  0.12509427439E+03 0.  0.
          5    1    3    3  502    0 -0.16754605645E+03  0.59604553176E+02  0.41683728738E+02  0.18270027212E+03  0.41800000000E+01 0.  1.
         -5    1    3    3    0  502 -0.46724388616E+02 -0.43584080354E+01 -0.54176575442E+02  0.71796503667E+02  0.41800000000E+01 0.  1.
        -11    1    1    2    0    0  0.12806792708E+03 -0.55692791199E+02  0.60217188904E+02  0.15208284183E+03  0.00000000000E+00 0.  1.
         11    1    1    2    0    0  0.86202517987E+02  0.44664605877E+00 -0.27192842851E+02  0.90390952547E+02  0.00000000000E+00 0. -1.
</event>
<event>
 7    1  0.2900135E-009  0.2786137E+03  0.7561462E-02  0.1096449E+00
         -1   -1    0    0    0  501 -0.00000000000E+00  0.00000000000E+00  0.73495559050E+02  0.73495559050E+02  0.00000000000E+00 0.  1.
          1   -1    0    0  501    0  0.00000000000E+00 -0.00000000000E+00 -0.11629918956E+04  0.11629918956E+04  0.00000000000E+00 0. -1.
         25    2    1    2    0    0  0.55579093662E+02 -0.25967371248E+03 -0.66656435655E+03  0.72833707884E+03  0.12508951345E+03 0.  0.
          5    1    3    3  502    0 -0.37535665441E+02 -0.95456825316E+02 -0.19496566335E+03  0.22034067706E+03  0.41800000000E+01 0. -1.
         -5    1    3    3    0  502  0.93114759103E+02 -0.16421688716E+03 -0.47159869320E+03  0.50799640178E+03  0.41800000000E+01 0. -1.
        -11    1    1    2    0    0 -0.37760859140E+02  0.15282028328E+03 -0.32919471573E+03  0.36489598837E+03  0.00000000000E+00 0. -1.
         11    1    1    2    0    0 -0.17818234523E+02  0.10685342920E+03 -0.93737264308E+02  0.14325438749E+03  0.00000000000E+00 0.  1.
</event>
<event>
 7    1  0.2900135E-009  0.1741091E+03  0.7561462E-02  0.1173629E+00
         -1   -1    0    0    0  501 -0.00000000000E+00  0.00000000000E+00  0.11113875547E+03  0.11113875547E+03  0.00000000000E+00 0.  1.
          1   -1    0    0  501    0  0.00000000000E+00 -0.00000000000E+00 -0.31923509229E+03  0.31923509229E+03  0.00000000000E+00 0. -1.
         25    2    1    2    0    0 -0.12708240027E+03  0.65059833618E+02 -0.43602582639E+02  0.19476155040E+03  0.12509259728E+03 0.  0.
          5    1    3    3  502    0 -0.10903981662E+03 -0.49953164760E+01 -0.53490878144E+02  0.12162804463E+03  0.41800000000E+01 0.  1.
         -5    1    3    3    0  502 -0.18042583649E+02  0.70055150094E+02  0.98882955050E+01  0.73133505778E+02  0.41800000000E+01 0.  1.
        -11    1    1    2    0    0  0.82001334004E+02  0.61611307437E+01 -0.10006459867E+03  0.12951873308E+03  0.00000000000E+00 0.  1.
         11    1    1    2    0    0  0.45081066263E+02 -0.71220964361E+02 -0.64429155512E+02  0.10609356427E+03  0.00000000000E+00 0. -1.
</event>
<event>
 7    1  0.2900135E-009  0.9779942E+02  0.7561462E-02  0.1284993E+00
          1   -1    0    0  501    0  0.00000000000E+00  0.00000000000E+00  0.31527769728E+03  0.31527769728E+03  0.00000000000E+00 0. -1.
         -1   -1    0    0    0  501 -0.00000000000E+00 -0.00000000000E+00 -0.57334724535E+02  0.57334724535E+02  0.00000000000E+00 0.  1.
         25    2    1    2    0    0 -0.33602947223E+01 -0.21964991477E+02  0.36394752182E+02  0.13215977619E+03  0.12509147063E+03 0.  0.
          5    1    3    3  502    0  0.49563323817E+02 -0.37049285771E+02 -0.63599734880E+01  0.62346566118E+02  0.41800000000E+01 0. -1.
         -5    1    3    3    0  502 -0.52923618539E+02  0.15084294294E+02  0.42754725670E+02  0.69813210073E+02  0.41800000000E+01 0. -1.
        -11    1    1    2    0    0 -0.32141097288E+02  0.27694612097E+02  0.51898784723E+02  0.67033764103E+02  0.00000000000E+00 0.  1.
         11    1    1    2    0    0  0.35501392010E+02 -0.57296206200E+01  0.16964943584E+03  0.17341888152E+03  0.00000000000E+00 0. -1.
</event>
<event>
 7    1  0.2900135E-009  0.2443736E+03  0.7561462E-02  0.1116913E+00
          4   -1    0    0  501    0  0.00000000000E+00  0.00000000000E+00  0.10431670418E+03  0.10431670418E+03  0.00000000000E+00 0. -1.
         -4   -1    0    0    0  501 -0.00000000000E+00 -0.00000000000E+00 -0.59604818263E+03  0.59604818263E+03  0.00000000000E+00 0.  1.
         25    2    1    2    0    0 -0.79851952128E+02 -0.20429798302E+03 -0.31806541416E+03  0.40611270572E+03  0.12509165416E+03 0.  0.
          5    1    3    3  502    0  0.32953076057E+02 -0.41747457384E+02 -0.51839775868E+02  0.74388105109E+02  0.41800000000E+01 0.  1.
         -5    1    3    3    0  502 -0.11280502818E+03 -0.16255052564E+03 -0.26622563829E+03  0.33172460061E+03  0.41800000000E+01 0.  1.
        -11    1    1    2    0    0  0.83634126031E+02  0.88979360645E+02 -0.86496131572E+02  0.14964482762E+03  0.00000000000E+00 0.  1.
         11    1    1    2    0    0 -0.37821739030E+01  0.11531862237E+03 -0.87169932711E+02  0.14460735346E+03  0.00000000000E+00 0. -1.
</event>
<event>
 7    1  0.2900135E-009  0.1742122E+03  0.7561462E-02  0.1173525E+00
         -1   -1    0    0    0  501 -0.00000000000E+00  0.00000000000E+00  0.35411597414E+02  0.35411597414E+02  0.00000000000E+00 0.  1.
          1   -1    0    0  501    0  0.00000000000E+00 -0.00000000000E+00 -0.10516139600E+04  0.10516139600E+04  0.00000000000E+00 0. -1.
         25    2    1    2    0    0  0.14043116796E+03 -0.57134334143E+02 -0.40078285907E+03  0.44638460405E+03  0.12508824698E+03 0.  0.
          5    1    3    3  502    0 -0.21648200532E+02  0.44428901504E+01 -0.35582279959E+02  0.42094594739E+02  0.41800000000E+01 0.  1.
         -5    1    3    3    0  502  0.16207936849E+03 -0.61577224293E+02 -0.36520057911E+03  0.40429000931E+03  0.41800000000E+01 0.  1.
        -11    1    1    2    0    0 -0.61536917865E+02  0.33896223814E+02 -0.12515194082E+03  0.14352266211E+03  0.00000000000E+00 0.  1.
         11    1    1    2    0    0 -0.78894250092E+02  0.23238110329E+02 -0.49026756266E+03  0.49711829123E+03  0.00000000000E+00 0. -1.
</event>
<event>
 7    1  0.2900135E-009  0.1139991E+03  0.7561462E-02  0.1253338E+00
         -1   -1    0    0    0  501 -0.00000000000E+00  0.00000000000E+00  0.75448222925E+03  0.75448222925E+03  0.00000000000E+00 0.  1.
          1   -1    0    0  501    0  0.00000000000E+00 -0.00000000000E+00 -0.27812638707E+02  0.27812638707E+02  0.00000000000E+00 0. -1.
         25    2    1    2    0    0  0.39948015714E+02 -0.85132631828E+02  0.43766513329E+03  0.46480120903E+03  0.12508391605E+03 0.  0.
          5    1    3    3  502    0  0.53094825995E+02 -0.95232514638E+01  0.66338067155E+02  0.85603530416E+02  0.41800000000E+01 0. -1.
         -5    1    3    3    0  502 -0.13146810281E+02 -0.75609380364E+02  0.37132706614E+03  0.37919767861E+03  0.41800000000E+01 0. -1.
        -11    1    1    2    0    0 -0.42688272108E+02  0.72705716849E+02  0.29240849554E+03  0.30432078158E+03  0.00000000000E+00 0.  1.
         11    1    1    2    0    0  0.27402563941E+01  0.12426914978E+02 -0.34040382868E+01  0.13172877348E+02  0.00000000000E+00 0. -1.
</event>
<event>
 7    1  0.2900135E-009  0.1193053E+03  0.7561462E-02  0.1244248E+00
          1   -1    0    0  501    0  0.00000000000E+00  0.00000000000E+00  0.23756885308E+02  0.23756885308E+02  0.00000000000E+00 0. -1.
         -1   -1    0    0    0  501 -0.00000000000E+00 -0.00000000000E+00 -0.65427051058E+03  0.65427051058E+03  0.00000000000E+00 0.  1.
         25    2    1    2    0    0 -0.43502513779E+02 -0.47034806272E+02 -0.41398400902E+03  0.43718989321E+03  0.12508997281E+03 0.  0.
          5    1    3    3  502    0  0.21741271491E+02  0.31244951604E+02 -0.12517965839E+03  0.13090587902E+03  0.41800000000E+01 0.  1.
         -5    1    3    3    0  502 -0.65243785270E+02 -0.78279757876E+02 -0.28880435063E+03  0.30628401420E+03  0.41800000000E+01 0.  1.
        -11    1    1    2    0    0  0.63252754053E+02  0.23201381670E+02 -0.10233441966E+03  0.12252162443E+03  0.00000000000E+00 0. -1.
         11    1    1    2    0    0 -0.19750240273E+02  0.23833424602E+02 -0.11419519659E+03  0.11831587824E+03  0.00000000000E+00 0.  1.
</event>
<event>
 7    1  0.3212302E-009  0.2304084E+03  0.7561462E-02  0.1126353E+00
         -2   -1    0    0    0  501 -0.00000000000E+00  0.00000000000E+00  0.42965375957E+02  0.42965375957E+02  0.00000000000E+00 0.  1.
          2   -1    0    0  501    0  0.00000000000E+00 -0.00000000000E+00 -0.14049889914E+04  0.14049889914E+04  0.00000000000E+00 0. -1.
         25    2    1    2    0    0 -0.21486815266E+03 -0.35681789079E+02 -0.79678224543E+03  0.83543408440E+03  0.12508656858E+03 0.  0.
          5    1    3    3  502    0 -0.81568816096E+02 -0.51294962499E+02 -0.18006349307E+03  0.20426693044E+03  0.41800000000E+01 0.  1.
         -5    1    3    3    0  502 -0.13329933656E+03  0.15613173420E+02 -0.61671875237E+03  0.63116715396E+03  0.41800000000E+01 0.  1.
        -11    1    1    2    0    0  0.12890158321E+03  0.57891043320E+02 -0.27771546068E+03  0.31159728521E+03  0.00000000000E+00 0.  1.
         11    1    1    2    0    0  0.85966569446E+02 -0.22209254241E+02 -0.28752590931E+03  0.30092299773E+03  0.00000000000E+00 0. -1.
</event>
<event>
 7    1  0.2900135E-009  0.2107873E+03  0.7561462E-02  0.1140944E+00
         -2   -1    0    0    0  501 -0.00000000000E+00  0.00000000000E+00  0.57317083016E+02  0.57317083016E+02  0.00000000000E+00 0.  1.
          2   -1    0    0  501    0  0.00000000000E+00 -0.00000000000E+00 -0.99271352966E+03  0.99271352966E+03  0.00000000000E+00 0. -1.
         25    2    1    2    0    0 -0.35422970615E+02 -0.19287429931E+03 -0.66263853729E+03  0.70227469904E+03  0.12507853384E+03 0.  0.
          5    1    3    3  502    0 -0.60682440903E+02 -0.46747434794E+02 -0.31687039264E+03  0.32602453807E+03  0.41800000000E+01 0. -1.
         -5    1    3    3    0  502  0.25259470288E+02 -0.14612686451E+03 -0.34576814465E+03  0.37625016097E+03  0.41800000000E+01 0. -1.
        -11    1    1    2    0    0  0.48339645954E+01  0.58295859114E+02 -0.23898516945E+02  0.63189504791E+02  0.00000000000E+00 0. -1.
         11    1    1    2    0    0  0.30589006019E+02  0.13457844019E+03 -0.24885939241E+03  0.28456640885E+03  0.00000000000E+00 0.  1.
</event>
<event>
 7    1  0.2900135E-009  0.1509157E+03  0.7561462E-02  0.1199352E+00
          2   -1    0    0  501    0  0.00000000000E+00  0.00000000000E+00  0.10673566573E+03  0.10673566573E+03  0.00000000000E+00 0. -1.
         -2   -1    0    0    0  501 -0.00000000000E+00 -0.00000000000E+00 -0.27588462759E+03  0.27588462759E+03  0.00000000000E+00 0.  1.
         25    2    1    2    0    0 -0.97874134230E+02 -0.37992210525E+02 -0.12673721091E+01  0.16330597345E+03  0.12507789782E+03 0.  0.
          5    1    3    3  502    0 -0.10718111874E+03 -0.70389978989E+02  0.65064390006E+01  0.12846146311E+03  0.41800000000E+01 0. -1.
         -5    1    3    3    0  502  0.93069845066E+01  0.32397768464E+02 -0.77738111097E+01  0.34844510346E+02  0.41800000000E+01 0. -1.
        -11    1    1    2    0    0 -0.50334212789E+01 -0.20561556538E+02 -0.38489446371E+02  0.43926648165E+02  0.00000000000E+00 0.  1.
         11    1    1    2    0    0  0.10290755551E+03  0.58553767063E+02 -0.12939214337E+03  0.17538767170E+03  0.00000000000E+00 0. -1.
</event>
<event>
 7    1  0.2900135E-009  0.1826854E+03  0.7561462E-02  0.1165229E+00
         -2   -1    0    0    0  501 -0.00000000000E+00  0.00000000000E+00  0.77539364027E+03  0.77539364027E+03  0.00000000000E+00 0.  1.
          2   -1    0    0  501    0  0.00000000000E+00 -0.00000000000E+00 -0.57413879596E+02  0.57413879596E+02  0.00000000000E+00 0. -1.
         25    2    1    2    0    0  0.14407709877E+03 -0.39526018071E+02  0.57339637641E+03  0.60559948219E+03  0.12508721697E+03 0.  0.
          5    1    3    3  502    0 -0.21390274065E+02 -0.13443783100E+02  0.10682807693E+03  0.10985440159E+03  0.41800000000E+01 0.  1.
         -5    1    3    3    0  502  0.16546737284E+03 -0.26082234971E+02  0.46656829949E+03  0.49574508060E+03  0.41800000000E+01 0.  1.
        -11    1    1    2    0    0 -0.31012209458E+02 -0.26911604215E+02  0.53942592065E+02  0.67792291712E+02  0.00000000000E+00 0.  1.
         11    1    1    2    0    0 -0.11306488932E+03  0.66437622286E+02  0.90640792193E+02  0.15941574596E+03  0.00000000000E+00 0. -1.
</event>
<event>
 7    1  0.2900135E-009  0.1454695E+03  0.7561462E-02  0.1206153E+00
         -4   -1    0    0    0  501 -0.00000000000E+00  0.00000000000E+00  0.17069016060E+03  0.17069016060E+03  0.00000000000E+00 0.  1.
          4   -1    0    0  501    0  0.00000000000E+00 -0.00000000000E+00 -0.13205394437E+03  0.13205394437E+03  0.00000000000E+00 0. -1.
         25    2    1    2    0    0  0.57782277314E+02  0.84611383993E+02  0.20151790681E+02  0.16294733399E+03  0.12509141103E+03 0.  0.
          5    1    3    3  502    0 -0.21445568327E+02 -0.14681410573E+02 -0.16005461669E+02  0.30807522142E+02  0.41800000000E+01 0.  1.
         -5    1    3    3    0  502  0.79227845642E+02  0.99292794567E+02  0.36157252350E+02  0.13213981185E+03  0.41800000000E+01 0.  1.
        -11    1    1    2    0    0  0.24565626843E+02 -0.29694850235E+02  0.12971985360E+02  0.40663577768E+02  0.00000000000E+00 0.  1.
         11    1    1    2    0    0 -0.82347904158E+02 -0.54916533758E+02  0.55124401860E+01  0.99133193210E+02  0.00000000000E+00 0. -1.
</event>
<event>
 7    1  0.3737311E-009  0.1564956E+03  0.7561462E-02  0.1192711E+00
         -2   -1    0    0    0  501 -0.00000000000E+00  0.00000000000E+00  0.43272980260E+02  0.43272980260E+02  0.00000000000E+00 0. -1.
          2   -1    0    0  501    0  0.00000000000E+00 -0.00000000000E+00 -0.87987069553E+03  0.87987069553E+03  0.00000000000E+00 0.  1.
         25    2    1    2    0    0 -0.11188764343E+03 -0.48513538480E+02 -0.18691995502E+03  0.25584920617E+03  0.12508932227E+03 0.  0.
          5    1    3    3  502    0  0.20582814030E+02  0.98128285126E+01 -0.56818796947E+01  0.23868389005E+02  0.41800000000E+01 0.  1.
         -5    1    3    3    0  502 -0.13247045746E+03 -0.58326366993E+02 -0.18123807532E+03  0.23198081716E+03  0.41800000000E+01 0.  1.
        -11    1    1    2    0    0  0.79023202853E+02 -0.82113285900E+01 -0.45474767968E+03  0.46163572726E+03  0.00000000000E+00 0.  1.
         11    1    1    2    0    0  0.32864440576E+02  0.56724867070E+02 -0.19493008058E+03  0.20565874237E+03  0.00000000000E+00 0. -1.
</event>
<event>
 7    1  0.2900135E-009  0.8067435E+02  0.7561462E-02  0.1327149E+00
         -1   -1    0    0    0  501 -0.00000000000E+00  0.00000000000E+00  0.59139136416E+02  0.59139136416E+02  0.00000000000E+00 0.  1.
          1   -1    0    0  501    0  0.00000000000E+00 -0.00000000000E+00 -0.23526310115E+03  0.23526310115E+03  0.00000000000E+00 0. -1.
         25    2    1    2    0    0 -0.19612988716E+02 -0.33558864060E+02 -0.13286898381E+03  0.18658100918E+03  0.12508972557E+03 0.  0.
          5    1    3    3  502    0 -0.32612892920E+02 -0.36144879589E+02 -0.15384522622E+03  0.16141833581E+03  0.41800000000E+01 0.  1.
         -5    1    3    3    0  502  0.12999904204E+02  0.25860155291E+01  0.20976242404E+02  0.25162673368E+02  0.41800000000E+01 0.  1.
        -11    1    1    2    0    0  0.54523923975E+02  0.75287026563E+01 -0.20942911349E+02  0.58890960131E+02  0.00000000000E+00 0. -1.
         11    1    1    2    0    0 -0.34910935260E+02  0.26030161404E+02 -0.22312069574E+02  0.48930268261E+02  0.00000000000E+00 0.  1.
</event>
<event>
 7    1  0.2900135E-009  0.1555719E+03  0.7561462E-02  0.1193789E+00
         -1   -1    0    0    0  501 -0.00000000000E+00  0.00000000000E+00  0.32056954679E+02  0.32056954679E+02  0.00000000000E+00 0.  1.
          1   -1    0    0  501    0  0.00000000000E+00 -0.00000000000E+00 -0.94762937242E+03  0.94762937242E+03  0.00000000000E+00 0. -1.
         25    2    1    2    0    0  0.11771493034E+03 -0.26701538245E+02 -0.30973463749E+03  0.35518046524E+03  0.12509132767E+03 0.  0.
          5    1    3    3  502    0  0.71887826332E+02 -0.69511454328E+02 -0.12551410531E+03  0.16053337625E+03  0.41800000000E+01 0. -1.
         -5    1    3    3    0  502  0.45827104012E+02  0.42809916083E+02 -0.18422053218E+03  0.19464708899E+03  0.41800000000E+01 0. -1.
        -11    1    1    2    0    0 -0.28632971446E+02 -0.30897969388E+02 -0.11875238046E+03  0.12600261676E+03  0.00000000000E+00 0. -1.
         11    1    1    2    0    0 -0.89081958898E+02  0.57599507633E+02 -0.48708539979E+03  0.49850324509E+03  0.00000000000E+00 0.  1.
</event>
<event>
 7    1  0.2900135E-009  0.1198388E+03  0.7561462E-02  0.1243363E+00
         -2   -1    0    0    0  501 -0.00000000000E+00  0.00000000000E+00  0.58731871057E+02  0.58731871057E+02  0.00000000000E+00 0.  1.
          2   -1    0    0  501    0  0.00000000000E+00 -0.00000000000E+00 -0.44802004767E+03  0.44802004767E+03  0.00000000000E+00 0. -1.
         25    2    1    2    0    0  0.32171496605E+02  0.37338635271E+02 -0.32305556398E+03  0.34991560083E+03  0.12508737508E+03 0.  0.
          5    1    3    3  502    0  0.54152332317E+02 -0.60848622781E+01 -0.55334795602E+02  0.77774755857E+02  0.41800000000E+01 0.  1.
         -5    1    3    3    0  502 -0.21980835712E+02  0.43423497549E+02 -0.26772076838E+03  0.27214084497E+03  0.41800000000E+01 0.  1.
        -11    1    1    2    0    0  0.23818919331E+02  0.36453902932E+02 -0.10271328077E+01  0.43557811687E+02  0.00000000000E+00 0.  1.
         11    1    1    2    0    0 -0.55990415936E+02 -0.73792538204E+02 -0.65205479825E+02  0.11327850622E+03  0.00000000000E+00 0. -1.
</event>
<event>
 7    1  0.2900135E-009  0.8246320E+02  0.7561462E-02  0.1322203E+00
         -1   -1    0    0    0  501 -0.00000000000E+00  0.00000000000E+00  0.33358372606E+02  0.33358372606E+02  0.00000000000E+00 0.  1.
          1   -1    0    0  501    0  0.00000000000E+00 -0.00000000000E+00 -0.70222206272E+03  0.70222206272E+03  0.00000000000E+00 0. -1.
         25    2    1    2    0    0 -0.38858622518E+02 -0.39764459351E+02 -0.58038905117E+03  0.59631275810E+03  0.12508497105E+03 0.  0.
          5    1    3    3  502    0 -0.10201140249E+02 -0.11137963147E+01 -0.51449544607E+03  0.51461474934E+03  0.41800000000E+01 0.  1.
         -5    1    3    3    0  502 -0.28657482269E+02 -0.38650663036E+02 -0.65893605095E+02  0.81698008761E+02  0.41800000000E+01 0.  1.
        -11    1    1    2    0    0 -0.18222826764E+02 -0.17090859794E+02 -0.10346667871E+02  0.27041124973E+02  0.00000000000E+00 0.  1.
         11    1    1    2    0    0  0.57081449282E+02  0.56855319145E+02 -0.78127971079E+02  0.11222655226E+03  0.00000000000E+00 0. -1.
</event>
<event>
 7    1  0.2900135E-009  0.2204944E+03  0.7561462E-02  0.1133515E+00
          1   -1    0    0  501    0  0.00000000000E+00  0.00000000000E+00  0.52178179243E+03  0.52178179243E+03  0.00000000000E+00 0. -1.
         -1   -1    0    0    0  501 -0.00000000000E+00 -0.00000000000E+00 -0.12233508428E+03  0.12233508428E+03  0.00000000000E+00 0.  1.
         25    2    1    2    0    0  0.20204421526E+03 -0.40888117104E+02  0.83453568326E+02  0.25515860325E+03  0.12509081384E+03 0.  0.
          5    1    3    3  502    0  0.18227146963E+03 -0.71964464435E+02  0.92892236009E+02  0.21690599967E+03  0.41800000000E+01 0.  1.
         -5    1    3    3    0  502  0.19772745629E+02  0.31076347332E+02 -0.94386676823E+01  0.38252603582E+02  0.41800000000E+01 0.  1.
        -11    1    1    2    0    0 -0.14232659619E+03  0.16032010499E+02  0.13526672544E+03  0.19700500591E+03  0.00000000000E+00 0.  1.
         11    1    1    2    0    0 -0.59717619069E+02  0.24856106604E+02  0.18072641439E+03  0.19195326754E+03  0.00000000000E+00 0. -1.
</event>
<event>
 7    1  0.2900135E-009  0.1267172E+03  0.7561462E-02  0.1232410E+00
         -1   -1    0    0    0  501 -0.00000000000E+00  0.00000000000E+00  0.14405342853E+03  0.14405342853E+03  0.00000000000E+00 0.  1.
          1   -1    0    0  501    0  0.00000000000E+00 -0.00000000000E+00 -0.14013232514E+03  0.14013232514E+03  0.00000000000E+00 0. -1.
         25    2    1    2    0    0  0.74696846745E+01  0.69204983766E+02 -0.58524757106E+02  0.15465477156E+03  0.12509126750E+03 0.  0.
          5    1    3    3  502    0 -0.57211348346E+02  0.32190990333E+02 -0.12472494920E+02  0.66950980334E+02  0.41800000000E+01 0. -1.
         -5    1    3    3    0  502  0.64681033021E+02  0.37013993434E+02 -0.46052262187E+02  0.87703791224E+02  0.41800000000E+01 0. -1.
        -11    1    1    2    0    0 -0.16296234429E+02  0.18622197847E+02  0.18694143009E+02  0.31013295409E+02  0.00000000000E+00 0.  1.
         11    1    1    2    0    0  0.88265497546E+01 -0.87827181614E+02  0.43751717483E+02  0.98517686704E+02  0.00000000000E+00 0. -1.
</event>
<event>
 7    1  0.2900135E-009  0.8249202E+02  0.7561462E-02  0.1322125E+00
         -4   -1    0    0    0  501 -0.00000000000E+00  0.00000000000E+00  0.26768503698E+02  0.26768503698E+02  0.00000000000E+00 0.  1.
          4   -1    0    0  501    0  0.00000000000E+00 -0.00000000000E+00 -0.47814381304E+03  0.47814381304E+03  0.00000000000E+00 0. -1.
         25    2    1    2    0    0 -0.12673825443E+02 -0.10192465851E+02 -0.32461110884E+03  0.34826061759E+03  0.12509425874E+03 0.  0.
          5    1    3    3  502    0  0.49481735248E+02  0.22070441596E+02 -0.11437010630E+03  0.12662361600E+03  0.41800000000E+01 0.  1.
         -5    1    3    3    0  502 -0.62155560691E+02 -0.32262907447E+02 -0.21024100254E+03  0.22163700158E+03  0.41800000000E+01 0.  1.
        -11    1    1    2    0    0 -0.10894885574E+02 -0.54683470695E+01  0.10751868629E+02  0.16254354197E+02  0.00000000000E+00 0.  1.
         11    1    1    2    0    0  0.23568711017E+02  0.15660812920E+02 -0.13751606913E+03  0.14039734495E+03  0.00000000000E+00 0. -1.
</event>
<event>
 7    1  0.2900135E-009  0.1757626E+03  0.7561462E-02  0.1171968E+00
         -1   -1    0    0    0  501 -0.00000000000E+00  0.00000000000E+00  0.21308389586E+02  0.21308389586E+02  0.00000000000E+00 0.  1.
          1   -1    0    0  501    0  0.00000000000E+00 -0.00000000000E+00 -0.15040369493E+04  0.15040369493E+04  0.00000000000E+00 0. -1.
         25    2    1    2    0    0  0.12669947520E+03  0.61802710480E+02 -0.73430326939E+03  0.75811369086E+03  0.12515088814E+03 0.  0.
          5    1    3    3  502    0  0.14177167284E+03  0.22270416058E+02 -0.51031582981E+03  0.53012724624E+03  0.41800000000E+01 0.  1.
         -5    1    3    3    0  502 -0.15072197637E+02  0.39532294422E+02 -0.22398743958E+03  0.22798644462E+03  0.41800000000E+01 0.  1.
        -11    1    1    2    0    0 -0.20006099919E+02 -0.55005153046E+02 -0.19584193950E+03  0.20440126263E+03  0.00000000000E+00 0. -1.
         11    1    1    2    0    0 -0.10669337528E+03 -0.67975574341E+01 -0.55258335080E+03  0.56283038537E+03  0.00000000000E+00 0.  1.
</event>
<event>
 7    1  0.2900135E-009  0.1102220E+03  0.7561462E-02  0.1260159E+00
         -4   -1    0    0    0  501 -0.00000000000E+00  0.00000000000E+00  0.52472988075E+03  0.52472988075E+03  0.00000000000E+00 0.  1.
          4   -1    0    0  501    0  0.00000000000E+00 -0.00000000000E+00 -0.24211739420E+02  0.24211739420E+02  0.00000000000E+00 0. -1.
         25    2    1    2    0    0 -0.47462732763E+01  0.31845380531E+02  0.29101249799E+03  0.31839098643E+03  0.12509153000E+03 0.  0.
          5    1    3    3  502    0  0.55051389413E+02  0.34045800345E+02  0.11001429287E+03  0.12771213346E+03  0.41800000000E+01 0. -1.
         -5    1    3    3    0  502 -0.59797662689E+02 -0.22004198142E+01  0.18099820513E+03  0.19067885297E+03  0.41800000000E+01 0. -1.
        -11    1    1    2    0    0 -0.42682761866E+02 -0.16203010539E+02  0.11334851656E+03  0.12219755283E+03  0.00000000000E+00 0. -1.
         11    1    1    2    0    0  0.47429035142E+02 -0.15642369991E+02  0.96157126781E+02  0.10835308092E+03  0.00000000000E+00 0.  1.
</event>
<event>
 7    1  0.2900135E-009  0.1349060E+03  0.7561462E-02  0.1220352E+00
         -1   -1    0    0    0  501 -0.00000000000E+00  0.00000000000E+00  0.18149446079E+03  0.18149446079E+03  0.00000000000E+00 0.  1.
          1   -1    0    0  501    0  0.00000000000E+00 -0.00000000000E+00 -0.12569502945E+03  0.12569502945E+03  0.00000000000E+00 0. -1.
         25    2    1    2    0    0  0.71840600208E+02  0.72499800890E+02  0.51540545433E+02  0.16947384391E+03  0.12509061907E+03 0.  0.
          5    1    3    3  502    0  0.90605283079E+02  0.45354963722E+01  0.28780606351E+02  0.95266383112E+02  0.41800000000E+01 0. -1.
         -5    1    3    3    0  502 -0.18764682872E+02  0.67964304518E+02  0.22759939082E+02  0.74207460803E+02  0.41800000000E+01 0. -1.
        -11    1    1    2    0    0 -0.71219138809E+01 -0.30250584513E+02  0.41561736569E+02  0.51896025545E+02  0.00000000000E+00 0.  1.
         11    1    1    2    0    0 -0.64718686327E+02 -0.42249216376E+02 -0.37302850660E+02  0.85819620785E+02  0.00000000000E+00 0. -1.
</event>
<event>
 7    1  0.2900135E-009  0.4175017E+03  0.7561462E-02  0.1037883E+00
         -2   -1    0    0    0  501 -0.00000000000E+00  0.00000000000E+00  0.66494351993E+03  0.66494351993E+03  0.00000000000E+00 0.  1.
          2   -1    0    0  501    0  0.00000000000E+00 -0.00000000000E+00 -0.30398805276E+03  0.30398805276E+03  0.00000000000E+00 0. -1.
         25    2    1    2    0    0  0.33456109805E+03 -0.24727386248E+03  0.32363892976E+03  0.54172349779E+03  0.12508676912E+03 0.  0.
          5    1    3    3  502    0  0.93153717273E+01 -0.12222004807E+02 -0.10868097974E+02  0.19280599199E+02  0.41800000000E+01 0.  1.
         -5    1    3    3    0  502  0.32524572632E+03 -0.23505185767E+03  0.33450702773E+03  0.52244289859E+03  0.41800000000E+01 0.  1.
        -11    1    1    2    0    0 -0.23744051479E+03  0.19631832903E+03 -0.88384054668E+01  0.30821583637E+03  0.00000000000E+00 0. -1.
         11    1    1    2    0    0 -0.97120583254E+02  0.50955533453E+02  0.46154942883E+02  0.11899223854E+03  0.00000000000E+00 0.  1.
</event>
<event>
 7    1  0.2900135E-009  0.1343618E+03  0.7561462E-02  0.1221123E+00
          2   -1    0    0  501    0  0.00000000000E+00  0.00000000000E+00  0.10847356335E+03  0.10847356335E+03  0.00000000000E+00 0. -1.
         -2   -1    0    0    0  501 -0.00000000000E+00 -0.00000000000E+00 -0.17281623504E+03  0.17281623504E+03  0.00000000000E+00 0.  1.
         25    2    1    2    0    0 -0.40846945345E+02 -0.69505055503E+02 -0.13036051517E+02  0.14938909402E+03  0.12509091529E+03 0.  0.
          5    1    3    3  502    0 -0.44050170743E+01  0.35855404571E+02  0.37953512213E+01  0.36563524218E+02  0.41800000000E+01 0. -1.
         -5    1    3    3    0  502 -0.36441928271E+02 -0.10536046007E+03 -0.16831402738E+02  0.11282556980E+03  0.41800000000E+01 0. -1.
        -11    1    1    2    0    0  0.47139934719E+02  0.88779636062E+02 -0.47871579602E+02  0.11133591226E+03  0.00000000000E+00 0.  1.
         11    1    1    2    0    0 -0.62929893739E+01 -0.19274580559E+02 -0.34350405654E+01  0.20564792114E+02  0.00000000000E+00 0. -1.
</event>
<event>
 7    1  0.2900135E-009  0.8368132E+02  0.7561462E-02  0.1318917E+00
          2   -1    0    0  501    0  0.00000000000E+00  0.00000000000E+00  0.23193870362E+02  0.23193870362E+02  0.00000000000E+00 0. -1.
         -2   -1    0    0    0  501 -0.00000000000E+00 -0.00000000000E+00 -0.68472574357E+03  0.68472574357E+03  0.00000000000E+00 0.  1.
         25    2    1    2    0    0  0.17851261687E+02  0.59744043302E+02 -0.31483499926E+03  0.34446616634E+03  0.12509134556E+03 0.  0.
          5    1    3    3  502    0 -0.26013984899E+01  0.12536355688E+02 -0.28404295693E+03  0.28436209535E+03  0.41800000000E+01 0.  1.
         -5    1    3    3    0  502  0.20452660176E+02  0.47207687613E+02 -0.30792042330E+02  0.60104070985E+02  0.41800000000E+01 0.  1.
        -11    1    1    2    0    0  0.13514152803E+02 -0.68413365554E+02 -0.28817510187E+03  0.29649268161E+03  0.00000000000E+00 0.  1.
         11    1    1    2    0    0 -0.31365414490E+02  0.86693222525E+01 -0.58521772074E+02  0.66960765984E+02  0.00000000000E+00 0. -1.
</event>
<event>
 7    1  0.2900135E-009  0.1067594E+03  0.7561462E-02  0.1266691E+00
          2   -1    0    0  501    0  0.00000000000E+00  0.00000000000E+00  0.69947044456E+02  0.69947044456E+02  0.00000000000E+00 0. -1.
         -2   -1    0    0    0  501 -0.00000000000E+00 -0.00000000000E+00 -0.22263576585E+03  0.22263576585E+03  0.00000000000E+00 0.  1.
         25    2    1    2    0    0  0.11210277763E+02  0.59266185868E+02 -0.10130487473E+03  0.17188286605E+03  0.12507154305E+03 0.  0.
          5    1    3    3  502    0  0.38671127682E+02 -0.29546847613E+01 -0.95899042231E+02  0.10352915038E+03  0.41800000000E+01 0. -1.
         -5    1    3    3    0  502 -0.27460849919E+02  0.62220870629E+02 -0.54058325024E+01  0.68353715665E+02  0.41800000000E+01 0. -1.
        -11    1    1    2    0    0  0.29147671462E+02  0.58817730510E+01 -0.25868808336E+01  0.29847511761E+02  0.00000000000E+00 0.  1.
         11    1    1    2    0    0 -0.40357949225E+02 -0.65147958919E+02 -0.48796965829E+02  0.90852432500E+02  0.00000000000E+00 0. -1.
</event>
<event>
 7    1  0.2900135E-009  0.1607262E+03  0.7561462E-02  0.1187879E+00
         -1   -1    0    0    0  501 -0.00000000000E+00  0.00000000000E+00  0.70156075151E+02  0.70156075151E+02  0.00000000000E+00 0.  1.
          1   -1    0    0  501    0  0.00000000000E+00 -0.00000000000E+00 -0.59292615596E+03  0.59292615596E+03  0.00000000000E+00 0. -1.
         25    2    1    2    0    0 -0.26402658368E+01 -0.12234544518E+03 -0.47040598775E+03  0.50190145299E+03  0.12509155145E+03 0.  0.
          5    1    3    3  502    0  0.49359458772E+02 -0.11229287503E+02 -0.10990628733E+03  0.12107566834E+03  0.41800000000E+01 0. -1.
         -5    1    3    3    0  502 -0.51999724609E+02 -0.11111615768E+03 -0.36049970042E+03  0.38082578465E+03  0.41800000000E+01 0. -1.
        -11    1    1    2    0    0  0.35692180701E+02  0.10432452760E+03 -0.21135740708E+02  0.11226868823E+03  0.00000000000E+00 0.  1.
         11    1    1    2    0    0 -0.33051914864E+02  0.18020917587E+02 -0.31228352347E+02  0.48912089887E+02  0.00000000000E+00 0. -1.
</event>
<event>
 7    1  0.2900135E-009  0.1273560E+03  0.7561462E-02  0.1231433E+00
          3   -1    0    0  501    0  0.00000000000E+00  0.00000000000E+00  0.10508822481E+04  0.10508822481E+04  0.00000000000E+00 0. -1.
         -3   -1    0    0    0  501 -0.00000000000E+00 -0.00000000000E+00 -0.24681873341E+02  0.24681873341E+02  0.00000000000E+00 0.  1.
         25    2    1    2    0    0 -0.10675716793E+02 -0.78666353030E+02  0.82516859708E+03  0.83836351649E+03  0.12509119132E+03 0.  0.
          5    1    3    3  502    0 -0.32906337305E+02  0.19917686590E+02  0.12284686278E+03  0.12879582823E+03  0.41800000000E+01 0.  1.
         -5    1    3    3    0  502  0.22230620511E+02 -0.98584039620E+02  0.70232173431E+03  0.70956768827E+03  0.41800000000E+01 0.  1.
        -11    1    1    2    0    0  0.46233196057E+02  0.32096096091E+02  0.14735604098E+03  0.15773861485E+03  0.00000000000E+00 0. -1.
         11    1    1    2    0    0 -0.35557479264E+02  0.46570256939E+02  0.53675736746E+02  0.79461990147E+02  0.00000000000E+00 0.  1.
</event>
<event>
 7    1  0.2900135E-009  0.1224819E+03  0.7561462E-02  0.1239058E+00
          2   -1    0    0  501    0  0.00000000000E+00  0.00000000000E+00  0.29828799590E+03  0.29828799590E+03  0.00000000000E+00 0. -1.
         -2   -1    0    0    0  501 -0.00000000000E+00 -0.00000000000E+00 -0.63756844222E+02  0.63756844222E+02  0.00000000000E+00 0.  1.
         25    2    1    2    0    0 -0.68637559680E+02 -0.36986337771E+02  0.18192275865E+03  0.23414352408E+03  0.12509274948E+03 0.  0.
          5    1    3    3  502    0 -0.60159551977E+02  0.25304753731E+02  0.14973404727E+03  0.16339296058E+03  0.41800000000E+01 0.  1.
         -5    1    3    3    0  502 -0.84780077032E+01 -0.62291091501E+02  0.32188711377E+02  0.70750563497E+02  0.41800000000E+01 0.  1.
        -11    1    1    2    0    0  0.13640889135E+01  0.48320187420E+02  0.22984062902E+02  0.53525399563E+02  0.00000000000E+00 0.  1.
         11    1    1    2    0    0  0.67273470767E+02 -0.11333849650E+02  0.29624330129E+02  0.74375916482E+02  0.00000000000E+00 0. -1.
</event>
<event>
 7    1  0.2900135E-009  0.9339994E+02  0.7561462E-02  0.1294821E+00
          2   -1    0    0  501    0  0.00000000000E+00  0.00000000000E+00  0.10195186349E+03  0.10195186349E+03  0.00000000000E+00 0. -1.
         -2   -1    0    0    0  501 -0.00000000000E+00 -0.00000000000E+00 -0.17683006733E+03  0.17683006733E+03  0.00000000000E+00 0.  1.
         25    2    1    2    0    0  0.26073279257E+02  0.28803496753E+02  0.28387867943E+02  0.13402769041E+03  0.12509233963E+03 0.  0.
          5    1    3    3  502    0  0.51792522781E+02 -0.31896917424E+02 -0.26816124556E+01  0.61029027541E+02  0.41800000000E+01 0. -1.
         -5    1    3    3    0  502 -0.25719243524E+02  0.60700414177E+02  0.31069480399E+02  0.72998662871E+02  0.41800000000E+01 0. -1.
        -11    1    1    2    0    0 -0.25450337197E+02 -0.40623126473E+02 -0.11710940992E+03  0.12654079169E+03  0.00000000000E+00 0.  1.
         11    1    1    2    0    0 -0.62294206001E+00  0.11819629721E+02  0.13843338134E+02  0.18213448719E+02  0.00000000000E+00 0. -1.
</event>
<event>
 7    1  0.2900135E-009  0.1109534E+03  0.7561462E-02  0.1258814E+00
          1   -1    0    0  501    0  0.00000000000E+00  0.00000000000E+00  0.39113495089E+03  0.39113495089E+03  0.00000000000E+00 0. -1.
         -1   -1    0    0    0  501 -0.00000000000E+00 -0.00000000000E+00 -0.38907371262E+02  0.38907371262E+02  0.00000000000E+00 0.  1.
         25    2    1    2    0    0 -0.59314568954E+02 -0.68115955961E+01  0.19045128159E+03  0.23555065418E+03  0.12509118315E+03 0.  0.
          5    1    3    3  502    0 -0.82637297344E+02 -0.33501163791E+02  0.81402604451E+02  0.12081021190E+03  0.41800000000E+01 0. -1.
         -5    1    3    3    0  502  0.23322728391E+02  0.26689568194E+02  0.10904867714E+03  0.11474044228E+03  0.41800000000E+01 0. -1.
        -11    1    1    2    0    0  0.27737043443E+02 -0.34933717790E+02  0.33006514988E+02  0.55489983324E+02  0.00000000000E+00 0.  1.
         11    1    1    2    0    0  0.31577525510E+02  0.41745313386E+02  0.12876978306E+03  0.13900168465E+03  0.00000000000E+00 0. -1.
</event>
<event>
 7    1  0.2900135E-009  0.9063484E+02  0.7561462E-02  0.1301322E+00
          3   -1    0    0  501    0  0.00000000000E+00  0.00000000000E+00  0.17011768508E+03  0.17011768508E+03  0.00000000000E+00 0. -1.
         -3   -1    0    0    0  501 -0.00000000000E+00 -0.00000000000E+00 -0.12807382228E+03  0.12807382228E+03  0.00000000000E+00 0.  1.
         25    2    1    2    0    0 -0.11474523165E+02  0.62054200811E+02  0.98168687187E+02  0.17107354992E+03  0.12508668921E+03 0.  0.
          5    1    3    3  502    0 -0.21657512408E+02  0.66188803964E+02  0.12423131727E+03  0.14248122053E+03  0.41800000000E+01 0.  1.
         -5    1    3    3    0  502  0.10182989243E+02 -0.41346031527E+01 -0.26062630079E+02  0.28592329388E+02  0.41800000000E+01 0.  1.
        -11    1    1    2    0    0  0.33775852865E+02 -0.68631917946E+02 -0.12256194787E+02  0.77468462670E+02  0.00000000000E+00 0. -1.
         11    1    1    2    0    0 -0.22301329701E+02  0.65777171354E+01 -0.43868629597E+02  0.49649494779E+02  0.00000000000E+00 0.  1.
</event>
<event>
 7    1  0.2900135E-009  0.1024790E+03  0.7561462E-02  0.1275168E+00
         -1   -1    0    0    0  501 -0.00000000000E+00  0.00000000000E+00  0.18778951966E+02  0.18778951966E+02  0.00000000000E+00 0.  1.
          1   -1    0    0  501    0  0.00000000000E+00 -0.00000000000E+00 -0.62589139209E+03  0.62589139209E+03  0.00000000000E+00 0. -1.
         25    2    1    2    0    0 -0.10805645404E+02  0.54406986798E+00 -0.35819536479E+03  0.37956305170E+03  0.12508850018E+03 0.  0.
          5    1    3    3  502    0  0.27808248960E+02 -0.45629320568E+02 -0.90751156730E+02  0.10539724120E+03  0.41800000000E+01 0. -1.
         -5    1    3    3    0  502 -0.38613894364E+02  0.46173390436E+02 -0.26744420806E+03  0.27416581050E+03  0.41800000000E+01 0. -1.
        -11    1    1    2    0    0  0.26864181231E+02 -0.40136859631E+02 -0.12322408806E+03  0.13235115267E+03  0.00000000000E+00 0.  1.
         11    1    1    2    0    0 -0.16058535826E+02  0.39592789763E+02 -0.12569298728E+03  0.13275613969E+03  0.00000000000E+00 0. -1.
</event>
<event>
 7    1  0.2900135E-009  0.1560789E+03  0.7561462E-02  0.1193196E+00
         -2   -1    0    0    0  501 -0.00000000000E+00  0.00000000000E+00  0.54666921197E+02  0.54666921197E+02  0.00000000000E+00 0.  1.
          2   -1    0    0  501    0  0.00000000000E+00 -0.00000000000E+00 -0.71661847660E+03  0.71661847660E+03  0.00000000000E+00 0. -1.
         25    2    1    2    0    0 -0.12849022089E+03  0.47181316073E+02 -0.52274969917E+03  0.55466265302E+03  0.12509035621E+03 0.  0.
          5    1    3    3  502    0 -0.27748132781E+02  0.38065748637E+02 -0.41621534231E+02  0.62998290484E+02  0.41800000000E+01 0.  1.
         -5    1    3    3    0  502 -0.10074208811E+03  0.91155674352E+01 -0.48112816494E+03  0.49166436254E+03  0.41800000000E+01 0.  1.
        -11    1    1    2    0    0  0.12355050553E+02  0.24296926269E+02 -0.10808546673E+02  0.29322560964E+02  0.00000000000E+00 0. -1.
         11    1    1    2    0    0  0.11613517034E+03 -0.71478242341E+02 -0.12839330956E+03  0.18730018382E+03  0.00000000000E+00 0.  1.
</event>
<event>
 7    1  0.2900135E-009  0.1040051E+03  0.7561462E-02  0.1272092E+00
          1   -1    0    0  501    0  0.00000000000E+00  0.00000000000E+00  0.11581963696E+03  0.11581963696E+03  0.00000000000E+00 0. -1.
         -1   -1    0    0    0  501 -0.00000000000E+00 -0.00000000000E+00 -0.18821559818E+03  0.18821559818E+03  0.00000000000E+00 0.  1.
         25    2    1    2    0    0 -0.39899936432E+02 -0.74732188665E+02  0.16955385586E+02  0.15202680154E+03  0.12509100023E+03 0.  0.
          5    1    3    3  502    0 -0.23902520296E+02 -0.23502436345E+02  0.69203582248E+02  0.77008461785E+02  0.41800000000E+01 0. -1.
         -5    1    3    3    0  502 -0.15997416136E+02 -0.51229752320E+02 -0.52248196662E+02  0.75018339759E+02  0.41800000000E+01 0. -1.
        -11    1    1    2    0    0 -0.26929298845E+02  0.15350553104E+02 -0.10279171425E+02  0.32657127585E+02  0.00000000000E+00 0. -1.
         11    1    1    2    0    0  0.66829235277E+02  0.59381635560E+02 -0.79072175381E+02  0.11935130602E+03  0.00000000000E+00 0.  1.
</event>
<event>
 7    1  0.2900135E-009  0.9023065E+02  0.7561462E-02  0.1302294E+00
          4   -1    0    0  501    0  0.00000000000E+00  0.00000000000E+00  0.23937166053E+02  0.23937166053E+02  0.00000000000E+00 0. -1.
         -4   -1    0    0    0  501 -0.00000000000E+00 -0.00000000000E+00 -0.68703363580E+03  0.68703363580E+03  0.00000000000E+00 0.  1.
         25    2    1    2    0    0 -0.66250120756E+02 -0.30706231863E+01 -0.30658941073E+03  0.33770210406E+03  0.12508851701E+03 0.  0.
          5    1    3    3  502    0 -0.36138728863E+02 -0.15122301344E+02 -0.30214134680E+03  0.30469912630E+03  0.41800000000E+01 0.  1.
         -5    1    3    3    0  502 -0.30111391893E+02  0.12051678158E+02 -0.44480639265E+01  0.33002977758E+02  0.41800000000E+01 0.  1.
        -11    1    1    2    0    0  0.98059788944E+01 -0.37557399807E+02 -0.16560990031E+03  0.17009807343E+03  0.00000000000E+00 0.  1.
         11    1    1    2    0    0  0.56444141862E+02  0.40628022993E+02 -0.19089715871E+03  0.20317062436E+03  0.00000000000E+00 0. -1.
</event>
<event>
 7    1  0.2900135E-009  0.9608475E+02  0.7561462E-02  0.1288751E+00
          2   -1    0    0  501    0  0.00000000000E+00  0.00000000000E+00  0.12983857464E+03  0.12983857464E+03  0.00000000000E+00 0.  1.
         -2   -1    0    0    0  501 -0.00000000000E+00 -0.00000000000E+00 -0.10096857377E+03  0.10096857377E+03  0.00000000000E+00 0. -1.
         25    2    1    2    0    0 -0.22219822996E+02 -0.59349925533E+01  0.48005158362E+02  0.13593703550E+03  0.12508172417E+03 0.  0.
          5    1    3    3  502    0  0.15563600760E+01 -0.54107919049E+02 -0.11673337765E+02  0.55532228256E+02  0.41800000000E+01 0. -1.
         -5    1    3    3    0  502 -0.23776183072E+02  0.48172926496E+02  0.59678496126E+02  0.80404807248E+02  0.41800000000E+01 0. -1.
        -11    1    1    2    0    0  0.50614855296E+02  0.17184488002E+02  0.79594372982E+01  0.54041861983E+02  0.00000000000E+00 0.  1.
         11    1    1    2    0    0 -0.28395032300E+02 -0.11249495449E+02 -0.27094594781E+02  0.40828250925E+02  0.00000000000E+00 0. -1.
</event>
<event>
 7    1  0.2900135E-009  0.9263203E+02  0.7561462E-02  0.1296600E+00
         -1   -1    0    0    0  501 -0.00000000000E+00  0.00000000000E+00  0.47780084368E+02  0.47780084368E+02  0.00000000000E+00 0.  1.
          1   -1    0    0  501    0  0.00000000000E+00 -0.00000000000E+00 -0.26869784782E+03  0.26869784782E+03  0.00000000000E+00 0. -1.
         25    2    1    2    0    0  0.14979877983E+02  0.31872699333E+02 -0.14160240867E+03  0.19219508712E+03  0.12508974245E+03 0.  0.
          5    1    3    3  502    0 -0.41484337059E+02  0.26398442706E+02 -0.12188473904E+02  0.50831676095E+02  0.41800000000E+01 0. -1.
         -5    1    3    3    0  502  0.56464215041E+02  0.54742566265E+01 -0.12941393477E+03  0.14136341103E+03  0.41800000000E+01 0. -1.
        -11    1    1    2    0    0  0.28409629196E+02 -0.80249350881E+01  0.14418078778E+01  0.29556478548E+02  0.00000000000E+00 0.  1.
         11    1    1    2    0    0 -0.43389507179E+02 -0.23847764245E+02 -0.80757162655E+02  0.94726366513E+02  0.00000000000E+00 0. -1.
</event>
<event>
 7    1  0.2900135E-009  0.6187464E+02  0.7561462E-02  0.1390129E+00
         -2   -1    0    0    0  501 -0.00000000000E+00  0.00000000000E+00  0.11740321320E+02  0.11740321320E+02  0.00000000000E+00 0.  1.
          2   -1    0    0  501    0  0.00000000000E+00 -0.00000000000E+00 -0.10066427137E+04  0.10066427137E+04  0.00000000000E+00 0. -1.
         25    2    1    2    0    0  0.97786736995E+01  0.28891092694E+01 -0.53923685755E+03  0.55364893199E+03  0.12508709744E+03 0.  0.
          5    1    3    3  502    0  0.20414456274E+02  0.18892486047E+01 -0.81759535060E+01  0.22464147012E+02  0.41800000000E+01 0.  1.
         -5    1    3    3    0  502 -0.10635782574E+02  0.99986066467E+00 -0.53106090404E+03  0.53118478498E+03  0.41800000000E+01 0.  1.
        -11    1    1    2    0    0  0.34137656426E+02  0.22253234786E+02 -0.20587727412E+03  0.20987147982E+03  0.00000000000E+00 0.  1.
         11    1    1    2    0    0 -0.43916330125E+02 -0.25142344055E+02 -0.24978826068E+03  0.25486262317E+03  0.00000000000E+00 0. -1.
</event>
<event>
 7    1  0.2900135E-009  0.1626452E+03  0.7561462E-02  0.1185742E+00
          2   -1    0    0  501    0  0.00000000000E+00  0.00000000000E+00  0.20213907012E+04  0.20213907012E+04  0.00000000000E+00 0. -1.
         -2   -1    0    0    0  501 -0.00000000000E+00 -0.00000000000E+00 -0.18818801783E+02  0.18818801783E+02  0.00000000000E+00 0.  1.
         25    2    1    2    0    0  0.11509209192E+03 -0.10851634874E+03  0.14228086224E+04  0.14370295473E+04  0.12509019263E+03 0.  0.
          5    1    3    3  502    0  0.34607159505E+02 -0.41056066719E+02  0.99657255361E+03  0.99802684488E+03  0.41800000000E+01 0.  1.
         -5    1    3    3    0  502  0.80484932411E+02 -0.67460282019E+02  0.42623606878E+03  0.43900270241E+03  0.41800000000E+01 0.  1.
        -11    1    1    2    0    0 -0.57070943319E+02  0.19961318900E+02  0.20059100009E+03  0.20950488334E+03  0.00000000000E+00 0.  1.
         11    1    1    2    0    0 -0.58021148597E+02  0.88555029838E+02  0.37917227695E+03  0.39367507237E+03  0.00000000000E+00 0. -1.
</event>
<event>
 7    1  0.2900135E-009  0.1289479E+03  0.7561462E-02  0.1229025E+00
          1   -1    0    0  501    0  0.00000000000E+00  0.00000000000E+00  0.19866193136E+03  0.19866193136E+03  0.00000000000E+00 0. -1.
         -1   -1    0    0    0  501 -0.00000000000E+00 -0.00000000000E+00 -0.13505383017E+03  0.13505383017E+03  0.00000000000E+00 0.  1.
         25    2    1    2    0    0 -0.61520566956E+02 -0.84363619252E+02  0.10330918602E+03  0.19292819412E+03  0.12508596946E+03 0.  0.
          5    1    3    3  502    0  0.24651011506E+02 -0.15360660008E+02  0.72538682467E+02  0.78249313724E+02  0.41800000000E+01 0. -1.
         -5    1    3    3    0  502 -0.86171578462E+02 -0.69002959244E+02  0.30770503554E+02  0.11467888039E+03  0.41800000000E+01 0. -1.
        -11    1    1    2    0    0  0.28120276876E+02  0.85043868453E+00  0.18485489083E+02  0.33662835950E+02  0.00000000000E+00 0. -1.
         11    1    1    2    0    0  0.33400290080E+02  0.83513180568E+02 -0.58186573912E+02  0.10712473146E+03  0.00000000000E+00 0.  1.
</event>
<event>
 7    1  0.2900135E-009  0.1450697E+03  0.7561462E-02  0.1206666E+00
         -2   -1    0    0    0  501 -0.00000000000E+00  0.00000000000E+00  0.38653849513E+02  0.38653849513E+02  0.00000000000E+00 0.  1.
          2   -1    0    0  501    0  0.00000000000E+00 -0.00000000000E+00 -0.58480246920E+03  0.58480246920E+03  0.00000000000E+00 0. -1.
         25    2    1    2    0    0  0.95969338983E+02  0.37708931150E+02 -0.27317397344E+03  0.31764956936E+03  0.12508058056E+03 0.  0.
          5    1    3    3  502    0  0.44254696353E+02  0.78544290332E+02 -0.19798942578E+03  0.21758899056E+03  0.41800000000E+01 0. -1.
         -5    1    3    3    0  502  0.51714642630E+02 -0.40835359181E+02 -0.75184547666E+02  0.10006057880E+03  0.41800000000E+01 0. -1.
        -11    1    1    2    0    0 -0.85815036391E+02  0.87940185292E+01 -0.13862191940E+03  0.16327152774E+03  0.00000000000E+00 0.  1.
         11    1    1    2    0    0 -0.10154302592E+02 -0.46502949679E+02 -0.13435272685E+03  0.14253522162E+03  0.00000000000E+00 0. -1.
</event>
<event>
 7    1  0.2900135E-009  0.1032026E+03  0.7561462E-02  0.1273702E+00
         -1   -1    0    0    0  501 -0.00000000000E+00  0.00000000000E+00  0.22039379238E+03  0.22039379238E+03  0.00000000000E+00 0.  1.
          1   -1    0    0  501    0  0.00000000000E+00 -0.00000000000E+00 -0.67774740460E+02  0.67774740460E+02  0.00000000000E+00 0. -1.
         25    2    1    2    0    0 -0.50611267076E+02 -0.11043787258E+02  0.57895942055E+02  0.14724954255E+03  0.12508805731E+03 0.  0.
          5    1    3    3  502    0 -0.37850450577E+02  0.45294995605E+02 -0.77790794266E+01  0.59684836537E+02  0.41800000000E+01 0. -1.
         -5    1    3    3    0  502 -0.12760816499E+02 -0.56338782863E+02  0.65675021482E+02  0.87564706011E+02  0.41800000000E+01 0. -1.
        -11    1    1    2    0    0  0.27541046641E+02 -0.30931146391E+02  0.84899358021E+01  0.42276755753E+02  0.00000000000E+00 0.  1.
         11    1    1    2    0    0  0.23070220435E+02  0.41974933649E+02  0.86233174068E+02  0.98642234543E+02  0.00000000000E+00 0. -1.
</event>
<event>
 7    1  0.3336771E-009  0.1148395E+03  0.7561462E-02  0.1251861E+00
          1   -1    0    0  501    0  0.00000000000E+00  0.00000000000E+00  0.83588579167E+03  0.83588579167E+03  0.00000000000E+00 0. -1.
         -1   -1    0    0    0  501 -0.00000000000E+00 -0.00000000000E+00 -0.22453798885E+02  0.22453798885E+02  0.00000000000E+00 0.  1.
         25    2    1    2    0    0 -0.65331791448E+02 -0.49367449712E+02  0.50075919948E+03  0.52260216337E+03  0.12509139554E+03 0.  0.
          5    1    3    3  502    0 -0.15302611191E+02  0.17598154069E+02  0.34472947560E+03  0.34554268721E+03  0.41800000000E+01 0.  1.
         -5    1    3    3    0  502 -0.50029180257E+02 -0.66965603782E+02  0.15602972388E+03  0.17705947617E+03  0.41800000000E+01 0.  1.
        -11    1    1    2    0    0  0.52137308782E+02  0.76235537370E+02  0.23592698258E+03  0.25336080445E+03  0.00000000000E+00 0.  1.
         11    1    1    2    0    0  0.13194482665E+02 -0.26868087658E+02  0.76745810731E+02  0.82376622728E+02  0.00000000000E+00 0. -1.
</event>
<event>
 7    1  0.2900135E-009  0.1331453E+03  0.7561462E-02  0.1222862E+00
          3   -1    0    0  501    0  0.00000000000E+00  0.00000000000E+00  0.18316500527E+03  0.18316500527E+03  0.00000000000E+00 0. -1.
         -3   -1    0    0    0  501 -0.00000000000E+00 -0.00000000000E+00 -0.26551854102E+03  0.26551854102E+03  0.00000000000E+00 0.  1.
         25    2    1    2    0    0  0.11255907498E+03 -0.57645807630E+02 -0.18931615921E+03  0.25976856726E+03  0.12508603401E+03 0.  0.
          5    1    3    3  502    0  0.92286318356E+02 -0.58318670740E+02 -0.52167537114E+02  0.12106509093E+03  0.41800000000E+01 0.  1.
         -5    1    3    3    0  502  0.20272756627E+02  0.67286311043E+00 -0.13714862209E+03  0.13870347634E+03  0.41800000000E+01 0.  1.
        -11    1    1    2    0    0 -0.94013069781E+02  0.22615737458E+02  0.28170665519E+02  0.10071502006E+03  0.00000000000E+00 0.  1.
         11    1    1    2    0    0 -0.18546005203E+02  0.35030070172E+02  0.78791957934E+02  0.88199958959E+02  0.00000000000E+00 0. -1.
</event>
<event>
 7    1  0.2900135E-009  0.1404928E+03  0.7561462E-02  0.1212667E+00
          2   -1    0    0  501    0  0.00000000000E+00  0.00000000000E+00  0.54879046857E+03  0.54879046857E+03  0.00000000000E+00 0. -1.
         -2   -1    0    0    0  501 -0.00000000000E+00 -0.00000000000E+00 -0.45774269454E+02  0.45774269454E+02  0.00000000000E+00 0.  1.
         25    2    1    2    0    0 -0.20911734790E+02 -0.10219639302E+03  0.36318264533E+03  0.39803411996E+03  0.12509245933E+03 0.  0.
          5    1    3    3  502    0  0.45423833904E+02 -0.61972695580E+01  0.10841440088E+03  0.11778321423E+03  0.41800000000E+01 0.  1.
         -5    1    3    3    0  502 -0.66335568694E+02 -0.95999123461E+02  0.25476824445E+03  0.28025090573E+03  0.41800000000E+01 0.  1.
        -11    1    1    2    0    0 -0.14876796072E+02  0.64558981433E+02  0.25563945477E+02  0.71011945850E+02  0.00000000000E+00 0. -1.
         11    1    1    2    0    0  0.35788530862E+02  0.37637411586E+02  0.11426960830E+03  0.12551867221E+03  0.00000000000E+00 0.  1.
</event>
<event>
 7    1  0.2900135E-009  0.1217650E+03  0.7561462E-02  0.1240213E+00
          2   -1    0    0  501    0  0.00000000000E+00  0.00000000000E+00  0.19507967538E+03  0.19507967538E+03  0.00000000000E+00 0. -1.
         -2   -1    0    0    0  501 -0.00000000000E+00 -0.00000000000E+00 -0.96225311511E+02  0.96225311511E+02  0.00000000000E+00 0.  1.
         25    2    1    2    0    0 -0.78032290174E+02  0.15771641363E+02  0.79349218717E+02  0.16817099862E+03  0.12508958104E+03 0.  0.
          5    1    3    3  502    0 -0.63301654318E+02  0.59884243176E+02  0.84175148903E+02  0.12122767882E+03  0.41800000000E+01 0. -1.
         -5    1    3    3    0  502 -0.14730635856E+02 -0.44112601812E+02 -0.48259301858E+01  0.46943319796E+02  0.41800000000E+01 0. -1.
        -11    1    1    2    0    0  0.92436397378E+02 -0.20018084226E+02 -0.46477949178E+01  0.94693258756E+02  0.00000000000E+00 0.  1.
         11    1    1    2    0    0 -0.14404107203E+02  0.42464428629E+01  0.24152940067E+02  0.28440729512E+02  0.00000000000E+00 0. -1.
</event>
<event>
 7    1  0.2900135E-009  0.2272998E+03  0.7561462E-02  0.1128555E+00
          2   -1    0    0  501    0  0.00000000000E+00  0.00000000000E+00  0.15147645478E+04  0.15147645478E+04  0.00000000000E+00 0. -1.
         -2   -1    0    0    0  501 -0.00000000000E+00 -0.00000000000E+00 -0.46692332989E+02  0.46692332989E+02  0.00000000000E+00 0.  1.
         25    2    1    2    0    0 -0.17928356289E+03  0.10605384866E+03  0.38866785900E+03  0.45836715282E+03  0.12509087671E+03 0.  0.
          5    1    3    3  502    0 -0.10612056951E+03  0.11450901275E+03  0.32636739786E+03  0.36181077936E+03  0.41800000000E+01 0.  1.
         -5    1    3    3    0  502 -0.73162993374E+02 -0.84551640879E+01  0.62300461135E+02  0.96556373465E+02  0.41800000000E+01 0.  1.
        -11    1    1    2    0    0  0.87654159610E+02 -0.43515367721E+01  0.34160758370E+03  0.35270090560E+03  0.00000000000E+00 0.  1.
         11    1    1    2    0    0  0.91629403277E+02 -0.10170231189E+03  0.73779677209E+03  0.75038882234E+03  0.00000000000E+00 0. -1.
</event>
<event>
 7    1  0.2900135E-009  0.9886721E+02  0.7561462E-02  0.1282696E+00
         -3   -1    0    0    0  501 -0.00000000000E+00  0.00000000000E+00  0.20188028561E+03  0.20188028561E+03  0.00000000000E+00 0.  1.
          3   -1    0    0  501    0  0.00000000000E+00 -0.00000000000E+00 -0.96451583065E+02  0.96451583065E+02  0.00000000000E+00 0. -1.
         25    2    1    2    0    0 -0.91416478046E+01 -0.32960199275E+02  0.14882406135E+03  0.19739930036E+03  0.12509171870E+03 0.  0.
          5    1    3    3  502    0 -0.25983705628E+01 -0.70674195382E+02  0.14144266012E+03  0.15819321074E+03  0.41800000000E+01 0. -1.
         -5    1    3    3    0  502 -0.65432772418E+01  0.37713996107E+02  0.73814012234E+01  0.39206089622E+02  0.41800000000E+01 0. -1.
        -11    1    1    2    0    0 -0.21734133516E+02 -0.18387176146E+02 -0.25970378725E+02  0.38534677596E+02  0.00000000000E+00 0. -1.
         11    1    1    2    0    0  0.30875781321E+02  0.51347375421E+02 -0.17424980077E+02  0.62397890713E+02  0.00000000000E+00 0.  1.
</event>
<event>
 7    1  0.2900135E-009  0.9470795E+02  0.7561462E-02  0.1291835E+00
         -1   -1    0    0    0  501 -0.00000000000E+00  0.00000000000E+00  0.24129518898E+03  0.24129518898E+03  0.00000000000E+00 0.  1.
          1   -1    0    0  501    0  0.00000000000E+00 -0.00000000000E+00 -0.88897058440E+02  0.88897058440E+02  0.00000000000E+00 0. -1.
         25    2    1    2    0    0 -0.40012609752E+02  0.36681504455E+02  0.17579915300E+03  0.22248475255E+03  0.12509029225E+03 0.  0.
          5    1    3    3  502    0  0.15400310142E+02 -0.29694613625E+02  0.95330652485E+01  0.35032718476E+02  0.41800000000E+01 0.  1.
         -5    1    3    3    0  502 -0.55412919894E+02  0.66376118080E+02  0.16626608775E+03  0.18745203407E+03  0.41800000000E+01 0.  1.
        -11    1    1    2    0    0 -0.42095920480E+01 -0.22214277319E+02  0.29557050184E+02  0.37213089062E+02  0.00000000000E+00 0.  1.
         11    1    1    2    0    0  0.44222201800E+02 -0.14467227137E+02 -0.52958072639E+02  0.70494405811E+02  0.00000000000E+00 0. -1.
</event>
<event>
 7    1  0.2900135E-009  0.1034685E+03  0.7561462E-02  0.1273167E+00
          1   -1    0    0  501    0  0.00000000000E+00  0.00000000000E+00  0.36795077283E+03  0.36795077283E+03  0.00000000000E+00 0. -1.
         -1   -1    0    0    0  501 -0.00000000000E+00 -0.00000000000E+00 -0.40572690522E+02  0.40572690522E+02  0.00000000000E+00 0.  1.
         25    2    1    2    0    0 -0.55447940009E+02 -0.14169605029E+02  0.18023118011E+03  0.22672873953E+03  0.12508953309E+03 0.  0.
          5    1    3    3  502    0 -0.86430003966E+02 -0.15971624847E+02  0.17373490742E+03  0.19474734617E+03  0.41800000000E+01 0.  1.
         -5    1    3    3    0  502  0.30982063957E+02  0.18020198171E+01  0.64962726949E+01  0.31981393362E+02  0.41800000000E+01 0.  1.
        -11    1    1    2    0    0  0.70362159661E+02  0.17146700469E+02  0.14977091341E+03  0.16636156212E+03  0.00000000000E+00 0.  1.
         11    1    1    2    0    0 -0.14914219652E+02 -0.29770954391E+01 -0.26240112115E+01  0.15433161695E+02  0.00000000000E+00 0. -1.
</event>
<event>
 7    1  0.2900135E-009  0.6594124E+02  0.7561462E-02  0.1374465E+00
         -2   -1    0    0    0  501 -0.00000000000E+00  0.00000000000E+00  0.49713092643E+02  0.49713092643E+02  0.00000000000E+00 0.  1.
          2   -1    0    0  501    0  0.00000000000E+00 -0.00000000000E+00 -0.60109118380E+03  0.60109118380E+03  0.00000000000E+00 0. -1.
         25    2    1    2    0    0  0.92750253235E+01 -0.23426623452E+02 -0.54089660042E+03  0.55574481500E+03  0.12509330229E+03 0.  0.
          5    1    3    3  502    0  0.34828126705E+02 -0.37093237217E+02 -0.51223524262E+03  0.51477307898E+03  0.41800000000E+01 0. -1.
         -5    1    3    3    0  502 -0.25553101382E+02  0.13666613765E+02 -0.28661357794E+02  0.40971736022E+02  0.41800000000E+01 0. -1.
        -11    1    1    2    0    0  0.78182165054E+01 -0.10777257211E+02 -0.42906589445E+02  0.44924928493E+02  0.00000000000E+00 0.  1.
         11    1    1    2    0    0 -0.17093241829E+02  0.34203880663E+02  0.32425098701E+02  0.50134532953E+02  0.00000000000E+00 0. -1.
</event>
<event>
 7    1  0.2900135E-009  0.1070831E+03  0.7561462E-02  0.1266069E+00
          4   -1    0    0  501    0  0.00000000000E+00  0.00000000000E+00  0.26605147904E+03  0.26605147904E+03  0.00000000000E+00 0. -1.
         -4   -1    0    0    0  501 -0.00000000000E+00 -0.00000000000E+00 -0.50036557934E+02  0.50036557934E+02  0.00000000000E+00 0.  1.
         25    2    1    2    0    0  0.73020202163E+01 -0.33721261900E+02  0.12217295738E+03  0.17823232262E+03  0.12510030499E+03 0.  0.
          5    1    3    3  502    0 -0.37472522981E+02  0.30177824506E+02  0.66950379988E+02  0.82551298300E+02  0.41800000000E+01 0.  1.
         -5    1    3    3    0  502  0.44774543197E+02 -0.63899086405E+02  0.55222577394E+02  0.95681024325E+02  0.41800000000E+01 0.  1.
        -11    1    1    2    0    0 -0.38436873584E+02  0.40537188103E+02  0.23451520077E+02  0.60585729873E+02  0.00000000000E+00 0.  1.
         11    1    1    2    0    0  0.31134853368E+02 -0.68159262039E+01  0.70390443645E+02  0.77269984475E+02  0.00000000000E+00 0. -1.
</event>
<event>
 7    1  0.2900135E-009  0.1346514E+03  0.7561462E-02  0.1220713E+00
          1   -1    0    0  501    0  0.00000000000E+00  0.00000000000E+00  0.10638538746E+04  0.10638538746E+04  0.00000000000E+00 0. -1.
         -1   -1    0    0    0  501 -0.00000000000E+00 -0.00000000000E+00 -0.19955377606E+02  0.19955377606E+02  0.00000000000E+00 0.  1.
         25    2    1    2    0    0 -0.97581183730E+01  0.80911371914E+02  0.77365394694E+03  0.78792739919E+03  0.12508911141E+03 0.  0.
          5    1    3    3  502    0  0.57542271112E+02  0.42832909390E+02  0.37098169909E+03  0.37787652025E+03  0.41800000000E+01 0.  1.
         -5    1    3    3    0  502 -0.67300389485E+02  0.38078462524E+02  0.40267224785E+03  0.41005087894E+03  0.41800000000E+01 0.  1.
        -11    1    1    2    0    0 -0.39056146657E+02 -0.43832153119E+02  0.14521862365E+03  0.15663680568E+03  0.00000000000E+00 0.  1.
         11    1    1    2    0    0  0.48814265030E+02 -0.37079218795E+02  0.12502592644E+03  0.13924504738E+03  0.00000000000E+00 0. -1.
</event>
<event>
 7    1  0.2900135E-009  0.7045656E+02  0.7561462E-02  0.1358547E+00
         -4   -1    0    0    0  501 -0.00000000000E+00  0.00000000000E+00  0.71563620413E+03  0.71563620413E+03  0.00000000000E+00 0.  1.
          4   -1    0    0  501    0  0.00000000000E+00 -0.00000000000E+00 -0.16508970126E+02  0.16508970126E+02  0.00000000000E+00 0. -1.
         25    2    1    2    0    0  0.10772668598E+00 -0.10922252850E+02  0.43395826663E+03  0.45175944914E+03  0.12509002958E+03 0.  0.
          5    1    3    3  502    0  0.23800263309E+02  0.26628413966E+00  0.42194024569E+03  0.42263171530E+03  0.41800000000E+01 0.  1.
         -5    1    3    3    0  502 -0.23692536624E+02 -0.11188536989E+02  0.12018020938E+02  0.29127733844E+02  0.41800000000E+01 0.  1.
        -11    1    1    2    0    0 -0.43526613107E+02  0.16268386532E+02  0.11687116168E+03  0.12577000788E+03  0.00000000000E+00 0.  1.
         11    1    1    2    0    0  0.43418886421E+02 -0.53461336818E+01  0.14829780570E+03  0.15461571724E+03  0.00000000000E+00 0. -1.
</event>
<event>
 7    1  0.2900135E-009  0.7368473E+02  0.7561462E-02  0.1347993E+00
          3   -1    0    0  501    0  0.00000000000E+00  0.00000000000E+00  0.24122573473E+03  0.24122573473E+03  0.00000000000E+00 0. -1.
         -3   -1    0    0    0  501 -0.00000000000E+00 -0.00000000000E+00 -0.69287174831E+02  0.69287174831E+02  0.00000000000E+00 0.  1.
         25    2    1    2    0    0 -0.21541633960E+02 -0.65846921099E+02  0.99121857230E+02  0.17399186986E+03  0.12509264240E+03 0.  0.
          5    1    3    3  502    0 -0.21246461513E+02 -0.46121616733E+02 -0.18836524631E+02  0.54322212005E+02  0.41800000000E+01 0.  1.
         -5    1    3    3    0  502 -0.29517244653E+00 -0.19725304366E+02  0.11795838186E+03  0.11966965785E+03  0.41800000000E+01 0.  1.
        -11    1    1    2    0    0 -0.67376950457E+01  0.29174716623E+02  0.83747192823E+02  0.88939040529E+02  0.00000000000E+00 0. -1.
         11    1    1    2    0    0  0.28279329005E+02  0.36672204476E+02 -0.10930490157E+02  0.47581999172E+02  0.00000000000E+00 0.  1.
</event>
<event>
 7    1  0.2900135E-009  0.1499378E+03  0.7561462E-02  0.1200549E+00
          1   -1    0    0  501    0  0.00000000000E+00  0.00000000000E+00  0.10185643056E+03  0.10185643056E+03  0.00000000000E+00 0. -1.
         -1   -1    0    0    0  501 -0.00000000000E+00 -0.00000000000E+00 -0.30147788977E+03  0.30147788977E+03  0.00000000000E+00 0.  1.
         25    2    1    2    0    0  0.11603666511E+03  0.66590113698E+02 -0.72832623663E+02  0.19710505830E+03  0.12508821706E+03 0.  0.
          5    1    3    3  502    0  0.20234693850E+01  0.20057316572E+02  0.30158460135E+02  0.36515688329E+02  0.41800000000E+01 0. -1.
         -5    1    3    3    0  502  0.11401319572E+03  0.46532797126E+02 -0.10299108380E+03  0.16058936998E+03  0.41800000000E+01 0. -1.
        -11    1    1    2    0    0  0.79925039223E+01 -0.23419335055E+02 -0.16071984984E+01  0.24797751115E+02  0.00000000000E+00 0. -1.
         11    1    1    2    0    0 -0.12402916903E+03 -0.43170778643E+02 -0.12518163705E+03  0.18143151091E+03  0.00000000000E+00 0.  1.
</event>
<event>
 7    1  0.2900135E-009  0.1636460E+03  0.7561462E-02  0.1184641E+00
          1   -1    0    0  501    0  0.00000000000E+00  0.00000000000E+00  0.56363300951E+03  0.56363300951E+03  0.00000000000E+00 0. -1.
         -1   -1    0    0    0  501 -0.00000000000E+00 -0.00000000000E+00 -0.62389092110E+02  0.62389092110E+02  0.00000000000E+00 0.  1.
         25    2    1    2    0    0  0.70192956087E+02  0.12029030168E+03  0.16370705024E+03  0.24868424739E+03  0.12508816427E+03 0.  0.
          5    1    3    3  502    0 -0.32762560366E+02  0.32845429535E+02  0.70564122571E+02  0.84551613807E+02  0.41800000000E+01 0. -1.
         -5    1    3    3    0  502  0.10295551645E+03  0.87444872143E+02  0.93142927669E+02  0.16413263358E+03  0.41800000000E+01 0. -1.
        -11    1    1    2    0    0 -0.65596992620E+02 -0.73348964083E+02  0.12219191798E+03  0.15688817926E+03  0.00000000000E+00 0.  1.
         11    1    1    2    0    0 -0.45959634680E+01 -0.46941337595E+02  0.21534494918E+03  0.22044967497E+03  0.00000000000E+00 0. -1.
</event>
<event>
 7    1  0.2900135E-009  0.8938383E+02  0.7561462E-02  0.1304351E+00
         -2   -1    0    0    0  501 -0.00000000000E+00  0.00000000000E+00  0.15405011093E+02  0.15405011093E+02  0.00000000000E+00 0.  1.
          2   -1    0    0  501    0  0.00000000000E+00 -0.00000000000E+00 -0.78038401949E+03  0.78038401949E+03  0.00000000000E+00 0. -1.
         25    2    1    2    0    0 -0.53371802281E+01  0.10766665951E+02 -0.43098634449E+03  0.44893321843E+03  0.12508956346E+03 0.  0.
          5    1    3    3  502    0 -0.44345081824E+02  0.21689782953E+02 -0.38213934590E+03  0.38533736524E+03  0.41800000000E+01 0. -1.
         -5    1    3    3    0  502  0.39007901596E+02 -0.10923117002E+02 -0.48846998590E+02  0.63595853192E+02  0.41800000000E+01 0. -1.
        -11    1    1    2    0    0 -0.39748974555E+02  0.63953186604E+01 -0.20968998000E+03  0.21351994940E+03  0.00000000000E+00 0. -1.
         11    1    1    2    0    0  0.45086154784E+02 -0.17161984611E+02 -0.12430268390E+03  0.13333586275E+03  0.00000000000E+00 0.  1.
</event>
<event>
 7    1  0.2900135E-009  0.1275345E+03  0.7561462E-02  0.1231161E+00
         -2   -1    0    0    0  501 -0.00000000000E+00  0.00000000000E+00  0.29746535273E+02  0.29746535273E+02  0.00000000000E+00 0.  1.
          2   -1    0    0  501    0  0.00000000000E+00 -0.00000000000E+00 -0.89794907869E+03  0.89794907869E+03  0.00000000000E+00 0. -1.
         25    2    1    2    0    0  0.10247039446E+03 -0.11050519723E+02 -0.64419289519E+03  0.66426956402E+03  0.12508905521E+03 0.  0.
          5    1    3    3  502    0  0.11560385061E+03 -0.28080177937E+02 -0.35868076441E+03  0.37791812582E+03  0.41800000000E+01 0.  1.
         -5    1    3    3    0  502 -0.13133456155E+02  0.17029658214E+02 -0.28551213079E+03  0.28635143819E+03  0.41800000000E+01 0.  1.
        -11    1    1    2    0    0 -0.82349146519E+02  0.28851326064E+02 -0.84895592910E+02  0.12174170462E+03  0.00000000000E+00 0.  1.
         11    1    1    2    0    0 -0.20121247937E+02 -0.17800806341E+02 -0.13911405531E+03  0.14168434532E+03  0.00000000000E+00 0. -1.
</event>
<event>
 6    1  0.2900135E-009  0.1517412E+03  0.7561462E-02  0.1198350E+00
         -1   -1    0    0    0  501 -0.00000000000E+00  0.00000000000E+00  0.45844508396E+02  0.45844508396E+02  0.00000000000E+00 0.  1.
          1   -1    0    0  501    0  0.00000000000E+00 -0.00000000000E+00 -0.71006753601E+03  0.71006753601E+03  0.00000000000E+00 0. -1.
          5    1    1    2  502    0 -0.73059061703E+02  0.12394151251E+03 -0.27606755806E+03  0.31133566136E+03  0.41800000000E+01 0.  1.
         -5    1    1    2    0  502  0.24872057540E+02 -0.14499754123E+01 -0.92197733601E+01  0.26892346416E+02  0.41800000000E+01 0.  1.
        -11    1    1    2    0    0  0.39685461483E+02 -0.64902325215E+02 -0.33815780737E+03  0.34660921851E+03  0.00000000000E+00 0. -1.
         11    1    1    2    0    0  0.85015426799E+01 -0.57589211886E+02 -0.40777888823E+02  0.71074818118E+02  0.00000000000E+00 0.  1.
</event>
<event>
 7    1  0.2900135E-009  0.1183684E+03  0.7561462E-02  0.1245813E+00
          2   -1    0    0  501    0  0.00000000000E+00  0.00000000000E+00  0.42776215954E+03  0.42776215954E+03  0.00000000000E+00 0. -1.
         -2   -1    0    0    0  501 -0.00000000000E+00 -0.00000000000E+00 -0.41815305842E+02  0.41815305842E+02  0.00000000000E+00 0.  1.
         25    2    1    2    0    0 -0.27216215154E+02  0.68718516464E+02  0.25947827939E+03  0.29738651696E+03  0.12508719407E+03 0.  0.
          5    1    3    3  502    0 -0.14852936057E+02  0.94727995945E+02  0.11397866770E+03  0.14900540935E+03  0.41800000000E+01 0. -1.
         -5    1    3    3    0  502 -0.12363279097E+02 -0.26009479481E+02  0.14549961169E+03  0.14838110761E+03  0.41800000000E+01 0. -1.
        -11    1    1    2    0    0  0.41447885378E+02 -0.82199025719E+02  0.80779617405E+02  0.12247429779E+03  0.00000000000E+00 0.  1.
         11    1    1    2    0    0 -0.14231670224E+02  0.13480509256E+02  0.45688956901E+02  0.49716650630E+02  0.00000000000E+00 0. -1.
</event>
<event>
 7    1  0.2900135E-009  0.1560507E+03  0.7561462E-02  0.1193229E+00
          1   -1    0    0  501    0  0.00000000000E+00  0.00000000000E+00  0.29534271710E+03  0.29534271710E+03  0.00000000000E+00 0. -1.
         -1   -1    0    0    0  501 -0.00000000000E+00 -0.00000000000E+00 -0.10946564305E+03  0.10946564305E+03  0.00000000000E+00 0.  1.
         25    2    1    2    0    0 -0.12987612012E+03 -0.48996465899E+02  0.63304244417E+02  0.19729168403E+03  0.12509244972E+03 0.  0.
          5    1    3    3  502    0 -0.13433057029E+03 -0.11088135052E+02  0.78454465066E+02  0.15601353897E+03  0.41800000000E+01 0. -1.
         -5    1    3    3    0  502  0.44544501674E+01 -0.37908330847E+02 -0.15150220649E+02  0.41278145060E+02  0.41800000000E+01 0. -1.
        -11    1    1    2    0    0  0.10457882067E+03  0.38015325660E+02  0.13691672835E+03  0.17643153125E+03  0.00000000000E+00 0.  1.
         11    1    1    2    0    0  0.25297299457E+02  0.10981140239E+02 -0.14343898722E+02  0.31085144865E+02  0.00000000000E+00 0. -1.
</event>
<event>
 7    1  0.2900135E-009  0.1078113E+03  0.7561462E-02  0.1264678E+00
         -1   -1    0    0    0  501 -0.00000000000E+00  0.00000000000E+00  0.12546616842E+03  0.12546616842E+03  0.00000000000E+00 0.  1.
          1   -1    0    0  501    0  0.00000000000E+00 -0.00000000000E+00 -0.16963626143E+03  0.16963626143E+03  0.00000000000E+00 0. -1.
         25    2    1    2    0    0  0.44100801056E+02  0.78802439664E+02 -0.41623427797E+02  0.15979822512E+03  0.12509299684E+03 0.  0.
          5    1    3    3  502    0  0.39005632271E+02  0.67551160909E+02 -0.84445287139E+02  0.11503511468E+03  0.41800000000E+01 0.  1.
         -5    1    3    3    0  502  0.50951687844E+01  0.11251278755E+02  0.42821859341E+02  0.44763110437E+02  0.41800000000E+01 0.  1.
        -11    1    1    2    0    0 -0.18120412957E+02 -0.93076566294E+02  0.21385824256E+02  0.97205709904E+02  0.00000000000E+00 0.  1.
         11    1    1    2    0    0 -0.25980388099E+02  0.14274126629E+02 -0.23932489469E+02  0.38098494838E+02  0.00000000000E+00 0. -1.
</event>
<event>
 7    1  0.2900135E-009  0.1108370E+03  0.7561462E-02  0.1259028E+00
         -2   -1    0    0    0  501 -0.00000000000E+00  0.00000000000E+00  0.20230719816E+03  0.20230719816E+03  0.00000000000E+00 0.  1.
          2   -1    0    0  501    0  0.00000000000E+00 -0.00000000000E+00 -0.97201473872E+02  0.97201473872E+02  0.00000000000E+00 0. -1.
         25    2    1    2    0    0  0.26330630737E+02  0.81027139374E+02  0.30977923528E+02  0.15449227190E+03  0.12509808511E+03 0.  0.
          5    1    3    3  502    0  0.36007101385E+02  0.78720690644E+02 -0.30650823101E+02  0.91926078141E+02  0.41800000000E+01 0. -1.
         -5    1    3    3    0  502 -0.96764706480E+01  0.23064487304E+01  0.61628746629E+02  0.62566193755E+02  0.41800000000E+01 0. -1.
        -11    1    1    2    0    0 -0.24760895055E+02 -0.10109801722E+03  0.66343775831E+02  0.12343179331E+03  0.00000000000E+00 0. -1.
         11    1    1    2    0    0 -0.15697356815E+01  0.20070877844E+02  0.77840249308E+01  0.21584606822E+02  0.00000000000E+00 0.  1.
</event>
<event>
 7    1  0.2900135E-009  0.9008693E+02  0.7561462E-02  0.1302641E+00
          1   -1    0    0  501    0  0.00000000000E+00  0.00000000000E+00  0.14129285928E+03  0.14129285928E+03  0.00000000000E+00 0. -1.
         -1   -1    0    0    0  501 -0.00000000000E+00 -0.00000000000E+00 -0.12721606840E+03  0.12721606840E+03  0.00000000000E+00 0.  1.
         25    2    1    2    0    0  0.60606078256E+02  0.35105752982E+02  0.44064636144E+02  0.14997726251E+03  0.12508387784E+03 0.  0.
          5    1    3    3  502    0  0.58540816172E+02  0.60484156681E+02 -0.14926326113E+02  0.85589882456E+02  0.41800000000E+01 0.  1.
         -5    1    3    3    0  502  0.20652620837E+01 -0.25378403699E+02  0.58990962257E+02  0.64387380051E+02  0.41800000000E+01 0.  1.
        -11    1    1    2    0    0 -0.29232845810E+02 -0.15359647116E+02 -0.61547619176E+02  0.69846885829E+02  0.00000000000E+00 0.  1.
         11    1    1    2    0    0 -0.31373232446E+02 -0.19746105867E+02  0.31559773914E+02  0.48684779352E+02  0.00000000000E+00 0. -1.
</event>
<event>
 7    1  0.2900135E-009  0.1355397E+03  0.7561462E-02  0.1219460E+00
          1   -1    0    0  501    0  0.00000000000E+00  0.00000000000E+00  0.51178151692E+03  0.51178151692E+03  0.00000000000E+00 0. -1.
         -1   -1    0    0    0  501 -0.00000000000E+00 -0.00000000000E+00 -0.52552684564E+02  0.52552684564E+02  0.00000000000E+00 0.  1.
         25    2    1    2    0    0  0.11266081353E+03 -0.45528138378E+02  0.27477465347E+03  0.32544701320E+03  0.12509747368E+03 0.  0.
          5    1    3    3  502    0  0.93544525702E+02 -0.46607947610E+02  0.28482448712E+03  0.30342270833E+03  0.41800000000E+01 0.  1.
         -5    1    3    3    0  502  0.19116287830E+02  0.10798092323E+01 -0.10049833652E+02  0.22024304866E+02  0.41800000000E+01 0.  1.
        -11    1    1    2    0    0  0.49060181148E+01  0.27512353752E+02  0.14600565470E+02  0.31530542887E+02  0.00000000000E+00 0.  1.
         11    1    1    2    0    0 -0.11756683165E+03  0.18015784626E+02  0.16985361341E+03  0.20735664539E+03  0.00000000000E+00 0. -1.
</event>
<event>
 7    1  0.2900135E-009  0.8774595E+02  0.7561462E-02  0.1308404E+00
          3   -1    0    0  501    0  0.00000000000E+00  0.00000000000E+00  0.68968245538E+02  0.68968245538E+02  0.00000000000E+00 0. -1.
         -3   -1    0    0    0  501 -0.00000000000E+00 -0.00000000000E+00 -0.24002450184E+03  0.24002450184E+03  0.00000000000E+00 0.  1.
         25    2    1    2    0    0 -0.56510806775E+02  0.20612730916E+02 -0.52392460803E+02  0.14836221982E+03  0.12509205555E+03 0.  0.
          5    1    3    3  502    0  0.49540770326E+01 -0.24397940596E+02 -0.66177615770E+02  0.70829030868E+02  0.41800000000E+01 0. -1.
         -5    1    3    3    0  502 -0.61464883808E+02  0.45010671512E+02  0.13785154968E+02  0.77533188951E+02  0.41800000000E+01 0. -1.
        -11    1    1    2    0    0  0.74997811610E+01 -0.23683494896E+02  0.69187704362E+01  0.25788059878E+02  0.00000000000E+00 0. -1.
         11    1    1    2    0    0  0.49011025614E+02  0.30707639800E+01 -0.12558256593E+03  0.13484246768E+03  0.00000000000E+00 0.  1.
</event>
<event>
 7    1  0.2900135E-009  0.1016608E+03  0.7561462E-02  0.1276842E+00
         -1   -1    0    0    0  501 -0.00000000000E+00  0.00000000000E+00  0.99206614389E+02  0.99206614389E+02  0.00000000000E+00 0.  1.
          1   -1    0    0  501    0  0.00000000000E+00 -0.00000000000E+00 -0.16071568303E+03  0.16071568303E+03  0.00000000000E+00 0. -1.
         25    2    1    2    0    0  0.42908502557E+02  0.13691629319E+02  0.14360058786E+02  0.13372647532E+03  0.12509180072E+03 0.  0.
          5    1    3    3  502    0  0.19649109486E+02  0.56007453250E+02 -0.31219207711E+02  0.67194000128E+02  0.41800000000E+01 0.  1.
         -5    1    3    3    0  502  0.23259393071E+02 -0.42315823931E+02  0.45579266497E+02  0.66532475194E+02  0.41800000000E+01 0.  1.
        -11    1    1    2    0    0 -0.68425277631E+02 -0.59299349795E+01 -0.71545840796E+02  0.99176560149E+02  0.00000000000E+00 0. -1.
         11    1    1    2    0    0  0.25516775074E+02 -0.77616943399E+01 -0.43232866354E+01  0.27019261954E+02  0.00000000000E+00 0.  1.
</event>
<event>
 7    1  0.2900135E-009  0.1745556E+03  0.7561462E-02  0.1173179E+00
         -1   -1    0    0    0  501 -0.00000000000E+00  0.00000000000E+00  0.16240417148E+03  0.16240417148E+03  0.00000000000E+00 0.  1.
          1   -1    0    0  501    0  0.00000000000E+00 -0.00000000000E+00 -0.33933942134E+03  0.33933942134E+03  0.00000000000E+00 0. -1.
         25    2    1    2    0    0 -0.14935406642E+03  0.20044413971E+02 -0.24332578045E+03  0.31235152419E+03  0.12509046145E+03 0.  0.
          5    1    3    3  502    0 -0.66744585259E+02  0.55969833074E+02 -0.53804497224E+02  0.10246881573E+03  0.41800000000E+01 0. -1.
         -5    1    3    3    0  502 -0.82609481163E+02 -0.35925419103E+02 -0.18952128323E+03  0.20988270846E+03  0.41800000000E+01 0. -1.
        -11    1    1    2    0    0  0.12231285875E+03  0.19460624700E+02  0.68385569741E+02  0.14147698568E+03  0.00000000000E+00 0.  1.
         11    1    1    2    0    0  0.27041207674E+02 -0.39505038671E+02 -0.19950391540E+01  0.47915082950E+02  0.00000000000E+00 0. -1.
</event>
<event>
 7    1  0.2900135E-009  0.9230707E+02  0.7561462E-02  0.1297359E+00
          2   -1    0    0  501    0  0.00000000000E+00  0.00000000000E+00  0.84235942985E+02  0.84235942985E+02  0.00000000000E+00 0. -1.
         -2   -1    0    0    0  501 -0.00000000000E+00 -0.00000000000E+00 -0.18308557335E+03  0.18308557335E+03  0.00000000000E+00 0.  1.
         25    2    1    2    0    0 -0.11559767971E+02  0.48151375110E+02 -0.91116603643E+02  0.16248568201E+03  0.12508868149E+03 0.  0.
          5    1    3    3  502    0 -0.28389505366E+02 -0.32543217270E+00  0.23334862639E+02  0.36987269910E+02  0.41800000000E+01 0. -1.
         -5    1    3    3    0  502  0.16829737395E+02  0.48476807283E+02 -0.11445146628E+03  0.12549841210E+03  0.41800000000E+01 0. -1.
        -11    1    1    2    0    0  0.52101974084E+02 -0.28259689431E+02 -0.68611567580E+01  0.59668259756E+02  0.00000000000E+00 0. -1.
         11    1    1    2    0    0 -0.40542206113E+02 -0.19891685679E+02 -0.87186996827E+00  0.45167574574E+02  0.00000000000E+00 0.  1.
</event>
<event>
 7    1  0.2900135E-009  0.3062135E+03  0.7561462E-02  0.1082175E+00
          2   -1    0    0  501    0  0.00000000000E+00  0.00000000000E+00  0.19657552681E+04  0.19657552681E+04  0.00000000000E+00 0. -1.
         -2   -1    0    0    0  501 -0.00000000000E+00 -0.00000000000E+00 -0.51592289564E+02  0.51592289564E+02  0.00000000000E+00 0.  1.
         25    2    1    2    0    0  0.16939830502E+03 -0.24630698264E+03  0.10173977484E+04  0.10677587338E+04  0.12509044605E+03 0.  0.
          5    1    3    3  502    0  0.60549852474E+02 -0.16516078904E+03  0.42495452208E+03  0.45994368036E+03  0.41800000000E+01 0.  1.
         -5    1    3    3    0  502  0.10884845255E+03 -0.81146193600E+02  0.59244322630E+03  0.60781505340E+03  0.41800000000E+01 0.  1.
        -11    1    1    2    0    0 -0.97698350603E+02  0.11388839571E+03  0.31910035656E+03  0.35261958531E+03  0.00000000000E+00 0.  1.
         11    1    1    2    0    0 -0.71699954417E+02  0.13241858693E+03  0.57766487360E+03  0.59696923859E+03  0.00000000000E+00 0. -1.
</event>
<event>
 7    1  0.2900135E-009  0.1572414E+03  0.7561462E-02  0.1191847E+00
          2   -1    0    0  501    0  0.00000000000E+00  0.00000000000E+00  0.18868683186E+02  0.18868683186E+02  0.00000000000E+00 0. -1.
         -2   -1    0    0    0  501 -0.00000000000E+00 -0.00000000000E+00 -0.17259348402E+04  0.17259348402E+04  0.00000000000E+00 0.  1.
         25    2    1    2    0    0 -0.10779507908E+03 -0.65761365839E+02 -0.12308931247E+04  0.12436599058E+04  0.12509092911E+03 0.  0.
          5    1    3    3  502    0  0.23740454530E+02  0.97227546374E+01 -0.18903006650E+03  0.19080875132E+03  0.41800000000E+01 0. -1.
         -5    1    3    3    0  502 -0.13153553361E+03 -0.75484120476E+02 -0.10418630582E+04  0.10528511544E+04  0.41800000000E+01 0. -1.
        -11    1    1    2    0    0  0.81752038387E+02  0.20061973657E+02 -0.39878391728E+03  0.40757145539E+03  0.00000000000E+00 0.  1.
         11    1    1    2    0    0  0.26043040695E+02  0.45699392182E+02 -0.77389115090E+02  0.93572162254E+02  0.00000000000E+00 0. -1.
</event>
<event>
 7    1  0.2900135E-009  0.7610966E+02  0.7561462E-02  0.1340469E+00
          2   -1    0    0  501    0  0.00000000000E+00  0.00000000000E+00  0.30876981895E+03  0.30876981895E+03  0.00000000000E+00 0. -1.
         -2   -1    0    0    0  501 -0.00000000000E+00 -0.00000000000E+00 -0.48433209863E+02  0.48433209863E+02  0.00000000000E+00 0.  1.
         25    2    1    2    0    0 -0.48694659879E+02  0.15641020390E+02  0.18104147839E+03  0.22592034299E+03  0.12509265789E+03 0.  0.
          5    1    3    3  502    0 -0.33434803745E+02  0.46677905239E+02  0.19678066209E+02  0.60839227713E+02  0.41800000000E+01 0. -1.
         -5    1    3    3    0  502 -0.15259856134E+02 -0.31036884849E+02  0.16136341218E+03  0.16508111528E+03  0.41800000000E+01 0. -1.
        -11    1    1    2    0    0  0.44080965663E+02 -0.60480002547E+00  0.97632467658E+02  0.10712420855E+03  0.00000000000E+00 0. -1.
         11    1    1    2    0    0  0.46136942155E+01 -0.15036220364E+02 -0.18337336962E+02  0.24158477270E+02  0.00000000000E+00 0.  1.
</event>
<event>
 7    1  0.3985308E-009  0.2575734E+03  0.7561462E-02  0.1108610E+00
         -2   -1    0    0    0  501 -0.00000000000E+00  0.00000000000E+00  0.87029583869E+02  0.87029583869E+02  0.00000000000E+00 0. -1.
          2   -1    0    0  501    0  0.00000000000E+00 -0.00000000000E+00 -0.76715810953E+03  0.76715810953E+03  0.00000000000E+00 0.  1.
         25    2    1    2    0    0 -0.22275075146E+03 -0.72444420807E+02 -0.35003967676E+03  0.43936477963E+03  0.12509013907E+03 0.  0.
          5    1    3    3  502    0 -0.21510784203E+02  0.31221887703E+02 -0.38036015941E+02  0.53867717767E+02  0.41800000000E+01 0.  1.
         -5    1    3    3    0  502 -0.20123996726E+03 -0.10366630851E+03 -0.31200366081E+03  0.38549706186E+03  0.41800000000E+01 0.  1.
        -11    1    1    2    0    0  0.30111605827E+02  0.47645556149E+02 -0.62303397477E+02  0.84015005585E+02  0.00000000000E+00 0. -1.
         11    1    1    2    0    0  0.19263914564E+03  0.24798864658E+02 -0.26778545143E+03  0.33080790819E+03  0.00000000000E+00 0.  1.
</event>
<event>
 7    1  0.2900135E-009  0.1076811E+03  0.7561462E-02  0.1264925E+00
          1   -1    0    0  501    0  0.00000000000E+00  0.00000000000E+00  0.19947927348E+03  0.19947927348E+03  0.00000000000E+00 0. -1.
         -1   -1    0    0    0  501 -0.00000000000E+00 -0.00000000000E+00 -0.92325647296E+02  0.92325647296E+02  0.00000000000E+00 0.  1.
         25    2    1    2    0    0 -0.22297663263E+02  0.51298262854E+02 -0.10898500612E+02  0.13746155486E+03  0.12509278232E+03 0.  0.
          5    1    3    3  502    0  0.41094441522E+02  0.29981726140E+02  0.29757981511E+02  0.59081866000E+02  0.41800000000E+01 0.  1.
         -5    1    3    3    0  502 -0.63392104785E+02  0.21316536713E+02 -0.40656482123E+02  0.78379688856E+02  0.41800000000E+01 0.  1.
        -11    1    1    2    0    0  0.29629534392E+02  0.13171812314E+02  0.25199665261E+02  0.41066154886E+02  0.00000000000E+00 0.  1.
         11    1    1    2    0    0 -0.73318711291E+01 -0.64470075167E+02  0.92852461532E+02  0.11327721103E+03  0.00000000000E+00 0. -1.
</event>
<event>
 7    1  0.2900135E-009  0.1047459E+03  0.7561462E-02  0.1270621E+00
         -1   -1    0    0    0  501 -0.00000000000E+00  0.00000000000E+00  0.68804204694E+02  0.68804204694E+02  0.00000000000E+00 0.  1.
          1   -1    0    0  501    0  0.00000000000E+00 -0.00000000000E+00 -0.19337196073E+03  0.19337196073E+03  0.00000000000E+00 0. -1.
         25    2    1    2    0    0  0.32100983983E+02 -0.95125385108E+01 -0.94393388840E+02  0.16024552341E+03  0.12509018489E+03 0.  0.
          5    1    3    3  502    0  0.72581320407E+02  0.21719593840E+02 -0.41177060980E+02  0.86329668015E+02  0.41800000000E+01 0.  1.
         -5    1    3    3    0  502 -0.40480336424E+02 -0.31232132351E+02 -0.53216327860E+02  0.73915855397E+02  0.41800000000E+01 0.  1.
        -11    1    1    2    0    0 -0.39729295196E+02  0.36695583725E+02  0.77663203643E+01  0.54637885150E+02  0.00000000000E+00 0.  1.
         11    1    1    2    0    0  0.76283112126E+01 -0.27183045215E+02 -0.37940687564E+02  0.47292756866E+02  0.00000000000E+00 0. -1.
</event>
<event>
 7    1  0.2900135E-009  0.1065399E+03  0.7561462E-02  0.1267115E+00
         -2   -1    0    0    0  501 -0.00000000000E+00  0.00000000000E+00  0.57198285247E+02  0.57198285247E+02  0.00000000000E+00 0.  1.
          2   -1    0    0  501    0  0.00000000000E+00 -0.00000000000E+00 -0.45062467980E+03  0.45062467980E+03  0.00000000000E+00 0. -1.
         25    2    1    2    0    0  0.54253677120E+02  0.54769149046E+02 -0.68856319890E+02  0.16225588979E+03  0.12507061931E+03 0.  0.
          5    1    3    3  502    0  0.71224336601E+02  0.28255054012E+02 -0.94289777185E+02  0.12157009782E+03  0.41800000000E+01 0. -1.
         -5    1    3    3    0  502 -0.16970659481E+02  0.26514095035E+02  0.25433457295E+02  0.40685791976E+02  0.41800000000E+01 0. -1.
        -11    1    1    2    0    0 -0.36795289641E+00 -0.50531881485E+02 -0.23953275594E+03  0.24480512169E+03  0.00000000000E+00 0. -1.
         11    1    1    2    0    0 -0.53885724224E+02 -0.42372675614E+01 -0.85037318721E+02  0.10076195357E+03  0.00000000000E+00 0.  1.
</event>
<event>
 7    1  0.2900135E-009  0.7652770E+02  0.7561462E-02  0.1339204E+00
          2   -1    0    0  501    0  0.00000000000E+00  0.00000000000E+00  0.49670554001E+03  0.49670554001E+03  0.00000000000E+00 0. -1.
         -2   -1    0    0    0  501 -0.00000000000E+00 -0.00000000000E+00 -0.26017353753E+02  0.26017353753E+02  0.00000000000E+00 0.  1.
         25    2    1    2    0    0 -0.16254647416E+02  0.22197118607E+02  0.21665580894E+03  0.25168058929E+03  0.12508578593E+03 0.  0.
          5    1    3    3  502    0  0.20773480637E+02  0.25736544927E+02  0.15830774671E+01  0.33374927367E+02  0.41800000000E+01 0.  1.
         -5    1    3    3    0  502 -0.37028128052E+02 -0.35394263199E+01  0.21507273147E+03  0.21830566193E+03  0.41800000000E+01 0.  1.
        -11    1    1    2    0    0  0.47481527347E+02 -0.87182642776E+01  0.77820372164E+02  0.91577911611E+02  0.00000000000E+00 0.  1.
         11    1    1    2    0    0 -0.31226879931E+02 -0.13478854329E+02  0.17621200515E+03  0.17946439285E+03  0.00000000000E+00 0. -1.
</event>
<event>
 7    1  0.2900135E-009  0.1038510E+03  0.7561462E-02  0.1272400E+00
         -1   -1    0    0    0  501 -0.00000000000E+00  0.00000000000E+00  0.25691131320E+02  0.25691131320E+02  0.00000000000E+00 0.  1.
          1   -1    0    0  501    0  0.00000000000E+00 -0.00000000000E+00 -0.58719499507E+03  0.58719499507E+03  0.00000000000E+00 0. -1.
         25    2    1    2    0    0 -0.35750376249E+02  0.35492580921E+02 -0.39324905040E+03  0.41572743909E+03  0.12508667105E+03 0.  0.
          5    1    3    3  502    0  0.68730237892E+01  0.60969527877E+02 -0.32751877414E+03  0.33324246668E+03  0.41800000000E+01 0.  1.
         -5    1    3    3    0  502 -0.42623400039E+02 -0.25476946956E+02 -0.65730276252E+02  0.82484972409E+02  0.41800000000E+01 0.  1.
        -11    1    1    2    0    0 -0.13606906784E+02  0.18663944883E+02 -0.15726693534E+02  0.27943150151E+02  0.00000000000E+00 0.  1.
         11    1    1    2    0    0  0.49357283033E+02 -0.54156525804E+02 -0.15252811982E+03  0.16921553715E+03  0.00000000000E+00 0. -1.
</event>
<event>
 7    1  0.3206672E-009  0.9600093E+02  0.7561462E-02  0.1288938E+00
         -1   -1    0    0    0  501 -0.00000000000E+00  0.00000000000E+00  0.83854364684E+02  0.83854364684E+02  0.00000000000E+00 0.  1.
          1   -1    0    0  501    0  0.00000000000E+00 -0.00000000000E+00 -0.17724494588E+03  0.17724494588E+03  0.00000000000E+00 0. -1.
         25    2    1    2    0    0  0.23200982498E+02 -0.49384162042E+02 -0.63514736685E+02  0.15052764725E+03  0.12508944704E+03 0.  0.
          5    1    3    3  502    0 -0.22571081203E+02 -0.27185770205E+02  0.28310546586E+02  0.45469542073E+02  0.41800000000E+01 0. -1.
         -5    1    3    3    0  502  0.45772063701E+02 -0.22198391837E+02 -0.91825283271E+02  0.10505810518E+03  0.41800000000E+01 0. -1.
        -11    1    1    2    0    0 -0.47137441071E+02  0.62344598884E+02 -0.15114428419E+02  0.79606741593E+02  0.00000000000E+00 0.  1.
         11    1    1    2    0    0  0.23936458573E+02 -0.12960436841E+02 -0.14761416094E+02  0.30964921722E+02  0.00000000000E+00 0. -1.
</event>
<event>
 7    1  0.2900135E-009  0.1379153E+03  0.7561462E-02  0.1216162E+00
         -3   -1    0    0    0  501 -0.00000000000E+00  0.00000000000E+00  0.11872915441E+02  0.11872915441E+02  0.00000000000E+00 0.  1.
          3   -1    0    0  501    0  0.00000000000E+00 -0.00000000000E+00 -0.22269949157E+04  0.22269949157E+04  0.00000000000E+00 0. -1.
         25    2    1    2    0    0 -0.42436850093E+02 -0.10536259792E+03 -0.14602637372E+04  0.14700068355E+04  0.12509097115E+03 0.  0.
          5    1    3    3  502    0  0.20488825217E+02 -0.36899149207E+02 -0.13563062174E+03  0.14210727330E+03  0.41800000000E+01 0.  1.
         -5    1    3    3    0  502 -0.62925675310E+02 -0.68463448715E+02 -0.13246331155E+04  0.13278995622E+04  0.41800000000E+01 0.  1.
        -11    1    1    2    0    0  0.52207342974E+02  0.11519556714E+03 -0.72491170640E+03  0.73586181272E+03  0.00000000000E+00 0. -1.
         11    1    1    2    0    0 -0.97704928808E+01 -0.98329692185E+01 -0.29946556644E+02  0.32999182863E+02  0.00000000000E+00 0.  1.
</event>
<event>
 7    1  0.2900135E-009  0.9490933E+02  0.7561462E-02  0.1291380E+00
          1   -1    0    0  501    0  0.00000000000E+00  0.00000000000E+00  0.30881233899E+03  0.30881233899E+03  0.00000000000E+00 0. -1.
         -1   -1    0    0    0  501 -0.00000000000E+00 -0.00000000000E+00 -0.40194516417E+02  0.40194516417E+02  0.00000000000E+00 0.  1.
         25    2    1    2    0    0  0.10933366828E+02 -0.10256713897E+02  0.11875241009E+03  0.17313338042E+03  0.12509314059E+03 0.  0.
          5    1    3    3  502    0 -0.56217726622E+02 -0.81117069788E+01  0.68764299503E+02  0.89287366759E+02  0.41800000000E+01 0. -1.
         -5    1    3    3    0  502  0.67151093451E+02 -0.21450069182E+01  0.49988110592E+02  0.83846013661E+02  0.41800000000E+01 0. -1.
        -11    1    1    2    0    0 -0.21864336560E+02 -0.22285966736E+02  0.13482720221E+03  0.13839468192E+03  0.00000000000E+00 0. -1.
         11    1    1    2    0    0  0.10930969731E+02  0.32542680633E+02  0.15038210270E+02  0.37478793073E+02  0.00000000000E+00 0.  1.
</event>
<event>
 7    1  0.2900135E-009  0.9164606E+02  0.7561462E-02  0.1298914E+00
         -2   -1    0    0    0  501 -0.00000000000E+00  0.00000000000E+00  0.72288547618E+02  0.72288547618E+02  0.00000000000E+00 0. -1.
          2   -1    0    0  501    0  0.00000000000E+00 -0.00000000000E+00 -0.24118245617E+03  0.24118245617E+03  0.00000000000E+00 0.  1.
         25    2    1    2    0    0  0.53263978942E+01  0.26066155196E+02 -0.17346283020E+03  0.21550905859E+03  0.12508791273E+03 0.  0.
          5    1    3    3  502    0  0.50165807587E+02  0.73656238367E+01 -0.15538810057E+03  0.16350472429E+03  0.41800000000E+01 0. -1.
         -5    1    3    3    0  502 -0.44839409693E+02  0.18700531359E+02 -0.18074729632E+02  0.52004334300E+02  0.41800000000E+01 0. -1.
        -11    1    1    2    0    0  0.12849854807E+02 -0.51115068372E+02 -0.22058126964E+02  0.57135190106E+02  0.00000000000E+00 0.  1.
         11    1    1    2    0    0 -0.18176252702E+02  0.25048913177E+02  0.26627048615E+02  0.40826755094E+02  0.00000000000E+00 0. -1.
</event>
<event>
 7    1  0.2900135E-009  0.1337656E+03  0.7561462E-02  0.1221973E+00
         -1   -1    0    0    0  501 -0.00000000000E+00  0.00000000000E+00  0.42092821927E+02  0.42092821927E+02  0.00000000000E+00 0.  1.
          1   -1    0    0  501    0  0.00000000000E+00 -0.00000000000E+00 -0.50044748984E+03  0.50044748984E+03  0.00000000000E+00 0. -1.
         25    2    1    2    0    0  0.62287683386E+02  0.67496060113E+02 -0.34813711689E+03  0.38115985243E+03  0.12509159568E+03 0.  0.
          5    1    3    3  502    0  0.64036809188E+02  0.98973857102E+02 -0.30888302128E+03  0.33063988047E+03  0.41800000000E+01 0. -1.
         -5    1    3    3    0  502 -0.17491258020E+01 -0.31477796989E+02 -0.39254095613E+02  0.50519971959E+02  0.41800000000E+01 0. -1.
        -11    1    1    2    0    0 -0.14497030051E+02 -0.68452774703E+02 -0.68870408328E+02  0.98178813336E+02  0.00000000000E+00 0.  1.
         11    1    1    2    0    0 -0.47790653335E+02  0.95671458931E+00 -0.41347142694E+02  0.63201646007E+02  0.00000000000E+00 0. -1.
</event>
<event>
 7    1  0.2900135E-009  0.1097742E+03  0.7561462E-02  0.1260989E+00
          1   -1    0    0  501    0  0.00000000000E+00  0.00000000000E+00  0.52802721318E+03  0.52802721318E+03  0.00000000000E+00 0. -1.
         -1   -1    0    0    0  501 -0.00000000000E+00 -0.00000000000E+00 -0.30556116047E+02  0.30556116047E+02  0.00000000000E+00 0.  1.
         25    2    1    2    0    0  0.21459583840E+02 -0.11864984925E+02  0.14058095876E+03  0.18976869918E+03  0.12509141304E+03 0.  0.
          5    1    3    3  502    0  0.39214840755E+02  0.49079562629E+02  0.58704850054E+02  0.86083326046E+02  0.41800000000E+01 0. -1.
         -5    1    3    3    0  502 -0.17755256916E+02 -0.60944547553E+02  0.81876108706E+02  0.10368537313E+03  0.41800000000E+01 0. -1.
        -11    1    1    2    0    0 -0.56340516133E+02  0.69113928797E+00  0.22234885924E+03  0.22937686596E+03  0.00000000000E+00 0.  1.
         11    1    1    2    0    0  0.34880932293E+02  0.11173845637E+02  0.13454127913E+03  0.13943776409E+03  0.00000000000E+00 0. -1.
</event>
<event>
 7    1  0.2900135E-009  0.1386599E+03  0.7561462E-02  0.1215144E+00
          2   -1    0    0  501    0  0.00000000000E+00  0.00000000000E+00  0.75471588677E+03  0.75471588677E+03  0.00000000000E+00 0. -1.
         -2   -1    0    0    0  501 -0.00000000000E+00 -0.00000000000E+00 -0.33073407791E+02  0.33073407791E+02  0.00000000000E+00 0.  1.
         25    2    1    2    0    0  0.50477705187E+02  0.42071689153E+02  0.35070146198E+03  0.37809543261E+03  0.12508643001E+03 0.  0.
          5    1    3    3  502    0 -0.11682161306E+02  0.44368656113E+02  0.39424130448E+02  0.60636498906E+02  0.41800000000E+01 0.  1.
         -5    1    3    3    0  502  0.62159866494E+02 -0.22969669603E+01  0.31127733154E+03  0.31745893370E+03  0.41800000000E+01 0.  1.
        -11    1    1    2    0    0 -0.67910638099E+02 -0.92955050803E+02  0.29472331643E+03  0.31640848516E+03  0.00000000000E+00 0. -1.
         11    1    1    2    0    0  0.17432932912E+02  0.50883361650E+02  0.76217700568E+02  0.93285376789E+02  0.00000000000E+00 0.  1.
</event>
<event>
 7    1  0.2900135E-009  0.1159556E+03  0.7561462E-02  0.1249922E+00
         -2   -1    0    0    0  501 -0.00000000000E+00  0.00000000000E+00  0.51988831875E+02  0.51988831875E+02  0.00000000000E+00 0.  1.
          2   -1    0    0  501    0  0.00000000000E+00 -0.00000000000E+00 -0.46093799976E+03  0.46093799976E+03  0.00000000000E+00 0. -1.
         25    2    1    2    0    0  0.56337990432E+01  0.95354134690E+02 -0.12929554486E+03  0.20368968540E+03  0.12509196347E+03 0.  0.
          5    1    3    3  502    0  0.19219257627E+02  0.74957754808E+02 -0.15161999452E+03  0.17027665726E+03  0.41800000000E+01 0. -1.
         -5    1    3    3    0  502 -0.13585458584E+02  0.20396379882E+02  0.22324449660E+02  0.33413028145E+02  0.41800000000E+01 0. -1.
        -11    1    1    2    0    0  0.36462509518E+02 -0.73676451106E+02 -0.14755747087E+03  0.16891104540E+03  0.00000000000E+00 0. -1.
         11    1    1    2    0    0 -0.42096308561E+02 -0.21677683584E+02 -0.13209615216E+03  0.14032610083E+03  0.00000000000E+00 0.  1.
</event>
<event>
 7    1  0.2900135E-009  0.1490277E+03  0.7561462E-02  0.1201673E+00
         -1   -1    0    0    0  501 -0.00000000000E+00  0.00000000000E+00  0.34393059157E+02  0.34393059157E+02  0.00000000000E+00 0.  1.
          1   -1    0    0  501    0  0.00000000000E+00 -0.00000000000E+00 -0.94662711221E+03  0.94662711221E+03  0.00000000000E+00 0. -1.
         25    2    1    2    0    0  0.31847107969E+02  0.13891087006E+03 -0.54051787545E+03  0.57281595683E+03  0.12509228038E+03 0.  0.
          5    1    3    3  502    0 -0.11344214590E+02  0.50726112948E+02 -0.48959821930E+02  0.71528779543E+02  0.41800000000E+01 0. -1.
         -5    1    3    3    0  502  0.43191322559E+02  0.88184757114E+02 -0.49155805352E+03  0.50128717729E+03  0.41800000000E+01 0. -1.
        -11    1    1    2    0    0  0.53075242924E+01 -0.61829707549E+02 -0.65382768152E+02  0.90144267266E+02  0.00000000000E+00 0.  1.
         11    1    1    2    0    0 -0.37154632261E+02 -0.77081162513E+02 -0.30633340945E+03  0.31805994727E+03  0.00000000000E+00 0. -1.
</event>
<event>
 7    1  0.2900135E-009  0.1109373E+03  0.7561462E-02  0.1258844E+00
          1   -1    0    0  501    0  0.00000000000E+00  0.00000000000E+00  0.43676650100E+03  0.43676650100E+03  0.00000000000E+00 0. -1.
         -1   -1    0    0    0  501 -0.00000000000E+00 -0.00000000000E+00 -0.48147713963E+02  0.48147713963E+02  0.00000000000E+00 0.  1.
         25    2    1    2    0    0 -0.59670458726E+02  0.65580698442E+02  0.27035969064E+03  0.31081674519E+03  0.12510513624E+03 0.  0.
          5    1    3    3  502    0 -0.28036004843E+02 -0.24353551843E+02  0.18940361446E+02  0.41896572016E+02  0.41800000000E+01 0. -1.
         -5    1    3    3    0  502 -0.31634453882E+02  0.89934250286E+02  0.25141932920E+03  0.26892017318E+03  0.41800000000E+01 0. -1.
        -11    1    1    2    0    0  0.19557231304E+02 -0.27663755122E+02 -0.92796355025E+01  0.35126632044E+02  0.00000000000E+00 0.  1.
         11    1    1    2    0    0  0.40113227422E+02 -0.37916943320E+02  0.12753873190E+03  0.13897083773E+03  0.00000000000E+00 0. -1.
</event>
<event>
 7    1  0.2900135E-009  0.1044142E+03  0.7561462E-02  0.1271278E+00
          1   -1    0    0  501    0  0.00000000000E+00  0.00000000000E+00  0.10730206036E+04  0.10730206036E+04  0.00000000000E+00 0. -1.
         -1   -1    0    0    0  501 -0.00000000000E+00 -0.00000000000E+00 -0.16855823678E+02  0.16855823678E+02  0.00000000000E+00 0.  1.
         25    2    1    2    0    0  0.31777403205E+02  0.51906239649E+01  0.88367409465E+03  0.89306456817E+03  0.12509065288E+03 0.  0.
          5    1    3    3  502    0 -0.35679514857E+02  0.25070895735E+02  0.56502283061E+03  0.56671849194E+03  0.41800000000E+01 0. -1.
         -5    1    3    3    0  502  0.67456918062E+02 -0.19880271770E+02  0.31865126403E+03  0.32634607623E+03  0.41800000000E+01 0. -1.
        -11    1    1    2    0    0  0.28046679862E+01  0.38639933526E+02  0.64430891172E+02  0.75181449591E+02  0.00000000000E+00 0.  1.
         11    1    1    2    0    0 -0.34582071191E+02 -0.43830557491E+02  0.10805979412E+03  0.12163040953E+03  0.00000000000E+00 0. -1.
</event>
<event>
 7    1  0.2900135E-009  0.1323489E+03  0.7561462E-02  0.1224011E+00
          2   -1    0    0  501    0  0.00000000000E+00  0.00000000000E+00  0.12778150230E+04  0.12778150230E+04  0.00000000000E+00 0.  1.
         -2   -1    0    0    0  501 -0.00000000000E+00 -0.00000000000E+00 -0.28475665842E+02  0.28475665842E+02  0.00000000000E+00 0. -1.
         25    2    1    2    0    0 -0.97479157770E+02 -0.83991955457E+02  0.95928342863E+03  0.97592521169E+03  0.12509391503E+03 0.  0.
          5    1    3    3  502    0 -0.81809392701E+02 -0.69759720815E+02  0.94241462862E+03  0.94853676788E+03  0.41800000000E+01 0.  1.
         -5    1    3    3    0  502 -0.15669765069E+02 -0.14232234642E+02  0.16868800006E+02  0.27388443801E+02  0.41800000000E+01 0.  1.
        -11    1    1    2    0    0  0.24758640319E+02  0.44440878252E+00  0.14887543617E+03  0.15092078474E+03  0.00000000000E+00 0.  1.
         11    1    1    2    0    0  0.72720517451E+02  0.83547546674E+02  0.14118049232E+03  0.17944469238E+03  0.00000000000E+00 0. -1.
</event>
<event>
 7    1  0.2900135E-009  0.9862448E+02  0.7561462E-02  0.1283215E+00
         -2   -1    0    0    0  501 -0.00000000000E+00  0.00000000000E+00  0.21195939851E+02  0.21195939851E+02  0.00000000000E+00 0.  1.
          2   -1    0    0  501    0  0.00000000000E+00 -0.00000000000E+00 -0.65293145245E+03  0.65293145245E+03  0.00000000000E+00 0. -1.
         25    2    1    2    0    0  0.50826963328E+01  0.39161343536E+02 -0.39656920545E+03  0.41770099289E+03  0.12509012799E+03 0.  0.
          5    1    3    3  502    0  0.40431155657E+02 -0.22903170623E+02 -0.25329322963E+03  0.25755420041E+03  0.41800000000E+01 0. -1.
         -5    1    3    3    0  502 -0.35348459324E+02  0.62064514160E+02 -0.14327597582E+03  0.16014679248E+03  0.41800000000E+01 0. -1.
        -11    1    1    2    0    0  0.67131976261E+01  0.18765936399E+02 -0.76383835737E+01  0.21344139592E+02  0.00000000000E+00 0.  1.
         11    1    1    2    0    0 -0.11795893959E+02 -0.57927279936E+02 -0.22752792358E+03  0.23508225982E+03  0.00000000000E+00 0. -1.
</event>
<event>
 7    1  0.2900135E-009  0.8322836E+02  0.7561462E-02  0.1320132E+00
          1   -1    0    0  501    0  0.00000000000E+00  0.00000000000E+00  0.34880100158E+03  0.34880100158E+03  0.00000000000E+00 0. -1.
         -1   -1    0    0    0  501 -0.00000000000E+00 -0.00000000000E+00 -0.38161868519E+02  0.38161868519E+02  0.00000000000E+00 0.  1.
         25    2    1    2    0    0  0.43099599785E+01 -0.30929202197E+02  0.13125359457E+03  0.18398516337E+03  0.12509133843E+03 0.  0.
          5    1    3    3  502    0 -0.92464283015E+01 -0.57082219689E+02  0.96253410238E+01  0.58770705550E+02  0.41800000000E+01 0. -1.
         -5    1    3    3    0  502  0.13556388280E+02  0.26153017492E+02  0.12162825355E+03  0.12521445782E+03  0.41800000000E+01 0. -1.
        -11    1    1    2    0    0  0.19349993320E+02 -0.16690138393E+02  0.13753328563E+02  0.29019596958E+02  0.00000000000E+00 0.  1.
         11    1    1    2    0    0 -0.23659953299E+02  0.47619340590E+02  0.16563220993E+03  0.17395810977E+03  0.00000000000E+00 0. -1.
</event>
<event>
 7    1  0.2900135E-009  0.9756260E+02  0.7561462E-02  0.1285507E+00
          2   -1    0    0  501    0  0.00000000000E+00  0.00000000000E+00  0.19493959795E+03  0.19493959795E+03  0.00000000000E+00 0. -1.
         -2   -1    0    0    0  501 -0.00000000000E+00 -0.00000000000E+00 -0.18823289915E+03  0.18823289915E+03  0.00000000000E+00 0.  1.
         25    2    1    2    0    0  0.56589293614E+02 -0.38228636656E+02 -0.13805511895E+03  0.19841887953E+03  0.12508820517E+03 0.  0.
          5    1    3    3  502    0  0.38389281482E+02  0.24053422348E+01 -0.14768940368E+03  0.15267336036E+03  0.41800000000E+01 0. -1.
         -5    1    3    3    0  502  0.18200012132E+02 -0.40633978891E+02  0.96342847259E+01  0.45745519172E+02  0.41800000000E+01 0. -1.
        -11    1    1    2    0    0 -0.29453688577E+02  0.66375841561E+02  0.72618919484E+02  0.10269751497E+03  0.00000000000E+00 0. -1.
         11    1    1    2    0    0 -0.27135605037E+02 -0.28147204905E+02  0.72142898267E+02  0.82056102607E+02  0.00000000000E+00 0.  1.
</event>
<event>
 7    1  0.2900135E-009  0.9573935E+02  0.7561462E-02  0.1289520E+00
          1   -1    0    0  501    0  0.00000000000E+00  0.00000000000E+00  0.17682213848E+04  0.17682213848E+04  0.00000000000E+00 0. -1.
         -1   -1    0    0    0  501 -0.00000000000E+00 -0.00000000000E+00 -0.13243477461E+02  0.13243477461E+02  0.00000000000E+00 0.  1.
         25    2    1    2    0    0  0.36257778092E+02 -0.13144070700E+02  0.15313188115E+04  0.15369036387E+04  0.12509236293E+03 0.  0.
          5    1    3    3  502    0 -0.31443102154E+02 -0.11754460590E+02  0.10785241750E+04  0.10790545420E+04  0.41800000000E+01 0.  1.
         -5    1    3    3    0  502  0.67700880246E+02 -0.13896101108E+01  0.45279463646E+03  0.45784909676E+03  0.41800000000E+01 0.  1.
        -11    1    1    2    0    0  0.25270145783E+02  0.12689892327E+02  0.29405523320E+02  0.40795813963E+02  0.00000000000E+00 0.  1.
         11    1    1    2    0    0 -0.61527923875E+02  0.45417837298E+00  0.19425357252E+03  0.20376540955E+03  0.00000000000E+00 0. -1.
</event>
<event>
 7    1  0.2900135E-009  0.1546715E+03  0.7561462E-02  0.1194847E+00
         -2   -1    0    0    0  501 -0.00000000000E+00  0.00000000000E+00  0.23316678356E+02  0.23316678356E+02  0.00000000000E+00 0.  1.
          2   -1    0    0  501    0  0.00000000000E+00 -0.00000000000E+00 -0.18054552707E+04  0.18054552707E+04  0.00000000000E+00 0. -1.
         25    2    1    2    0    0  0.95893424465E+02 -0.74770912023E+02 -0.14817049913E+04  0.14919395059E+04  0.12509024739E+03 0.  0.
          5    1    3    3  502    0 -0.29368926165E+02 -0.26932730834E+02 -0.37438075082E+03  0.37651869117E+03  0.41800000000E+01 0.  1.
         -5    1    3    3    0  502  0.12526235063E+03 -0.47838181189E+02 -0.11073242405E+04  0.11154208148E+04  0.41800000000E+01 0.  1.
        -11    1    1    2    0    0 -0.10984276603E+02 -0.10208073879E+02 -0.19998335456E+01  0.15128067921E+02  0.00000000000E+00 0.  1.
         11    1    1    2    0    0 -0.84909147862E+02  0.84978985902E+02 -0.29843376745E+03  0.32170437515E+03  0.00000000000E+00 0. -1.
</event>
<event>
 7    1  0.2900135E-009  0.9409392E+02  0.7561462E-02  0.1293230E+00
         -3   -1    0    0    0  501 -0.00000000000E+00  0.00000000000E+00  0.13651427043E+03  0.13651427043E+03  0.00000000000E+00 0.  1.
          3   -1    0    0  501    0  0.00000000000E+00 -0.00000000000E+00 -0.11269764190E+03  0.11269764190E+03  0.00000000000E+00 0. -1.
         25    2    1    2    0    0  0.44245535067E+02  0.39996495035E+02  0.16489496386E+02  0.13955548658E+03  0.12508574401E+03 0.  0.
          5    1    3    3  502    0  0.60012236002E+02  0.40250621606E+02  0.59409042005E+02  0.93640203340E+02  0.41800000000E+01 0. -1.
         -5    1    3    3    0  502 -0.15766700935E+02 -0.25412657130E+00 -0.42919545619E+02  0.45915283238E+02  0.41800000000E+01 0. -1.
        -11    1    1    2    0    0  0.57149070620E+01  0.20357020584E+02  0.21365899886E+02  0.30059443237E+02  0.00000000000E+00 0.  1.
         11    1    1    2    0    0 -0.49960442129E+02 -0.60353515620E+02 -0.14038767750E+02  0.79596982514E+02  0.00000000000E+00 0. -1.
</event>
<event>
 7    1  0.2900135E-009  0.1581970E+03  0.7561462E-02  0.1190747E+00
          2   -1    0    0  501    0  0.00000000000E+00  0.00000000000E+00  0.62010266337E+03  0.62010266337E+03  0.00000000000E+00 0. -1.
         -2   -1    0    0    0  501 -0.00000000000E+00 -0.00000000000E+00 -0.73795582766E+02  0.73795582766E+02  0.00000000000E+00 0.  1.
         25    2    1    2    0    0 -0.11866264748E+03 -0.77235815322E+02  0.47687108597E+03  0.51293193575E+03  0.12508774122E+03 0.  0.
          5    1    3    3  502    0 -0.22720642943E+02 -0.40939357519E+02  0.33234921564E+03  0.33565716460E+03  0.41800000000E+01 0.  1.
         -5    1    3    3    0  502 -0.95942004534E+02 -0.36296457804E+02  0.14452187033E+03  0.17727477115E+03  0.41800000000E+01 0.  1.
        -11    1    1    2    0    0  0.65573851714E+02  0.90730076081E+02  0.52388940671E+02  0.12359804949E+03  0.00000000000E+00 0.  1.
         11    1    1    2    0    0  0.53088795763E+02 -0.13494260759E+02  0.17047053963E+02  0.57368260892E+02  0.00000000000E+00 0. -1.
</event>
<event>
 7    1  0.2900135E-009  0.9041777E+02  0.7561462E-02  0.1301843E+00
         -1   -1    0    0    0  501 -0.00000000000E+00  0.00000000000E+00  0.13607049519E+03  0.13607049519E+03  0.00000000000E+00 0.  1.
          1   -1    0    0  501    0  0.00000000000E+00 -0.00000000000E+00 -0.10101904857E+03  0.10101904857E+03  0.00000000000E+00 0. -1.
         25    2    1    2    0    0 -0.84137801177E+01 -0.28332061673E+02  0.55398652879E+02  0.13993851405E+03  0.12506110331E+03 0.  0.
          5    1    3    3  502    0 -0.35720466440E+02  0.34206938368E+02  0.51400590632E+02  0.71453197777E+02  0.41800000000E+01 0.  1.
         -5    1    3    3    0  502  0.27306686322E+02 -0.62539000041E+02  0.39980622471E+01  0.68485316278E+02  0.41800000000E+01 0.  1.
        -11    1    1    2    0    0 -0.23250815490E+02  0.18389467536E+02  0.26484304489E+02  0.39751620363E+02  0.00000000000E+00 0.  1.
         11    1    1    2    0    0  0.31664595608E+02  0.99425941366E+01 -0.46831510748E+02  0.57399409336E+02  0.00000000000E+00 0. -1.
</event>
<event>
 7    1  0.2900135E-009  0.8846376E+02  0.7561462E-02  0.1306615E+00
         -2   -1    0    0    0  501 -0.00000000000E+00  0.00000000000E+00  0.15564910918E+02  0.15564910918E+02  0.00000000000E+00 0.  1.
          2   -1    0    0  501    0  0.00000000000E+00 -0.00000000000E+00 -0.23474796217E+04  0.23474796217E+04  0.00000000000E+00 0. -1.
         25    2    1    2    0    0  0.13896783274E+02  0.53381616067E+01 -0.21868363578E+04  0.21904615089E+04  0.12508696860E+03 0.  0.
          5    1    3    3  502    0  0.11065591750E+02 -0.40427055948E+02 -0.28770844285E+03  0.29077554000E+03  0.41800000000E+01 0.  1.
         -5    1    3    3    0  502  0.28311915233E+01  0.45765217554E+02 -0.18991279149E+04  0.18996859689E+04  0.41800000000E+01 0.  1.
        -11    1    1    2    0    0 -0.49860915180E+02 -0.13962325732E+02 -0.11014837102E+03  0.12171163067E+03  0.00000000000E+00 0.  1.
         11    1    1    2    0    0  0.35964131907E+02  0.86241641250E+01 -0.34929982026E+02  0.50871393091E+02  0.00000000000E+00 0. -1.
</event>
<event>
 7    1  0.2900135E-009  0.2784155E+03  0.7561462E-02  0.1096558E+00
          1   -1    0    0  501    0  0.00000000000E+00  0.00000000000E+00  0.14914775573E+04  0.14914775573E+04  0.00000000000E+00 0. -1.
         -1   -1    0    0    0  501 -0.00000000000E+00 -0.00000000000E+00 -0.54318635410E+02  0.54318635410E+02  0.00000000000E+00 0.  1.
         25    2    1    2    0    0  0.84973525093E+02 -0.24896580267E+03  0.76181205581E+03  0.81560359280E+03  0.12508853405E+03 0.  0.
          5    1    3    3  502    0 -0.31952145551E+02 -0.75023193325E+02  0.21675333712E+03  0.23162232339E+03  0.41800000000E+01 0. -1.
         -5    1    3    3    0  502  0.11692567064E+03 -0.17394260935E+03  0.54505871869E+03  0.58398126941E+03  0.41800000000E+01 0. -1.
        -11    1    1    2    0    0 -0.12111394076E+02  0.99505523447E+01  0.79975991406E+01  0.17597185867E+02  0.00000000000E+00 0.  1.
         11    1    1    2    0    0 -0.72862131018E+02  0.23901525033E+03  0.66734926697E+03  0.71259541407E+03  0.00000000000E+00 0. -1.
</event>
<event>
 7    1  0.2900135E-009  0.1026660E+03  0.7561462E-02  0.1274788E+00
          1   -1    0    0  501    0  0.00000000000E+00  0.00000000000E+00  0.69086838178E+03  0.69086838178E+03  0.00000000000E+00 0. -1.
         -1   -1    0    0    0  501 -0.00000000000E+00 -0.00000000000E+00 -0.18284863821E+02  0.18284863821E+02  0.00000000000E+00 0.  1.
         25    2    1    2    0    0 -0.82449483225E+01  0.12385105940E+02  0.47379178491E+03  0.49025319740E+03  0.12509265403E+03 0.  0.
          5    1    3    3  502    0  0.52133430954E+02  0.25445046426E+02  0.15608305520E+03  0.16656751644E+03  0.41800000000E+01 0. -1.
         -5    1    3    3    0  502 -0.60378379276E+02 -0.13059940486E+02  0.31770872970E+03  0.32368568096E+03  0.41800000000E+01 0. -1.
        -11    1    1    2    0    0  0.12227611447E+02 -0.47940994953E+02  0.15292476016E+03  0.16072907562E+03  0.00000000000E+00 0.  1.
         11    1    1    2    0    0 -0.39826631248E+01  0.35555889013E+02  0.45866972891E+02  0.58170972583E+02  0.00000000000E+00 0. -1.
</event>
<event>
 7    1  0.2900135E-009  0.1233375E+03  0.7561462E-02  0.1237691E+00
          2   -1    0    0  501    0  0.00000000000E+00  0.00000000000E+00  0.69439201650E+03  0.69439201650E+03  0.00000000000E+00 0. -1.
         -2   -1    0    0    0  501 -0.00000000000E+00 -0.00000000000E+00 -0.22878916377E+02  0.22878916377E+02  0.00000000000E+00 0.  1.
         25    2    1    2    0    0  0.54015862052E+02 -0.26183241354E+02  0.42945711956E+03  0.45131413547E+03  0.12509099029E+03 0.  0.
          5    1    3    3  502    0  0.65266391325E+02  0.35602573527E+02  0.26361782752E+03  0.27393261300E+03  0.41800000000E+01 0. -1.
         -5    1    3    3    0  502 -0.11250529273E+02 -0.61785814881E+02  0.16583929204E+03  0.17738152247E+03  0.41800000000E+01 0. -1.
        -11    1    1    2    0    0 -0.33534618905E+02 -0.32754251166E+02  0.87157531135E+02  0.98963866477E+02  0.00000000000E+00 0.  1.
         11    1    1    2    0    0 -0.20481243147E+02  0.58937492520E+02  0.15489844943E+03  0.16699293094E+03  0.00000000000E+00 0. -1.
</event>
<event>
 7    1  0.2900135E-009  0.7709344E+02  0.7561462E-02  0.1337508E+00
         -1   -1    0    0    0  501 -0.00000000000E+00  0.00000000000E+00  0.28496569668E+03  0.28496569668E+03  0.00000000000E+00 0.  1.
          1   -1    0    0  501    0  0.00000000000E+00 -0.00000000000E+00 -0.43311031251E+02  0.43311031251E+02  0.00000000000E+00 0. -1.
         25    2    1    2    0    0 -0.10123215189E+02  0.42171294303E+01  0.17154598923E+03  0.21259642982E+03  0.12509577086E+03 0.  0.
          5    1    3    3  502    0  0.49975981488E+00 -0.49167124859E+02  0.14240845111E+03  0.15071594233E+03  0.41800000000E+01 0.  1.
         -5    1    3    3    0  502 -0.10622975004E+02  0.53384254290E+02  0.29137538121E+02  0.61880487488E+02  0.41800000000E+01 0.  1.
        -11    1    1    2    0    0 -0.12631344439E+02  0.15601197612E+02  0.81114006009E+02  0.83560937046E+02  0.00000000000E+00 0.  1.
         11    1    1    2    0    0  0.22754559628E+02 -0.19818327043E+02 -0.11005329812E+02  0.32119361060E+02  0.00000000000E+00 0. -1.
</event>
<event>
 7    1  0.2900135E-009  0.3035065E+03  0.7561462E-02  0.1083501E+00
          2   -1    0    0  501    0  0.00000000000E+00  0.00000000000E+00  0.61868796253E+02  0.61868796253E+02  0.00000000000E+00 0. -1.
         -2   -1    0    0    0  501 -0.00000000000E+00 -0.00000000000E+00 -0.16674747690E+04  0.16674747690E+04  0.00000000000E+00 0.  1.
         25    2    1    2    0    0 -0.19241044149E+03  0.22086750949E+03 -0.10151425074E+04  0.10639386159E+04  0.12508730328E+03 0.  0.
          5    1    3    3  502    0  0.11556861547E+02  0.30926117062E+02 -0.19247517912E+03  0.19533088016E+03  0.41800000000E+01 0. -1.
         -5    1    3    3    0  502 -0.20396730303E+03  0.18994139243E+03 -0.82266732825E+03  0.86860773577E+03  0.41800000000E+01 0. -1.
        -11    1    1    2    0    0  0.62740079138E+02 -0.48531332070E+02 -0.87218127024E+02  0.11789236364E+03  0.00000000000E+00 0. -1.
         11    1    1    2    0    0  0.12967036235E+03 -0.17233617742E+03 -0.50324533839E+03  0.54751258572E+03  0.00000000000E+00 0.  1.
</event>
<event>
 7    1  0.2900135E-009  0.1633922E+03  0.7561462E-02  0.1184919E+00
         -1   -1    0    0    0  501 -0.00000000000E+00  0.00000000000E+00  0.62274549257E+02  0.62274549257E+02  0.00000000000E+00 0.  1.
          1   -1    0    0  501    0  0.00000000000E+00 -0.00000000000E+00 -0.62344041373E+03  0.62344041373E+03  0.00000000000E+00 0. -1.
         25    2    1    2    0    0 -0.63690237787E+02 -0.13747486951E+03 -0.40583576765E+03  0.45089482864E+03  0.12509072728E+03 0.  0.
          5    1    3    3  502    0 -0.71317081183E+02 -0.49614585284E+02 -0.30359534790E+03  0.31580902585E+03  0.41800000000E+01 0. -1.
         -5    1    3    3    0  502  0.76268433961E+01 -0.87860284227E+02 -0.10224041975E+03  0.13508580279E+03  0.41800000000E+01 0. -1.
        -11    1    1    2    0    0  0.38028033656E+02  0.83481548588E+02 -0.30943162442E+02  0.96813116882E+02  0.00000000000E+00 0.  1.
         11    1    1    2    0    0  0.25662204131E+02  0.53993320922E+02 -0.12438693438E+03  0.13800701746E+03  0.00000000000E+00 0. -1.
</event>
<event>
 7    1  0.2900135E-009  0.2341970E+03  0.7561462E-02  0.1123720E+00
         -2   -1    0    0    0  501 -0.00000000000E+00  0.00000000000E+00  0.54702919110E+03  0.54702919110E+03  0.00000000000E+00 0.  1.
          2   -1    0    0  501    0  0.00000000000E+00 -0.00000000000E+00 -0.11128192617E+03  0.11128192617E+03  0.00000000000E+00 0. -1.
         25    2    1    2    0    0  0.16561913879E+03  0.13042349260E+03  0.13431512100E+03  0.27954042042E+03  0.12514914449E+03 0.  0.
          5    1    3    3  502    0  0.15981315760E+03  0.14993509620E+03  0.10353123037E+03  0.24239836319E+03  0.41800000000E+01 0. -1.
         -5    1    3    3    0  502  0.58059811846E+01 -0.19511603606E+02  0.30783890631E+02  0.37142057229E+02  0.41800000000E+01 0. -1.
        -11    1    1    2    0    0 -0.12919461513E+03 -0.47123652397E+02  0.19784474836E+03  0.24094487263E+03  0.00000000000E+00 0.  1.
         11    1    1    2    0    0 -0.36424523659E+02 -0.83299840202E+02  0.10358739557E+03  0.13782582422E+03  0.00000000000E+00 0. -1.
</event>
<event>
 7    1  0.2900135E-009  0.5963741E+02  0.7561462E-02  0.1399360E+00
          1   -1    0    0  501    0  0.00000000000E+00  0.00000000000E+00  0.54853394549E+02  0.54853394549E+02  0.00000000000E+00 0. -1.
         -1   -1    0    0    0  501 -0.00000000000E+00 -0.00000000000E+00 -0.29091942725E+03  0.29091942725E+03  0.00000000000E+00 0.  1.
         25    2    1    2    0    0  0.34151189274E+02 -0.32418369155E+02 -0.87181931175E+02  0.15957823826E+03  0.12508905074E+03 0.  0.
          5    1    3    3  502    0  0.39513839968E+02 -0.25925402751E+02 -0.11809407084E+03  0.12726803222E+03  0.41800000000E+01 0. -1.
         -5    1    3    3    0  502 -0.53626506943E+01 -0.64929664037E+01  0.30912139668E+02  0.32310206036E+02  0.41800000000E+01 0. -1.
        -11    1    1    2    0    0 -0.43539692059E+02  0.23485141916E+02 -0.16101515450E+03  0.16844327430E+03  0.00000000000E+00 0.  1.
         11    1    1    2    0    0  0.93885027852E+01  0.89332272391E+01  0.12131052981E+02  0.17751309244E+02  0.00000000000E+00 0. -1.
</event>
<event>
 7    1  0.2900135E-009  0.1691554E+03  0.7561462E-02  0.1178731E+00
          2   -1    0    0  501    0  0.00000000000E+00  0.00000000000E+00  0.51632135073E+03  0.51632135073E+03  0.00000000000E+00 0. -1.
         -2   -1    0    0    0  501 -0.00000000000E+00 -0.00000000000E+00 -0.81969262481E+02  0.81969262481E+02  0.00000000000E+00 0.  1.
         25    2    1    2    0    0 -0.14611528246E+03  0.82609876321E+02  0.15631981857E+03  0.26126287071E+03  0.12509330317E+03 0.  0.
          5    1    3    3  502    0 -0.11665915722E+03  0.52707533607E+02  0.17355210416E+03  0.21569712173E+03  0.41800000000E+01 0. -1.
         -5    1    3    3    0  502 -0.29456125233E+02  0.29902342714E+02 -0.17232285587E+02  0.45565748979E+02  0.41800000000E+01 0. -1.
        -11    1    1    2    0    0  0.54808027600E+02 -0.35533359526E+02  0.37125462313E+02  0.75132146785E+02  0.00000000000E+00 0.  1.
         11    1    1    2    0    0  0.91307254857E+02 -0.47076516795E+02  0.24090680736E+03  0.26189559572E+03  0.00000000000E+00 0. -1.
</event>
<event>
 7    1  0.2900135E-009  0.1017705E+03  0.7561462E-02  0.1276616E+00
         -2   -1    0    0    0  501 -0.00000000000E+00  0.00000000000E+00  0.52909715332E+03  0.52909715332E+03  0.00000000000E+00 0.  1.
          2   -1    0    0  501    0  0.00000000000E+00 -0.00000000000E+00 -0.58067709110E+02  0.58067709110E+02  0.00000000000E+00 0. -1.
         25    2    1    2    0    0 -0.81484959481E+02 -0.46182479151E+02  0.41822436268E+03  0.44646563796E+03  0.12508928147E+03 0.  0.
          5    1    3    3  502    0 -0.20883215299E+02 -0.15859295331E+02  0.41667199660E+01  0.26878613895E+02  0.41800000000E+01 0. -1.
         -5    1    3    3    0  502 -0.60601744181E+02 -0.30323183821E+02  0.41405764271E+03  0.41958702406E+03  0.41800000000E+01 0. -1.
        -11    1    1    2    0    0  0.15106999088E+02  0.39607796683E+02 -0.15586455974E+02  0.45165657190E+02  0.00000000000E+00 0. -1.
         11    1    1    2    0    0  0.66377960392E+02  0.65746824682E+01  0.68391537511E+02  0.95533567287E+02  0.00000000000E+00 0.  1.
</event>
<event>
 7    1  0.2900135E-009  0.1290049E+03  0.7561462E-02  0.1228940E+00
          2   -1    0    0  501    0  0.00000000000E+00  0.00000000000E+00  0.31252236407E+03  0.31252236407E+03  0.00000000000E+00 0. -1.
         -2   -1    0    0    0  501 -0.00000000000E+00 -0.00000000000E+00 -0.91764017086E+02  0.91764017086E+02  0.00000000000E+00 0.  1.
         25    2    1    2    0    0  0.50602053607E+02 -0.84680098180E+02  0.21637405616E+03  0.26869597656E+03  0.12509399979E+03 0.  0.
          5    1    3    3  502    0 -0.41750591261E+02 -0.33100158437E+02  0.73478654569E+02  0.90858777432E+02  0.41800000000E+01 0.  1.
         -5    1    3    3    0  502  0.92352644868E+02 -0.51579939743E+02  0.14289540159E+03  0.17783719913E+03  0.41800000000E+01 0.  1.
        -11    1    1    2    0    0 -0.89812531214E+01  0.17624681665E+02  0.43293183192E+02  0.47598235496E+02  0.00000000000E+00 0. -1.
         11    1    1    2    0    0 -0.41620800486E+02  0.67055416515E+02 -0.38908892370E+02  0.87992169098E+02  0.00000000000E+00 0.  1.
</event>
<event>
 7    1  0.2900135E-009  0.2380875E+03  0.7561462E-02  0.1121073E+00
         -1   -1    0    0    0  501 -0.00000000000E+00  0.00000000000E+00  0.63414935188E+02  0.63414935188E+02  0.00000000000E+00 0.  1.
          1   -1    0    0  501    0  0.00000000000E+00 -0.00000000000E+00 -0.93428483386E+03  0.93428483386E+03  0.00000000000E+00 0. -1.
         25    2    1    2    0    0  0.11046089608E+03 -0.18482301457E+03 -0.38706886285E+03  0.46025081682E+03  0.12508938211E+03 0.  0.
          5    1    3    3  502    0  0.47626057051E+02 -0.17526102860E+03 -0.31846841449E+03  0.36663915896E+03  0.41800000000E+01 0.  1.
         -5    1    3    3    0  502  0.62834839031E+02 -0.95619859685E+01 -0.68600448364E+02  0.93611657860E+02  0.41800000000E+01 0.  1.
        -11    1    1    2    0    0 -0.46087907477E+02  0.15144513227E+03 -0.28778594274E+03  0.32845162831E+03  0.00000000000E+00 0.  1.
         11    1    1    2    0    0 -0.64372988605E+02  0.33377882299E+02 -0.19601509309E+03  0.20899732392E+03  0.00000000000E+00 0. -1.
</event>
<event>
 7    1  0.2900135E-009  0.1096362E+03  0.7561462E-02  0.1261245E+00
         -2   -1    0    0    0  501 -0.00000000000E+00  0.00000000000E+00  0.14995230115E+03  0.14995230115E+03  0.00000000000E+00 0. -1.
          2   -1    0    0  501    0  0.00000000000E+00 -0.00000000000E+00 -0.11639706129E+03  0.11639706129E+03  0.00000000000E+00 0.  1.
         25    2    1    2    0    0 -0.20036913730E+02  0.53982312337E+02  0.47054061698E+02  0.14552648450E+03  0.12509318531E+03 0.  0.
          5    1    3    3  502    0  0.13332277447E+02 -0.34080389935E+02  0.34429695964E+02  0.50419232087E+02  0.41800000000E+01 0.  1.
         -5    1    3    3    0  502 -0.33369191177E+02  0.88062702272E+02  0.12624365734E+02  0.95107252413E+02  0.41800000000E+01 0.  1.
        -11    1    1    2    0    0  0.39519592869E+02 -0.11062557073E+02  0.34453446400E+02  0.53583750879E+02  0.00000000000E+00 0. -1.
         11    1    1    2    0    0 -0.19482679138E+02 -0.42919755264E+02 -0.47952268234E+02  0.67239127055E+02  0.00000000000E+00 0.  1.
</event>
<event>
 7    1  0.2900135E-009  0.9267110E+02  0.7561462E-02  0.1296509E+00
          2   -1    0    0  501    0  0.00000000000E+00  0.00000000000E+00  0.14283514498E+03  0.14283514498E+03  0.00000000000E+00 0. -1.
         -2   -1    0    0    0  501 -0.00000000000E+00 -0.00000000000E+00 -0.94881879694E+02  0.94881879694E+02  0.00000000000E+00 0.  1.
         25    2    1    2    0    0 -0.50127419426E+00  0.33679566537E+02  0.39126897612E+01  0.12960239930E+03  0.12508760244E+03 0.  0.
          5    1    3    3  502    0 -0.20753099444E+02 -0.23949541069E+02 -0.42209823318E+02  0.52947268471E+02  0.41800000000E+01 0.  1.
         -5    1    3    3    0  502  0.20251825250E+02  0.57629107606E+02  0.46122513079E+02  0.76655130827E+02  0.41800000000E+01 0.  1.
        -11    1    1    2    0    0 -0.40162741661E+02 -0.13235173881E+01  0.29271711631E+00  0.40185609356E+02  0.00000000000E+00 0.  1.
         11    1    1    2    0    0  0.40664015855E+02 -0.32356049149E+02  0.43747858405E+02  0.67929016017E+02  0.00000000000E+00 0. -1.
</event>
<event>
 7    1  0.2900135E-009  0.1237331E+03  0.7561462E-02  0.1237063E+00
          2   -1    0    0  501    0  0.00000000000E+00  0.00000000000E+00  0.35079057121E+02  0.35079057121E+02  0.00000000000E+00 0. -1.
         -2   -1    0    0    0  501 -0.00000000000E+00 -0.00000000000E+00 -0.64544604354E+03  0.64544604354E+03  0.00000000000E+00 0.  1.
         25    2    1    2    0    0 -0.86676662668E+02  0.13800116470E+02 -0.25390631080E+03  0.29634106708E+03  0.12508527615E+03 0.  0.
          5    1    3    3  502    0 -0.21022576007E+02 -0.46137543191E+02 -0.40184121455E+02  0.64829450181E+02  0.41800000000E+01 0.  1.
         -5    1    3    3    0  502 -0.65654086661E+02  0.59937659662E+02 -0.21372218934E+03  0.23151161690E+03  0.41800000000E+01 0.  1.
        -11    1    1    2    0    0  0.17186331246E+02  0.23197516584E+02 -0.12728434215E+02  0.31551668655E+02  0.00000000000E+00 0. -1.
         11    1    1    2    0    0  0.69490331423E+02 -0.36997633054E+02 -0.34373224141E+03  0.35263236493E+03  0.00000000000E+00 0.  1.
</event>
<event>
 7    1  0.2900135E-009  0.8697149E+02  0.7561462E-02  0.1310356E+00
         -1   -1    0    0    0  501 -0.00000000000E+00  0.00000000000E+00  0.11665691234E+02  0.11665691234E+02  0.00000000000E+00 0.  1.
          1   -1    0    0  501    0  0.00000000000E+00 -0.00000000000E+00 -0.12957916839E+04  0.12957916839E+04  0.00000000000E+00 0. -1.
         25    2    1    2    0    0 -0.30713933327E+02 -0.75037765712E+01 -0.96043958232E+03  0.96906696009E+03  0.12508768716E+03 0.  0.
          5    1    3    3  502    0 -0.15691244152E+02  0.30348430584E+02 -0.85884316734E+03  0.85953260605E+03  0.41800000000E+01 0.  1.
         -5    1    3    3    0  502 -0.15022689175E+02 -0.37852207155E+02 -0.10159641498E+03  0.10953435404E+03  0.41800000000E+01 0.  1.
        -11    1    1    2    0    0 -0.15740951506E+02  0.39270157074E+02 -0.13211928701E+03  0.13872789478E+03  0.00000000000E+00 0.  1.
         11    1    1    2    0    0  0.46454884833E+02 -0.31766380503E+02 -0.19156712333E+03  0.19966252026E+03  0.00000000000E+00 0. -1.
</event>
<event>
 7    1  0.2900135E-009  0.1374386E+03  0.7561462E-02  0.1216818E+00
         -3   -1    0    0    0  501 -0.00000000000E+00  0.00000000000E+00  0.80704620962E+02  0.80704620962E+02  0.00000000000E+00 0.  1.
          3   -1    0    0  501    0  0.00000000000E+00 -0.00000000000E+00 -0.32622567697E+03  0.32622567697E+03  0.00000000000E+00 0. -1.
         25    2    1    2    0    0  0.58431987456E+02  0.96645929213E+02 -0.75156763332E+02  0.18453196848E+03  0.12509506595E+03 0.  0.
          5    1    3    3  502    0  0.70095404180E+02  0.10362904584E+03 -0.97071507800E+02  0.15840673867E+03  0.41800000000E+01 0. -1.
         -5    1    3    3    0  502 -0.11663416724E+02 -0.69831166300E+01  0.21914744468E+02  0.26125229810E+02  0.41800000000E+01 0. -1.
        -11    1    1    2    0    0  0.94681267242E+01 -0.55027250707E+02 -0.36733056869E+02  0.66835329063E+02  0.00000000000E+00 0. -1.
         11    1    1    2    0    0 -0.67900114180E+02 -0.41618678506E+02 -0.13363123580E+03  0.15556300039E+03  0.00000000000E+00 0.  1.
</event>
<event>
 7    1  0.2900135E-009  0.1561818E+03  0.7561462E-02  0.1193076E+00
          2   -1    0    0  501    0  0.00000000000E+00  0.00000000000E+00  0.54801685533E+02  0.54801685533E+02  0.00000000000E+00 0. -1.
         -2   -1    0    0    0  501 -0.00000000000E+00 -0.00000000000E+00 -0.51856984914E+03  0.51856984914E+03  0.00000000000E+00 0.  1.
         25    2    1    2    0    0 -0.83144550073E+01 -0.12807645648E+03 -0.26002473529E+03  0.31580743508E+03  0.12509502077E+03 0.  0.
          5    1    3    3  502    0  0.21933513655E+02 -0.12229953377E+03 -0.25584435030E+03  0.28445045080E+03  0.41800000000E+01 0. -1.
         -5    1    3    3    0  502 -0.30247968662E+02 -0.57769227061E+01 -0.41803849920E+01  0.31356984275E+02  0.41800000000E+01 0. -1.
        -11    1    1    2    0    0 -0.28689904893E+02  0.11370447735E+03 -0.14203207125E+03  0.18418720931E+03  0.00000000000E+00 0. -1.
         11    1    1    2    0    0  0.37004359900E+02  0.14371979129E+02 -0.61711357074E+02  0.73376890283E+02  0.00000000000E+00 0.  1.
</event>
<event>
 7    1  0.2900135E-009  0.8320728E+02  0.7561462E-02  0.1320188E+00
          1   -1    0    0  501    0  0.00000000000E+00  0.00000000000E+00  0.61365576107E+03  0.61365576107E+03  0.00000000000E+00 0. -1.
         -1   -1    0    0    0  501 -0.00000000000E+00 -0.00000000000E+00 -0.30687143100E+02  0.30687143100E+02  0.00000000000E+00 0.  1.
         25    2    1    2    0    0  0.12247271152E+02 -0.21781215885E+01  0.52828897557E+03  0.54303939127E+03  0.12509116233E+03 0.  0.
          5    1    3    3  502    0  0.64332221928E+02  0.16068249530E+02  0.35375379793E+03  0.35993894672E+03  0.41800000000E+01 0. -1.
         -5    1    3    3    0  502 -0.52084950776E+02 -0.18246371119E+02  0.17453517765E+03  0.18310044455E+03  0.41800000000E+01 0. -1.
        -11    1    1    2    0    0  0.10180225757E+02 -0.13758104710E+02 -0.17244974422E+02  0.24296328621E+02  0.00000000000E+00 0.  1.
         11    1    1    2    0    0 -0.22427496908E+02  0.15936226298E+02  0.71924616815E+02  0.77007184276E+02  0.00000000000E+00 0. -1.
</event>
<event>
 7    1  0.2900135E-009  0.7505034E+02  0.7561462E-02  0.1343715E+00
         -2   -1    0    0    0  501 -0.00000000000E+00  0.00000000000E+00  0.57170818302E+03  0.57170818302E+03  0.00000000000E+00 0.  1.
          2   -1    0    0  501    0  0.00000000000E+00 -0.00000000000E+00 -0.23682340372E+02  0.23682340372E+02  0.00000000000E+00 0. -1.
         25    2    1    2    0    0 -0.34642472005E+02  0.30433075564E+01  0.24866125748E+03  0.28053478305E+03  0.12513185423E+03 0.  0.
          5    1    3    3  502    0 -0.42639046382E+01  0.21598159773E+02  0.24325844835E+03  0.24428836747E+03  0.41800000000E+01 0. -1.
         -5    1    3    3    0  502 -0.30378567367E+02 -0.18554852216E+02  0.54028091320E+01  0.36246415582E+02  0.41800000000E+01 0. -1.
        -11    1    1    2    0    0  0.90618541551E+01 -0.43253988834E+02  0.91710321019E+02  0.10180278843E+03  0.00000000000E+00 0. -1.
         11    1    1    2    0    0  0.25580617850E+02  0.40210681278E+02  0.20765426415E+03  0.21305295191E+03  0.00000000000E+00 0.  1.
</event>
<event>
 7    1  0.2900135E-009  0.1296894E+03  0.7561462E-02  0.1227917E+00
         -1   -1    0    0    0  501 -0.00000000000E+00  0.00000000000E+00  0.34670730484E+02  0.34670730484E+02  0.00000000000E+00 0.  1.
          1   -1    0    0  501    0  0.00000000000E+00 -0.00000000000E+00 -0.76305687295E+03  0.76305687295E+03  0.00000000000E+00 0. -1.
         25    2    1    2    0    0  0.10886126159E+03 -0.34390955087E+02 -0.28644232766E+03  0.33276253338E+03  0.12509270355E+03 0.  0.
          5    1    3    3  502    0  0.58702184691E+02 -0.24864398183E+02 -0.28804031777E+02  0.70080877785E+02  0.41800000000E+01 0.  1.
         -5    1    3    3    0  502  0.50159076896E+02 -0.95265569034E+01 -0.25763829588E+03  0.26268165560E+03  0.41800000000E+01 0.  1.
        -11    1    1    2    0    0 -0.69819894638E+02  0.64428996597E+02 -0.30321325210E+03  0.31774862634E+03  0.00000000000E+00 0.  1.
         11    1    1    2    0    0 -0.39041366950E+02 -0.30038041510E+02 -0.13873056270E+03  0.14721644371E+03  0.00000000000E+00 0. -1.
</event>
<event>
 7    1  0.2900135E-009  0.1591523E+03  0.7561462E-02  0.1189657E+00
          1   -1    0    0  501    0  0.00000000000E+00  0.00000000000E+00  0.12037318475E+03  0.12037318475E+03  0.00000000000E+00 0. -1.
         -1   -1    0    0    0  501 -0.00000000000E+00 -0.00000000000E+00 -0.88392497712E+03  0.88392497712E+03  0.00000000000E+00 0.  1.
         25    2    1    2    0    0 -0.57292815746E+02  0.12084121083E+03 -0.81530577960E+03  0.83561786029E+03  0.12509448116E+03 0.  0.
          5    1    3    3  502    0  0.37979941362E+02  0.21255942884E+02 -0.15376671643E+03  0.15986233620E+03  0.41800000000E+01 0.  1.
         -5    1    3    3    0  502 -0.95272757109E+02  0.99585267944E+02 -0.66153906317E+03  0.67575552409E+03  0.41800000000E+01 0.  1.
        -11    1    1    2    0    0  0.52320471945E+02 -0.80220725972E+02 -0.81623912870E+01  0.96121908489E+02  0.00000000000E+00 0.  1.
         11    1    1    2    0    0  0.49723438019E+01 -0.40620484856E+02  0.59916378520E+02  0.72558393089E+02  0.00000000000E+00 0. -1.
</event>
<event>
 7    1  0.2900135E-009  0.1071108E+03  0.7561462E-02  0.1266016E+00
          2   -1    0    0  501    0  0.00000000000E+00  0.00000000000E+00  0.17241469393E+03  0.17241469393E+03  0.00000000000E+00 0. -1.
         -2   -1    0    0    0  501 -0.00000000000E+00 -0.00000000000E+00 -0.10293225496E+03  0.10293225496E+03  0.00000000000E+00 0.  1.
         25    2    1    2    0    0  0.36235190605E+02  0.69017243001E+02  0.41467709830E+02  0.15311260086E+03  0.12509008240E+03 0.  0.
          5    1    3    3  502    0  0.68546988476E+02  0.14860123779E+02  0.54078040194E+02  0.88664647629E+02  0.41800000000E+01 0.  1.
         -5    1    3    3    0  502 -0.32311797871E+02  0.54157119222E+02 -0.12610330364E+02  0.64447953234E+02  0.41800000000E+01 0.  1.
        -11    1    1    2    0    0 -0.42864693439E+01 -0.30102095720E+02 -0.31834997727E+02  0.44022460931E+02  0.00000000000E+00 0.  1.
         11    1    1    2    0    0 -0.31948721261E+02 -0.38915147281E+02  0.59849726867E+02  0.78211887103E+02  0.00000000000E+00 0. -1.
</event>
<event>
 7    1  0.2900135E-009  0.1296582E+03  0.7561462E-02  0.1227964E+00
          2   -1    0    0  501    0  0.00000000000E+00  0.00000000000E+00  0.11297782997E+04  0.11297782997E+04  0.00000000000E+00 0.  1.
         -2   -1    0    0    0  501 -0.00000000000E+00 -0.00000000000E+00 -0.23988310499E+02  0.23988310499E+02  0.00000000000E+00 0. -1.
         25    2    1    2    0    0 -0.54612940645E+02  0.66818681706E+02  0.89774671839E+03  0.91051835913E+03  0.12508877813E+03 0.  0.
          5    1    3    3  502    0  0.39603314694E+02  0.75159303993E+01  0.24855437846E+03  0.25183658034E+03  0.41800000000E+01 0.  1.
         -5    1    3    3    0  502 -0.94216255339E+02  0.59302751307E+02  0.64919233993E+03  0.65868177879E+03  0.41800000000E+01 0.  1.
        -11    1    1    2    0    0  0.32044342211E+02 -0.76414606313E+02  0.20149136662E+03  0.21786418418E+03  0.00000000000E+00 0.  1.
         11    1    1    2    0    0  0.22568598435E+02  0.95959246072E+01  0.65519042119E+01  0.25384066916E+02  0.00000000000E+00 0. -1.
</event>
<event>
 7    1  0.2900135E-009  0.3600725E+03  0.7561462E-02  0.1058555E+00
          1   -1    0    0  501    0  0.00000000000E+00  0.00000000000E+00  0.17789032369E+04  0.17789032369E+04  0.00000000000E+00 0. -1.
         -1   -1    0    0    0  501 -0.00000000000E+00 -0.00000000000E+00 -0.82058291752E+02  0.82058291752E+02  0.00000000000E+00 0.  1.
         25    2    1    2    0    0 -0.35321704197E+03 -0.31689717417E+02  0.63907396711E+03  0.74150482915E+03  0.12508940519E+03 0.  0.
          5    1    3    3  502    0 -0.33402350482E+03 -0.29778444769E+02  0.63911967644E+03  0.72176858532E+03  0.41800000000E+01 0.  1.
         -5    1    3    3    0  502 -0.19193537149E+02 -0.19112726482E+01 -0.45709323514E-01  0.19736243836E+02  0.41800000000E+01 0.  1.
        -11    1    1    2    0    0  0.96416397130E+02  0.48024498336E+02  0.26856918292E+03  0.28936461444E+03  0.00000000000E+00 0.  1.
         11    1    1    2    0    0  0.25680064484E+03 -0.16334780919E+02  0.78920179508E+03  0.83009208503E+03  0.00000000000E+00 0. -1.
</event>
<event>
 7    1  0.2900135E-009  0.1168056E+03  0.7561462E-02  0.1248462E+00
         -1   -1    0    0    0  501 -0.00000000000E+00  0.00000000000E+00  0.84685384339E+02  0.84685384339E+02  0.00000000000E+00 0.  1.
          1   -1    0    0  501    0  0.00000000000E+00 -0.00000000000E+00 -0.23347312039E+03  0.23347312039E+03  0.00000000000E+00 0. -1.
         25    2    1    2    0    0  0.47307124596E+02  0.51812913864E+02 -0.14349800090E+03  0.20288953210E+03  0.12509973578E+03 0.  0.
          5    1    3    3  502    0  0.14294770938E+02  0.87128513563E+02 -0.61749447254E+02  0.10782478837E+03  0.41800000000E+01 0. -1.
         -5    1    3    3    0  502  0.33012353658E+02 -0.35315599699E+02 -0.81748553646E+02  0.95064743724E+02  0.41800000000E+01 0. -1.
        -11    1    1    2    0    0 -0.44170910342E+02  0.61416790741E+00  0.28727141310E+02  0.52694356155E+02  0.00000000000E+00 0.  1.
         11    1    1    2    0    0 -0.31362142532E+01 -0.52427081771E+02 -0.34016876462E+02  0.62574616476E+02  0.00000000000E+00 0. -1.
</event>
<event>
 7    1  0.2900135E-009  0.7699725E+02  0.7561462E-02  0.1337795E+00
          1   -1    0    0  501    0  0.00000000000E+00  0.00000000000E+00  0.24637467053E+02  0.24637467053E+02  0.00000000000E+00 0.  1.
         -1   -1    0    0    0  501 -0.00000000000E+00 -0.00000000000E+00 -0.54635897460E+03  0.54635897460E+03  0.00000000000E+00 0. -1.
         25    2    1    2    0    0 -0.10629040971E+02 -0.14683009090E+01 -0.39300395682E+03  0.41257109780E+03  0.12509064014E+03 0.  0.
          5    1    3    3  502    0  0.31833288088E+02 -0.42174929873E+01 -0.22086112601E+02  0.39197120397E+02  0.41800000000E+01 0. -1.
         -5    1    3    3    0  502 -0.42462329059E+02  0.27491920782E+01 -0.37091784422E+03  0.37337397741E+03  0.41800000000E+01 0. -1.
        -11    1    1    2    0    0  0.43652820222E+02 -0.82637890537E+01 -0.29311209824E+02  0.53225989368E+02  0.00000000000E+00 0.  1.
         11    1    1    2    0    0 -0.33023779251E+02  0.97320899628E+01 -0.99406340902E+02  0.10519935448E+03  0.00000000000E+00 0. -1.
</event>
<event>
 7    1  0.2900135E-009  0.1219130E+03  0.7561462E-02  0.1239974E+00
          1   -1    0    0  501    0  0.00000000000E+00  0.00000000000E+00  0.37411675916E+02  0.37411675916E+02  0.00000000000E+00 0. -1.
         -1   -1    0    0    0  501 -0.00000000000E+00 -0.00000000000E+00 -0.48922054646E+03  0.48922054646E+03  0.00000000000E+00 0.  1.
         25    2    1    2    0    0 -0.45281234250E+02 -0.47840478321E+02 -0.34319768235E+03  0.37117511427E+03  0.12508882741E+03 0.  0.
          5    1    3    3  502    0 -0.82198004210E+02 -0.14123885526E+02 -0.26854982225E+03  0.28123384481E+03  0.41800000000E+01 0.  1.
         -5    1    3    3    0  502  0.36916769959E+02 -0.33716592795E+02 -0.74647860105E+02  0.89941269461E+02  0.41800000000E+01 0.  1.
        -11    1    1    2    0    0 -0.26965197233E+02  0.12541316360E+02 -0.20207368796E+02  0.35954752558E+02  0.00000000000E+00 0. -1.
         11    1    1    2    0    0  0.72246431483E+02  0.35299161961E+02 -0.88403819394E+02  0.11950235554E+03  0.00000000000E+00 0.  1.
</event>
<event>
 7    1  0.2900135E-009  0.7325037E+02  0.7561462E-02  0.1349376E+00
          2   -1    0    0  501    0  0.00000000000E+00  0.00000000000E+00  0.32901394838E+03  0.32901394838E+03  0.00000000000E+00 0.  1.
         -2   -1    0    0    0  501 -0.00000000000E+00 -0.00000000000E+00 -0.36256676517E+02  0.36256676517E+02  0.00000000000E+00 0. -1.
         25    2    1    2    0    0  0.42579593782E+01  0.43324708978E+00  0.16067172406E+03  0.20364306938E+03  0.12504710661E+03 0.  0.
          5    1    3    3  502    0 -0.16033327266E+02  0.45533123376E+02  0.14295741885E+03  0.15094578137E+03  0.41800000000E+01 0. -1.
         -5    1    3    3    0  502  0.20291286644E+02 -0.45099876286E+02  0.17714305207E+02  0.52697288011E+02  0.41800000000E+01 0. -1.
        -11    1    1    2    0    0 -0.30919405526E+01 -0.24312419497E+02 -0.27744772243E+01  0.24664783844E+02  0.00000000000E+00 0. -1.
         11    1    1    2    0    0 -0.11660188256E+01  0.23879172407E+02  0.13486002502E+03  0.13696277167E+03  0.00000000000E+00 0.  1.
</event>
<event>
 7    1  0.2900135E-009  0.1265007E+03  0.7561462E-02  0.1232742E+00
          2   -1    0    0  501    0  0.00000000000E+00  0.00000000000E+00  0.50784040158E+02  0.50784040158E+02  0.00000000000E+00 0. -1.
         -2   -1    0    0    0  501 -0.00000000000E+00 -0.00000000000E+00 -0.35927470995E+03  0.35927470995E+03  0.00000000000E+00 0.  1.
         25    2    1    2    0    0 -0.15371083721E+02  0.76435190301E+02 -0.13606366646E+03  0.20059750437E+03  0.12508968342E+03 0.  0.
          5    1    3    3  502    0 -0.84456367419E+00 -0.34290390761E+02 -0.43037982975E+02  0.55193156866E+02  0.41800000000E+01 0. -1.
         -5    1    3    3    0  502 -0.14526520047E+02  0.11072558106E+03 -0.93025683481E+02  0.14540434750E+03  0.41800000000E+01 0. -1.
        -11    1    1    2    0    0  0.36259300862E+02 -0.10827206602E+02 -0.11070281454E+03  0.11699178795E+03  0.00000000000E+00 0.  1.
         11    1    1    2    0    0 -0.20888217141E+02 -0.65607983699E+02 -0.61724188800E+02  0.92469457786E+02  0.00000000000E+00 0. -1.
</event>
<event>
 7    1  0.2900135E-009  0.2117209E+03  0.7561462E-02  0.1140210E+00
          1   -1    0    0  501    0  0.00000000000E+00  0.00000000000E+00  0.43062545740E+03  0.43062545740E+03  0.00000000000E+00 0. -1.
         -1   -1    0    0    0  501 -0.00000000000E+00 -0.00000000000E+00 -0.12778643419E+03  0.12778643419E+03  0.00000000000E+00 0.  1.
         25    2    1    2    0    0  0.13887975302E+02 -0.20352391199E+03  0.20468593808E+03  0.31488888986E+03  0.12507526176E+03 0.  0.
          5    1    3    3  502    0 -0.20344138801E+02 -0.16486293555E+03  0.20395625160E+03  0.26307659810E+03  0.41800000000E+01 0.  1.
         -5    1    3    3    0  502  0.34232114103E+02 -0.38660976439E+02  0.72968647582E+00  0.51812291761E+02  0.41800000000E+01 0.  1.
        -11    1    1    2    0    0 -0.17316114962E+02  0.78043724010E+02 -0.63440825629E+01  0.80193005171E+02  0.00000000000E+00 0. -1.
         11    1    1    2    0    0  0.34281396592E+01  0.12548018798E+03  0.10449716770E+03  0.16332999655E+03  0.00000000000E+00 0.  1.
</event>
<event>
 7    1  0.2900135E-009  0.7840699E+02  0.7561462E-02  0.1333634E+00
          1   -1    0    0  501    0  0.00000000000E+00  0.00000000000E+00  0.13905849614E+03  0.13905849614E+03  0.00000000000E+00 0. -1.
         -1   -1    0    0    0  501 -0.00000000000E+00 -0.00000000000E+00 -0.12513406883E+03  0.12513406883E+03  0.00000000000E+00 0.  1.
         25    2    1    2    0    0  0.25051831878E+02  0.17023400247E+02  0.74515065835E+02  0.14871961771E+03  0.12509052410E+03 0.  0.
          5    1    3    3  502    0 -0.14263469912E+02  0.52678442503E+02  0.78087527131E+02  0.95360364785E+02  0.41800000000E+01 0.  1.
         -5    1    3    3    0  502  0.39315301790E+02 -0.35655042256E+02 -0.35724612955E+01  0.53359252926E+02  0.41800000000E+01 0.  1.
        -11    1    1    2    0    0 -0.35411893721E+02 -0.12883814400E+02 -0.82604358958E+02  0.90793584626E+02  0.00000000000E+00 0.  1.
         11    1    1    2    0    0  0.10360061843E+02 -0.41395858468E+01  0.22013720437E+02  0.24679362631E+02  0.00000000000E+00 0. -1.
</event>
<event>
 7    1  0.2900135E-009  0.1097990E+03  0.7561462E-02  0.1260943E+00
          2   -1    0    0  501    0  0.00000000000E+00  0.00000000000E+00  0.44418582655E+03  0.44418582655E+03  0.00000000000E+00 0. -1.
         -2   -1    0    0    0  501 -0.00000000000E+00 -0.00000000000E+00 -0.36120921264E+02  0.36120921264E+02  0.00000000000E+00 0.  1.
         25    2    1    2    0    0 -0.69666656035E+01  0.45631023060E+02  0.13693369517E+03  0.19112586833E+03  0.12509011143E+03 0.  0.
          5    1    3    3  502    0  0.37957450616E+02  0.60946747818E+02  0.38062015195E+02  0.81372375703E+02  0.41800000000E+01 0.  1.
         -5    1    3    3    0  502 -0.44924116220E+02 -0.15315724758E+02  0.98871679975E+02  0.10975349263E+03  0.41800000000E+01 0.  1.
        -11    1    1    2    0    0  0.43956139872E+02 -0.45183394667E+02  0.18489179683E+03  0.19534241198E+03  0.00000000000E+00 0. -1.
         11    1    1    2    0    0 -0.36989474269E+02 -0.44762839300E+00  0.86239413288E+02  0.93838467496E+02  0.00000000000E+00 0.  1.
</event>
<event>
 7    1  0.2900135E-009  0.8623897E+02  0.7561462E-02  0.1312224E+00
         -2   -1    0    0    0  501 -0.00000000000E+00  0.00000000000E+00  0.17819041317E+03  0.17819041317E+03  0.00000000000E+00 0.  1.
          2   -1    0    0  501    0  0.00000000000E+00 -0.00000000000E+00 -0.89511201583E+02  0.89511201583E+02  0.00000000000E+00 0. -1.
         25    2    1    2    0    0 -0.15004284774E+02  0.79306808097E+01 -0.17890214782E+02  0.12749635377E+03  0.12508891310E+03 0.  0.
          5    1    3    3  502    0 -0.16952211259E+02 -0.46559159825E+02 -0.44455996280E+02  0.66700381074E+02  0.41800000000E+01 0.  1.
         -5    1    3    3    0  502  0.19479264849E+01  0.54489840634E+02  0.26565781498E+02  0.60795972700E+02  0.41800000000E+01 0.  1.
        -11    1    1    2    0    0 -0.26068217036E+02  0.78884703276E+00  0.45316054872E+00  0.26084086596E+02  0.00000000000E+00 0. -1.
         11    1    1    2    0    0  0.41072501810E+02 -0.87195278424E+01  0.10611626582E+03  0.11412117439E+03  0.00000000000E+00 0.  1.
</event>
<event>
 7    1  0.2900135E-009  0.1071805E+03  0.7561462E-02  0.1265882E+00
         -1   -1    0    0    0  501 -0.00000000000E+00  0.00000000000E+00  0.28951534748E+03  0.28951534748E+03  0.00000000000E+00 0.  1.
          1   -1    0    0  501    0  0.00000000000E+00 -0.00000000000E+00 -0.43266885545E+02  0.43266885545E+02  0.00000000000E+00 0. -1.
         25    2    1    2    0    0  0.47219111490E+01 -0.10864577441E+01  0.17569044683E+03  0.21572701049E+03  0.12509009998E+03 0.  0.
          5    1    3    3  502    0  0.63565073593E+02 -0.12660496926E+02  0.95941201029E+02  0.11585764204E+03  0.41800000000E+01 0.  1.
         -5    1    3    3    0  502 -0.58843162444E+02  0.11574039182E+02  0.79749245798E+02  0.99869368451E+02  0.41800000000E+01 0.  1.
        -11    1    1    2    0    0  0.29219209573E+02  0.32038513529E+02  0.51499695976E+02  0.67323452398E+02  0.00000000000E+00 0. -1.
         11    1    1    2    0    0 -0.33941120722E+02 -0.30952055785E+02  0.19058319133E+02  0.49731770141E+02  0.00000000000E+00 0.  1.
</event>
<event>
 7    1  0.2900135E-009  0.1285753E+03  0.7561462E-02  0.1229585E+00
          2   -1    0    0  501    0  0.00000000000E+00  0.00000000000E+00  0.48129568524E+03  0.48129568524E+03  0.00000000000E+00 0. -1.
         -2   -1    0    0    0  501 -0.00000000000E+00 -0.00000000000E+00 -0.48240236945E+02  0.48240236945E+02  0.00000000000E+00 0.  1.
         25    2    1    2    0    0  0.62483198839E+02 -0.15172148339E+01  0.20772693013E+03  0.25040505698E+03  0.12508302436E+03 0.  0.
          5    1    3    3  502    0  0.87763209224E+02  0.10403084855E+02  0.79001936209E+02  0.11861443164E+03  0.41800000000E+01 0. -1.
         -5    1    3    3    0  502 -0.25280010384E+02 -0.11920299689E+02  0.12872499392E+03  0.13179062534E+03  0.41800000000E+01 0. -1.
        -11    1    1    2    0    0 -0.85773113143E+02  0.40616430587E+02  0.21109443980E+03  0.23144671933E+03  0.00000000000E+00 0. -1.
         11    1    1    2    0    0  0.23289914304E+02 -0.39099215753E+02  0.14234078363E+02  0.47684145873E+02  0.00000000000E+00 0.  1.
</event>
<event>
 7    1  0.2900135E-009  0.1145766E+03  0.7561462E-02  0.1252322E+00
          2   -1    0    0  501    0  0.00000000000E+00  0.00000000000E+00  0.93614252205E+02  0.93614252205E+02  0.00000000000E+00 0. -1.
         -2   -1    0    0    0  501 -0.00000000000E+00 -0.00000000000E+00 -0.16970040742E+03  0.16970040742E+03  0.00000000000E+00 0.  1.
         25    2    1    2    0    0  0.41893021641E+02  0.47699003611E+02 -0.31818613056E+02  0.14384452728E+03  0.12509437911E+03 0.  0.
          5    1    3    3  502    0 -0.93791451935E+01 -0.27715664504E+02  0.22919882239E+02  0.37402136641E+02  0.41800000000E+01 0.  1.
         -5    1    3    3    0  502  0.51272166834E+02  0.75414668115E+02 -0.54738495295E+02  0.10644239064E+03  0.41800000000E+01 0.  1.
        -11    1    1    2    0    0  0.30454997169E+01 -0.61284718895E+02 -0.12052375072E+02  0.62532804058E+02  0.00000000000E+00 0. -1.
         11    1    1    2    0    0 -0.44938521358E+02  0.13585715283E+02 -0.32215167090E+02  0.56937328285E+02  0.00000000000E+00 0.  1.
</event>
<event>
 7    1  0.2900135E-009  0.2488628E+03  0.7561462E-02  0.1114026E+00
         -2   -1    0    0    0  501 -0.00000000000E+00  0.00000000000E+00  0.49887181643E+02  0.49887181643E+02  0.00000000000E+00 0.  1.
          2   -1    0    0  501    0  0.00000000000E+00 -0.00000000000E+00 -0.13670945145E+04  0.13670945145E+04  0.00000000000E+00 0. -1.
         25    2    1    2    0    0 -0.84403647119E+02 -0.22044260869E+03 -0.60877635456E+03  0.66481295238E+03  0.12509473373E+03 0.  0.
          5    1    3    3  502    0  0.42712413663E+00 -0.10841157964E+03 -0.38959013687E+03  0.40441463893E+03  0.41800000000E+01 0. -1.
         -5    1    3    3    0  502 -0.84830771255E+02 -0.11203102905E+03 -0.21918621769E+03  0.26039831345E+03  0.41800000000E+01 0. -1.
        -11    1    1    2    0    0  0.44373284088E+02  0.28876517360E+02 -0.10168177192E+03  0.11463866859E+03  0.00000000000E+00 0. -1.
         11    1    1    2    0    0  0.40030363030E+02  0.19156609133E+03 -0.60674920640E+03  0.63753007520E+03  0.00000000000E+00 0.  1.
</event>
<event>
 7    1  0.2900135E-009  0.1713489E+03  0.7561462E-02  0.1176448E+00
          2   -1    0    0  501    0  0.00000000000E+00  0.00000000000E+00  0.23841705683E+03  0.23841705683E+03  0.00000000000E+00 0. -1.
         -2   -1    0    0    0  501 -0.00000000000E+00 -0.00000000000E+00 -0.18965693987E+03  0.18965693987E+03  0.00000000000E+00 0.  1.
         25    2    1    2    0    0  0.74491718065E+02  0.12926122115E+03  0.13057639551E+03  0.23442506341E+03  0.12508971155E+03 0.  0.
          5    1    3    3  502    0 -0.34299028275E+02  0.38608892876E+02  0.46907229904E+02  0.69891562917E+02  0.41800000000E+01 0.  1.
         -5    1    3    3    0  502  0.10879074634E+03  0.90652328274E+02  0.83669165610E+02  0.16453350049E+03  0.41800000000E+01 0.  1.
        -11    1    1    2    0    0 -0.60787480974E+02 -0.10332320566E+03 -0.10252445470E+03  0.15774050362E+03  0.00000000000E+00 0.  1.
         11    1    1    2    0    0 -0.13704237091E+02 -0.25938015495E+02  0.20708176143E+02  0.35908429668E+02  0.00000000000E+00 0. -1.
</event>
<event>
 7    1  0.2900135E-009  0.1651212E+03  0.7561462E-02  0.1183033E+00
          2   -1    0    0  501    0  0.00000000000E+00  0.00000000000E+00  0.13144808997E+04  0.13144808997E+04  0.00000000000E+00 0. -1.
         -2   -1    0    0    0  501 -0.00000000000E+00 -0.00000000000E+00 -0.25531610391E+02  0.25531610391E+02  0.00000000000E+00 0.  1.
         25    2    1    2    0    0 -0.11822887632E+03 -0.80213621751E+02  0.56488028070E+03  0.59594403298E+03  0.12508903472E+03 0.  0.
          5    1    3    3  502    0 -0.13386069093E+03 -0.34699603167E+02  0.46234086174E+03  0.48259640682E+03  0.41800000000E+01 0.  1.
         -5    1    3    3    0  502  0.15631814613E+02 -0.45514018583E+02  0.10253941896E+03  0.11334762616E+03  0.41800000000E+01 0.  1.
        -11    1    1    2    0    0  0.24444756514E+02  0.98976610710E+01  0.29054256644E+02  0.39238496975E+02  0.00000000000E+00 0.  1.
         11    1    1    2    0    0  0.93784119807E+02  0.70315960680E+02  0.69501475200E+03  0.70482998018E+03  0.00000000000E+00 0. -1.
</event>
<event>
 7    1  0.2900135E-009  0.1810174E+03  0.7561462E-02  0.1166822E+00
          1   -1    0    0  501    0  0.00000000000E+00  0.00000000000E+00  0.23707308789E+03  0.23707308789E+03  0.00000000000E+00 0. -1.
         -1   -1    0    0    0  501 -0.00000000000E+00 -0.00000000000E+00 -0.16343900828E+03  0.16343900828E+03  0.00000000000E+00 0.  1.
         25    2    1    2    0    0 -0.12456874775E+03  0.97088275997E+02  0.85700254193E+02  0.21894192897E+03  0.12509008130E+03 0.  0.
          5    1    3    3  502    0 -0.53756119604E+02 -0.11807368782E+02  0.68307724666E+02  0.87821136417E+02  0.41800000000E+01 0.  1.
         -5    1    3    3    0  502 -0.70812628148E+02  0.10889564478E+03  0.17392529527E+02  0.13112079256E+03  0.41800000000E+01 0.  1.
        -11    1    1    2    0    0  0.71348179651E+02 -0.10083491687E+03  0.97966353954E+01  0.12391213526E+03  0.00000000000E+00 0. -1.
         11    1    1    2    0    0  0.53220568101E+02  0.37466408776E+01 -0.21862809971E+02  0.57658031936E+02  0.00000000000E+00 0.  1.
</event>
<event>
 7    1  0.2900135E-009  0.8258606E+02  0.7561462E-02  0.1321869E+00
          2   -1    0    0  501    0  0.00000000000E+00  0.00000000000E+00  0.27953286688E+03  0.27953286688E+03  0.00000000000E+00 0. -1.
         -2   -1    0    0    0  501 -0.00000000000E+00 -0.00000000000E+00 -0.99418062183E+02  0.99418062183E+02  0.00000000000E+00 0.  1.
         25    2    1    2    0    0 -0.19641339246E+02  0.45509232195E+02 -0.35616993145E+02  0.13922867193E+03  0.12513664716E+03 0.  0.
          5    1    3    3  502    0  0.13980120596E+02  0.49911244298E+02 -0.72327088499E+02  0.89080055062E+02  0.41800000000E+01 0. -1.
         -5    1    3    3    0  502 -0.33621459842E+02 -0.44020121023E+01  0.36710095354E+02  0.50148616864E+02  0.41800000000E+01 0. -1.
        -11    1    1    2    0    0  0.52680706802E+01 -0.59035167361E+02  0.21135204776E+03  0.21950533398E+03  0.00000000000E+00 0. -1.
         11    1    1    2    0    0  0.14373268566E+02  0.13525935165E+02  0.43797500901E+01  0.20216923164E+02  0.00000000000E+00 0.  1.
</event>
<event>
 7    1  0.2900135E-009  0.1051534E+03  0.7561462E-02  0.1269818E+00
          2   -1    0    0  501    0  0.00000000000E+00  0.00000000000E+00  0.24962357225E+03  0.24962357225E+03  0.00000000000E+00 0. -1.
         -2   -1    0    0    0  501 -0.00000000000E+00 -0.00000000000E+00 -0.50411703051E+02  0.50411703051E+02  0.00000000000E+00 0.  1.
         25    2    1    2    0    0 -0.51423582922E+01  0.23139640407E+02  0.13831678087E+03  0.18799225767E+03  0.12509064819E+03 0.  0.
          5    1    3    3  502    0 -0.54184599948E+02 -0.14199896436E+02  0.30984183286E+02  0.64149044764E+02  0.41800000000E+01 0. -1.
         -5    1    3    3    0  502  0.49042241655E+02  0.37339536843E+02  0.10733259758E+03  0.12384321290E+03  0.41800000000E+01 0. -1.
        -11    1    1    2    0    0  0.35808876080E+02  0.18765899595E+02  0.16286146332E+02  0.43585240118E+02  0.00000000000E+00 0.  1.
         11    1    1    2    0    0 -0.30666517788E+02 -0.41905540002E+02  0.44608941999E+02  0.68457777516E+02  0.00000000000E+00 0. -1.
</event>
<event>
 7    1  0.3352102E-009  0.1433897E+03  0.7561462E-02  0.1208839E+00
          1   -1    0    0  501    0  0.00000000000E+00  0.00000000000E+00  0.80253975489E+03  0.80253975489E+03  0.00000000000E+00 0. -1.
         -1   -1    0    0    0  501 -0.00000000000E+00 -0.00000000000E+00 -0.34842114675E+02  0.34842114675E+02  0.00000000000E+00 0.  1.
         25    2    1    2    0    0  0.89565822446E+02  0.77427127839E+02  0.29359714969E+03  0.34038672692E+03  0.12508733301E+03 0.  0.
          5    1    3    3  502    0  0.76372438202E+02 -0.12411655896E+02  0.17128084035E+03  0.18799307751E+03  0.41800000000E+01 0.  1.
         -5    1    3    3    0  502  0.13193384244E+02  0.89838783735E+02  0.12231630934E+03  0.15239364941E+03  0.41800000000E+01 0.  1.
        -11    1    1    2    0    0 -0.34393412592E+02 -0.29601002276E+02  0.53718886778E+02  0.70319591595E+02  0.00000000000E+00 0.  1.
         11    1    1    2    0    0 -0.55172409854E+02 -0.47826125563E+02  0.42038160375E+03  0.42667555105E+03  0.00000000000E+00 0. -1.
</event>
<event>
 7    1  0.2900135E-009  0.9663476E+02  0.7561462E-02  0.1287536E+00
          1   -1    0    0  501    0  0.00000000000E+00  0.00000000000E+00  0.29294396698E+03  0.29294396698E+03  0.00000000000E+00 0. -1.
         -1   -1    0    0    0  501 -0.00000000000E+00 -0.00000000000E+00 -0.62663497466E+02  0.62663497466E+02  0.00000000000E+00 0.  1.
         25    2    1    2    0    0  0.32374162034E+01  0.19036992678E+02  0.22531874730E+03  0.25845347664E+03  0.12512703046E+03 0.  0.
          5    1    3    3  502    0  0.41351296655E+02 -0.30080761099E+02  0.47066590272E+02  0.69624121130E+02  0.41800000000E+01 0. -1.
         -5    1    3    3    0  502 -0.38113880452E+02  0.49117753777E+02  0.17825215703E+03  0.18882935551E+03  0.41800000000E+01 0. -1.
        -11    1    1    2    0    0 -0.19812463040E+02 -0.44818756863E+02 -0.24371916544E+02  0.54728831292E+02  0.00000000000E+00 0.  1.
         11    1    1    2    0    0  0.16575046837E+02  0.25781764186E+02  0.29333638763E+02  0.42425156514E+02  0.00000000000E+00 0. -1.
</event>
<event>
 7    1  0.2900135E-009  0.8925903E+02  0.7561462E-02  0.1304656E+00
         -1   -1    0    0    0  501 -0.00000000000E+00  0.00000000000E+00  0.93838915098E+02  0.93838915098E+02  0.00000000000E+00 0.  1.
          1   -1    0    0  501    0  0.00000000000E+00 -0.00000000000E+00 -0.19440706786E+03  0.19440706786E+03  0.00000000000E+00 0. -1.
         25    2    1    2    0    0 -0.33768176753E+02  0.70948174562E+02 -0.33929784426E+02  0.15156731337E+03  0.12508991556E+03 0.  0.
          5    1    3    3  502    0 -0.26237193800E+02  0.81117642114E+02 -0.71724735105E+02  0.11149157917E+03  0.41800000000E+01 0.  1.
         -5    1    3    3    0  502 -0.75309829527E+01 -0.10169467552E+02  0.37794950679E+02  0.40075734196E+02  0.41800000000E+01 0.  1.
        -11    1    1    2    0    0  0.27665973745E+02 -0.42309885530E+02 -0.87273237550E+02  0.10085707962E+03  0.00000000000E+00 0. -1.
         11    1    1    2    0    0  0.61022030083E+01 -0.28638289032E+02  0.20634869217E+02  0.35821589968E+02  0.00000000000E+00 0.  1.
</event>
<event>
 7    1  0.2900135E-009  0.5762617E+02  0.7561462E-02  0.1408072E+00
         -1   -1    0    0    0  501 -0.00000000000E+00  0.00000000000E+00  0.61914676713E+02  0.61914676713E+02  0.00000000000E+00 0.  1.
          1   -1    0    0  501    0  0.00000000000E+00 -0.00000000000E+00 -0.23179943090E+03  0.23179943090E+03  0.00000000000E+00 0. -1.
         25    2    1    2    0    0 -0.12284010020E+02 -0.47132734053E+02 -0.76882142045E+02  0.15465346506E+03  0.12503775017E+03 0.  0.
          5    1    3    3  502    0 -0.14165045083E+00 -0.29095580655E+02  0.32053129052E+02  0.43490784777E+02  0.41800000000E+01 0. -1.
         -5    1    3    3    0  502 -0.12142359570E+02 -0.18037153397E+02 -0.10893527110E+03  0.11116268028E+03  0.41800000000E+01 0. -1.
        -11    1    1    2    0    0  0.27534179426E+02  0.28321998524E+02  0.34159239426E+01  0.39647637678E+02  0.00000000000E+00 0.  1.
         11    1    1    2    0    0 -0.15250169405E+02  0.18810735529E+02 -0.96418536083E+02  0.99413004875E+02  0.00000000000E+00 0. -1.
</event>
<event>
 7    1  0.2900135E-009  0.1691011E+03  0.7561462E-02  0.1178788E+00
         -1   -1    0    0    0  501 -0.00000000000E+00  0.00000000000E+00  0.24920370094E+03  0.24920370094E+03  0.00000000000E+00 0.  1.
          1   -1    0    0  501    0  0.00000000000E+00 -0.00000000000E+00 -0.12746058602E+03  0.12746058602E+03  0.00000000000E+00 0. -1.
         25    2    1    2    0    0 -0.12917384764E+03 -0.54362077179E+02  0.57850718693E+02  0.19655501678E+03  0.12508417414E+03 0.  0.
          5    1    3    3  502    0  0.18656455898E+02 -0.28790324333E+02  0.25693360162E+02  0.43064687138E+02  0.41800000000E+01 0. -1.
         -5    1    3    3    0  502 -0.14783030353E+03 -0.25571752846E+02  0.32157358530E+02  0.15349032964E+03  0.41800000000E+01 0. -1.
        -11    1    1    2    0    0  0.37591923859E+02  0.49082102527E+02 -0.96023051312E+01  0.62565244279E+02  0.00000000000E+00 0. -1.
         11    1    1    2    0    0  0.91581923777E+02  0.52799746523E+01  0.73494701365E+02  0.11754402590E+03  0.00000000000E+00 0.  1.
</event>
<event>
 7    1  0.2900135E-009  0.1070760E+03  0.7561462E-02  0.1266083E+00
          1   -1    0    0  501    0  0.00000000000E+00  0.00000000000E+00  0.69848702558E+03  0.69848702558E+03  0.00000000000E+00 0. -1.
         -1   -1    0    0    0  501 -0.00000000000E+00 -0.00000000000E+00 -0.21937630061E+02  0.21937630061E+02  0.00000000000E+00 0.  1.
         25    2    1    2    0    0  0.45624065078E+02 -0.69243945487E+00  0.26929764021E+03  0.30041936935E+03  0.12509413923E+03 0.  0.
          5    1    3    3  502    0 -0.33907138714E+02  0.61488751175E+01  0.23419205584E+02  0.41874029077E+02  0.41800000000E+01 0.  1.
         -5    1    3    3    0  502  0.79531203792E+02 -0.68413145724E+01  0.24587843463E+03  0.25854534028E+03  0.41800000000E+01 0.  1.
        -11    1    1    2    0    0 -0.72207946940E+02  0.57788661417E+01  0.24402706650E+03  0.25455174736E+03  0.00000000000E+00 0.  1.
         11    1    1    2    0    0  0.26583881862E+02 -0.50864266869E+01  0.16322468880E+03  0.16545353893E+03  0.00000000000E+00 0. -1.
</event>
<event>
 7    1  0.2900135E-009  0.1286584E+03  0.7561462E-02  0.1229460E+00
         -2   -1    0    0    0  501 -0.00000000000E+00  0.00000000000E+00  0.29844414428E+02  0.29844414428E+02  0.00000000000E+00 0.  1.
          2   -1    0    0  501    0  0.00000000000E+00 -0.00000000000E+00 -0.66190182711E+03  0.66190182711E+03  0.00000000000E+00 0. -1.
         25    2    1    2    0    0 -0.89158675900E+02  0.10975643285E+01 -0.37070399539E+03  0.40127263841E+03  0.12509118276E+03 0.  0.
          5    1    3    3  502    0 -0.80517285961E+02 -0.52735054764E+02 -0.19942102632E+03  0.22147288204E+03  0.41800000000E+01 0.  1.
         -5    1    3    3    0  502 -0.86413899389E+01  0.53832619093E+02 -0.17128296906E+03  0.17979975637E+03  0.41800000000E+01 0.  1.
        -11    1    1    2    0    0  0.61285350532E+02  0.26772511757E+02 -0.23167078724E+03  0.24113070156E+03  0.00000000000E+00 0. -1.
         11    1    1    2    0    0  0.27873325368E+02 -0.27870076085E+02 -0.29682630053E+02  0.49342901566E+02  0.00000000000E+00 0.  1.
</event>
<event>
 7    1  0.4670902E-009  0.1246114E+03  0.7561462E-02  0.1235678E+00
         -2   -1    0    0    0  501 -0.00000000000E+00  0.00000000000E+00  0.53715391133E+02  0.53715391133E+02  0.00000000000E+00 0.  1.
          2   -1    0    0  501    0  0.00000000000E+00 -0.00000000000E+00 -0.38963554359E+03  0.38963554359E+03  0.00000000000E+00 0. -1.
         25    2    1    2    0    0 -0.51856052795E+02 -0.74058034684E+02 -0.23330890010E+03  0.27973884681E+03  0.12508851601E+03 0.  0.
          5    1    3    3  502    0 -0.33217659263E+02  0.16904679763E+02 -0.11477579393E+02  0.39222293578E+02  0.41800000000E+01 0. -1.
         -5    1    3    3    0  502 -0.18638393532E+02 -0.90962714447E+02 -0.22183132071E+03  0.24051655324E+03  0.41800000000E+01 0. -1.
        -11    1    1    2    0    0 -0.55528944097E+01  0.59214106842E+02 -0.81021896079E+02  0.10050717750E+03  0.00000000000E+00 0.  1.
         11    1    1    2    0    0  0.57408947205E+02  0.14843927843E+02 -0.21589356276E+02  0.63104910406E+02  0.00000000000E+00 0. -1.
</event>
<event>
 7    1  0.2900135E-009  0.3253550E+03  0.7561462E-02  0.1073211E+00
          2   -1    0    0  501    0  0.00000000000E+00  0.00000000000E+00  0.42610190146E+03  0.42610190146E+03  0.00000000000E+00 0. -1.
         -2   -1    0    0    0  501 -0.00000000000E+00 -0.00000000000E+00 -0.65444838008E+03  0.65444838008E+03  0.00000000000E+00 0.  1.
         25    2    1    2    0    0 -0.31014774056E+03  0.20992257798E+02 -0.53708105846E+03  0.63303845150E+03  0.12509724958E+03 0.  0.
          5    1    3    3  502    0 -0.15801524058E+03 -0.40903572296E+02 -0.20109644521E+03  0.25903507708E+03  0.41800000000E+01 0. -1.
         -5    1    3    3    0  502 -0.15213249998E+03  0.61895830094E+02 -0.33598461325E+03  0.37400337441E+03  0.41800000000E+01 0. -1.
        -11    1    1    2    0    0  0.26032554440E+03  0.16404781177E+02  0.26131946999E+03  0.36922401237E+03  0.00000000000E+00 0.  1.
         11    1    1    2    0    0  0.49822196157E+02 -0.37397038975E+02  0.47415109856E+02  0.78287817677E+02  0.00000000000E+00 0. -1.
</event>
<event>
 7    1  0.2900135E-009  0.1056769E+03  0.7561462E-02  0.1268792E+00
          2   -1    0    0  501    0  0.00000000000E+00  0.00000000000E+00  0.91499174381E+02  0.91499174381E+02  0.00000000000E+00 0. -1.
         -2   -1    0    0    0  501 -0.00000000000E+00 -0.00000000000E+00 -0.14296369396E+03  0.14296369396E+03  0.00000000000E+00 0.  1.
         25    2    1    2    0    0  0.33212037468E+02 -0.18747309018E+02 -0.33536096075E+02  0.13500633582E+03  0.12509012728E+03 0.  0.
          5    1    3    3  502    0 -0.20937008526E+02 -0.48902434044E+02 -0.47383334422E+02  0.71361468331E+02  0.41800000000E+01 0.  1.
         -5    1    3    3    0  502  0.54149045994E+02  0.30155125027E+02  0.13847238347E+02  0.63644867485E+02  0.41800000000E+01 0.  1.
        -11    1    1    2    0    0 -0.59405648132E+02 -0.61652408270E+01 -0.14842058969E+01  0.59743151001E+02  0.00000000000E+00 0. -1.
         11    1    1    2    0    0  0.26193610664E+02  0.24912549845E+02 -0.16444217611E+02  0.39713381526E+02  0.00000000000E+00 0.  1.
</event>
<event>
 7    1  0.2900135E-009  0.1798946E+03  0.7561462E-02  0.1167905E+00
          2   -1    0    0  501    0  0.00000000000E+00  0.00000000000E+00  0.13509300019E+04  0.13509300019E+04  0.00000000000E+00 0. -1.
         -2   -1    0    0    0  501 -0.00000000000E+00 -0.00000000000E+00 -0.34857760504E+02  0.34857760504E+02  0.00000000000E+00 0.  1.
         25    2    1    2    0    0  0.14211943149E+03  0.55208480110E+02  0.10335192566E+04  0.10521671541E+04  0.12509099607E+03 0.  0.
          5    1    3    3  502    0  0.15369814352E+03  0.18748850801E+02  0.89923744617E+03  0.91248018922E+03  0.41800000000E+01 0. -1.
         -5    1    3    3    0  502 -0.11578712025E+02  0.36459629309E+02  0.13428181041E+03  0.13968696484E+03  0.41800000000E+01 0. -1.
        -11    1    1    2    0    0 -0.36218221905E+01 -0.24222880994E+02  0.10245278331E+02  0.26548658868E+02  0.00000000000E+00 0. -1.
         11    1    1    2    0    0 -0.13849760930E+03 -0.30985599116E+02  0.27230770645E+03  0.30707194943E+03  0.00000000000E+00 0.  1.
</event>
<event>
 7    1  0.2900135E-009  0.9396454E+02  0.7561462E-02  0.1293525E+00
          2   -1    0    0  501    0  0.00000000000E+00  0.00000000000E+00  0.16298893653E+04  0.16298893653E+04  0.00000000000E+00 0. -1.
         -2   -1    0    0    0  501 -0.00000000000E+00 -0.00000000000E+00 -0.80870817876E+01  0.80870817876E+01  0.00000000000E+00 0.  1.
         25    2    1    2    0    0  0.28691522287E+02  0.19124659212E+00  0.11212875697E+04  0.11286053343E+04  0.12506377013E+03 0.  0.
          5    1    3    3  502    0  0.58124860125E+02  0.16812354993E+02  0.10188544489E+04  0.10206581284E+04  0.41800000000E+01 0. -1.
         -5    1    3    3    0  502 -0.29433337837E+02 -0.16621108401E+02  0.10243312080E+03  0.10794720588E+03  0.41800000000E+01 0. -1.
        -11    1    1    2    0    0 -0.56163691215E+02 -0.19705426812E+02  0.35893125002E+03  0.36383279992E+03  0.00000000000E+00 0. -1.
         11    1    1    2    0    0  0.27472168928E+02  0.19514180220E+02  0.14158346375E+03  0.14553831283E+03  0.00000000000E+00 0.  1.
</event>
<event>
 7    1  0.2900135E-009  0.1244654E+03  0.7561462E-02  0.1235907E+00
          2   -1    0    0  501    0  0.00000000000E+00  0.00000000000E+00  0.94553675512E+02  0.94553675512E+02  0.00000000000E+00 0. -1.
         -2   -1    0    0    0  501 -0.00000000000E+00 -0.00000000000E+00 -0.20144671344E+03  0.20144671344E+03  0.00000000000E+00 0.  1.
         25    2    1    2    0    0 -0.56771515250E+02  0.62356103916E+02 -0.49113587477E+02  0.15865600519E+03  0.12509314477E+03 0.  0.
          5    1    3    3  502    0 -0.66156084148E+02  0.92660190899E+02 -0.20559756997E+02  0.11577009309E+03  0.41800000000E+01 0.  1.
         -5    1    3    3    0  502  0.93845688976E+01 -0.30304086983E+02 -0.28553830480E+02  0.42885912097E+02  0.41800000000E+01 0.  1.
        -11    1    1    2    0    0  0.15948081167E+02  0.10776439523E+02 -0.49584562665E+02  0.53189301522E+02  0.00000000000E+00 0.  1.
         11    1    1    2    0    0  0.40823434083E+02 -0.73132543439E+02 -0.81948877827E+01  0.84155082235E+02  0.00000000000E+00 0. -1.
</event>
<event>
 7    1  0.2900135E-009  0.1234803E+03  0.7561462E-02  0.1237464E+00
          2   -1    0    0  501    0  0.00000000000E+00  0.00000000000E+00  0.15773766292E+04  0.15773766292E+04  0.00000000000E+00 0.  1.
         -2   -1    0    0    0  501 -0.00000000000E+00 -0.00000000000E+00 -0.12884332274E+02  0.12884332274E+02  0.00000000000E+00 0. -1.
         25    2    1    2    0    0  0.68683484624E+02 -0.12617781658E+02  0.11818441982E+04  0.11904957199E+04  0.12509085009E+03 0.  0.
          5    1    3    3  502    0 -0.16734490355E+02 -0.46365688896E+02  0.50920707945E+03  0.51160447852E+03  0.41800000000E+01 0. -1.
         -5    1    3    3    0  502  0.85417974980E+02  0.33747907238E+02  0.67263711880E+03  0.67889124142E+03  0.41800000000E+01 0. -1.
        -11    1    1    2    0    0 -0.65119107996E+02  0.40997317484E+02  0.33868535528E+03  0.34731692753E+03  0.00000000000E+00 0.  1.
         11    1    1    2    0    0 -0.35643766286E+01 -0.28379535826E+02  0.43962743348E+02  0.52448313959E+02  0.00000000000E+00 0. -1.
</event>
<event>
 7    1  0.2900135E-009  0.7626494E+02  0.7561462E-02  0.1339998E+00
         -1   -1    0    0    0  501 -0.00000000000E+00  0.00000000000E+00  0.72315098299E+02  0.72315098299E+02  0.00000000000E+00 0.  1.
          1   -1    0    0  501    0  0.00000000000E+00 -0.00000000000E+00 -0.23992330393E+03  0.23992330393E+03  0.00000000000E+00 0. -1.
         25    2    1    2    0    0 -0.26981404748E+02 -0.33766269167E+02 -0.20957834603E+02  0.13401375429E+03  0.12510914583E+03 0.  0.
          5    1    3    3  502    0  0.62966723151E+01 -0.98679994950E+01  0.50244567651E+02  0.51759197006E+02  0.41800000000E+01 0.  1.
         -5    1    3    3    0  502 -0.33278077063E+02 -0.23898269672E+02 -0.71202402255E+02  0.82254557279E+02  0.41800000000E+01 0.  1.
        -11    1    1    2    0    0  0.22486847796E+02  0.64266832243E+02 -0.11746469190E+03  0.13577127050E+03  0.00000000000E+00 0.  1.
         11    1    1    2    0    0  0.44945569517E+01 -0.30500563076E+02 -0.29185679128E+02  0.42453377443E+02  0.00000000000E+00 0. -1.
</event>
<event>
 7    1  0.2900135E-009  0.1256356E+03  0.7561462E-02  0.1234079E+00
          3   -1    0    0  501    0  0.00000000000E+00  0.00000000000E+00  0.47607398698E+02  0.47607398698E+02  0.00000000000E+00 0. -1.
         -3   -1    0    0    0  501 -0.00000000000E+00 -0.00000000000E+00 -0.44127117248E+03  0.44127117248E+03  0.00000000000E+00 0.  1.
         25    2    1    2    0    0 -0.44666946915E+02 -0.64992889248E+02 -0.30553332750E+03  0.33943603350E+03  0.12508794835E+03 0.  0.
          5    1    3    3  502    0 -0.43863491526E+02 -0.94656277989E+02 -0.16144809794E+03  0.19226746365E+03  0.41800000000E+01 0.  1.
         -5    1    3    3    0  502 -0.80345538913E+00  0.29663388741E+02 -0.14408522956E+03  0.14716856984E+03  0.41800000000E+01 0.  1.
        -11    1    1    2    0    0  0.58449847756E+02  0.78317391273E+02 -0.57729612076E+02  0.11350201139E+03  0.00000000000E+00 0. -1.
         11    1    1    2    0    0 -0.13782900841E+02 -0.13324502026E+02 -0.30400834206E+02  0.35940526293E+02  0.00000000000E+00 0.  1.
</event>
<event>
 7    1  0.2900135E-009  0.1105479E+03  0.7561462E-02  0.1259559E+00
         -4   -1    0    0    0  501 -0.00000000000E+00  0.00000000000E+00  0.63273981333E+03  0.63273981333E+03  0.00000000000E+00 0. -1.
          4   -1    0    0  501    0  0.00000000000E+00 -0.00000000000E+00 -0.31886431474E+02  0.31886431474E+02  0.00000000000E+00 0.  1.
         25    2    1    2    0    0  0.86170976446E+02  0.28349820573E+01  0.37293124552E+03  0.40268845787E+03  0.12508719325E+03 0.  0.
          5    1    3    3  502    0 -0.58002272520E+01 -0.15230441102E+02 -0.13004128265E+01  0.16875202098E+02  0.41800000000E+01 0.  1.
         -5    1    3    3    0  502  0.91971203698E+02  0.18065423159E+02  0.37423165834E+03  0.38581325577E+03  0.41800000000E+01 0.  1.
        -11    1    1    2    0    0 -0.44432238933E+02  0.33072897110E+02  0.18199861124E+03  0.19024072874E+03  0.00000000000E+00 0. -1.
         11    1    1    2    0    0 -0.41738737513E+02 -0.35907879167E+02  0.45923525100E+02  0.71697058190E+02  0.00000000000E+00 0.  1.
</event>
<event>
 7    1  0.2900135E-009  0.1540381E+03  0.7561462E-02  0.1195597E+00
          2   -1    0    0  501    0  0.00000000000E+00  0.00000000000E+00  0.49576868499E+03  0.49576868499E+03  0.00000000000E+00 0. -1.
         -2   -1    0    0    0  501 -0.00000000000E+00 -0.00000000000E+00 -0.62234646949E+02  0.62234646949E+02  0.00000000000E+00 0.  1.
         25    2    1    2    0    0 -0.35358859211E+02 -0.11870156845E+03  0.15169478110E+03  0.23237529629E+03  0.12508661172E+03 0.  0.
          5    1    3    3  502    0  0.32040895736E+02 -0.10123312512E+03  0.90135068687E+02  0.13934334440E+03  0.41800000000E+01 0. -1.
         -5    1    3    3    0  502 -0.67399754947E+02 -0.17468443333E+02  0.61559712418E+02  0.93031951889E+02  0.41800000000E+01 0. -1.
        -11    1    1    2    0    0 -0.81480439129E+01  0.50564633439E+02  0.21414952156E+03  0.22018898782E+03  0.00000000000E+00 0. -1.
         11    1    1    2    0    0  0.43506903123E+02  0.68136935010E+02  0.67689735379E+02  0.10543904783E+03  0.00000000000E+00 0.  1.
</event>
<event>
 7    1  0.2900135E-009  0.1185976E+03  0.7561462E-02  0.1245429E+00
          1   -1    0    0  501    0  0.00000000000E+00  0.00000000000E+00  0.39987368192E+02  0.39987368192E+02  0.00000000000E+00 0. -1.
         -1   -1    0    0    0  501 -0.00000000000E+00 -0.00000000000E+00 -0.58058313346E+03  0.58058313346E+03  0.00000000000E+00 0.  1.
         25    2    1    2    0    0  0.31040880708E+02 -0.10102960915E+03 -0.32127221325E+03  0.36059873548E+03  0.12508035346E+03 0.  0.
          5    1    3    3  502    0 -0.19383353670E+02 -0.34280419701E+02 -0.24218615644E+03  0.24540266572E+03  0.41800000000E+01 0. -1.
         -5    1    3    3    0  502  0.50424234378E+02 -0.66749189445E+02 -0.79086056815E+02  0.11519606975E+03  0.41800000000E+01 0. -1.
        -11    1    1    2    0    0  0.10156012629E+02  0.30592385455E+02 -0.76715038785E+01  0.33134432424E+02  0.00000000000E+00 0. -1.
         11    1    1    2    0    0 -0.41196893337E+02  0.70437223692E+02 -0.21165204814E+03  0.22683733375E+03  0.00000000000E+00 0.  1.
</event>
<event>
 7    1  0.2900135E-009  0.1393874E+03  0.7561462E-02  0.1214156E+00
         -2   -1    0    0    0  501 -0.00000000000E+00  0.00000000000E+00  0.42601042553E+02  0.42601042553E+02  0.00000000000E+00 0.  1.
          2   -1    0    0  501    0  0.00000000000E+00 -0.00000000000E+00 -0.62954854396E+03  0.62954854396E+03  0.00000000000E+00 0. -1.
         25    2    1    2    0    0 -0.10552563297E+03  0.37792950358E+02 -0.40881420682E+03  0.44197362607E+03  0.12509062367E+03 0.  0.
          5    1    3    3  502    0  0.26531269377E+02  0.19272273605E+02 -0.59801427679E+02  0.68330168572E+02  0.41800000000E+01 0.  1.
         -5    1    3    3    0  502 -0.13205690235E+03  0.18520676753E+02 -0.34901277914E+03  0.37364345749E+03  0.41800000000E+01 0.  1.
        -11    1    1    2    0    0  0.93649389003E+02 -0.31147210841E+02 -0.18869689458E+03  0.21294805664E+03  0.00000000000E+00 0. -1.
         11    1    1    2    0    0  0.11876243970E+02 -0.66457395169E+01  0.10563599995E+02  0.17227903802E+02  0.00000000000E+00 0.  1.
</event>
<event>
 7    1  0.2900135E-009  0.9922359E+02  0.7561462E-02  0.1281937E+00
         -1   -1    0    0    0  501 -0.00000000000E+00  0.00000000000E+00  0.28468084440E+03  0.28468084440E+03  0.00000000000E+00 0.  1.
          1   -1    0    0  501    0  0.00000000000E+00 -0.00000000000E+00 -0.58491050841E+02  0.58491050841E+02  0.00000000000E+00 0. -1.
         25    2    1    2    0    0 -0.68404119788E+02 -0.41530184964E+00  0.13805635748E+03  0.19846145343E+03  0.12509234420E+03 0.  0.
          5    1    3    3  502    0  0.17966180641E+02 -0.80441333700E+01 -0.13199104911E+02  0.24066169179E+02  0.41800000000E+01 0. -1.
         -5    1    3    3    0  502 -0.86370300430E+02  0.76288315204E+01  0.15125546239E+03  0.17439528425E+03  0.41800000000E+01 0. -1.
        -11    1    1    2    0    0  0.39929857600E+02  0.30385336814E+02  0.32331910928E+01  0.50280371378E+02  0.00000000000E+00 0. -1.
         11    1    1    2    0    0  0.28474262188E+02 -0.29970034964E+02  0.84900244989E+02  0.94430070434E+02  0.00000000000E+00 0.  1.
</event>
<event>
 7    1  0.2900135E-009  0.1373872E+03  0.7561462E-02  0.1216888E+00
          3   -1    0    0  501    0  0.00000000000E+00  0.00000000000E+00  0.48558895020E+02  0.48558895020E+02  0.00000000000E+00 0. -1.
         -3   -1    0    0    0  501 -0.00000000000E+00 -0.00000000000E+00 -0.45699607325E+03  0.45699607325E+03  0.00000000000E+00 0.  1.
         25    2    1    2    0    0 -0.97924334101E+02  0.45512667168E+01 -0.26654864447E+03  0.31033109054E+03  0.12508923476E+03 0.  0.
          5    1    3    3  502    0 -0.28401304014E+02  0.50410939295E+02 -0.18425609015E+03  0.19317265859E+03  0.41800000000E+01 0.  1.
         -5    1    3    3    0  502 -0.69523030087E+02 -0.45859672578E+02 -0.82292554320E+02  0.11715843195E+03  0.41800000000E+01 0.  1.
        -11    1    1    2    0    0  0.10988574709E+03 -0.22147072885E+02 -0.12615795466E+03  0.16876373952E+03  0.00000000000E+00 0. -1.
         11    1    1    2    0    0 -0.11961412986E+02  0.17595806168E+02 -0.15730579099E+02  0.26460138210E+02  0.00000000000E+00 0.  1.
</event>
<event>
 7    1  0.2900135E-009  0.1158132E+03  0.7561462E-02  0.1250168E+00
         -1   -1    0    0    0  501 -0.00000000000E+00  0.00000000000E+00  0.21696088453E+03  0.21696088453E+03  0.00000000000E+00 0. -1.
          1   -1    0    0  501    0  0.00000000000E+00 -0.00000000000E+00 -0.11511360260E+03  0.11511360260E+03  0.00000000000E+00 0.  1.
         25    2    1    2    0    0 -0.67305704866E+01  0.68766003926E+02  0.15180744544E+03  0.20849087449E+03  0.12509548505E+03 0.  0.
          5    1    3    3  502    0  0.51482344501E+02  0.56716691300E+02  0.11567240786E+03  0.13879767004E+03  0.41800000000E+01 0. -1.
         -5    1    3    3    0  502 -0.58212914987E+02  0.12049312626E+02  0.36135037580E+02  0.69693204453E+02  0.41800000000E+01 0. -1.
        -11    1    1    2    0    0 -0.27618831547E+02 -0.47427416528E+02  0.52663166156E+01  0.55135231796E+02  0.00000000000E+00 0. -1.
         11    1    1    2    0    0  0.34349402033E+02 -0.21338587399E+02 -0.55226480125E+02  0.68448380837E+02  0.00000000000E+00 0.  1.
</event>
<event>
 7    1  0.2900135E-009  0.9256567E+02  0.7561462E-02  0.1296755E+00
          1   -1    0    0  501    0  0.00000000000E+00  0.00000000000E+00  0.52375721438E+03  0.52375721438E+03  0.00000000000E+00 0. -1.
         -1   -1    0    0    0  501 -0.00000000000E+00 -0.00000000000E+00 -0.25429310493E+02  0.25429310493E+02  0.00000000000E+00 0.  1.
         25    2    1    2    0    0 -0.27202494726E+02 -0.88077657462E+01  0.34413619527E+03  0.36727970667E+03  0.12508840704E+03 0.  0.
          5    1    3    3  502    0 -0.47347523863E+02  0.22867772839E+02  0.56964489707E+02  0.77634712199E+02  0.41800000000E+01 0. -1.
         -5    1    3    3    0  502  0.20145029137E+02 -0.31675538585E+02  0.28717170556E+03  0.28964499447E+03  0.41800000000E+01 0. -1.
        -11    1    1    2    0    0 -0.36977741313E+01  0.46063317892E+02  0.57425086728E+02  0.73709859411E+02  0.00000000000E+00 0.  1.
         11    1    1    2    0    0  0.30900268857E+02 -0.37255552145E+02  0.96766621893E+02  0.10819695880E+03  0.00000000000E+00 0. -1.
</event>
<event>
 7    1  0.2900135E-009  0.8706668E+02  0.7561462E-02  0.1310115E+00
         -2   -1    0    0    0  501 -0.00000000000E+00  0.00000000000E+00  0.51106373093E+02  0.51106373093E+02  0.00000000000E+00 0.  1.
          2   -1    0    0  501    0  0.00000000000E+00 -0.00000000000E+00 -0.30251595283E+03  0.30251595283E+03  0.00000000000E+00 0. -1.
         25    2    1    2    0    0 -0.19986611606E+02 -0.15701676158E+02 -0.66385173870E+02  0.14388083602E+03  0.12509474964E+03 0.  0.
          5    1    3    3  502    0  0.41134640754E+02  0.63193776785E+01 -0.66757387885E+02  0.78778261224E+02  0.41800000000E+01 0. -1.
         -5    1    3    3    0  502 -0.61121252361E+02 -0.22021053837E+02  0.37221401538E+00  0.65102574799E+02  0.41800000000E+01 0. -1.
        -11    1    1    2    0    0  0.25864940412E+02 -0.18946535620E+02 -0.16736946003E+03  0.17041274162E+03  0.00000000000E+00 0. -1.
         11    1    1    2    0    0 -0.58783288059E+01  0.34648211778E+02 -0.17654945836E+02  0.39328748282E+02  0.00000000000E+00 0.  1.
</event>
<event>
 7    1  0.2900135E-009  0.2315204E+03  0.7561462E-02  0.1125574E+00
         -3   -1    0    0    0  501 -0.00000000000E+00  0.00000000000E+00  0.73228109219E+03  0.73228109219E+03  0.00000000000E+00 0.  1.
          3   -1    0    0  501    0  0.00000000000E+00 -0.00000000000E+00 -0.93233642777E+02  0.93233642777E+02  0.00000000000E+00 0. -1.
         25    2    1    2    0    0 -0.21423268581E+03 -0.60089102947E+02  0.19708074690E+03  0.32248172670E+03  0.12508916538E+03 0.  0.
          5    1    3    3  502    0 -0.41141483212E+02 -0.41814489187E+02 -0.92743804595E+00  0.58816712661E+02  0.41800000000E+01 0. -1.
         -5    1    3    3    0  502 -0.17309120260E+03 -0.18274613760E+02  0.19800818494E+03  0.26366501404E+03  0.41800000000E+01 0. -1.
        -11    1    1    2    0    0  0.15172669155E+03  0.13809200549E+02  0.21812087522E+03  0.26606089370E+03  0.00000000000E+00 0.  1.
         11    1    1    2    0    0  0.62505994259E+02  0.46279902398E+02  0.22384582729E+03  0.23697211456E+03  0.00000000000E+00 0. -1.
</event>
<event>
 7    1  0.2900135E-009  0.1840587E+03  0.7561462E-02  0.1163932E+00
         -2   -1    0    0    0  501 -0.00000000000E+00  0.00000000000E+00  0.20525140030E+03  0.20525140030E+03  0.00000000000E+00 0.  1.
          2   -1    0    0  501    0  0.00000000000E+00 -0.00000000000E+00 -0.29344510290E+03  0.29344510290E+03  0.00000000000E+00 0. -1.
         25    2    1    2    0    0  0.15117385342E+03  0.14417082931E+02  0.11556680806E+03  0.22817963688E+03  0.12509545684E+03 0.  0.
          5    1    3    3  502    0  0.51065062370E+02 -0.51920091796E+02  0.22967273758E+02  0.76474208664E+02  0.41800000000E+01 0. -1.
         -5    1    3    3    0  502  0.10010879105E+03  0.66337174726E+02  0.92599534306E+02  0.15170542821E+03  0.41800000000E+01 0. -1.
        -11    1    1    2    0    0 -0.10613446094E+03  0.31478246653E+02 -0.10441992624E+03  0.15218056645E+03  0.00000000000E+00 0.  1.
         11    1    1    2    0    0 -0.45039392481E+02 -0.45895329584E+02 -0.99340584431E+02  0.11833629987E+03  0.00000000000E+00 0. -1.
</event>
<event>
 7    1  0.2900135E-009  0.1148133E+03  0.7561462E-02  0.1251907E+00
          4   -1    0    0  501    0  0.00000000000E+00  0.00000000000E+00  0.61427184210E+03  0.61427184210E+03  0.00000000000E+00 0.  1.
         -4   -1    0    0    0  501 -0.00000000000E+00 -0.00000000000E+00 -0.32826580798E+02  0.32826580798E+02  0.00000000000E+00 0. -1.
         25    2    1    2    0    0  0.55430247455E+02  0.68174053368E+02  0.26408177896E+03  0.30513404598E+03  0.12508951255E+03 0.  0.
          5    1    3    3  502    0  0.37320627603E+02  0.74419121117E+02  0.66639981852E+02  0.10672110576E+03  0.41800000000E+01 0.  1.
         -5    1    3    3    0  502  0.18109619852E+02 -0.62450677491E+01  0.19744179711E+03  0.19841294022E+03  0.41800000000E+01 0.  1.
        -11    1    1    2    0    0  0.70522454525E+01 -0.63624303773E+02  0.17822579172E+03  0.18937322681E+03  0.00000000000E+00 0.  1.
         11    1    1    2    0    0 -0.62482492908E+02 -0.45497495948E+01  0.13913769062E+03  0.15259115011E+03  0.00000000000E+00 0. -1.
</event>
<event>
 7    1  0.2900135E-009  0.1549947E+03  0.7561462E-02  0.1194467E+00
          2   -1    0    0  501    0  0.00000000000E+00  0.00000000000E+00  0.48690105851E+03  0.48690105851E+03  0.00000000000E+00 0. -1.
         -2   -1    0    0    0  501 -0.00000000000E+00 -0.00000000000E+00 -0.61969403785E+02  0.61969403785E+02  0.00000000000E+00 0.  1.
         25    2    1    2    0    0  0.99293652443E+02  0.55109716431E+02  0.10881803132E+03  0.20096149663E+03  0.12509136232E+03 0.  0.
          5    1    3    3  502    0  0.58571901444E+02  0.93635581949E+02  0.87015212999E+02  0.14066772743E+03  0.41800000000E+01 0.  1.
         -5    1    3    3    0  502  0.40721750998E+02 -0.38525865518E+02  0.21802818324E+02  0.60293769207E+02  0.41800000000E+01 0.  1.
        -11    1    1    2    0    0 -0.10907310854E+03 -0.25425861597E+02  0.22042958460E+03  0.24725011468E+03  0.00000000000E+00 0.  1.
         11    1    1    2    0    0  0.97794560934E+01 -0.29683854834E+02  0.95684038802E+02  0.10065885098E+03  0.00000000000E+00 0. -1.
</event>
<event>
 7    1  0.2900135E-009  0.9394811E+02  0.7561462E-02  0.1293563E+00
         -1   -1    0    0    0  501 -0.00000000000E+00  0.00000000000E+00  0.57954106078E+02  0.57954106078E+02  0.00000000000E+00 0.  1.
          1   -1    0    0  501    0  0.00000000000E+00 -0.00000000000E+00 -0.39606759788E+03  0.39606759788E+03  0.00000000000E+00 0. -1.
         25    2    1    2    0    0 -0.32526862309E+02 -0.74856362211E+00 -0.33215661701E+03  0.35640916639E+03  0.12506365797E+03 0.  0.
          5    1    3    3  502    0 -0.38555111827E+01 -0.48276136623E+02 -0.53658075530E+02  0.72402429540E+02  0.41800000000E+01 0.  1.
         -5    1    3    3    0  502 -0.28671351126E+02  0.47527573001E+02 -0.27849854148E+03  0.28400673685E+03  0.41800000000E+01 0.  1.
        -11    1    1    2    0    0  0.12538806546E+02  0.38726819047E+02  0.22119274631E+02  0.46327642864E+02  0.00000000000E+00 0.  1.
         11    1    1    2    0    0  0.19988055763E+02 -0.37978255425E+02 -0.28076149425E+02  0.51284894705E+02  0.00000000000E+00 0. -1.
</event>
<event>
 7    1  0.3126035E-009  0.1106462E+03  0.7561462E-02  0.1259378E+00
          2   -1    0    0  501    0  0.00000000000E+00  0.00000000000E+00  0.36474226603E+03  0.36474226603E+03  0.00000000000E+00 0. -1.
         -2   -1    0    0    0  501 -0.00000000000E+00 -0.00000000000E+00 -0.37395287714E+02  0.37395287714E+02  0.00000000000E+00 0.  1.
         25    2    1    2    0    0 -0.14767203866E+02 -0.26769071489E+02  0.13282834897E+03  0.18500589495E+03  0.12509659219E+03 0.  0.
          5    1    3    3  502    0  0.52325227820E+02 -0.30886936333E+02  0.54772850094E+02  0.81911353364E+02  0.41800000000E+01 0. -1.
         -5    1    3    3    0  502 -0.67092431686E+02  0.41178648436E+01  0.78055498874E+02  0.10309454159E+03  0.41800000000E+01 0. -1.
        -11    1    1    2    0    0  0.23462400698E+02  0.56969458831E+02  0.99302613266E+02  0.11686322128E+03  0.00000000000E+00 0.  1.
         11    1    1    2    0    0 -0.86951968326E+01 -0.30200387342E+02  0.95216016079E+02  0.10026843751E+03  0.00000000000E+00 0. -1.
</event>
<event>
 7    1  0.2900135E-009  0.1110842E+03  0.7561462E-02  0.1258575E+00
          1   -1    0    0  501    0  0.00000000000E+00  0.00000000000E+00  0.14347274987E+03  0.14347274987E+03  0.00000000000E+00 0. -1.
         -1   -1    0    0    0  501 -0.00000000000E+00 -0.00000000000E+00 -0.93929044080E+02  0.93929044080E+02  0.00000000000E+00 0.  1.
         25    2    1    2    0    0 -0.28667568024E+01 -0.38636318699E+02  0.41376713739E+02  0.13734083287E+03  0.12509791572E+03 0.  0.
          5    1    3    3  502    0 -0.58803820132E+02 -0.32615075086E+02 -0.96570216058E-02  0.67372879396E+02  0.41800000000E+01 0. -1.
         -5    1    3    3    0  502  0.55937063329E+02 -0.60212436132E+01  0.41386370761E+02  0.69967953474E+02  0.41800000000E+01 0. -1.
        -11    1    1    2    0    0  0.38237955941E+02 -0.87714650009E+01  0.11308551810E+02  0.40828460868E+02  0.00000000000E+00 0.  1.
         11    1    1    2    0    0 -0.35371199138E+02  0.47407783700E+02 -0.31415597574E+01  0.59232500213E+02  0.00000000000E+00 0. -1.
</event>
<event>
 7    1  0.2900135E-009  0.1734635E+03  0.7561462E-02  0.1174283E+00
          1   -1    0    0  501    0  0.00000000000E+00  0.00000000000E+00  0.99669928677E+02  0.99669928677E+02  0.00000000000E+00 0. -1.
         -1   -1    0    0    0  501 -0.00000000000E+00 -0.00000000000E+00 -0.36206940301E+03  0.36206940301E+03  0.00000000000E+00 0.  1.
         25    2    1    2    0    0 -0.66810162619E+02  0.14072589957E+03 -0.12345600477E+03  0.23485975593E+03  0.12510133174E+03 0.  0.
          5    1    3    3  502    0 -0.78203877222E+02  0.73693044658E+02 -0.12728488739E+03  0.16662960782E+03  0.41800000000E+01 0.  1.
         -5    1    3    3    0  502  0.11393714603E+02  0.67032854911E+02  0.38288826135E+01  0.68230148117E+02  0.41800000000E+01 0.  1.
        -11    1    1    2    0    0  0.74174191926E+02 -0.76260177932E+02 -0.52051333808E+02  0.11843465218E+03  0.00000000000E+00 0.  1.
         11    1    1    2    0    0 -0.73640293072E+01 -0.64465721637E+02 -0.86892135752E+02  0.10844492358E+03  0.00000000000E+00 0. -1.
</event>
<event>
 7    1  0.2900135E-009  0.1019626E+03  0.7561462E-02  0.1276222E+00
          2   -1    0    0  501    0  0.00000000000E+00  0.00000000000E+00  0.22430773391E+03  0.22430773391E+03  0.00000000000E+00 0. -1.
         -2   -1    0    0    0  501 -0.00000000000E+00 -0.00000000000E+00 -0.76266523851E+02  0.76266523851E+02  0.00000000000E+00 0.  1.
         25    2    1    2    0    0  0.90700218563E+01  0.27083401876E+02  0.15979646599E+03  0.20493558678E+03  0.12509159936E+03 0.  0.
          5    1    3    3  502    0 -0.51987918604E+02  0.31541182867E+02  0.11061281102E+03  0.12629432394E+03  0.41800000000E+01 0. -1.
         -5    1    3    3    0  502  0.61057940460E+02 -0.44577809917E+01  0.49183654979E+02  0.78641262844E+02  0.41800000000E+01 0. -1.
        -11    1    1    2    0    0  0.19377483677E+02 -0.44304573572E+02 -0.30785191741E+02  0.57324603301E+02  0.00000000000E+00 0.  1.
         11    1    1    2    0    0 -0.28447505534E+02  0.17221171697E+02  0.19029935808E+02  0.38314067685E+02  0.00000000000E+00 0. -1.
</event>
<event>
 7    1  0.2900135E-009  0.1036332E+03  0.7561462E-02  0.1272836E+00
          2   -1    0    0  501    0  0.00000000000E+00  0.00000000000E+00  0.19229406241E+03  0.19229406241E+03  0.00000000000E+00 0. -1.
         -2   -1    0    0    0  501 -0.00000000000E+00 -0.00000000000E+00 -0.73079464410E+02  0.73079464410E+02  0.00000000000E+00 0.  1.
         25    2    1    2    0    0  0.36995905166E+02 -0.27261366611E+02  0.50663650615E+02  0.14256911553E+03  0.12508904070E+03 0.  0.
          5    1    3    3  502    0  0.58697810624E+02 -0.64294464717E+02  0.19370820382E+02  0.89285565729E+02  0.41800000000E+01 0. -1.
         -5    1    3    3    0  502 -0.21701905458E+02  0.37033098106E+02  0.31292830233E+02  0.53283549805E+02  0.41800000000E+01 0. -1.
        -11    1    1    2    0    0 -0.51482855480E+02  0.68289588028E+01  0.79908920075E+02  0.95302437504E+02  0.00000000000E+00 0. -1.
         11    1    1    2    0    0  0.14486950314E+02  0.20432407808E+02 -0.11357972690E+02  0.27501973781E+02  0.00000000000E+00 0.  1.
</event>
<event>
 7    1  0.2900135E-009  0.1337448E+03  0.7561462E-02  0.1222003E+00
         -4   -1    0    0    0  501 -0.00000000000E+00  0.00000000000E+00  0.78529569773E+02  0.78529569773E+02  0.00000000000E+00 0.  1.
          4   -1    0    0  501    0  0.00000000000E+00 -0.00000000000E+00 -0.37972554882E+03  0.37972554882E+03  0.00000000000E+00 0. -1.
         25    2    1    2    0    0 -0.58027812732E+02  0.90736136546E+02 -0.26683841202E+03  0.31376784976E+03  0.12508897588E+03 0.  0.
          5    1    3    3  502    0  0.18141086012E+02  0.25451817700E+02 -0.32460400265E+01  0.31700208229E+02  0.41800000000E+01 0. -1.
         -5    1    3    3    0  502 -0.76168898744E+02  0.65284318847E+02 -0.26359237200E+03  0.28206764153E+03  0.41800000000E+01 0. -1.
        -11    1    1    2    0    0  0.73058197698E+02 -0.95078329776E+02 -0.42034543264E+02  0.12706018995E+03  0.00000000000E+00 0. -1.
         11    1    1    2    0    0 -0.15030384966E+02  0.43421932296E+01  0.76769762368E+01  0.17427078884E+02  0.00000000000E+00 0.  1.
</event>
<event>
 7    1  0.2900135E-009  0.6309109E+02  0.7561462E-02  0.1385299E+00
         -2   -1    0    0    0  501 -0.00000000000E+00  0.00000000000E+00  0.62671461459E+02  0.62671461459E+02  0.00000000000E+00 0.  1.
          2   -1    0    0  501    0  0.00000000000E+00 -0.00000000000E+00 -0.25093120946E+03  0.25093120946E+03  0.00000000000E+00 0. -1.
         25    2    1    2    0    0  0.20082937739E+02 -0.70165684207E+01 -0.32217004526E+02  0.13091951838E+03  0.12509767501E+03 0.  0.
          5    1    3    3  502    0  0.76766129921E+01  0.23437002551E+02 -0.73694183975E+02  0.77823702221E+02  0.41800000000E+01 0.  1.
         -5    1    3    3    0  502  0.12406324746E+02 -0.30453570972E+02  0.41477179449E+02  0.53095816160E+02  0.41800000000E+01 0.  1.
        -11    1    1    2    0    0 -0.43087917540E+02 -0.24175932424E+01 -0.15134671945E+03  0.15737929624E+03  0.00000000000E+00 0. -1.
         11    1    1    2    0    0  0.23004979802E+02  0.94341616631E+01 -0.46960240203E+01  0.25303856298E+02  0.00000000000E+00 0.  1.
</event>
<event>
 7    1  0.2900135E-009  0.1123887E+03  0.7561462E-02  0.1256209E+00
          4   -1    0    0  501    0  0.00000000000E+00  0.00000000000E+00  0.12446248305E+03  0.12446248305E+03  0.00000000000E+00 0. -1.
         -4   -1    0    0    0  501 -0.00000000000E+00 -0.00000000000E+00 -0.12929902272E+03  0.12929902272E+03  0.00000000000E+00 0.  1.
         25    2    1    2    0    0  0.64408780706E+02 -0.12833346758E+02  0.80894103884E+00  0.14128697651E+03  0.12509264377E+03 0.  0.
          5    1    3    3  502    0 -0.37766586985E+02 -0.18673977542E+00 -0.34889986166E+01  0.38157508770E+02  0.41800000000E+01 0. -1.
         -5    1    3    3    0  502  0.10217536769E+03 -0.12646606983E+02  0.42979396554E+01  0.10312946774E+03  0.41800000000E+01 0. -1.
        -11    1    1    2    0    0 -0.84869461602E+01  0.25093436760E+02 -0.38298635689E+02  0.46567094811E+02  0.00000000000E+00 0.  1.
         11    1    1    2    0    0 -0.55921834546E+02 -0.12260090001E+02  0.32653154974E+02  0.65907434449E+02  0.00000000000E+00 0. -1.
</event>
<event>
 7    1  0.2900135E-009  0.1202747E+03  0.7561462E-02  0.1242644E+00
         -2   -1    0    0    0  501 -0.00000000000E+00  0.00000000000E+00  0.70654688442E+02  0.70654688442E+02  0.00000000000E+00 0.  1.
          2   -1    0    0  501    0  0.00000000000E+00 -0.00000000000E+00 -0.32676409189E+03  0.32676409189E+03  0.00000000000E+00 0. -1.
         25    2    1    2    0    0 -0.29294845543E+02  0.96009254447E+02 -0.96966766866E+02  0.18741906798E+03  0.12508952094E+03 0.  0.
          5    1    3    3  502    0 -0.44754490582E+02  0.52164669344E+02  0.11057417506E+02  0.69741350983E+02  0.41800000000E+01 0. -1.
         -5    1    3    3    0  502  0.15459645039E+02  0.43844585103E+02 -0.10802418437E+03  0.11767771699E+03  0.41800000000E+01 0. -1.
        -11    1    1    2    0    0  0.10121922699E+02 -0.10381806265E+03 -0.89822746544E+02  0.13765452861E+03  0.00000000000E+00 0.  1.
         11    1    1    2    0    0  0.19172922843E+02  0.78088082006E+01 -0.69319890041E+02  0.72345183746E+02  0.00000000000E+00 0. -1.
</event>
<event>
 7    1  0.2900135E-009  0.1756442E+03  0.7561462E-02  0.1172086E+00
          2   -1    0    0  501    0  0.00000000000E+00  0.00000000000E+00  0.45773947397E+02  0.45773947397E+02  0.00000000000E+00 0. -1.
         -2   -1    0    0    0  501 -0.00000000000E+00 -0.00000000000E+00 -0.73046366268E+03  0.73046366268E+03  0.00000000000E+00 0.  1.
         25    2    1    2    0    0  0.53366992578E+02 -0.12900930891E+03 -0.46272414142E+03  0.49925064562E+03  0.12508452508E+03 0.  0.
          5    1    3    3  502    0 -0.24995729053E+02  0.89697981900E+01 -0.45462805311E+02  0.52816501373E+02  0.41800000000E+01 0. -1.
         -5    1    3    3    0  502  0.78362721631E+02 -0.13797910710E+03 -0.41726133611E+03  0.44643414425E+03  0.41800000000E+01 0. -1.
        -11    1    1    2    0    0  0.14441830908E+02  0.81756528105E+02 -0.10917081550E+03  0.13715306531E+03  0.00000000000E+00 0.  1.
         11    1    1    2    0    0 -0.67808823486E+02  0.47252780802E+02 -0.11279475836E+03  0.13983389914E+03  0.00000000000E+00 0. -1.
</event>
<event>
 7    1  0.3284559E-009  0.1101732E+03  0.7561462E-02  0.1260250E+00
          1   -1    0    0  501    0  0.00000000000E+00  0.00000000000E+00  0.49086491346E+03  0.49086491346E+03  0.00000000000E+00 0. -1.
         -1   -1    0    0    0  501 -0.00000000000E+00 -0.00000000000E+00 -0.27186912500E+02  0.27186912500E+02  0.00000000000E+00 0.  1.
         25    2    1    2    0    0 -0.74282429236E+01 -0.24898539559E+02  0.19534097850E+03  0.23341019660E+03  0.12508839248E+03 0.  0.
          5    1    3    3  502    0 -0.59736521970E+02  0.12389218820E+02  0.73528454247E+02  0.95633941589E+02  0.41800000000E+01 0. -1.
         -5    1    3    3    0  502  0.52308279046E+02 -0.37287758379E+02  0.12181252425E+03  0.13777625501E+03  0.41800000000E+01 0. -1.
        -11    1    1    2    0    0 -0.41331794485E+02  0.19695960696E+02  0.12209553014E+03  0.13039772461E+03  0.00000000000E+00 0.  1.
         11    1    1    2    0    0  0.48760037408E+02  0.52025788635E+01  0.14624149232E+03  0.15424390474E+03  0.00000000000E+00 0. -1.
</event>
<event>
 7    1  0.2900135E-009  0.1410548E+03  0.7561462E-02  0.1211917E+00
          1   -1    0    0  501    0  0.00000000000E+00  0.00000000000E+00  0.86042113490E+03  0.86042113490E+03  0.00000000000E+00 0. -1.
         -1   -1    0    0    0  501 -0.00000000000E+00 -0.00000000000E+00 -0.29875595937E+02  0.29875595937E+02  0.00000000000E+00 0.  1.
         25    2    1    2    0    0  0.10916532895E+03 -0.27678828270E+02  0.54089158494E+03  0.56647571667E+03  0.12509134396E+03 0.  0.
          5    1    3    3  502    0  0.32073422439E+02  0.28370933964E+02  0.35435118668E+03  0.35695356872E+03  0.41800000000E+01 0. -1.
         -5    1    3    3    0  502  0.77091906514E+02 -0.56049762234E+02  0.18654039826E+03  0.20952214795E+03  0.41800000000E+01 0. -1.
        -11    1    1    2    0    0 -0.20752626126E+02 -0.31188725069E+02  0.94085960318E+02  0.10126981777E+03  0.00000000000E+00 0. -1.
         11    1    1    2    0    0 -0.88412702827E+02  0.58867553339E+02  0.19556799370E+03  0.22255119640E+03  0.00000000000E+00 0.  1.
</event>
<event>
 7    1  0.2900135E-009  0.1114816E+03  0.7561462E-02  0.1257850E+00
          2   -1    0    0  501    0  0.00000000000E+00  0.00000000000E+00  0.61507826841E+02  0.61507826841E+02  0.00000000000E+00 0. -1.
         -2   -1    0    0    0  501 -0.00000000000E+00 -0.00000000000E+00 -0.34641925196E+03  0.34641925196E+03  0.00000000000E+00 0.  1.
         25    2    1    2    0    0  0.98021027770E+01  0.42416649424E+02 -0.27636971652E+03  0.30647702945E+03  0.12511073497E+03 0.  0.
          5    1    3    3  502    0 -0.13732881597E+02 -0.41979160263E+02 -0.10416293001E+03  0.11321762372E+03  0.41800000000E+01 0. -1.
         -5    1    3    3    0  502  0.23534984374E+02  0.84395809687E+02 -0.17220678652E+03  0.19325940573E+03  0.41800000000E+01 0. -1.
        -11    1    1    2    0    0 -0.23098773783E+02 -0.62592526720E+02 -0.26035758846E+02  0.71618702097E+02  0.00000000000E+00 0.  1.
         11    1    1    2    0    0  0.13296671006E+02  0.20175877295E+02  0.17494050251E+02  0.29831347248E+02  0.00000000000E+00 0. -1.
</event>
<event>
 7    1  0.2900135E-009  0.9743827E+02  0.7561462E-02  0.1285777E+00
         -2   -1    0    0    0  501 -0.00000000000E+00  0.00000000000E+00  0.21126936541E+02  0.21126936541E+02  0.00000000000E+00 0.  1.
          2   -1    0    0  501    0  0.00000000000E+00 -0.00000000000E+00 -0.64793475257E+03  0.64793475257E+03  0.00000000000E+00 0. -1.
         25    2    1    2    0    0  0.21786449053E+02 -0.38373199154E+02 -0.33578659575E+03  0.36103661253E+03  0.12509055089E+03 0.  0.
          5    1    3    3  502    0  0.32207125923E+02  0.17590434115E+02 -0.23952821091E+02  0.44021953283E+02  0.41800000000E+01 0.  1.
         -5    1    3    3    0  502 -0.10420676870E+02 -0.55963633270E+02 -0.31183377466E+03  0.31701465924E+03  0.41800000000E+01 0.  1.
        -11    1    1    2    0    0  0.25508747598E+02 -0.14966229066E+02 -0.80435980640E+02  0.85700823788E+02  0.00000000000E+00 0. -1.
         11    1    1    2    0    0 -0.47295196651E+02  0.53339428220E+02 -0.21058523964E+03  0.22232425280E+03  0.00000000000E+00 0.  1.
</event>
<event>
 7    1  0.2900135E-009  0.7958924E+02  0.7561462E-02  0.1330221E+00
          2   -1    0    0  501    0  0.00000000000E+00  0.00000000000E+00  0.44836497154E+03  0.44836497154E+03  0.00000000000E+00 0. -1.
         -2   -1    0    0    0  501 -0.00000000000E+00 -0.00000000000E+00 -0.40141583545E+02  0.40141583545E+02  0.00000000000E+00 0.  1.
         25    2    1    2    0    0  0.72105187816E+02 -0.52766368315E+01  0.16591869432E+03  0.22001022119E+03  0.12509389792E+03 0.  0.
          5    1    3    3  502    0  0.29313238561E+02 -0.11878809750E+02 -0.14049049567E+02  0.34860009606E+02  0.41800000000E+01 0.  1.
         -5    1    3    3    0  502  0.42791949255E+02  0.66021729185E+01  0.17996774389E+03  0.18515021158E+03  0.41800000000E+01 0.  1.
        -11    1    1    2    0    0 -0.33420561351E+02  0.23656914981E+02  0.21227599497E+03  0.21618899507E+03  0.00000000000E+00 0. -1.
         11    1    1    2    0    0 -0.38684626466E+02 -0.18380278149E+02  0.30028698702E+02  0.52307338829E+02  0.00000000000E+00 0.  1.
</event>
<event>
 7    1  0.2900135E-009  0.1266940E+03  0.7561462E-02  0.1232445E+00
          2   -1    0    0  501    0  0.00000000000E+00  0.00000000000E+00  0.39779533783E+03  0.39779533783E+03  0.00000000000E+00 0. -1.
         -2   -1    0    0    0  501 -0.00000000000E+00 -0.00000000000E+00 -0.45443993284E+02  0.45443993284E+02  0.00000000000E+00 0.  1.
         25    2    1    2    0    0  0.71754982115E+02  0.28609197353E+02  0.23571465468E+03  0.27780666180E+03  0.12509148364E+03 0.  0.
          5    1    3    3  502    0  0.35562620429E+02 -0.43160520825E+02  0.48956791893E+02  0.74443068194E+02  0.41800000000E+01 0.  1.
         -5    1    3    3    0  502  0.36192361686E+02  0.71769718178E+02  0.18675786279E+03  0.20336359361E+03  0.41800000000E+01 0.  1.
        -11    1    1    2    0    0 -0.11573591004E+02 -0.51235058760E+02  0.60078731231E+02  0.79802463629E+02  0.00000000000E+00 0. -1.
         11    1    1    2    0    0 -0.60181391111E+02  0.22625861407E+02  0.56557958628E+02  0.85630205679E+02  0.00000000000E+00 0.  1.
</event>
<event>
 7    1  0.2900135E-009  0.7553239E+02  0.7561462E-02  0.1342230E+00
          2   -1    0    0  501    0  0.00000000000E+00  0.00000000000E+00  0.56649174219E+03  0.56649174219E+03  0.00000000000E+00 0. -1.
         -2   -1    0    0    0  501 -0.00000000000E+00 -0.00000000000E+00 -0.21905904232E+02  0.21905904232E+02  0.00000000000E+00 0.  1.
         25    2    1    2    0    0  0.26284297184E+01 -0.38648108420E+01  0.37463396291E+03  0.39499417445E+03  0.12509175146E+03 0.  0.
          5    1    3    3  502    0 -0.38736398655E+01  0.36398540192E+02  0.28864840856E+02  0.46802887213E+02  0.41800000000E+01 0. -1.
         -5    1    3    3    0  502  0.65020695839E+01 -0.40263351034E+02  0.34576912205E+03  0.34819128724E+03  0.41800000000E+01 0. -1.
        -11    1    1    2    0    0  0.29579374235E+02  0.21440775453E+02  0.14374309918E+03  0.14831292861E+03  0.00000000000E+00 0. -1.
         11    1    1    2    0    0 -0.32207803953E+02 -0.17575964611E+02  0.26208775873E+02  0.45090543357E+02  0.00000000000E+00 0.  1.
</event>
<event>
 7    1  0.2900135E-009  0.9439742E+02  0.7561462E-02  0.1292539E+00
         -1   -1    0    0    0  501 -0.00000000000E+00  0.00000000000E+00  0.21995080070E+03  0.21995080070E+03  0.00000000000E+00 0.  1.
          1   -1    0    0  501    0  0.00000000000E+00 -0.00000000000E+00 -0.46808776147E+02  0.46808776147E+02  0.00000000000E+00 0. -1.
         25    2    1    2    0    0 -0.35214403843E+01  0.26471603595E+01  0.12501141756E+03  0.17690168707E+03  0.12508774667E+03 0.  0.
          5    1    3    3  502    0 -0.57857963320E+02 -0.36835977698E+01  0.10201752205E+03  0.11741447959E+03  0.41800000000E+01 0.  1.
         -5    1    3    3    0  502  0.54336522936E+02  0.63307581293E+01  0.22993895510E+02  0.59487207482E+02  0.41800000000E+01 0.  1.
        -11    1    1    2    0    0  0.37286479855E+02 -0.14520224892E+02  0.23408714247E+02  0.46358239975E+02  0.00000000000E+00 0. -1.
         11    1    1    2    0    0 -0.33765039470E+02  0.11873064532E+02  0.24721892747E+02  0.43499649801E+02  0.00000000000E+00 0.  1.
</event>
<event>
 7    1  0.2900135E-009  0.1280499E+03  0.7561462E-02  0.1230378E+00
         -2   -1    0    0    0  501 -0.00000000000E+00  0.00000000000E+00  0.70958145981E+02  0.70958145981E+02  0.00000000000E+00 0. -1.
          2   -1    0    0  501    0  0.00000000000E+00 -0.00000000000E+00 -0.24383896207E+03  0.24383896207E+03  0.00000000000E+00 0.  1.
         25    2    1    2    0    0  0.32108173156E+02 -0.60496787447E+02 -0.12924276603E+03  0.19246475484E+03  0.12509273844E+03 0.  0.
          5    1    3    3  502    0 -0.13585702771E+02  0.34132054204E+02 -0.40714727453E+02  0.54997544268E+02  0.41800000000E+01 0. -1.
         -5    1    3    3    0  502  0.45693875926E+02 -0.94628841650E+02 -0.88528038577E+02  0.13746721058E+03  0.41800000000E+01 0. -1.
        -11    1    1    2    0    0 -0.64312521168E+02  0.38416290168E+02 -0.24272214138E+02  0.78746759351E+02  0.00000000000E+00 0.  1.
         11    1    1    2    0    0  0.32204348012E+02  0.22080497279E+02 -0.19365835923E+02  0.43585593858E+02  0.00000000000E+00 0. -1.
</event>
<event>
 7    1  0.2900135E-009  0.8729901E+02  0.7561462E-02  0.1309528E+00
          2   -1    0    0  501    0  0.00000000000E+00  0.00000000000E+00  0.53310407345E+03  0.53310407345E+03  0.00000000000E+00 0. -1.
         -2   -1    0    0    0  501 -0.00000000000E+00 -0.00000000000E+00 -0.50064539804E+02  0.50064539804E+02  0.00000000000E+00 0.  1.
         25    2    1    2    0    0  0.73094183619E+02  0.32700546823E+02  0.42114048213E+03  0.44656450300E+03  0.12509382162E+03 0.  0.
          5    1    3    3  502    0  0.66181284075E+02  0.28045154144E+02  0.89832447054E+02  0.11512529686E+03  0.41800000000E+01 0. -1.
         -5    1    3    3    0  502  0.69128995447E+01  0.46553926789E+01  0.33130803508E+03  0.33143920614E+03  0.41800000000E+01 0. -1.
        -11    1    1    2    0    0 -0.35926985836E+02  0.93789607675E+01  0.70620777596E+02  0.79787263674E+02  0.00000000000E+00 0. -1.
         11    1    1    2    0    0 -0.37167197783E+02 -0.42079507590E+02 -0.87217260780E+01  0.56816846585E+02  0.00000000000E+00 0.  1.
</event>
<event>
 7    1  0.2900135E-009  0.1175592E+03  0.7561462E-02  0.1247179E+00
         -2   -1    0    0    0  501 -0.00000000000E+00  0.00000000000E+00  0.20979076560E+03  0.20979076560E+03  0.00000000000E+00 0.  1.
          2   -1    0    0  501    0  0.00000000000E+00 -0.00000000000E+00 -0.92055405976E+02  0.92055405976E+02  0.00000000000E+00 0. -1.
         25    2    1    2    0    0 -0.77889191856E+02 -0.19282247889E+02  0.10546849035E+03  0.18223720550E+03  0.12509302666E+03 0.  0.
          5    1    3    3  502    0  0.19615435012E+02  0.29642903974E+02  0.44801691527E+02  0.57342227114E+02  0.41800000000E+01 0. -1.
         -5    1    3    3    0  502 -0.97504626868E+02 -0.48925151863E+02  0.60666798825E+02  0.12489497838E+03  0.41800000000E+01 0. -1.
        -11    1    1    2    0    0  0.45495181988E+02 -0.98968608595E+01 -0.32763047337E+02  0.56931333286E+02  0.00000000000E+00 0. -1.
         11    1    1    2    0    0  0.32394009869E+02  0.29179108748E+02  0.45029916606E+02  0.62677632790E+02  0.00000000000E+00 0.  1.
</event>
<event>
 7    1  0.2900135E-009  0.1129580E+03  0.7561462E-02  0.1255188E+00
         -2   -1    0    0    0  501 -0.00000000000E+00  0.00000000000E+00  0.65208415300E+02  0.65208415300E+02  0.00000000000E+00 0.  1.
          2   -1    0    0  501    0  0.00000000000E+00 -0.00000000000E+00 -0.30176232984E+03  0.30176232984E+03  0.00000000000E+00 0. -1.
         25    2    1    2    0    0  0.45601864937E+02  0.74676232749E+02 -0.15309063439E+03  0.21620447933E+03  0.12510621376E+03 0.  0.
          5    1    3    3  502    0  0.65284157632E+02  0.91075697109E+02 -0.15367820956E+03  0.19024002821E+03  0.41800000000E+01 0.  1.
         -5    1    3    3    0  502 -0.19682292696E+02 -0.16399464360E+02  0.58757516985E+00  0.25964451114E+02  0.41800000000E+01 0.  1.
        -11    1    1    2    0    0 -0.30320024382E+02 -0.56095770129E+02 -0.10207135110E+03  0.12035198386E+03  0.00000000000E+00 0. -1.
         11    1    1    2    0    0 -0.15281840555E+02 -0.18580462620E+02  0.18608070949E+02  0.30414281947E+02  0.00000000000E+00 0.  1.
</event>
<event>
 7    1  0.2900135E-009  0.8449164E+02  0.7561462E-02  0.1316767E+00
         -1   -1    0    0    0  501 -0.00000000000E+00  0.00000000000E+00  0.45963703738E+03  0.45963703738E+03  0.00000000000E+00 0.  1.
          1   -1    0    0  501    0  0.00000000000E+00 -0.00000000000E+00 -0.31185645501E+02  0.31185645501E+02  0.00000000000E+00 0. -1.
         25    2    1    2    0    0 -0.53470911294E+01  0.16408396283E+02  0.33886031797E+03  0.36162408721E+03  0.12509132066E+03 0.  0.
          5    1    3    3  502    0 -0.32389885190E+02 -0.21958486088E+02  0.30783332335E+02  0.49963644018E+02  0.41800000000E+01 0. -1.
         -5    1    3    3    0  502  0.27042794061E+02  0.38366882372E+02  0.30807698564E+03  0.31166044320E+03  0.41800000000E+01 0. -1.
        -11    1    1    2    0    0 -0.63234512105E+01  0.32045861997E+02  0.66875572764E+02  0.74426242272E+02  0.00000000000E+00 0.  1.
         11    1    1    2    0    0  0.11670542340E+02 -0.48454258280E+02  0.22715501140E+02  0.54772353391E+02  0.00000000000E+00 0. -1.
</event>
<event>
 7    1  0.2900135E-009  0.2348875E+03  0.7561462E-02  0.1123246E+00
         -2   -1    0    0    0  501 -0.00000000000E+00  0.00000000000E+00  0.38989333934E+03  0.38989333934E+03  0.00000000000E+00 0.  1.
          2   -1    0    0  501    0  0.00000000000E+00 -0.00000000000E+00 -0.22560815459E+03  0.22560815459E+03  0.00000000000E+00 0. -1.
         25    2    1    2    0    0 -0.12320924067E+03  0.17300214602E+03  0.26584658923E+03  0.36253940205E+03  0.12510055764E+03 0.  0.
          5    1    3    3  502    0 -0.10214659089E+02  0.10923652598E+03  0.80008118793E+02  0.13585186543E+03  0.41800000000E+01 0. -1.
         -5    1    3    3    0  502 -0.11299458158E+03  0.63765620048E+02  0.18583847044E+03  0.22668753662E+03  0.41800000000E+01 0. -1.
        -11    1    1    2    0    0  0.46817019203E+02 -0.13877702405E+03 -0.78319276670E+02  0.16608673875E+03  0.00000000000E+00 0.  1.
         11    1    1    2    0    0  0.76392221464E+02 -0.34225121977E+02 -0.23242127812E+02  0.86875353121E+02  0.00000000000E+00 0. -1.
</event>
<event>
 7    1  0.2900135E-009  0.1022089E+03  0.7561462E-02  0.1275718E+00
          1   -1    0    0  501    0  0.00000000000E+00  0.00000000000E+00  0.12537234818E+03  0.12537234818E+03  0.00000000000E+00 0. -1.
         -1   -1    0    0    0  501 -0.00000000000E+00 -0.00000000000E+00 -0.11311358804E+03  0.11311358804E+03  0.00000000000E+00 0.  1.
         25    2    1    2    0    0  0.29931217660E+02  0.15336041697E+02  0.42142915698E+02  0.13621316624E+03  0.12508768664E+03 0.  0.
          5    1    3    3  502    0  0.69758234092E+02  0.36514344235E+02  0.75383406570E+01  0.79207370480E+02  0.41800000000E+01 0. -1.
         -5    1    3    3    0  502 -0.39827016432E+02 -0.21178302538E+02  0.34604575041E+02  0.57005795758E+02  0.41800000000E+01 0. -1.
        -11    1    1    2    0    0 -0.14910682124E+02 -0.44789708552E+02 -0.45627747124E+02  0.65653162462E+02  0.00000000000E+00 0.  1.
         11    1    1    2    0    0 -0.15020535535E+02  0.29453666855E+02  0.15743591565E+02  0.36619607512E+02  0.00000000000E+00 0. -1.
</event>
<event>
 7    1  0.2900135E-009  0.1078963E+03  0.7561462E-02  0.1264516E+00
         -2   -1    0    0    0  501 -0.00000000000E+00  0.00000000000E+00  0.14629244998E+02  0.14629244998E+02  0.00000000000E+00 0.  1.
          2   -1    0    0  501    0  0.00000000000E+00 -0.00000000000E+00 -0.84664000353E+03  0.84664000353E+03  0.00000000000E+00 0. -1.
         25    2    1    2    0    0  0.32764595902E+02 -0.88228385685E+01 -0.48565302769E+03  0.50265074126E+03  0.12509014012E+03 0.  0.
          5    1    3    3  502    0 -0.26583386118E+02  0.40860200921E+02 -0.24449404330E+03  0.24934121610E+03  0.41800000000E+01 0. -1.
         -5    1    3    3    0  502  0.59347982020E+02 -0.49683039489E+02 -0.24115898439E+03  0.25330952516E+03  0.41800000000E+01 0. -1.
        -11    1    1    2    0    0  0.20876062106E+02 -0.19612635217E+02 -0.69289701017E+02  0.74976850402E+02  0.00000000000E+00 0.  1.
         11    1    1    2    0    0 -0.53640658008E+02  0.28435473786E+02 -0.27706802982E+03  0.28364165687E+03  0.00000000000E+00 0. -1.
</event>
<event>
 7    1  0.2900135E-009  0.1410782E+03  0.7561462E-02  0.1211886E+00
          1   -1    0    0  501    0  0.00000000000E+00  0.00000000000E+00  0.38201728681E+03  0.38201728681E+03  0.00000000000E+00 0. -1.
         -1   -1    0    0    0  501 -0.00000000000E+00 -0.00000000000E+00 -0.70889904662E+02  0.70889904662E+02  0.00000000000E+00 0.  1.
         25    2    1    2    0    0  0.11222777476E+03 -0.46530283889E+02  0.13923844968E+03  0.22314826852E+03  0.12509061966E+03 0.  0.
          5    1    3    3  502    0  0.85792795816E+02 -0.57068176887E+02  0.15809455365E+03  0.18875524078E+03  0.41800000000E+01 0. -1.
         -5    1    3    3    0  502  0.26434978947E+02  0.10537892997E+02 -0.18856103966E+02  0.34393027746E+02  0.41800000000E+01 0. -1.
        -11    1    1    2    0    0 -0.49060494168E+02  0.67736151559E+02  0.76116241776E+02  0.11308757924E+03  0.00000000000E+00 0.  1.
         11    1    1    2    0    0 -0.63167280596E+02 -0.21205867670E+02  0.95772690690E+02  0.11667134371E+03  0.00000000000E+00 0. -1.
</event>
<event>
 7    1  0.2900135E-009  0.1242215E+03  0.7561462E-02  0.1236291E+00
         -2   -1    0    0    0  501 -0.00000000000E+00  0.00000000000E+00  0.24271384014E+03  0.24271384014E+03  0.00000000000E+00 0.  1.
          2   -1    0    0  501    0  0.00000000000E+00 -0.00000000000E+00 -0.76000708845E+02  0.76000708845E+02  0.00000000000E+00 0. -1.
         25    2    1    2    0    0  0.78930889525E+02  0.21843260487E+00  0.59770215529E+02  0.15953084977E+03  0.12508988900E+03 0.  0.
          5    1    3    3  502    0 -0.27385245476E+02 -0.46487997351E+01  0.43506729351E+02  0.51786783136E+02  0.41800000000E+01 0. -1.
         -5    1    3    3    0  502  0.10631613500E+03  0.48672323400E+01  0.16263486178E+02  0.10774406663E+03  0.41800000000E+01 0. -1.
        -11    1    1    2    0    0 -0.67403700437E+02 -0.35884734154E+02  0.90056767630E+02  0.11807283504E+03  0.00000000000E+00 0.  1.
         11    1    1    2    0    0 -0.11527189087E+02  0.35666301549E+02  0.16886148132E+02  0.41110864174E+02  0.00000000000E+00 0. -1.
</event>
<event>
 7    1  0.2900135E-009  0.8974971E+02  0.7561462E-02  0.1303459E+00
         -2   -1    0    0    0  501 -0.00000000000E+00  0.00000000000E+00  0.82916275589E+03  0.82916275589E+03  0.00000000000E+00 0.  1.
          2   -1    0    0  501    0  0.00000000000E+00 -0.00000000000E+00 -0.18458600974E+02  0.18458600974E+02  0.00000000000E+00 0. -1.
         25    2    1    2    0    0  0.26173580667E+01  0.36515049285E+02  0.59452208303E+03  0.60864143486E+03  0.12509072556E+03 0.  0.
          5    1    3    3  502    0 -0.37716671605E+02  0.31130046194E+02  0.90423727198E+02  0.10288610175E+03  0.41800000000E+01 0.  1.
         -5    1    3    3    0  502  0.40334029672E+02  0.53850030911E+01  0.50409835584E+03  0.50575533310E+03  0.41800000000E+01 0.  1.
        -11    1    1    2    0    0 -0.22181598483E+02  0.19899873656E+02  0.13472655181E+03  0.13798286866E+03  0.00000000000E+00 0.  1.
         11    1    1    2    0    0  0.19564240417E+02 -0.56414922941E+02  0.81455520074E+02  0.10099705334E+03  0.00000000000E+00 0. -1.
</event>
<event>
 7    1  0.2900135E-009  0.1325869E+03  0.7561462E-02  0.1223667E+00
         -2   -1    0    0    0  501 -0.00000000000E+00  0.00000000000E+00  0.45082282926E+02  0.45082282926E+02  0.00000000000E+00 0.  1.
          2   -1    0    0  501    0  0.00000000000E+00 -0.00000000000E+00 -0.79632522581E+03  0.79632522581E+03  0.00000000000E+00 0. -1.
         25    2    1    2    0    0  0.95583080541E+02  0.14231862891E+02 -0.66392922608E+03  0.68248569876E+03  0.12508413395E+03 0.  0.
          5    1    3    3  502    0  0.86743085530E+02 -0.38914803464E+02 -0.30471214888E+03  0.31922670767E+03  0.41800000000E+01 0.  1.
         -5    1    3    3    0  502  0.88399950106E+01  0.53146666355E+02 -0.35921707720E+03  0.36325899109E+03  0.41800000000E+01 0.  1.
        -11    1    1    2    0    0 -0.64774152502E+02  0.22002708917E+02 -0.87866401821E+02  0.11135669985E+03  0.00000000000E+00 0. -1.
         11    1    1    2    0    0 -0.30808928039E+02 -0.36234571808E+02  0.55268501048E+00  0.47565110131E+02  0.00000000000E+00 0.  1.
</event>
<event>
 7    1  0.2900135E-009  0.3609776E+03  0.7561462E-02  0.1058197E+00
         -2   -1    0    0    0  501 -0.00000000000E+00  0.00000000000E+00  0.21080973365E+03  0.21080973365E+03  0.00000000000E+00 0.  1.
          2   -1    0    0  501    0  0.00000000000E+00 -0.00000000000E+00 -0.67580771755E+03  0.67580771755E+03  0.00000000000E+00 0. -1.
         25    2    1    2    0    0 -0.16363895617E+03 -0.32107442184E+03 -0.26556350643E+03  0.46479560775E+03  0.12507793049E+03 0.  0.
          5    1    3    3  502    0 -0.11626086052E+03 -0.20669012156E+03 -0.24170810431E+03  0.33864092211E+03  0.41800000000E+01 0. -1.
         -5    1    3    3    0  502 -0.47378095645E+02 -0.11438430029E+03 -0.23855402129E+02  0.12615468564E+03  0.41800000000E+01 0. -1.
        -11    1    1    2    0    0  0.92173245552E+02  0.20171614638E+03 -0.72033496910E+02  0.23318262281E+03  0.00000000000E+00 0.  1.
         11    1    1    2    0    0  0.71465710617E+02  0.11935827547E+03 -0.12740098055E+03  0.18863922063E+03  0.00000000000E+00 0. -1.
</event>
<event>
 7    1  0.2900135E-009  0.9220138E+02  0.7561462E-02  0.1297607E+00
         -1   -1    0    0    0  501 -0.00000000000E+00  0.00000000000E+00  0.20213972654E+03  0.20213972654E+03  0.00000000000E+00 0.  1.
          1   -1    0    0  501    0  0.00000000000E+00 -0.00000000000E+00 -0.75947874745E+02  0.75947874745E+02  0.00000000000E+00 0. -1.
         25    2    1    2    0    0 -0.16456094380E+02 -0.38567448098E+02  0.23412945600E+02  0.13397921709E+03  0.12507603086E+03 0.  0.
          5    1    3    3  502    0 -0.62331099059E+02 -0.18425397434E+01  0.38188302731E+02  0.73241926026E+02  0.41800000000E+01 0.  1.
         -5    1    3    3    0  502  0.45875004679E+02 -0.36724908354E+02 -0.14775357131E+02  0.60737291068E+02  0.41800000000E+01 0.  1.
        -11    1    1    2    0    0  0.17084602761E+02 -0.62336176394E+01  0.97281611081E+02  0.98966931320E+02  0.00000000000E+00 0.  1.
         11    1    1    2    0    0 -0.62850838118E+00  0.44801065737E+02  0.54972951186E+01  0.45141452874E+02  0.00000000000E+00 0. -1.
</event>
<event>
 7    1  0.2900135E-009  0.9810507E+02  0.7561462E-02  0.1284332E+00
         -2   -1    0    0    0  501 -0.00000000000E+00  0.00000000000E+00  0.12747304899E+02  0.12747304899E+02  0.00000000000E+00 0.  1.
          2   -1    0    0  501    0  0.00000000000E+00 -0.00000000000E+00 -0.19314757635E+04  0.19314757635E+04  0.00000000000E+00 0. -1.
         25    2    1    2    0    0 -0.45204884831E+02 -0.62393839790E+02 -0.15825866591E+04  0.15893914158E+04  0.12509223022E+03 0.  0.
          5    1    3    3  502    0 -0.51960642800E+02 -0.27764017556E+02 -0.27267423670E+03  0.27899724161E+03  0.41800000000E+01 0. -1.
         -5    1    3    3    0  502  0.67557579692E+01 -0.34629822234E+02 -0.13099124224E+04  0.13103941742E+04  0.41800000000E+01 0. -1.
        -11    1    1    2    0    0  0.21016633533E+02 -0.11437288277E+02 -0.26999162411E+02  0.36075825966E+02  0.00000000000E+00 0.  1.
         11    1    1    2    0    0  0.24188251298E+02  0.73831128068E+02 -0.30914263703E+03  0.31875582662E+03  0.00000000000E+00 0. -1.
</event>
<event>
 7    1  0.2964132E-009  0.9881052E+02  0.7561462E-02  0.1282817E+00
          1   -1    0    0  501    0  0.00000000000E+00  0.00000000000E+00  0.53700962306E+03  0.53700962306E+03  0.00000000000E+00 0. -1.
         -1   -1    0    0    0  501 -0.00000000000E+00 -0.00000000000E+00 -0.24237213749E+02  0.24237213749E+02  0.00000000000E+00 0.  1.
         25    2    1    2    0    0 -0.44247744667E+01  0.33501593040E+02  0.32490878401E+03  0.34978840728E+03  0.12507708253E+03 0.  0.
          5    1    3    3  502    0  0.24491227983E+02  0.62832085315E+02  0.28271483676E+03  0.29067652557E+03  0.41800000000E+01 0.  1.
         -5    1    3    3    0  502 -0.28916002450E+02 -0.29330492274E+02  0.42193947250E+02  0.59111881710E+02  0.41800000000E+01 0.  1.
        -11    1    1    2    0    0 -0.28633544224E+02 -0.45269986596E+02  0.15252383365E+03  0.16165633725E+03  0.00000000000E+00 0. -1.
         11    1    1    2    0    0  0.33058318691E+02  0.11768393556E+02  0.35339791648E+02  0.49802092278E+02  0.00000000000E+00 0.  1.
</event>
<event>
 7    1  0.2900135E-009  0.1394324E+03  0.7561462E-02  0.1214095E+00
          2   -1    0    0  501    0  0.00000000000E+00  0.00000000000E+00  0.13844307931E+03  0.13844307931E+03  0.00000000000E+00 0. -1.
         -2   -1    0    0    0  501 -0.00000000000E+00 -0.00000000000E+00 -0.21511187809E+03  0.21511187809E+03  0.00000000000E+00 0.  1.
         25    2    1    2    0    0 -0.84959362263E+02 -0.40807234214E+02  0.54564911590E+02  0.16585641484E+03  0.12509075572E+03 0.  0.
          5    1    3    3  502    0 -0.49757009653E+02  0.35199667904E+02  0.54680433039E+02  0.81989016261E+02  0.41800000000E+01 0. -1.
         -5    1    3    3    0  502 -0.35202352610E+02 -0.76006902117E+02 -0.11552144889E+00  0.83867398576E+02  0.41800000000E+01 0. -1.
        -11    1    1    2    0    0  0.60318440083E+02  0.72146120954E+02 -0.86403445418E+02  0.12770643039E+03  0.00000000000E+00 0. -1.
         11    1    1    2    0    0  0.24640922180E+02 -0.31338886740E+02 -0.44830264949E+02  0.59992112176E+02  0.00000000000E+00 0.  1.
</event>
<event>
 7    1  0.2900135E-009  0.5311277E+02  0.7561462E-02  0.1429240E+00
          1   -1    0    0  501    0  0.00000000000E+00  0.00000000000E+00  0.10138197463E+03  0.10138197463E+03  0.00000000000E+00 0. -1.
         -1   -1    0    0    0  501 -0.00000000000E+00 -0.00000000000E+00 -0.12295885616E+03  0.12295885616E+03  0.00000000000E+00 0.  1.
         25    2    1    2    0    0 -0.31539491544E+02 -0.20760485070E+02 -0.29385122928E+02  0.13392924545E+03  0.12509124698E+03 0.  0.
          5    1    3    3  502    0  0.15326458725E+02  0.19452766295E+01  0.42299864945E+02  0.45226490164E+02  0.41800000000E+01 0.  1.
         -5    1    3    3    0  502 -0.46865950269E+02 -0.22705761700E+02 -0.71684987873E+02  0.88702755286E+02  0.41800000000E+01 0.  1.
        -11    1    1    2    0    0  0.19615037741E+02  0.15222405615E+02  0.44762881720E+02  0.51187761410E+02  0.00000000000E+00 0. -1.
         11    1    1    2    0    0  0.11924453804E+02  0.55380794549E+01 -0.36954640320E+02  0.39223823931E+02  0.00000000000E+00 0.  1.
</event>
<event>
 7    1  0.2900135E-009  0.1753751E+03  0.7561462E-02  0.1172356E+00
         -1   -1    0    0    0  501 -0.00000000000E+00  0.00000000000E+00  0.59510545101E+02  0.59510545101E+02  0.00000000000E+00 0.  1.
          1   -1    0    0  501    0  0.00000000000E+00 -0.00000000000E+00 -0.61228722067E+03  0.61228722067E+03  0.00000000000E+00 0. -1.
         25    2    1    2    0    0  0.13103785112E+03 -0.83865633455E+02 -0.30040869053E+03  0.36069021653E+03  0.12509071929E+03 0.  0.
          5    1    3    3  502    0  0.13811352276E+03 -0.72312264033E+02 -0.30753771815E+03  0.34482072035E+03  0.41800000000E+01 0. -1.
         -5    1    3    3    0  502 -0.70756716330E+01 -0.11553369422E+02  0.71290276241E+01  0.15869496178E+02  0.41800000000E+01 0. -1.
        -11    1    1    2    0    0 -0.79445157478E+01  0.53162221637E+02 -0.58763773460E+02  0.79639928497E+02  0.00000000000E+00 0. -1.
         11    1    1    2    0    0 -0.12309333538E+03  0.30703411818E+02 -0.19360421158E+03  0.23146762074E+03  0.00000000000E+00 0.  1.
</event>
<event>
 7    1  0.2900135E-009  0.9583707E+02  0.7561462E-02  0.1289302E+00
         -2   -1    0    0    0  501 -0.00000000000E+00  0.00000000000E+00  0.41233921685E+02  0.41233921685E+02  0.00000000000E+00 0.  1.
          2   -1    0    0  501    0  0.00000000000E+00 -0.00000000000E+00 -0.33518479654E+03  0.33518479654E+03  0.00000000000E+00 0. -1.
         25    2    1    2    0    0 -0.30480022181E+02  0.26513372476E+00 -0.11004816409E+03  0.16937405508E+03  0.12509144681E+03 0.  0.
          5    1    3    3  502    0  0.33334526167E+02 -0.12293180743E+02  0.60037413460E+01  0.36274374394E+02  0.41800000000E+01 0.  1.
         -5    1    3    3    0  502 -0.63814548347E+02  0.12558314468E+02 -0.11605190543E+03  0.13309968068E+03  0.41800000000E+01 0.  1.
        -11    1    1    2    0    0  0.13737854420E+02  0.42572558455E+02 -0.12187453664E+03  0.12982509026E+03  0.00000000000E+00 0.  1.
         11    1    1    2    0    0  0.16742167761E+02 -0.42837692180E+02 -0.62028174122E+02  0.77219572891E+02  0.00000000000E+00 0. -1.
</event>
<event>
 7    1  0.2900135E-009  0.8733242E+02  0.7561462E-02  0.1309443E+00
          1   -1    0    0  501    0  0.00000000000E+00  0.00000000000E+00  0.15525233863E+04  0.15525233863E+04  0.00000000000E+00 0. -1.
         -1   -1    0    0    0  501 -0.00000000000E+00 -0.00000000000E+00 -0.10797339143E+02  0.10797339143E+02  0.00000000000E+00 0.  1.
         25    2    1    2    0    0  0.36424509328E+02  0.29207430206E+02  0.11822320876E+04  0.11897476107E+04  0.12508736694E+03 0.  0.
          5    1    3    3  502    0 -0.60559194800E+01  0.37505097289E+02  0.10469734432E+04  0.10476708308E+04  0.41800000000E+01 0.  1.
         -5    1    3    3    0  502  0.42480428808E+02 -0.82976670830E+01  0.13525864435E+03  0.14207677989E+03  0.41800000000E+01 0.  1.
        -11    1    1    2    0    0  0.14510520492E+02 -0.38536425458E+02  0.87644209862E+02  0.96835524547E+02  0.00000000000E+00 0.  1.
         11    1    1    2    0    0 -0.50935029820E+02  0.93289952521E+01  0.27184974972E+03  0.27673759022E+03  0.00000000000E+00 0. -1.
</event>
<event>
 7    1  0.2900135E-009  0.9647812E+02  0.7561462E-02  0.1287881E+00
         -2   -1    0    0    0  501 -0.00000000000E+00  0.00000000000E+00  0.59851371379E+02  0.59851371379E+02  0.00000000000E+00 0.  1.
          2   -1    0    0  501    0  0.00000000000E+00 -0.00000000000E+00 -0.20704958522E+03  0.20704958522E+03  0.00000000000E+00 0. -1.
         25    2    1    2    0    0 -0.23177372127E+02 -0.50869253356E+00 -0.85269370537E+02  0.15315693868E+03  0.12509489585E+03 0.  0.
          5    1    3    3  502    0 -0.80013660315E+01  0.58120526750E+02 -0.15803340534E+02  0.60903493004E+02  0.41800000000E+01 0. -1.
         -5    1    3    3    0  502 -0.15176006096E+02 -0.58629219283E+02 -0.69466030002E+02  0.92253445676E+02  0.41800000000E+01 0. -1.
        -11    1    1    2    0    0 -0.20589320976E+02  0.16961647488E+02  0.95470536893E+01  0.28333087688E+02  0.00000000000E+00 0.  1.
         11    1    1    2    0    0  0.43766693103E+02 -0.16452954955E+02 -0.71475896989E+02  0.85410930227E+02  0.00000000000E+00 0. -1.
</event>
<event>
 7    1  0.2900135E-009  0.1474115E+03  0.7561462E-02  0.1203690E+00
          2   -1    0    0  501    0  0.00000000000E+00  0.00000000000E+00  0.21039290869E+03  0.21039290869E+03  0.00000000000E+00 0. -1.
         -2   -1    0    0    0  501 -0.00000000000E+00 -0.00000000000E+00 -0.12599860305E+03  0.12599860305E+03  0.00000000000E+00 0.  1.
         25    2    1    2    0    0  0.11544078330E+03 -0.25899152664E+02  0.25965200774E+02  0.17412459167E+03  0.12509133149E+03 0.  0.
          5    1    3    3  502    0  0.12018155971E+03 -0.58310554814E+02  0.25976354925E+01  0.13367104476E+03  0.41800000000E+01 0.  1.
         -5    1    3    3    0  502 -0.47407764075E+01  0.32411402150E+02  0.23367565281E+02  0.40453546908E+02  0.41800000000E+01 0.  1.
        -11    1    1    2    0    0 -0.80747640607E+02 -0.60740595461E+01  0.76831959314E+02  0.11162538078E+03  0.00000000000E+00 0. -1.
         11    1    1    2    0    0 -0.34693142697E+02  0.31973212210E+02 -0.18402854451E+02  0.50641539285E+02  0.00000000000E+00 0.  1.
</event>
<event>
 7    1  0.2900135E-009  0.9075706E+02  0.7561462E-02  0.1301029E+00
         -1   -1    0    0    0  501 -0.00000000000E+00  0.00000000000E+00  0.23005196700E+02  0.23005196700E+02  0.00000000000E+00 0.  1.
          1   -1    0    0  501    0  0.00000000000E+00 -0.00000000000E+00 -0.53155385119E+03  0.53155385119E+03  0.00000000000E+00 0. -1.
         25    2    1    2    0    0  0.58215521956E+01 -0.68723360216E+01 -0.35384986611E+03  0.37542134849E+03  0.12510132566E+03 0.  0.
          5    1    3    3  502    0 -0.41503400820E+02 -0.43082767145E+02 -0.12118798687E+03  0.13521337828E+03  0.41800000000E+01 0. -1.
         -5    1    3    3    0  502  0.47324953016E+02  0.36210431123E+02 -0.23266187923E+03  0.24020797020E+03  0.41800000000E+01 0. -1.
        -11    1    1    2    0    0 -0.10505936855E+02  0.33327542649E+02 -0.17032420673E+02  0.38874196612E+02  0.00000000000E+00 0.  1.
         11    1    1    2    0    0  0.46843846594E+01 -0.26455206627E+02 -0.13766636771E+03  0.14026350280E+03  0.00000000000E+00 0. -1.
</event>
<event>
 7    1  0.2900135E-009  0.6985035E+02  0.7561462E-02  0.1360603E+00
          2   -1    0    0  501    0  0.00000000000E+00  0.00000000000E+00  0.37381768569E+03  0.37381768569E+03  0.00000000000E+00 0.  1.
         -2   -1    0    0    0  501 -0.00000000000E+00 -0.00000000000E+00 -0.54511368357E+02  0.54511368357E+02  0.00000000000E+00 0. -1.
         25    2    1    2    0    0 -0.18944665040E+02  0.30087304665E+02  0.30222484432E+03  0.32901560763E+03  0.12508903751E+03 0.  0.
          5    1    3    3  502    0 -0.18721452065E+01  0.23880432280E+02  0.30841660588E+03  0.30937364975E+03  0.41800000000E+01 0. -1.
         -5    1    3    3    0  502 -0.17072519833E+02  0.62068723841E+01 -0.61917615620E+01  0.19641957883E+02  0.41800000000E+01 0. -1.
        -11    1    1    2    0    0 -0.27579087767E+02 -0.40568088301E+02  0.16046066710E+02  0.51612519095E+02  0.00000000000E+00 0. -1.
         11    1    1    2    0    0  0.46523752807E+02  0.10480783637E+02  0.10354063005E+01  0.47700927319E+02  0.00000000000E+00 0.  1.
</event>
<event>
 7    1  0.2900135E-009  0.1140252E+03  0.7561462E-02  0.1253292E+00
          2   -1    0    0  501    0  0.00000000000E+00  0.00000000000E+00  0.91946756309E+03  0.91946756309E+03  0.00000000000E+00 0. -1.
         -2   -1    0    0    0  501 -0.00000000000E+00 -0.00000000000E+00 -0.17636269291E+02  0.17636269291E+02  0.00000000000E+00 0.  1.
         25    2    1    2    0    0  0.61121033406E+02 -0.68706721825E+01  0.62166191127E+03  0.63709805147E+03  0.12508960149E+03 0.  0.
          5    1    3    3  502    0  0.54305089866E+01  0.50592122448E+02  0.35514191369E+03  0.35879284349E+03  0.41800000000E+01 0.  1.
         -5    1    3    3    0  502  0.55690524419E+02 -0.57462794631E+02  0.26651999758E+03  0.27830520798E+03  0.41800000000E+01 0.  1.
        -11    1    1    2    0    0 -0.54005965216E+02 -0.28307707406E+02  0.10698246722E+03  0.12313902253E+03  0.00000000000E+00 0.  1.
         11    1    1    2    0    0 -0.71150681901E+01  0.35178379588E+02  0.17318691530E+03  0.17686675837E+03  0.00000000000E+00 0. -1.
</event>
<event>
 7    1  0.2900135E-009  0.1026026E+03  0.7561462E-02  0.1274916E+00
          2   -1    0    0  501    0  0.00000000000E+00  0.00000000000E+00  0.10846290572E+04  0.10846290572E+04  0.00000000000E+00 0. -1.
         -2   -1    0    0    0  501 -0.00000000000E+00 -0.00000000000E+00 -0.16797081724E+02  0.16797081724E+02  0.00000000000E+00 0.  1.
         25    2    1    2    0    0  0.66436003583E+02 -0.16316407695E+02  0.75606615480E+03  0.76939182768E+03  0.12509111216E+03 0.  0.
          5    1    3    3  502    0  0.67119226097E+02 -0.32186195516E+02  0.74684133565E+03  0.75055339232E+03  0.41800000000E+01 0.  1.
         -5    1    3    3    0  502 -0.68322251396E+00  0.15869787821E+02  0.92248191510E+01  0.18838435361E+02  0.41800000000E+01 0.  1.
        -11    1    1    2    0    0 -0.37108953120E+02 -0.37612861198E+02  0.14597561181E+03  0.15524394021E+03  0.00000000000E+00 0. -1.
         11    1    1    2    0    0 -0.29327050462E+02  0.53929268893E+02  0.16579020886E+03  0.17679037102E+03  0.00000000000E+00 0.  1.
</event>
<event>
 7    1  0.3118096E-009  0.9912329E+02  0.7561462E-02  0.1282150E+00
          2   -1    0    0  501    0  0.00000000000E+00  0.00000000000E+00  0.52186117872E+02  0.52186117872E+02  0.00000000000E+00 0. -1.
         -2   -1    0    0    0  501 -0.00000000000E+00 -0.00000000000E+00 -0.29189748135E+03  0.29189748135E+03  0.00000000000E+00 0.  1.
         25    2    1    2    0    0  0.92130576364E+01  0.43565326166E+02 -0.80712052590E+02  0.15539331423E+03  0.12509927497E+03 0.  0.
          5    1    3    3  502    0 -0.53899567989E+02  0.40947036725E+02 -0.29452873287E+02  0.73937591189E+02  0.41800000000E+01 0. -1.
         -5    1    3    3    0  502  0.63112625625E+02  0.26182894406E+01 -0.51259179303E+02  0.81455723039E+02  0.41800000000E+01 0. -1.
        -11    1    1    2    0    0 -0.28662090408E+02 -0.14421125689E+02 -0.71784468385E+01  0.32878783307E+02  0.00000000000E+00 0. -1.
         11    1    1    2    0    0  0.19449032772E+02 -0.29144200477E+02 -0.15182086405E+03  0.15581150169E+03  0.00000000000E+00 0.  1.
</event>
<event>
 7    1  0.2900135E-009  0.1156773E+03  0.7561462E-02  0.1250403E+00
         -2   -1    0    0    0  501 -0.00000000000E+00  0.00000000000E+00  0.11717148607E+03  0.11717148607E+03  0.00000000000E+00 0. -1.
          2   -1    0    0  501    0  0.00000000000E+00 -0.00000000000E+00 -0.27990210306E+03  0.27990210306E+03  0.00000000000E+00 0.  1.
         25    2    1    2    0    0  0.65117289899E+02  0.80024559376E+02 -0.19785328549E+03  0.25580868470E+03  0.12509184243E+03 0.  0.
          5    1    3    3  502    0  0.59835626783E+02  0.20957883600E+02 -0.17490492801E+02  0.65900871435E+02  0.41800000000E+01 0.  1.
         -5    1    3    3    0  502  0.52816631160E+01  0.59066675777E+02 -0.18036279269E+03  0.18990781327E+03  0.41800000000E+01 0.  1.
        -11    1    1    2    0    0 -0.38596816715E+02 -0.70152791146E+02 -0.17093421968E+02  0.81873765277E+02  0.00000000000E+00 0.  1.
         11    1    1    2    0    0 -0.26520473184E+02 -0.98717682306E+01  0.52216090471E+02  0.59391139154E+02  0.00000000000E+00 0. -1.
</event>
<event>
 7    1  0.2900135E-009  0.1394739E+03  0.7561462E-02  0.1214039E+00
         -2   -1    0    0    0  501 -0.00000000000E+00  0.00000000000E+00  0.12142602272E+03  0.12142602272E+03  0.00000000000E+00 0.  1.
          2   -1    0    0  501    0  0.00000000000E+00 -0.00000000000E+00 -0.41866282041E+03  0.41866282041E+03  0.00000000000E+00 0. -1.
         25    2    1    2    0    0 -0.92633136876E+02  0.81267495846E+02 -0.33787466569E+03  0.38077956543E+03  0.12509389996E+03 0.  0.
          5    1    3    3  502    0 -0.38945731270E+02  0.82783757949E+02 -0.94820385255E+02  0.13182677431E+03  0.41800000000E+01 0.  1.
         -5    1    3    3    0  502 -0.53687405606E+02 -0.15162621035E+01 -0.24305428043E+03  0.24895279112E+03  0.41800000000E+01 0.  1.
        -11    1    1    2    0    0  0.17894666431E+02 -0.48856223015E+02 -0.22057995555E+02  0.56512872709E+02  0.00000000000E+00 0. -1.
         11    1    1    2    0    0  0.74738470445E+02 -0.32411272831E+02  0.62695863551E+02  0.10279640498E+03  0.00000000000E+00 0.  1.
</event>
<event>
 7    1  0.2900135E-009  0.1100151E+03  0.7561462E-02  0.1260542E+00
          1   -1    0    0  501    0  0.00000000000E+00  0.00000000000E+00  0.88483384916E+02  0.88483384916E+02  0.00000000000E+00 0. -1.
         -1   -1    0    0    0  501 -0.00000000000E+00 -0.00000000000E+00 -0.28495385753E+03  0.28495385753E+03  0.00000000000E+00 0.  1.
         25    2    1    2    0    0 -0.52742416935E+01 -0.41193371594E+02 -0.23152770967E+03  0.26641460207E+03  0.12508776262E+03 0.  0.
          5    1    3    3  502    0  0.32547299282E+02 -0.71348293225E+02 -0.17554741218E+03  0.19231295318E+03  0.41800000000E+01 0.  1.
         -5    1    3    3    0  502 -0.37821540976E+02  0.30154921631E+02 -0.55980297495E+02  0.74101648888E+02  0.41800000000E+01 0.  1.
        -11    1    1    2    0    0  0.43345652499E+02  0.12017493247E+02  0.38118184583E+02  0.58959831499E+02  0.00000000000E+00 0.  1.
         11    1    1    2    0    0 -0.38071410805E+02  0.29175878347E+02 -0.30609475253E+01  0.48062808884E+02  0.00000000000E+00 0. -1.
</event>
<event>
 7    1  0.2900135E-009  0.1125670E+03  0.7561462E-02  0.1255889E+00
          1   -1    0    0  501    0  0.00000000000E+00  0.00000000000E+00  0.17291294654E+03  0.17291294654E+03  0.00000000000E+00 0. -1.
         -1   -1    0    0    0  501 -0.00000000000E+00 -0.00000000000E+00 -0.92599938730E+02  0.92599938730E+02  0.00000000000E+00 0.  1.
         25    2    1    2    0    0 -0.62657428168E+02 -0.42659033549E+01  0.67901086436E+02  0.15557108307E+03  0.12509057963E+03 0.  0.
          5    1    3    3  502    0  0.83687168764E+01  0.36321846047E+02 -0.13718014784E+02  0.39937053623E+02  0.41800000000E+01 0.  1.
         -5    1    3    3    0  502 -0.71026145045E+02 -0.40587749402E+02  0.81619101220E+02  0.11563402944E+03  0.41800000000E+01 0.  1.
        -11    1    1    2    0    0 -0.21163148925E+02 -0.38209365622E+01  0.14099262309E+02  0.25715124466E+02  0.00000000000E+00 0. -1.
         11    1    1    2    0    0  0.83820577093E+02  0.80868399170E+01 -0.16873409315E+01  0.84226677742E+02  0.00000000000E+00 0.  1.
</event>
<event>
 7    1  0.2900135E-009  0.1513665E+03  0.7561462E-02  0.1198804E+00
         -1   -1    0    0    0  501 -0.00000000000E+00  0.00000000000E+00  0.36772991814E+02  0.36772991814E+02  0.00000000000E+00 0.  1.
          1   -1    0    0  501    0  0.00000000000E+00 -0.00000000000E+00 -0.69833042062E+03  0.69833042062E+03  0.00000000000E+00 0. -1.
         25    2    1    2    0    0  0.64195003697E+02 -0.98717514622E+02 -0.41944165489E+03  0.45326098308E+03  0.12509224887E+03 0.  0.
          5    1    3    3  502    0  0.74443717046E+02 -0.12370010308E+03 -0.35617173406E+03  0.38434276246E+03  0.41800000000E+01 0.  1.
         -5    1    3    3    0  502 -0.10248713350E+02  0.24982588455E+02 -0.63269920830E+02  0.68918220617E+02  0.41800000000E+01 0.  1.
        -11    1    1    2    0    0  0.10055659346E+02  0.22108473378E+02 -0.97809944099E+01  0.26183367462E+02  0.00000000000E+00 0.  1.
         11    1    1    2    0    0 -0.74250663043E+02  0.76609041244E+02 -0.23233477950E+03  0.25565906189E+03  0.00000000000E+00 0. -1.
</event>
<event>
 7    1  0.2900135E-009  0.1218603E+03  0.7561462E-02  0.1240059E+00
          2   -1    0    0  501    0  0.00000000000E+00  0.00000000000E+00  0.23308010489E+03  0.23308010489E+03  0.00000000000E+00 0. -1.
         -2   -1    0    0    0  501 -0.00000000000E+00 -0.00000000000E+00 -0.12117213406E+03  0.12117213406E+03  0.00000000000E+00 0.  1.
         25    2    1    2    0    0  0.13803997513E+02  0.74202701996E+02 -0.47931217257E+02  0.15375722644E+03  0.12508913528E+03 0.  0.
          5    1    3    3  502    0 -0.32183699490E+02 -0.19282474304E+02  0.26994007402E+01  0.37846578346E+02  0.41800000000E+01 0. -1.
         -5    1    3    3    0  502  0.45987697003E+02  0.93485176300E+02 -0.50630617998E+02  0.11591064810E+03  0.41800000000E+01 0. -1.
        -11    1    1    2    0    0 -0.26270390003E+02  0.19126148278E+00  0.10231089875E+03  0.10562996722E+03  0.00000000000E+00 0. -1.
         11    1    1    2    0    0  0.12466392490E+02 -0.74393963479E+02  0.57528289331E+02  0.94865045286E+02  0.00000000000E+00 0.  1.
</event>
<event>
 7    1  0.2900135E-009  0.1065171E+03  0.7561462E-02  0.1267159E+00
         -2   -1    0    0    0  501 -0.00000000000E+00  0.00000000000E+00  0.44640781707E+02  0.44640781707E+02  0.00000000000E+00 0.  1.
          2   -1    0    0  501    0  0.00000000000E+00 -0.00000000000E+00 -0.40390011113E+03  0.40390011113E+03  0.00000000000E+00 0. -1.
         25    2    1    2    0    0 -0.32699077577E+02 -0.24740237220E+02 -0.31100347331E+03  0.33771578923E+03  0.12508990716E+03 0.  0.
          5    1    3    3  502    0 -0.55401296637E+02 -0.64769225630E+02 -0.20788044027E+03  0.22471338657E+03  0.41800000000E+01 0.  1.
         -5    1    3    3    0  502  0.22702219060E+02  0.40028988410E+02 -0.10312303305E+03  0.11300240266E+03  0.41800000000E+01 0.  1.
        -11    1    1    2    0    0 -0.18330926973E+02  0.24327786872E+02  0.11215592059E+02  0.32460030854E+02  0.00000000000E+00 0.  1.
         11    1    1    2    0    0  0.51030004550E+02  0.41245034812E+00 -0.59471448165E+02  0.78365072746E+02  0.00000000000E+00 0. -1.
</event>
<event>
 7    1  0.2900135E-009  0.1477062E+03  0.7561462E-02  0.1203320E+00
          3   -1    0    0  501    0  0.00000000000E+00  0.00000000000E+00  0.66667873392E+02  0.66667873392E+02  0.00000000000E+00 0. -1.
         -3   -1    0    0    0  501 -0.00000000000E+00 -0.00000000000E+00 -0.59118353727E+03  0.59118353727E+03  0.00000000000E+00 0.  1.
         25    2    1    2    0    0 -0.20636841518E+02  0.10162607489E+03 -0.59400919825E+02  0.17298031924E+03  0.12505991861E+03 0.  0.
          5    1    3    3  502    0 -0.11293710272E+02 -0.28142572759E+02 -0.18869801655E+01  0.30668964563E+02  0.41800000000E+01 0.  1.
         -5    1    3    3    0  502 -0.93431312462E+01  0.12976864765E+03 -0.57513939659E+02  0.14231135467E+03  0.41800000000E+01 0.  1.
        -11    1    1    2    0    0  0.33858199168E+02 -0.17722445035E+01 -0.81911884613E+02  0.88651426059E+02  0.00000000000E+00 0. -1.
         11    1    1    2    0    0 -0.13221357650E+02 -0.99853830384E+02 -0.38320285944E+03  0.39621966537E+03  0.00000000000E+00 0.  1.
</event>
<event>
 7    1  0.2900135E-009  0.9312010E+02  0.7561462E-02  0.1295467E+00
          2   -1    0    0  501    0  0.00000000000E+00  0.00000000000E+00  0.76601900278E+02  0.76601900278E+02  0.00000000000E+00 0. -1.
         -2   -1    0    0    0  501 -0.00000000000E+00 -0.00000000000E+00 -0.22265757298E+03  0.22265757298E+03  0.00000000000E+00 0.  1.
         25    2    1    2    0    0  0.56726025233E+02 -0.42307742579E+02 -0.97896588924E+02  0.17389323173E+03  0.12508927571E+03 0.  0.
          5    1    3    3  502    0  0.76290169031E+02 -0.47932626301E+02 -0.18828329109E+02  0.92139594811E+02  0.41800000000E+01 0. -1.
         -5    1    3    3    0  502 -0.19564143798E+02  0.56248837221E+01 -0.79068259816E+02  0.81753636920E+02  0.41800000000E+01 0. -1.
        -11    1    1    2    0    0 -0.11180653377E+02  0.23429673112E+02 -0.67565732724E+02  0.72381522716E+02  0.00000000000E+00 0.  1.
         11    1    1    2    0    0 -0.45545371856E+02  0.18878069467E+02  0.19406648945E+02  0.52984718812E+02  0.00000000000E+00 0. -1.
</event>
<event>
 7    1  0.2900135E-009  0.7981113E+02  0.7561462E-02  0.1329588E+00
          2   -1    0    0  501    0  0.00000000000E+00  0.00000000000E+00  0.30722860571E+03  0.30722860571E+03  0.00000000000E+00 0. -1.
         -2   -1    0    0    0  501 -0.00000000000E+00 -0.00000000000E+00 -0.44785580992E+02  0.44785580992E+02  0.00000000000E+00 0.  1.
         25    2    1    2    0    0 -0.12208889640E+02 -0.10378245422E+02  0.20272168499E+03  0.23874564136E+03  0.12508650902E+03 0.  0.
          5    1    3    3  502    0 -0.63882370301E+02 -0.41285031013E+01  0.64418984966E+02  0.90913584228E+02  0.41800000000E+01 0. -1.
         -5    1    3    3    0  502  0.51673480661E+02 -0.62497423204E+01  0.13830270002E+03  0.14783205713E+03  0.41800000000E+01 0. -1.
        -11    1    1    2    0    0  0.17091249798E+01  0.25106679319E+02 -0.19608743473E+02  0.31902496378E+02  0.00000000000E+00 0.  1.
         11    1    1    2    0    0  0.10499764660E+02 -0.14728433897E+02  0.79330083200E+02  0.81366048960E+02  0.00000000000E+00 0. -1.
</event>
<event>
 7    1  0.2900135E-009  0.1260402E+03  0.7561462E-02  0.1233452E+00
         -1   -1    0    0    0  501 -0.00000000000E+00  0.00000000000E+00  0.99256711533E+03  0.99256711533E+03  0.00000000000E+00 0.  1.
          1   -1    0    0  501    0  0.00000000000E+00 -0.00000000000E+00 -0.16741058576E+02  0.16741058576E+02  0.00000000000E+00 0. -1.
         25    2    1    2    0    0  0.40268537894E+02  0.43325789074E+02  0.58560090446E+03  0.60172691699E+03  0.12509270233E+03 0.  0.
          5    1    3    3  502    0 -0.39367820231E+02 -0.11907465072E+02  0.16977063526E+03  0.17473166281E+03  0.41800000000E+01 0.  1.
         -5    1    3    3    0  502  0.79636358124E+02  0.55233254146E+02  0.41583026921E+03  0.42699525417E+03  0.41800000000E+01 0.  1.
        -11    1    1    2    0    0 -0.48237789591E+02  0.18301631796E+02  0.12613329284E+03  0.13627707670E+03  0.00000000000E+00 0.  1.
         11    1    1    2    0    0  0.79692516974E+01 -0.61627420871E+02  0.26409185946E+03  0.27130418023E+03  0.00000000000E+00 0. -1.
</event>
<event>
 7    1  0.2900135E-009  0.1169029E+03  0.7561462E-02  0.1248295E+00
          2   -1    0    0  501    0  0.00000000000E+00  0.00000000000E+00  0.16245201709E+04  0.16245201709E+04  0.00000000000E+00 0. -1.
         -2   -1    0    0    0  501 -0.00000000000E+00 -0.00000000000E+00 -0.10816829944E+02  0.10816829944E+02  0.00000000000E+00 0.  1.
         25    2    1    2    0    0 -0.46684742050E+02  0.48214719149E+02  0.12562322149E+04  0.12642277082E+04  0.12509275079E+03 0.  0.
          5    1    3    3  502    0 -0.69268306037E+02 -0.18045633189E+02  0.60816833867E+03  0.61238055461E+03  0.41800000000E+01 0.  1.
         -5    1    3    3    0  502  0.22583563987E+02  0.66260352337E+02  0.64806387620E+03  0.65184715362E+03  0.41800000000E+01 0.  1.
        -11    1    1    2    0    0  0.17888389091E+02 -0.58672725403E+02  0.29759197330E+03  0.30384776738E+03  0.00000000000E+00 0. -1.
         11    1    1    2    0    0  0.28796352958E+02  0.10458006254E+02  0.59879152815E+02  0.67261525260E+02  0.00000000000E+00 0.  1.
</event>
<event>
 7    1  0.2900135E-009  0.1514911E+03  0.7561462E-02  0.1198653E+00
         -1   -1    0    0    0  501 -0.00000000000E+00  0.00000000000E+00  0.78348840070E+02  0.78348840070E+02  0.00000000000E+00 0.  1.
          1   -1    0    0  501    0  0.00000000000E+00 -0.00000000000E+00 -0.33498289859E+03  0.33498289859E+03  0.00000000000E+00 0. -1.
         25    2    1    2    0    0 -0.10778730957E+03  0.51418293727E+02 -0.14695748644E+03  0.22695097173E+03  0.12509314816E+03 0.  0.
          5    1    3    3  502    0 -0.75089347165E+02  0.79239823698E+02 -0.14781799767E+03  0.18380694370E+03  0.41800000000E+01 0. -1.
         -5    1    3    3    0  502 -0.32697962401E+02 -0.27821529971E+02  0.86051123627E+00  0.43144028030E+02  0.41800000000E+01 0. -1.
        -11    1    1    2    0    0  0.11524145959E+03 -0.18339211220E+02 -0.82188499812E+02  0.14273006053E+03  0.00000000000E+00 0. -1.
         11    1    1    2    0    0 -0.74541500230E+01 -0.33079082507E+02 -0.27488072269E+02  0.43650706399E+02  0.00000000000E+00 0.  1.
</event>
<event>
 7    1  0.2900135E-009  0.7490061E+02  0.7561462E-02  0.1344179E+00
         -1   -1    0    0    0  501 -0.00000000000E+00  0.00000000000E+00  0.97581270405E+02  0.97581270405E+02  0.00000000000E+00 0.  1.
          1   -1    0    0  501    0  0.00000000000E+00 -0.00000000000E+00 -0.12899409231E+03  0.12899409231E+03  0.00000000000E+00 0. -1.
         25    2    1    2    0    0 -0.28752187282E+01  0.19434011039E+02 -0.33720758342E+01  0.12666767781E+03  0.12508949612E+03 0.  0.
          5    1    3    3  502    0  0.44501727946E+02  0.42374388327E+02  0.25295518210E+02  0.66583242770E+02  0.41800000000E+01 0.  1.
         -5    1    3    3    0  502 -0.47376946674E+02 -0.22940377288E+02 -0.28667594044E+02  0.60084435044E+02  0.41800000000E+01 0.  1.
        -11    1    1    2    0    0 -0.13302116297E+02 -0.72193152688E+01 -0.60100590118E+02  0.61976977527E+02  0.00000000000E+00 0. -1.
         11    1    1    2    0    0  0.16177335025E+02 -0.12214695770E+02  0.32059844049E+02  0.37930707372E+02  0.00000000000E+00 0.  1.
</event>
<event>
 7    1  0.2900135E-009  0.1199003E+03  0.7561462E-02  0.1243262E+00
         -4   -1    0    0    0  501 -0.00000000000E+00  0.00000000000E+00  0.14995055185E+03  0.14995055185E+03  0.00000000000E+00 0.  1.
          4   -1    0    0  501    0  0.00000000000E+00 -0.00000000000E+00 -0.14550239875E+03  0.14550239875E+03  0.00000000000E+00 0. -1.
         25    2    1    2    0    0  0.10023046007E+03 -0.11000038845E+01 -0.39276114592E+01  0.16034360604E+03  0.12508913115E+03 0.  0.
          5    1    3    3  502    0  0.81458069333E+02  0.18231821448E+02  0.51781276447E+02  0.98318814900E+02  0.41800000000E+01 0.  1.
         -5    1    3    3    0  502  0.18772390732E+02 -0.19331825332E+02 -0.55708887906E+02  0.62024791142E+02  0.41800000000E+01 0.  1.
        -11    1    1    2    0    0 -0.68344076655E+02 -0.38239344703E+02  0.24346089253E+02  0.82011537963E+02  0.00000000000E+00 0.  1.
         11    1    1    2    0    0 -0.31886383410E+02  0.39339348588E+02 -0.15970324695E+02  0.53097806595E+02  0.00000000000E+00 0. -1.
</event>
<event>
 7    1  0.3715258E-009  0.1140947E+03  0.7561462E-02  0.1253170E+00
          2   -1    0    0  501    0  0.00000000000E+00  0.00000000000E+00  0.11249339569E+03  0.11249339569E+03  0.00000000000E+00 0. -1.
         -2   -1    0    0    0  501 -0.00000000000E+00 -0.00000000000E+00 -0.19037504662E+03  0.19037504662E+03  0.00000000000E+00 0.  1.
         25    2    1    2    0    0  0.94699235951E+02 -0.21022605750E+02 -0.29173309892E+02  0.16096011608E+03  0.12508869540E+03 0.  0.
          5    1    3    3  502    0  0.69364206030E+02 -0.81396773659E+01 -0.77705718943E+02  0.10456241477E+03  0.41800000000E+01 0. -1.
         -5    1    3    3    0  502  0.25335029922E+02 -0.12882928384E+02  0.48532409051E+02  0.56397701311E+02  0.41800000000E+01 0. -1.
        -11    1    1    2    0    0 -0.50376818659E+02 -0.32540683897E+02 -0.39417932500E+02  0.71766937856E+02  0.00000000000E+00 0.  1.
         11    1    1    2    0    0 -0.44322417292E+02  0.53563289646E+02 -0.92904085400E+01  0.70141388375E+02  0.00000000000E+00 0. -1.
</event>
<event>
 7    1  0.2900135E-009  0.1111050E+03  0.7561462E-02  0.1258537E+00
         -4   -1    0    0    0  501 -0.00000000000E+00  0.00000000000E+00  0.19504243028E+02  0.19504243028E+02  0.00000000000E+00 0. -1.
          4   -1    0    0  501    0  0.00000000000E+00 -0.00000000000E+00 -0.71028503069E+03  0.71028503069E+03  0.00000000000E+00 0.  1.
         25    2    1    2    0    0 -0.12608479589E+01 -0.46000607194E+02 -0.39028223142E+03  0.41241305864E+03  0.12508663070E+03 0.  0.
          5    1    3    3  502    0  0.19115176975E+02  0.39408338204E+02 -0.10358842775E+03  0.11254528810E+03  0.41800000000E+01 0. -1.
         -5    1    3    3    0  502 -0.20376024934E+02 -0.85408945398E+02 -0.28669380367E+03  0.29986777054E+03  0.41800000000E+01 0. -1.
        -11    1    1    2    0    0  0.29873926032E+02 -0.64464386206E+01 -0.41280588990E+02  0.51362389496E+02  0.00000000000E+00 0. -1.
         11    1    1    2    0    0 -0.28613078073E+02  0.52447045815E+02 -0.25921796725E+03  0.26601382557E+03  0.00000000000E+00 0.  1.
</event>
<event>
 7    1  0.2900135E-009  0.1322451E+03  0.7561462E-02  0.1224162E+00
         -1   -1    0    0    0  501 -0.00000000000E+00  0.00000000000E+00  0.41151210936E+03  0.41151210936E+03  0.00000000000E+00 0.  1.
          1   -1    0    0  501    0  0.00000000000E+00 -0.00000000000E+00 -0.10211559523E+03  0.10211559523E+03  0.00000000000E+00 0. -1.
         25    2    1    2    0    0  0.75379712038E+02 -0.10297124668E+03  0.13387232555E+02  0.17919746163E+03  0.12508930261E+03 0.  0.
          5    1    3    3  502    0  0.55722530633E+02 -0.93653629019E+02  0.62232336653E+02  0.12556408234E+03  0.41800000000E+01 0.  1.
         -5    1    3    3    0  502  0.19657181405E+02 -0.93176176653E+01 -0.48845104098E+02  0.53633379290E+02  0.41800000000E+01 0.  1.
        -11    1    1    2    0    0 -0.26322338754E+02  0.99941247503E+01  0.10276815175E+02  0.29972670504E+02  0.00000000000E+00 0. -1.
         11    1    1    2    0    0 -0.49057373284E+02  0.92977121934E+02  0.28573246640E+03  0.30445757246E+03  0.00000000000E+00 0.  1.
</event>
<event>
 7    1  0.2900135E-009  0.2213281E+03  0.7561462E-02  0.1132897E+00
         -1   -1    0    0    0  501 -0.00000000000E+00  0.00000000000E+00  0.59524036418E+03  0.59524036418E+03  0.00000000000E+00 0.  1.
          1   -1    0    0  501    0  0.00000000000E+00 -0.00000000000E+00 -0.10498163449E+03  0.10498163449E+03  0.00000000000E+00 0. -1.
         25    2    1    2    0    0  0.13387315439E+03  0.16756687247E+03  0.34578535585E+03  0.42568842838E+03  0.12506977061E+03 0.  0.
          5    1    3    3  502    0  0.58274122337E+02  0.21711538858E+02  0.28850219026E+02  0.68680941982E+02  0.41800000000E+01 0. -1.
         -5    1    3    3    0  502  0.75599032053E+02  0.14585533362E+03  0.31693513683E+03  0.35700748640E+03  0.41800000000E+01 0. -1.
        -11    1    1    2    0    0 -0.77698562142E+02 -0.11676043691E+03  0.40657381273E+02  0.14602427483E+03  0.00000000000E+00 0. -1.
         11    1    1    2    0    0 -0.56174592248E+02 -0.50806435562E+02  0.10381599256E+03  0.12850929546E+03  0.00000000000E+00 0.  1.
</event>
<event>
 7    1  0.2900135E-009  0.1848082E+03  0.7561462E-02  0.1163229E+00
         -1   -1    0    0    0  501 -0.00000000000E+00  0.00000000000E+00  0.61589295997E+02  0.61589295997E+02  0.00000000000E+00 0.  1.
          1   -1    0    0  501    0  0.00000000000E+00 -0.00000000000E+00 -0.56053021255E+03  0.56053021255E+03  0.00000000000E+00 0. -1.
         25    2    1    2    0    0  0.14869028283E+03 -0.53670078727E+01 -0.25765662430E+03  0.32275689156E+03  0.12508984781E+03 0.  0.
          5    1    3    3  502    0  0.55815285969E+02 -0.63213978575E+02 -0.10131456758E+03  0.13188429489E+03  0.41800000000E+01 0. -1.
         -5    1    3    3    0  502  0.92874996863E+02  0.57846970702E+02 -0.15634205672E+03  0.19087259668E+03  0.41800000000E+01 0. -1.
        -11    1    1    2    0    0  0.12070872942E+02 -0.78258680590E+01 -0.32383959586E+02  0.35435448677E+02  0.00000000000E+00 0. -1.
         11    1    1    2    0    0 -0.16076115577E+03  0.13192875932E+02 -0.20890033267E+03  0.26392716831E+03  0.00000000000E+00 0.  1.
</event>
<event>
 7    1  0.2900135E-009  0.1065825E+03  0.7561462E-02  0.1267033E+00
          2   -1    0    0  501    0  0.00000000000E+00  0.00000000000E+00  0.14855351597E+03  0.14855351597E+03  0.00000000000E+00 0. -1.
         -2   -1    0    0    0  501 -0.00000000000E+00 -0.00000000000E+00 -0.81068306683E+02  0.81068306683E+02  0.00000000000E+00 0.  1.
         25    2    1    2    0    0 -0.94756923080E+01  0.34709193842E+01  0.57811271918E+02  0.13817205437E+03  0.12509011721E+03 0.  0.
          5    1    3    3  502    0 -0.33728970193E+01  0.62952737845E+02  0.43010745937E+02  0.76431801644E+02  0.41800000000E+01 0. -1.
         -5    1    3    3    0  502 -0.61027952887E+01 -0.59481818461E+02  0.14800525981E+02  0.61740252729E+02  0.41800000000E+01 0. -1.
        -11    1    1    2    0    0 -0.18476055013E+02 -0.39991921798E+02  0.11125898733E+02  0.45436813715E+02  0.00000000000E+00 0.  1.
         11    1    1    2    0    0  0.27951747321E+02  0.36521002414E+02 -0.14519613692E+01  0.46012954561E+02  0.00000000000E+00 0. -1.
</event>
<event>
 7    1  0.2900135E-009  0.2897840E+03  0.7561462E-02  0.1090462E+00
         -1   -1    0    0    0  501 -0.00000000000E+00  0.00000000000E+00  0.19345620365E+03  0.19345620365E+03  0.00000000000E+00 0.  1.
          1   -1    0    0  501    0  0.00000000000E+00 -0.00000000000E+00 -0.53130847669E+03  0.53130847669E+03  0.00000000000E+00 0. -1.
         25    2    1    2    0    0  0.69032637635E+02  0.27587971778E+03 -0.58562194932E+02  0.31615110565E+03  0.12508743816E+03 0.  0.
          5    1    3    3  502    0  0.78781816510E+01  0.16388815564E+03  0.21381734921E+02  0.16551750449E+03  0.41800000000E+01 0. -1.
         -5    1    3    3    0  502  0.61154455984E+02  0.11199156215E+03 -0.79943929852E+02  0.15063360116E+03  0.41800000000E+01 0. -1.
        -11    1    1    2    0    0 -0.38594769941E+02 -0.72589406333E+02 -0.13284424957E+03  0.15622539109E+03  0.00000000000E+00 0. -1.
         11    1    1    2    0    0 -0.30437867695E+02 -0.20329031145E+03 -0.14644582855E+03  0.25238818360E+03  0.00000000000E+00 0.  1.
</event>
<event>
 7    1  0.2900135E-009  0.9508229E+02  0.7561462E-02  0.1290991E+00
         -1   -1    0    0    0  501 -0.00000000000E+00  0.00000000000E+00  0.17846593068E+02  0.17846593068E+02  0.00000000000E+00 0.  1.
          1   -1    0    0  501    0  0.00000000000E+00 -0.00000000000E+00 -0.79324834794E+03  0.79324834794E+03  0.00000000000E+00 0. -1.
         25    2    1    2    0    0  0.17032575642E+02  0.40116488028E+02 -0.58554859891E+03  0.60034518898E+03  0.12509093894E+03 0.  0.
          5    1    3    3  502    0  0.25301307149E+02 -0.42231137425E+02 -0.23452400692E+03  0.23967187431E+03  0.41800000000E+01 0.  1.
         -5    1    3    3    0  502 -0.82687315061E+01  0.82347625453E+02 -0.35102459198E+03  0.36067331467E+03  0.41800000000E+01 0.  1.
        -11    1    1    2    0    0  0.12311346451E+02 -0.13532915011E+02 -0.15856219326E+01  0.18363638992E+02  0.00000000000E+00 0.  1.
         11    1    1    2    0    0 -0.29343922093E+02 -0.26583573017E+02 -0.18826753403E+03  0.19238611303E+03  0.00000000000E+00 0. -1.
</event>
<event>
 7    1  0.2900135E-009  0.1340755E+03  0.7561462E-02  0.1221531E+00
         -1   -1    0    0    0  501 -0.00000000000E+00  0.00000000000E+00  0.35934647034E+02  0.35934647034E+02  0.00000000000E+00 0.  1.
          1   -1    0    0  501    0  0.00000000000E+00 -0.00000000000E+00 -0.54373509476E+03  0.54373509476E+03  0.00000000000E+00 0. -1.
         25    2    1    2    0    0  0.55936548183E+02 -0.67373633625E+02 -0.29851292640E+03  0.33530002287E+03  0.12509210278E+03 0.  0.
          5    1    3    3  502    0  0.69506492528E+01  0.36648515358E+02 -0.68160735773E+02  0.77812489384E+02  0.41800000000E+01 0.  1.
         -5    1    3    3    0  502  0.48985898930E+02 -0.10402214898E+03 -0.23035219063E+03  0.25748753349E+03  0.41800000000E+01 0.  1.
        -11    1    1    2    0    0 -0.68242800103E+02  0.27062704468E+02 -0.17588458530E+03  0.19059081060E+03  0.00000000000E+00 0.  1.
         11    1    1    2    0    0  0.12306251920E+02  0.40310929156E+02 -0.33402936026E+02  0.53778908328E+02  0.00000000000E+00 0. -1.
</event>
<event>
 7    1  0.2900135E-009  0.8958272E+02  0.7561462E-02  0.1303865E+00
          1   -1    0    0  501    0  0.00000000000E+00  0.00000000000E+00  0.44955736601E+03  0.44955736601E+03  0.00000000000E+00 0. -1.
         -1   -1    0    0    0  501 -0.00000000000E+00 -0.00000000000E+00 -0.29504359779E+02  0.29504359779E+02  0.00000000000E+00 0.  1.
         25    2    1    2    0    0  0.20631211706E+02 -0.22152942184E+02  0.18094475655E+03  0.22204744416E+03  0.12509061833E+03 0.  0.
          5    1    3    3  502    0  0.22344366841E+02  0.49925789554E+02  0.61000369740E+02  0.82038848728E+02  0.41800000000E+01 0. -1.
         -5    1    3    3    0  502 -0.17131551342E+01 -0.72078731738E+02  0.11994438681E+03  0.14000859543E+03  0.41800000000E+01 0. -1.
        -11    1    1    2    0    0  0.30580407617E+01 -0.10957237395E+02 -0.27907337163E+01  0.11713277053E+02  0.00000000000E+00 0.  1.
         11    1    1    2    0    0 -0.23689252468E+02  0.33110179579E+02  0.24189898340E+03  0.24530100457E+03  0.00000000000E+00 0. -1.
</event>
<event>
 6    1  0.2900135E-009  0.1160297E+03  0.7561462E-02  0.1249794E+00
          1   -1    0    0  501    0  0.00000000000E+00  0.00000000000E+00  0.18517033772E+03  0.18517033772E+03  0.00000000000E+00 0. -1.
         -1   -1    0    0    0  501 -0.00000000000E+00 -0.00000000000E+00 -0.10935645894E+03  0.10935645894E+03  0.00000000000E+00 0.  1.
          5    1    1    2  502    0 -0.77969115270E+01 -0.21573498496E+02 -0.36391636125E+02  0.43220727049E+02  0.41800000000E+01 0. -1.
         -5    1    1    2    0  502 -0.39089645672E+02  0.93369867455E+02  0.34359905257E+02  0.10697667053E+03  0.41800000000E+01 0. -1.
        -11    1    1    2    0    0 -0.13474167839E+02 -0.33092049965E+02  0.60967449876E+02  0.70665882251E+02  0.00000000000E+00 0. -1.
         11    1    1    2    0    0  0.60360725038E+02 -0.38704318994E+02  0.16878159775E+02  0.73663516841E+02  0.00000000000E+00 0.  1.
</event>
<event>
 7    1  0.2900135E-009  0.1470156E+03  0.7561462E-02  0.1204189E+00
         -1   -1    0    0    0  501 -0.00000000000E+00  0.00000000000E+00  0.23810858383E+03  0.23810858383E+03  0.00000000000E+00 0.  1.
          1   -1    0    0  501    0  0.00000000000E+00 -0.00000000000E+00 -0.19049487131E+03  0.19049487131E+03  0.00000000000E+00 0. -1.
         25    2    1    2    0    0 -0.43012062243E+02  0.11203794979E+03  0.16390453513E+03  0.23857155956E+03  0.12509657351E+03 0.  0.
          5    1    3    3  502    0 -0.70236651720E+02  0.11968411973E+03  0.10840709292E+03  0.17614495723E+03  0.41800000000E+01 0.  1.
         -5    1    3    3    0  502  0.27224589477E+02 -0.76461699457E+01  0.55497442205E+02  0.62426602329E+02  0.41800000000E+01 0.  1.
        -11    1    1    2    0    0  0.33019440895E+02 -0.32097474897E+02 -0.96725177576E+02  0.10712745376E+03  0.00000000000E+00 0. -1.
         11    1    1    2    0    0  0.99926213475E+01 -0.79940474890E+02 -0.19565645035E+02  0.82904441815E+02  0.00000000000E+00 0.  1.
</event>
<event>
 7    1  0.2900135E-009  0.1328505E+03  0.7561462E-02  0.1223286E+00
          1   -1    0    0  501    0  0.00000000000E+00  0.00000000000E+00  0.10753598556E+04  0.10753598556E+04  0.00000000000E+00 0. -1.
         -1   -1    0    0    0  501 -0.00000000000E+00 -0.00000000000E+00 -0.29992902405E+02  0.29992902405E+02  0.00000000000E+00 0.  1.
         25    2    1    2    0    0  0.11430554068E+03 -0.25590847089E+02  0.79990794056E+03  0.81805934231E+03  0.12509087130E+03 0.  0.
          5    1    3    3  502    0 -0.60381511023E+01 -0.26639085081E+02  0.38605288607E+03  0.38704057070E+03  0.41800000000E+01 0.  1.
         -5    1    3    3    0  502  0.12034369178E+03  0.10482379929E+01  0.41385505449E+03  0.43101877161E+03  0.41800000000E+01 0.  1.
        -11    1    1    2    0    0 -0.88940057592E+02  0.15169381088E+02  0.83189407078E+02  0.12272294576E+03  0.00000000000E+00 0.  1.
         11    1    1    2    0    0 -0.25365483085E+02  0.10421466000E+02  0.16226960552E+03  0.16457046989E+03  0.00000000000E+00 0. -1.
</event>
<event>
 7    1  0.2900135E-009  0.8943017E+02  0.7561462E-02  0.1304238E+00
         -2   -1    0    0    0  501 -0.00000000000E+00  0.00000000000E+00  0.13718926340E+02  0.13718926340E+02  0.00000000000E+00 0.  1.
          2   -1    0    0  501    0  0.00000000000E+00 -0.00000000000E+00 -0.11911721897E+04  0.11911721897E+04  0.00000000000E+00 0. -1.
         25    2    1    2    0    0 -0.39403527154E+02  0.22331137611E+02 -0.88276673711E+03  0.89273560035E+03  0.12509365416E+03 0.  0.
          5    1    3    3  502    0 -0.53298451931E+02  0.41312853123E+01 -0.85422437546E+03  0.85590568903E+03  0.41800000000E+01 0. -1.
         -5    1    3    3    0  502  0.13894924777E+02  0.18199852298E+02 -0.28542361659E+02  0.36829911313E+02  0.41800000000E+01 0. -1.
        -11    1    1    2    0    0 -0.22384157559E+02 -0.32379369773E+02 -0.93294107263E+02  0.10125840482E+03  0.00000000000E+00 0.  1.
         11    1    1    2    0    0  0.61787684713E+02  0.10048232162E+02 -0.20139241897E+03  0.21089711086E+03  0.00000000000E+00 0. -1.
</event>
<event>
 7    1  0.2900135E-009  0.1665721E+03  0.7561462E-02  0.1181470E+00
         -1   -1    0    0    0  501 -0.00000000000E+00  0.00000000000E+00  0.56738695408E+02  0.56738695408E+02  0.00000000000E+00 0.  1.
          1   -1    0    0  501    0  0.00000000000E+00 -0.00000000000E+00 -0.53623376446E+03  0.53623376446E+03  0.00000000000E+00 0. -1.
         25    2    1    2    0    0  0.12819972476E+03 -0.27786860512E+02 -0.31986300306E+03  0.36765334206E+03  0.12509740266E+03 0.  0.
          5    1    3    3  502    0  0.12701471748E+03 -0.65607498907E+02 -0.24585240303E+03  0.28442566489E+03  0.41800000000E+01 0. -1.
         -5    1    3    3    0  502  0.11850072863E+01  0.37820638395E+02 -0.74010600030E+02  0.83227677174E+02  0.41800000000E+01 0. -1.
        -11    1    1    2    0    0 -0.52046432064E+02  0.50568823388E+02 -0.43557202806E+02  0.84636085128E+02  0.00000000000E+00 0.  1.
         11    1    1    2    0    0 -0.76153292699E+02 -0.22781962876E+02 -0.11607486318E+03  0.14068303268E+03  0.00000000000E+00 0. -1.
</event>
<event>
 7    1  0.2900135E-009  0.9246092E+02  0.7561462E-02  0.1296999E+00
          1   -1    0    0  501    0  0.00000000000E+00  0.00000000000E+00  0.65143110211E+03  0.65143110211E+03  0.00000000000E+00 0. -1.
         -1   -1    0    0    0  501 -0.00000000000E+00 -0.00000000000E+00 -0.32621516160E+02  0.32621516160E+02  0.00000000000E+00 0.  1.
         25    2    1    2    0    0  0.29276195823E+01 -0.25286457890E+02  0.55674089511E+03  0.57118870983E+03  0.12509253391E+03 0.  0.
          5    1    3    3  502    0  0.63843782309E+02 -0.14608073284E+02  0.29373135893E+03  0.30097343399E+03  0.41800000000E+01 0.  1.
         -5    1    3    3    0  502 -0.60916162727E+02 -0.10678384606E+02  0.26300953617E+03  0.27021527584E+03  0.41800000000E+01 0.  1.
        -11    1    1    2    0    0  0.23671307852E+02  0.17977011864E+02 -0.13331211835E+02  0.32576448241E+02  0.00000000000E+00 0.  1.
         11    1    1    2    0    0 -0.26598927435E+02  0.73094460259E+01  0.75399902680E+02  0.80287460204E+02  0.00000000000E+00 0. -1.
</event>
<event>
 7    1  0.2900135E-009  0.9961300E+02  0.7561462E-02  0.1281112E+00
         -2   -1    0    0    0  501 -0.00000000000E+00  0.00000000000E+00  0.54522774888E+02  0.54522774888E+02  0.00000000000E+00 0.  1.
          2   -1    0    0  501    0  0.00000000000E+00 -0.00000000000E+00 -0.39408890375E+03  0.39408890375E+03  0.00000000000E+00 0. -1.
         25    2    1    2    0    0 -0.38635410269E+02 -0.33068419980E+01 -0.32215851196E+03  0.34776036048E+03  0.12509009297E+03 0.  0.
          5    1    3    3  502    0 -0.50208887011E+02  0.38222010032E+02 -0.81104264369E+02  0.10284565370E+03  0.41800000000E+01 0. -1.
         -5    1    3    3    0  502  0.11573476742E+02 -0.41528852030E+02 -0.24105424759E+03  0.24491470678E+03  0.41800000000E+01 0. -1.
        -11    1    1    2    0    0 -0.26966433324E+02  0.22754010392E+01  0.11183918726E+02  0.29282179123E+02  0.00000000000E+00 0.  1.
         11    1    1    2    0    0  0.65601843593E+02  0.10314409588E+01 -0.28591535629E+02  0.71569139040E+02  0.00000000000E+00 0. -1.
</event>
<event>
 7    1  0.2900135E-009  0.2780394E+03  0.7561462E-02  0.1096765E+00
         -2   -1    0    0    0  501 -0.00000000000E+00  0.00000000000E+00  0.11218454114E+03  0.11218454114E+03  0.00000000000E+00 0.  1.
          2   -1    0    0  501    0  0.00000000000E+00 -0.00000000000E+00 -0.77626324517E+03  0.77626324517E+03  0.00000000000E+00 0. -1.
         25    2    1    2    0    0  0.10694826811E+03 -0.24903704666E+03 -0.27706169876E+03  0.40726664912E+03  0.12508219658E+03 0.  0.
          5    1    3    3  502    0  0.38460858344E+02 -0.10244165100E+03 -0.32920482749E+02  0.11434491711E+03  0.41800000000E+01 0. -1.
         -5    1    3    3    0  502  0.68487409767E+02 -0.14659539566E+03 -0.24414121601E+03  0.29292173201E+03  0.41800000000E+01 0. -1.
        -11    1    1    2    0    0  0.14380299009E+02  0.45949847041E+02 -0.49908721055E+02  0.69347399952E+02  0.00000000000E+00 0.  1.
         11    1    1    2    0    0 -0.12132856712E+03  0.20308719962E+03 -0.33710828420E+03  0.41183373724E+03  0.00000000000E+00 0. -1.
</event>
<event>
 7    1  0.2900135E-009  0.1027602E+03  0.7561462E-02  0.1274596E+00
         -3   -1    0    0    0  501 -0.00000000000E+00  0.00000000000E+00  0.32368196242E+03  0.32368196242E+03  0.00000000000E+00 0.  1.
          3   -1    0    0  501    0  0.00000000000E+00 -0.00000000000E+00 -0.45545676384E+02  0.45545676384E+02  0.00000000000E+00 0. -1.
         25    2    1    2    0    0  0.93462735576E+01 -0.39012817783E+02  0.20848195859E+03  0.24642060247E+03  0.12509609701E+03 0.  0.
          5    1    3    3  502    0  0.48176148576E+02  0.36095250739E+01  0.26044649033E+02  0.55043311184E+02  0.41800000000E+01 0.  1.
         -5    1    3    3    0  502 -0.38829875018E+02 -0.42622342856E+02  0.18243730955E+03  0.19137729129E+03  0.41800000000E+01 0.  1.
        -11    1    1    2    0    0 -0.29668048243E+02  0.61881720258E+02  0.36631754789E+02  0.77790911085E+02  0.00000000000E+00 0. -1.
         11    1    1    2    0    0  0.20321774685E+02 -0.22868902475E+02  0.33022572658E+02  0.45016125241E+02  0.00000000000E+00 0.  1.
</event>
<event>
 7    1  0.2900135E-009  0.2902834E+03  0.7561462E-02  0.1090201E+00
          1   -1    0    0  501    0  0.00000000000E+00  0.00000000000E+00  0.30999541813E+03  0.30999541813E+03  0.00000000000E+00 0. -1.
         -1   -1    0    0    0  501 -0.00000000000E+00 -0.00000000000E+00 -0.37341629819E+03  0.37341629819E+03  0.00000000000E+00 0.  1.
         25    2    1    2    0    0 -0.14195021085E+03 -0.23894850518E+03 -0.19607236434E+03  0.36239567272E+03  0.12505998984E+03 0.  0.
          5    1    3    3  502    0 -0.22495578966E+02 -0.14498056720E+03 -0.60735395817E+02  0.15884481938E+03  0.41800000000E+01 0.  1.
         -5    1    3    3    0  502 -0.11945463188E+03 -0.93967937985E+02 -0.13533696852E+03  0.20355085334E+03  0.41800000000E+01 0.  1.
        -11    1    1    2    0    0  0.32499780805E+02  0.23539386636E+02 -0.87347220507E+01  0.41068647955E+02  0.00000000000E+00 0.  1.
         11    1    1    2    0    0  0.10945043004E+03  0.21540911855E+03  0.14138620633E+03  0.27994739565E+03  0.00000000000E+00 0. -1.
</event>
<event>
 7    1  0.2900135E-009  0.1681479E+03  0.7561462E-02  0.1179793E+00
         -2   -1    0    0    0  501 -0.00000000000E+00  0.00000000000E+00  0.23474389199E+03  0.23474389199E+03  0.00000000000E+00 0.  1.
          2   -1    0    0  501    0  0.00000000000E+00 -0.00000000000E+00 -0.14608962201E+03  0.14608962201E+03  0.00000000000E+00 0. -1.
         25    2    1    2    0    0 -0.12428643688E+03  0.35604680311E+02  0.11586307133E+03  0.21397949299E+03  0.12509260757E+03 0.  0.
          5    1    3    3  502    0 -0.14084784283E+03  0.34809042502E+01  0.10576588065E+03  0.17622180748E+03  0.41800000000E+01 0.  1.
         -5    1    3    3    0  502  0.16561405942E+02  0.32123776061E+02  0.10097190679E+02  0.37757685507E+02  0.41800000000E+01 0.  1.
        -11    1    1    2    0    0  0.76881050713E+02 -0.67101299185E+02  0.36518001636E+01  0.10211080234E+03  0.00000000000E+00 0.  1.
         11    1    1    2    0    0  0.47405386170E+02  0.31496618874E+02 -0.30860601506E+02  0.64743218670E+02  0.00000000000E+00 0. -1.
</event>
<event>
 7    1  0.2900135E-009  0.1320032E+03  0.7561462E-02  0.1224513E+00
         -4   -1    0    0    0  501 -0.00000000000E+00  0.00000000000E+00  0.29671103397E+03  0.29671103397E+03  0.00000000000E+00 0.  1.
          4   -1    0    0  501    0  0.00000000000E+00 -0.00000000000E+00 -0.23007037045E+03  0.23007037045E+03  0.00000000000E+00 0. -1.
         25    2    1    2    0    0  0.81282597121E+02 -0.47250542431E+01  0.25963970427E+03  0.29947917841E+03  0.12508323443E+03 0.  0.
          5    1    3    3  502    0  0.19527601209E+02 -0.58632310544E+02  0.73988712388E+02  0.96492885798E+02  0.41800000000E+01 0.  1.
         -5    1    3    3    0  502  0.61754995913E+02  0.53907256301E+02  0.18565099188E+03  0.20298629261E+03  0.41800000000E+01 0.  1.
        -11    1    1    2    0    0 -0.34556237655E+02 -0.41673272811E+02 -0.82781191178E+02  0.98911682023E+02  0.00000000000E+00 0.  1.
         11    1    1    2    0    0 -0.46726359467E+02  0.46398327054E+02 -0.11021784956E+03  0.12839054399E+03  0.00000000000E+00 0. -1.
</event>
<event>
 7    1  0.3343034E-009  0.1388597E+03  0.7561462E-02  0.1214872E+00
          1   -1    0    0  501    0  0.00000000000E+00  0.00000000000E+00  0.55111757624E+03  0.55111757624E+03  0.00000000000E+00 0. -1.
         -1   -1    0    0    0  501 -0.00000000000E+00 -0.00000000000E+00 -0.48501832339E+02  0.48501832339E+02  0.00000000000E+00 0.  1.
         25    2    1    2    0    0  0.98501225533E+02 -0.58559746388E+02  0.19174545031E+03  0.25601749923E+03  0.12508759679E+03 0.  0.
          5    1    3    3  502    0  0.10605870311E+03 -0.84246413078E+02  0.18265452993E+03  0.22743363059E+03  0.41800000000E+01 0. -1.
         -5    1    3    3    0  502 -0.75574775795E+01  0.25686666690E+02  0.90909203799E+01  0.28583868639E+02  0.41800000000E+01 0. -1.
        -11    1    1    2    0    0 -0.52572058932E+02  0.37529500276E+02  0.61574236284E+02  0.89239404667E+02  0.00000000000E+00 0.  1.
         11    1    1    2    0    0 -0.45929166601E+02  0.21030246112E+02  0.24929605731E+03  0.25436250467E+03  0.00000000000E+00 0. -1.
</event>
<event>
 7    1  0.2900135E-009  0.8848775E+02  0.7561462E-02  0.1306556E+00
         -2   -1    0    0    0  501 -0.00000000000E+00  0.00000000000E+00  0.13860826699E+03  0.13860826699E+03  0.00000000000E+00 0.  1.
          2   -1    0    0  501    0  0.00000000000E+00 -0.00000000000E+00 -0.11330365335E+03  0.11330365335E+03  0.00000000000E+00 0. -1.
         25    2    1    2    0    0  0.84905469349E+01  0.21352269549E+02  0.72661290536E+02  0.14647396845E+03  0.12508777514E+03 0.  0.
          5    1    3    3  502    0 -0.22333672957E+02 -0.36026623337E+02  0.69019647745E+02  0.81104221294E+02  0.41800000000E+01 0.  1.
         -5    1    3    3    0  502  0.30824219892E+02  0.57378892886E+02  0.36416427915E+01  0.65369747154E+02  0.41800000000E+01 0.  1.
        -11    1    1    2    0    0 -0.35549580064E+02 -0.15504009645E+01  0.11758120917E+02  0.37475722720E+02  0.00000000000E+00 0.  1.
         11    1    1    2    0    0  0.27059033129E+02 -0.19801868585E+02 -0.59114797816E+02  0.67962229173E+02  0.00000000000E+00 0. -1.
</event>
<event>
 7    1  0.2900135E-009  0.1439475E+03  0.7561462E-02  0.1208114E+00
         -1   -1    0    0    0  501 -0.00000000000E+00  0.00000000000E+00  0.83677028402E+03  0.83677028402E+03  0.00000000000E+00 0.  1.
          1   -1    0    0  501    0  0.00000000000E+00 -0.00000000000E+00 -0.37715902824E+02  0.37715902824E+02  0.00000000000E+00 0. -1.
         25    2    1    2    0    0  0.98906752479E+02  0.92939438075E+02  0.31320400957E+03  0.36354400379E+03  0.12508879346E+03 0.  0.
          5    1    3    3  502    0  0.85102839318E+02  0.10341705539E+03  0.31800409723E+03  0.34508210452E+03  0.41800000000E+01 0.  1.
         -5    1    3    3    0  502  0.13803913161E+02 -0.10477617314E+02 -0.48000876624E+01  0.18461899271E+02  0.41800000000E+01 0.  1.
        -11    1    1    2    0    0 -0.42534107285E+02 -0.46643550983E+02  0.35988824870E+03  0.36538243346E+03  0.00000000000E+00 0.  1.
         11    1    1    2    0    0 -0.56372645194E+02 -0.46295887091E+02  0.12596212292E+03  0.14555974959E+03  0.00000000000E+00 0. -1.
</event>
<event>
 7    1  0.3435686E-009  0.1450448E+03  0.7561462E-02  0.1206698E+00
         -1   -1    0    0    0  501 -0.00000000000E+00  0.00000000000E+00  0.16762609758E+02  0.16762609758E+02  0.00000000000E+00 0.  1.
          1   -1    0    0  501    0  0.00000000000E+00 -0.00000000000E+00 -0.14412610717E+04  0.14412610717E+04  0.00000000000E+00 0. -1.
         25    2    1    2    0    0  0.23098925096E+01 -0.10225330759E+03 -0.96772772296E+03  0.98112459483E+03  0.12508976887E+03 0.  0.
          5    1    3    3  502    0  0.11271069690E+02 -0.12810729679E+03 -0.67984416765E+03  0.69191334804E+03  0.41800000000E+01 0. -1.
         -5    1    3    3    0  502 -0.89611771802E+01  0.25853989196E+02 -0.28788355531E+03  0.28921124679E+03  0.41800000000E+01 0. -1.
        -11    1    1    2    0    0  0.40854518022E+02  0.34849444387E+02 -0.23698299973E+03  0.24299077673E+03  0.00000000000E+00 0.  1.
         11    1    1    2    0    0 -0.43164410531E+02  0.67403863206E+02 -0.21978773923E+03  0.23390830987E+03  0.00000000000E+00 0. -1.
</event>
<event>
 7    1  0.2900135E-009  0.8735302E+02  0.7561462E-02  0.1309391E+00
         -1   -1    0    0    0  501 -0.00000000000E+00  0.00000000000E+00  0.11093091118E+03  0.11093091118E+03  0.00000000000E+00 0.  1.
          1   -1    0    0  501    0  0.00000000000E+00 -0.00000000000E+00 -0.17011953194E+03  0.17011953194E+03  0.00000000000E+00 0. -1.
         25    2    1    2    0    0 -0.22684622835E+01 -0.75822539418E+02  0.80900447232E+01  0.14651802512E+03  0.12509148435E+03 0.  0.
          5    1    3    3  502    0 -0.28196941508E+02 -0.18157003119E+02 -0.50136138984E+02  0.60463618026E+02  0.41800000000E+01 0. -1.
         -5    1    3    3    0  502  0.25928479224E+02 -0.57665536299E+02  0.58226183707E+02  0.86054407096E+02  0.41800000000E+01 0. -1.
        -11    1    1    2    0    0  0.84719367325E+01  0.59185780128E+02  0.51014340646E+01  0.60006290595E+02  0.00000000000E+00 0.  1.
         11    1    1    2    0    0 -0.62034744490E+01  0.16636759289E+02 -0.72380099547E+02  0.74526127401E+02  0.00000000000E+00 0. -1.
</event>
<event>
 7    1  0.2900135E-009  0.1132842E+03  0.7561462E-02  0.1254606E+00
          2   -1    0    0  501    0  0.00000000000E+00  0.00000000000E+00  0.85931937843E+03  0.85931937843E+03  0.00000000000E+00 0. -1.
         -2   -1    0    0    0  501 -0.00000000000E+00 -0.00000000000E+00 -0.16958116364E+02  0.16958116364E+02  0.00000000000E+00 0.  1.
         25    2    1    2    0    0  0.42995229066E+02 -0.11053671219E+02  0.59321278287E+03  0.60788059678E+03  0.12508653331E+03 0.  0.
          5    1    3    3  502    0 -0.20670002970E+02  0.40054374955E+02  0.13375973989E+03  0.14121169353E+03  0.41800000000E+01 0. -1.
         -5    1    3    3    0  502  0.63665232036E+02 -0.51108046174E+02  0.45945304298E+03  0.46666890325E+03  0.41800000000E+01 0. -1.
        -11    1    1    2    0    0 -0.17127855694E+02  0.49970273697E+02  0.12257325852E+03  0.13347132800E+03  0.00000000000E+00 0.  1.
         11    1    1    2    0    0 -0.25867373373E+02 -0.38916602479E+02  0.12657522068E+03  0.13492557001E+03  0.00000000000E+00 0. -1.
</event>
<event>
 7    1  0.2900135E-009  0.3862007E+03  0.7561462E-02  0.1048665E+00
          2   -1    0    0  501    0  0.00000000000E+00  0.00000000000E+00  0.13151437267E+04  0.13151437267E+04  0.00000000000E+00 0. -1.
         -2   -1    0    0    0  501 -0.00000000000E+00 -0.00000000000E+00 -0.12054419480E+03  0.12054419480E+03  0.00000000000E+00 0.  1.
         25    2    1    2    0    0  0.64529637006E+01 -0.38217117672E+03  0.56432394300E+03  0.69296930727E+03  0.12509396117E+03 0.  0.
          5    1    3    3  502    0 -0.21138475830E+02 -0.17390642951E+03  0.35746796847E+03  0.39810940992E+03  0.41800000000E+01 0.  1.
         -5    1    3    3    0  502  0.27591439530E+02 -0.20826474722E+03  0.20685597452E+03  0.29485989735E+03  0.41800000000E+01 0.  1.
        -11    1    1    2    0    0  0.15748006957E+02  0.32955319632E+03  0.48462633581E+03  0.58627296909E+03  0.00000000000E+00 0.  1.
         11    1    1    2    0    0 -0.22200970657E+02  0.52617980407E+02  0.14564925314E+03  0.15644564519E+03  0.00000000000E+00 0. -1.
</event>
<event>
 7    1  0.2900135E-009  0.1385381E+03  0.7561462E-02  0.1215310E+00
          1   -1    0    0  501    0  0.00000000000E+00  0.00000000000E+00  0.75369501321E+03  0.75369501321E+03  0.00000000000E+00 0. -1.
         -1   -1    0    0    0  501 -0.00000000000E+00 -0.00000000000E+00 -0.35603723365E+02  0.35603723365E+02  0.00000000000E+00 0.  1.
         25    2    1    2    0    0  0.11572171149E+03 -0.11237194562E+02  0.28978422228E+03  0.33635642051E+03  0.12507180772E+03 0.  0.
          5    1    3    3  502    0  0.12232048491E+03  0.23928600689E+02  0.26425722210E+03  0.29220580212E+03  0.41800000000E+01 0. -1.
         -5    1    3    3    0  502 -0.65987734232E+01 -0.35165795251E+02  0.25527000178E+02  0.44150618393E+02  0.41800000000E+01 0. -1.
        -11    1    1    2    0    0 -0.12883799789E+02  0.26069361399E+01  0.81502513254E+00  0.13170143469E+02  0.00000000000E+00 0.  1.
         11    1    1    2    0    0 -0.10283791170E+03  0.86302584223E+01  0.42749204244E+03  0.43977217260E+03  0.00000000000E+00 0. -1.
</event>
<event>
 7    1  0.2900135E-009  0.2160478E+03  0.7561462E-02  0.1136864E+00
         -1   -1    0    0    0  501 -0.00000000000E+00  0.00000000000E+00  0.10187595554E+03  0.10187595554E+03  0.00000000000E+00 0.  1.
          1   -1    0    0  501    0  0.00000000000E+00 -0.00000000000E+00 -0.55719423809E+03  0.55719423809E+03  0.00000000000E+00 0. -1.
         25    2    1    2    0    0 -0.19763766972E+03  0.12927789578E+02 -0.13153851331E+03  0.26866597101E+03  0.12510494498E+03 0.  0.
          5    1    3    3  502    0 -0.16440594773E+03  0.56041547294E+02 -0.12421728960E+03  0.21358225139E+03  0.41800000000E+01 0. -1.
         -5    1    3    3    0  502 -0.33231721982E+02 -0.43113757716E+02 -0.73212237126E+01  0.55083719618E+02  0.41800000000E+01 0. -1.
        -11    1    1    2    0    0  0.10931282042E+03  0.16726758152E+02 -0.10448878028E+03  0.15214132361E+03  0.00000000000E+00 0.  1.
         11    1    1    2    0    0  0.88324849300E+02 -0.29654547730E+02 -0.21929098897E+03  0.23826289902E+03  0.00000000000E+00 0. -1.
</event>
<event>
 7    1  0.2900135E-009  0.8309600E+02  0.7561462E-02  0.1320488E+00
          2   -1    0    0  501    0  0.00000000000E+00  0.00000000000E+00  0.27039554646E+03  0.27039554646E+03  0.00000000000E+00 0. -1.
         -2   -1    0    0    0  501 -0.00000000000E+00 -0.00000000000E+00 -0.46244146579E+02  0.46244146579E+02  0.00000000000E+00 0.  1.
         25    2    1    2    0    0  0.10977777602E+02 -0.25152441152E+01  0.10179854276E+03  0.16167567918E+03  0.12509693791E+03 0.  0.
          5    1    3    3  502    0  0.39523058599E+02 -0.21823991536E+02 -0.84225645542E+01  0.46116924890E+02  0.41800000000E+01 0. -1.
         -5    1    3    3    0  502 -0.28545280997E+02  0.19308747421E+02  0.11022110732E+03  0.11555875429E+03  0.41800000000E+01 0. -1.
        -11    1    1    2    0    0 -0.32549864297E+02  0.34580092100E+02  0.99023763213E+02  0.10982250278E+03  0.00000000000E+00 0.  1.
         11    1    1    2    0    0  0.21572086695E+02 -0.32064847984E+02  0.23329093905E+02  0.45141511085E+02  0.00000000000E+00 0. -1.
</event>
<event>
 7    1  0.2900135E-009  0.1160890E+03  0.7561462E-02  0.1249692E+00
          1   -1    0    0  501    0  0.00000000000E+00  0.00000000000E+00  0.10776246459E+04  0.10776246459E+04  0.00000000000E+00 0. -1.
         -1   -1    0    0    0  501 -0.00000000000E+00 -0.00000000000E+00 -0.14973413991E+02  0.14973413991E+02  0.00000000000E+00 0.  1.
         25    2    1    2    0    0  0.20055639902E+02 -0.62244482440E+02  0.55312675320E+03  0.57085149932E+03  0.12508247235E+03 0.  0.
          5    1    3    3  502    0 -0.43429921061E+02 -0.40878509262E+02  0.38843614098E+03  0.39301058329E+03  0.41800000000E+01 0. -1.
         -5    1    3    3    0  502  0.63485560963E+02 -0.21365973179E+02  0.16469061222E+03  0.17784091603E+03  0.41800000000E+01 0. -1.
        -11    1    1    2    0    0  0.18838447794E+02  0.63625648457E+02  0.40103497809E+03  0.40648759380E+03  0.00000000000E+00 0. -1.
         11    1    1    2    0    0 -0.38894087696E+02 -0.13811660164E+01  0.10848950064E+03  0.11525896680E+03  0.00000000000E+00 0.  1.
</event>
<event>
 7    1  0.2900135E-009  0.1011642E+03  0.7561462E-02  0.1277867E+00
          2   -1    0    0  501    0  0.00000000000E+00  0.00000000000E+00  0.78132698770E+02  0.78132698770E+02  0.00000000000E+00 0. -1.
         -2   -1    0    0    0  501 -0.00000000000E+00 -0.00000000000E+00 -0.23087629397E+03  0.23087629397E+03  0.00000000000E+00 0.  1.
         25    2    1    2    0    0  0.20474112102E+02 -0.56880811346E+02 -0.26353133140E+02  0.14141195357E+03  0.12509291355E+03 0.  0.
          5    1    3    3  502    0  0.19166518913E+02  0.12635818347E+02 -0.59764802952E+02  0.64158580287E+02  0.41800000000E+01 0. -1.
         -5    1    3    3    0  502  0.13075931887E+01 -0.69516629692E+02  0.33411669812E+02  0.77253373281E+02  0.41800000000E+01 0. -1.
        -11    1    1    2    0    0  0.25828396401E+02  0.57498263959E+02 -0.63244729390E+02  0.89291949327E+02  0.00000000000E+00 0. -1.
         11    1    1    2    0    0 -0.46302508503E+02 -0.61745261388E+00 -0.63145732670E+02  0.78305089846E+02  0.00000000000E+00 0.  1.
</event>
<event>
 7    1  0.2900135E-009  0.2217761E+03  0.7561462E-02  0.1132566E+00
          1   -1    0    0  501    0  0.00000000000E+00  0.00000000000E+00  0.13999898808E+04  0.13999898808E+04  0.00000000000E+00 0. -1.
         -1   -1    0    0    0  501 -0.00000000000E+00 -0.00000000000E+00 -0.38981377140E+02  0.38981377140E+02  0.00000000000E+00 0.  1.
         25    2    1    2    0    0  0.52690820331E+02 -0.18848274688E+03  0.50052330238E+03  0.55179088166E+03  0.12509009726E+03 0.  0.
          5    1    3    3  502    0  0.76386269873E+02 -0.57664933424E+02  0.16394217880E+03  0.18988053392E+03  0.41800000000E+01 0.  1.
         -5    1    3    3    0  502 -0.23695449542E+02 -0.13081781346E+03  0.33658112359E+03  0.36191034774E+03  0.41800000000E+01 0.  1.
        -11    1    1    2    0    0  0.11476189168E+02  0.12128487439E+03  0.53482982557E+03  0.54852954888E+03  0.00000000000E+00 0.  1.
         11    1    1    2    0    0 -0.64167009500E+02  0.67197872489E+02  0.32565537575E+03  0.33865082744E+03  0.00000000000E+00 0. -1.
</event>
<event>
 7    1  0.2900135E-009  0.1799817E+03  0.7561462E-02  0.1167821E+00
         -2   -1    0    0    0  501 -0.00000000000E+00  0.00000000000E+00  0.46278412022E+02  0.46278412022E+02  0.00000000000E+00 0.  1.
          2   -1    0    0  501    0  0.00000000000E+00 -0.00000000000E+00 -0.90211030905E+03  0.90211030905E+03  0.00000000000E+00 0. -1.
         25    2    1    2    0    0 -0.10143627513E+03 -0.11593378738E+03 -0.62696744241E+03  0.65762129410E+03  0.12509049383E+03 0.  0.
          5    1    3    3  502    0  0.18175076170E+02 -0.19281407930E+02 -0.26299691839E+02  0.37566637811E+02  0.41800000000E+01 0.  1.
         -5    1    3    3    0  502 -0.11961135130E+03 -0.96652379450E+02 -0.60066775057E+03  0.62005465629E+03  0.41800000000E+01 0.  1.
        -11    1    1    2    0    0  0.11903041959E+03  0.98063873537E+02 -0.19919528755E+03  0.25191968296E+03  0.00000000000E+00 0.  1.
         11    1    1    2    0    0 -0.17594144462E+02  0.17869913843E+02 -0.29669167074E+02  0.38847744014E+02  0.00000000000E+00 0. -1.
</event>
<event>
 7    1  0.2900135E-009  0.1349118E+03  0.7561462E-02  0.1220344E+00
         -2   -1    0    0    0  501 -0.00000000000E+00  0.00000000000E+00  0.25547926662E+02  0.25547926662E+02  0.00000000000E+00 0.  1.
          2   -1    0    0  501    0  0.00000000000E+00 -0.00000000000E+00 -0.94927743196E+03  0.94927743196E+03  0.00000000000E+00 0. -1.
         25    2    1    2    0    0 -0.10880781421E+03 -0.16993029184E+02 -0.49272917970E+03  0.52015036056E+03  0.12508576895E+03 0.  0.
          5    1    3    3  502    0 -0.11085417848E+03 -0.36100078072E+01 -0.21408631536E+03  0.24114747327E+03  0.41800000000E+01 0. -1.
         -5    1    3    3    0  502  0.20463642707E+01 -0.13383021377E+02 -0.27864286434E+03  0.27900288729E+03  0.41800000000E+01 0. -1.
        -11    1    1    2    0    0  0.11236004746E+03 -0.14212847717E+02 -0.34545701336E+03  0.36354825455E+03  0.00000000000E+00 0. -1.
         11    1    1    2    0    0 -0.35522332558E+01  0.31205876902E+02 -0.85543312237E+02  0.91126743510E+02  0.00000000000E+00 0.  1.
</event>
<event>
 7    1  0.2900135E-009  0.1476431E+03  0.7561462E-02  0.1203399E+00
          3   -1    0    0  501    0  0.00000000000E+00  0.00000000000E+00  0.76917999166E+02  0.76917999166E+02  0.00000000000E+00 0. -1.
         -3   -1    0    0    0  501 -0.00000000000E+00 -0.00000000000E+00 -0.35823699057E+03  0.35823699057E+03  0.00000000000E+00 0.  1.
         25    2    1    2    0    0 -0.11056544176E+03  0.51387821902E+02 -0.11168084477E+03  0.20731478691E+03  0.12506552134E+03 0.  0.
          5    1    3    3  502    0 -0.11205279849E+03  0.66230995473E+02 -0.43358697182E+02  0.13725823630E+03  0.41800000000E+01 0.  1.
         -5    1    3    3    0  502  0.14873567263E+01 -0.14843173571E+02 -0.68322147590E+02  0.70056550607E+02  0.41800000000E+01 0.  1.
        -11    1    1    2    0    0  0.98927051826E+02 -0.21299709446E+01 -0.91687286392E+02  0.13489869104E+03  0.00000000000E+00 0.  1.
         11    1    1    2    0    0  0.11638389936E+02 -0.49257850958E+02 -0.77950860239E+02  0.92941511787E+02  0.00000000000E+00 0. -1.
</event>
<event>
 7    1  0.2900135E-009  0.1300593E+03  0.7561462E-02  0.1227368E+00
         -1   -1    0    0    0  501 -0.00000000000E+00  0.00000000000E+00  0.93027629082E+02  0.93027629082E+02  0.00000000000E+00 0.  1.
          1   -1    0    0  501    0  0.00000000000E+00 -0.00000000000E+00 -0.18541940074E+03  0.18541940074E+03  0.00000000000E+00 0. -1.
         25    2    1    2    0    0  0.33760951450E+02 -0.61762834799E+02 -0.53757902143E+02  0.15327102674E+03  0.12509055116E+03 0.  0.
          5    1    3    3  502    0 -0.39581862639E+02 -0.56627630010E+02 -0.18623387521E+02  0.71677857761E+02  0.41800000000E+01 0.  1.
         -5    1    3    3    0  502  0.73342814088E+02 -0.51352047888E+01 -0.35134514622E+02  0.81593168981E+02  0.41800000000E+01 0.  1.
        -11    1    1    2    0    0  0.22351655558E+02  0.56669297101E+02 -0.92033531098E+01  0.61609313002E+02  0.00000000000E+00 0.  1.
         11    1    1    2    0    0 -0.56112607008E+02  0.50935376974E+01 -0.29430516405E+02  0.63566690077E+02  0.00000000000E+00 0. -1.
</event>
<event>
 7    1  0.2900135E-009  0.1299152E+03  0.7561462E-02  0.1227582E+00
         -1   -1    0    0    0  501 -0.00000000000E+00  0.00000000000E+00  0.50021355759E+03  0.50021355759E+03  0.00000000000E+00 0.  1.
          1   -1    0    0  501    0  0.00000000000E+00 -0.00000000000E+00 -0.46993700256E+02  0.46993700256E+02  0.00000000000E+00 0. -1.
         25    2    1    2    0    0  0.38984280122E+02 -0.80804554955E+02  0.28660270580E+03  0.32532694899E+03  0.12508941830E+03 0.  0.
          5    1    3    3  502    0  0.68365344269E+00  0.26891085270E+02  0.16079091001E+02  0.31616568701E+02  0.41800000000E+01 0.  1.
         -5    1    3    3    0  502  0.38300626679E+02 -0.10769564022E+03  0.27052361480E+03  0.29371038029E+03  0.41800000000E+01 0.  1.
        -11    1    1    2    0    0 -0.23638131777E+02 -0.10339790423E+02  0.11111036294E+03  0.11406658272E+03  0.00000000000E+00 0.  1.
         11    1    1    2    0    0 -0.15346148345E+02  0.91144345378E+02  0.55506788594E+02  0.10781372614E+03  0.00000000000E+00 0. -1.
</event>
<event>
 7    1  0.2900135E-009  0.9728369E+02  0.7561462E-02  0.1286114E+00
          1   -1    0    0  501    0  0.00000000000E+00  0.00000000000E+00  0.90516088493E+03  0.90516088493E+03  0.00000000000E+00 0. -1.
         -1   -1    0    0    0  501 -0.00000000000E+00 -0.00000000000E+00 -0.13579026645E+02  0.13579026645E+02  0.00000000000E+00 0.  1.
         25    2    1    2    0    0 -0.17927954835E+02 -0.12041660305E+02  0.46803894943E+03  0.48494700100E+03  0.12508685961E+03 0.  0.
          5    1    3    3  502    0  0.41531720165E+02 -0.13644598926E+02  0.71204302909E+02  0.83657540082E+02  0.41800000000E+01 0. -1.
         -5    1    3    3    0  502 -0.59459675000E+02  0.16029386202E+01  0.39683464652E+03  0.40128946092E+03  0.41800000000E+01 0. -1.
        -11    1    1    2    0    0  0.44573801402E+02 -0.20418858406E+02  0.27890376797E+03  0.28318027004E+03  0.00000000000E+00 0. -1.
         11    1    1    2    0    0 -0.26645846567E+02  0.32460518712E+02  0.14463914087E+03  0.15061264053E+03  0.00000000000E+00 0.  1.
</event>
<event>
 7    1  0.2900135E-009  0.8822553E+02  0.7561462E-02  0.1307207E+00
          2   -1    0    0  501    0  0.00000000000E+00  0.00000000000E+00  0.30958367569E+03  0.30958367569E+03  0.00000000000E+00 0. -1.
         -2   -1    0    0    0  501 -0.00000000000E+00 -0.00000000000E+00 -0.39528594126E+02  0.39528594126E+02  0.00000000000E+00 0.  1.
         25    2    1    2    0    0  0.90288002657E+01 -0.53612234997E+01  0.18157481963E+03  0.22074271486E+03  0.12509064348E+03 0.  0.
          5    1    3    3  502    0 -0.34675062573E+02  0.43416393025E+02  0.11203207801E+03  0.12512394676E+03  0.41800000000E+01 0.  1.
         -5    1    3    3    0  502  0.43703862839E+02 -0.48777616525E+02  0.69542741619E+02  0.95618768099E+02  0.41800000000E+01 0.  1.
        -11    1    1    2    0    0 -0.29091490074E+02  0.15128893917E+02 -0.41843587908E+01  0.33056120225E+02  0.00000000000E+00 0.  1.
         11    1    1    2    0    0  0.20062689808E+02 -0.97676704168E+01  0.92664620720E+02  0.95313434735E+02  0.00000000000E+00 0. -1.
</event>
<event>
 7    1  0.2900135E-009  0.5059443E+02  0.7561462E-02  0.1442161E+00
         -3   -1    0    0    0  501 -0.00000000000E+00  0.00000000000E+00  0.26682925245E+03  0.26682925245E+03  0.00000000000E+00 0.  1.
          3   -1    0    0  501    0  0.00000000000E+00 -0.00000000000E+00 -0.48646910250E+02  0.48646910250E+02  0.00000000000E+00 0. -1.
         25    2    1    2    0    0 -0.30007124836E+02 -0.20288251617E+02  0.12483119423E+03  0.18039523330E+03  0.12509025721E+03 0.  0.
          5    1    3    3  502    0  0.48556398772E+01  0.68053240277E+01  0.13464756553E+03  0.13497158582E+03  0.41800000000E+01 0.  1.
         -5    1    3    3    0  502 -0.34862764714E+02 -0.27093575644E+02 -0.98163713046E+01  0.45423647479E+02  0.41800000000E+01 0.  1.
        -11    1    1    2    0    0  0.22960657462E+02 -0.30046478861E+01  0.10540866127E+03  0.10792222000E+03  0.00000000000E+00 0.  1.
         11    1    1    2    0    0  0.70464673741E+01  0.23292899503E+02 -0.12057513294E+02  0.27158709405E+02  0.00000000000E+00 0. -1.
</event>
<event>
 7    1  0.2900135E-009  0.1022918E+03  0.7561462E-02  0.1275549E+00
         -1   -1    0    0    0  501 -0.00000000000E+00  0.00000000000E+00  0.18145135683E+02  0.18145135683E+02  0.00000000000E+00 0.  1.
          1   -1    0    0  501    0  0.00000000000E+00 -0.00000000000E+00 -0.83724147174E+03  0.83724147174E+03  0.00000000000E+00 0. -1.
         25    2    1    2    0    0  0.52539705192E+01 -0.34470673126E+02 -0.62218297036E+03  0.63559023596E+03  0.12508983943E+03 0.  0.
          5    1    3    3  502    0 -0.46942617077E+02  0.88550813414E+01 -0.12675721105E+03  0.13552448014E+03  0.41800000000E+01 0.  1.
         -5    1    3    3    0  502  0.52196587596E+02 -0.43325754467E+02 -0.49542575931E+03  0.50006575582E+03  0.41800000000E+01 0.  1.
        -11    1    1    2    0    0  0.37977500193E+02  0.11329398104E+02 -0.13567619297E+03  0.14134594130E+03  0.00000000000E+00 0.  1.
         11    1    1    2    0    0 -0.43231470712E+02  0.23141275022E+02 -0.61237172722E+02  0.78450430161E+02  0.00000000000E+00 0. -1.
</event>
<event>
 7    1  0.2970690E-009  0.1465096E+03  0.7561462E-02  0.1204829E+00
          1   -1    0    0  501    0  0.00000000000E+00  0.00000000000E+00  0.84307185679E+03  0.84307185679E+03  0.00000000000E+00 0. -1.
         -1   -1    0    0    0  501 -0.00000000000E+00 -0.00000000000E+00 -0.28714115428E+02  0.28714115428E+02  0.00000000000E+00 0.  1.
         25    2    1    2    0    0 -0.45582118519E+02  0.10158423370E+03  0.44920660318E+03  0.47940614403E+03  0.12508634027E+03 0.  0.
          5    1    3    3  502    0 -0.51746468886E+02  0.12822679328E+03  0.39545558830E+03  0.41895393813E+03  0.41800000000E+01 0. -1.
         -5    1    3    3    0  502  0.61643503679E+01 -0.26642559582E+02  0.53751014885E+02  0.60452205896E+02  0.41800000000E+01 0. -1.
        -11    1    1    2    0    0  0.47379846164E+02 -0.31466968663E+02  0.25883931435E+03  0.26501473656E+03  0.00000000000E+00 0.  1.
         11    1    1    2    0    0 -0.17977276453E+01 -0.70117265039E+02  0.10631182383E+03  0.12736509163E+03  0.00000000000E+00 0. -1.
</event>
<event>
 7    1  0.2900135E-009  0.8523592E+02  0.7561462E-02  0.1314817E+00
          3   -1    0    0  501    0  0.00000000000E+00  0.00000000000E+00  0.35854776846E+03  0.35854776846E+03  0.00000000000E+00 0. -1.
         -3   -1    0    0    0  501 -0.00000000000E+00 -0.00000000000E+00 -0.46955001241E+02  0.46955001241E+02  0.00000000000E+00 0.  1.
         25    2    1    2    0    0 -0.16000431896E+02 -0.63505350498E+02  0.13083559320E+03  0.19249565072E+03  0.12509068604E+03 0.  0.
          5    1    3    3  502    0 -0.77178864675E+01 -0.16336551774E+02  0.14194894956E+03  0.14315524921E+03  0.41800000000E+01 0.  1.
         -5    1    3    3    0  502 -0.82825454282E+01 -0.47168798724E+02 -0.11113356352E+02  0.49340401511E+02  0.41800000000E+01 0.  1.
        -11    1    1    2    0    0  0.48337292147E+02  0.47513000441E+02  0.74142609352E+02  0.10045449489E+03  0.00000000000E+00 0. -1.
         11    1    1    2    0    0 -0.32336860252E+02  0.15992350057E+02  0.10661456466E+03  0.11255262409E+03  0.00000000000E+00 0.  1.
</event>
<event>
 7    1  0.2900135E-009  0.9744511E+02  0.7561462E-02  0.1285762E+00
          2   -1    0    0  501    0  0.00000000000E+00  0.00000000000E+00  0.11665115767E+03  0.11665115767E+03  0.00000000000E+00 0. -1.
         -2   -1    0    0    0  501 -0.00000000000E+00 -0.00000000000E+00 -0.17650698470E+03  0.17650698470E+03  0.00000000000E+00 0.  1.
         25    2    1    2    0    0 -0.11305780444E+02 -0.76600081199E+02 -0.85213291386E+02  0.17001386590E+03  0.12509203195E+03 0.  0.
          5    1    3    3  502    0 -0.25394265966E+02 -0.90522244715E+02 -0.10548624679E+03  0.14136465680E+03  0.41800000000E+01 0. -1.
         -5    1    3    3    0  502  0.14088485522E+02  0.13922163516E+02  0.20272955399E+02  0.28649209097E+02  0.41800000000E+01 0. -1.
        -11    1    1    2    0    0 -0.61372668157E+01  0.33213973005E+02 -0.33768914074E+02  0.47761633185E+02  0.00000000000E+00 0.  1.
         11    1    1    2    0    0  0.17443047260E+02  0.43386108194E+02  0.59126378429E+02  0.75382643281E+02  0.00000000000E+00 0. -1.
</event>
<event>
 7    1  0.2900135E-009  0.9827557E+02  0.7561462E-02  0.1283965E+00
          4   -1    0    0  501    0  0.00000000000E+00  0.00000000000E+00  0.82241461086E+03  0.82241461086E+03  0.00000000000E+00 0. -1.
         -4   -1    0    0    0  501 -0.00000000000E+00 -0.00000000000E+00 -0.42725840752E+02  0.42725840752E+02  0.00000000000E+00 0.  1.
         25    2    1    2    0    0 -0.32790237035E+02 -0.56958356219E+02  0.73046011623E+03  0.74400177381E+03  0.12508878462E+03 0.  0.
          5    1    3    3  502    0 -0.28274953030E+02 -0.84604870852E+02  0.68238690291E+03  0.68820550333E+03  0.41800000000E+01 0.  1.
         -5    1    3    3    0  502 -0.45152840050E+01  0.27646514633E+02  0.48073213314E+02  0.55796270478E+02  0.41800000000E+01 0.  1.
        -11    1    1    2    0    0  0.58972423450E+01  0.51052383292E+02 -0.13069082673E+02  0.53027579890E+02  0.00000000000E+00 0.  1.
         11    1    1    2    0    0  0.26892994690E+02  0.59059729266E+01  0.62297736551E+02  0.68111097913E+02  0.00000000000E+00 0. -1.
</event>
<event>
 7    1  0.2900135E-009  0.1456664E+03  0.7561462E-02  0.1205902E+00
          1   -1    0    0  501    0  0.00000000000E+00  0.00000000000E+00  0.34399137211E+03  0.34399137211E+03  0.00000000000E+00 0. -1.
         -1   -1    0    0    0  501 -0.00000000000E+00 -0.00000000000E+00 -0.93788027608E+02  0.93788027608E+02  0.00000000000E+00 0.  1.
         25    2    1    2    0    0 -0.99037249593E+02  0.39648590182E+02  0.24029589490E+03  0.29115215500E+03  0.12508825983E+03 0.  0.
          5    1    3    3  502    0  0.15589008043E+02  0.43505836066E+02  0.97281594163E+02  0.10778198322E+03  0.41800000000E+01 0. -1.
         -5    1    3    3    0  502 -0.11462625764E+03 -0.38572458837E+01  0.14301430074E+03  0.18337017179E+03  0.41800000000E+01 0. -1.
        -11    1    1    2    0    0 -0.46771346207E+00  0.16098614703E+02  0.26858905393E+02  0.31317486332E+02  0.00000000000E+00 0. -1.
         11    1    1    2    0    0  0.99504963055E+02 -0.55747204885E+02 -0.16951455791E+02  0.11530975838E+03  0.00000000000E+00 0.  1.
</event>
<event>
 7    1  0.2900135E-009  0.1145925E+03  0.7561462E-02  0.1252294E+00
          1   -1    0    0  501    0  0.00000000000E+00  0.00000000000E+00  0.49765581091E+03  0.49765581091E+03  0.00000000000E+00 0. -1.
         -1   -1    0    0    0  501 -0.00000000000E+00 -0.00000000000E+00 -0.43556424606E+02  0.43556424606E+02  0.00000000000E+00 0.  1.
         25    2    1    2    0    0  0.44159531815E+02 -0.63897514730E+02  0.34905804974E+03  0.37884234141E+03  0.12508813262E+03 0.  0.
          5    1    3    3  502    0  0.48270166825E+02 -0.77404593968E+01  0.36312577926E+02  0.61040965201E+02  0.41800000000E+01 0.  1.
         -5    1    3    3    0  502 -0.41106350097E+01 -0.56157055333E+02  0.31274547181E+03  0.31780137621E+03  0.41800000000E+01 0.  1.
        -11    1    1    2    0    0  0.25572286669E+02 -0.45177471404E+01  0.25480164325E+02  0.36381185504E+02  0.00000000000E+00 0.  1.
         11    1    1    2    0    0 -0.69731818484E+02  0.68415261870E+02  0.79561172238E+02  0.12598870860E+03  0.00000000000E+00 0. -1.
</event>
<event>
 7    1  0.2900135E-009  0.1676987E+03  0.7561462E-02  0.1180269E+00
          2   -1    0    0  501    0  0.00000000000E+00  0.00000000000E+00  0.12577112117E+03  0.12577112117E+03  0.00000000000E+00 0. -1.
         -2   -1    0    0    0  501 -0.00000000000E+00 -0.00000000000E+00 -0.24984382135E+03  0.24984382135E+03  0.00000000000E+00 0.  1.
         25    2    1    2    0    0  0.14173727239E+03 -0.15456517835E+02 -0.87027486365E+02  0.20868893118E+03  0.12509567652E+03 0.  0.
          5    1    3    3  502    0  0.13274994302E+03  0.23861269940E+02 -0.29205248612E+02  0.13806638447E+03  0.41800000000E+01 0.  1.
         -5    1    3    3    0  502  0.89873293737E+01 -0.39317787775E+02 -0.57822237753E+02  0.70622546708E+02  0.41800000000E+01 0.  1.
        -11    1    1    2    0    0 -0.13777530702E+03 -0.61773752486E+01 -0.42410466667E+02  0.14428736214E+03  0.00000000000E+00 0.  1.
         11    1    1    2    0    0 -0.39619653690E+01  0.21633893084E+02  0.53652528575E+01  0.22638649204E+02  0.00000000000E+00 0. -1.
</event>
<event>
 7    1  0.2900135E-009  0.1653960E+03  0.7561462E-02  0.1182736E+00
          2   -1    0    0  501    0  0.00000000000E+00  0.00000000000E+00  0.71997925904E+03  0.71997925904E+03  0.00000000000E+00 0. -1.
         -2   -1    0    0    0  501 -0.00000000000E+00 -0.00000000000E+00 -0.66183650731E+02  0.66183650731E+02  0.00000000000E+00 0.  1.
         25    2    1    2    0    0 -0.90942885622E+02  0.93487079308E+02  0.58573760907E+03  0.61298078278E+03  0.12508577433E+03 0.  0.
          5    1    3    3  502    0  0.23219079956E+02  0.53600223785E+02  0.22468769376E+03  0.23219418983E+03  0.41800000000E+01 0.  1.
         -5    1    3    3    0  502 -0.11416196558E+03  0.39886855523E+02  0.36104991531E+03  0.38078659296E+03  0.41800000000E+01 0.  1.
        -11    1    1    2    0    0  0.33754252370E+02 -0.87429749904E+02  0.67800716783E+02  0.11567302156E+03  0.00000000000E+00 0. -1.
         11    1    1    2    0    0  0.57188633252E+02 -0.60573294035E+01  0.25728246049E+00  0.57509105426E+02  0.00000000000E+00 0.  1.
</event>
<event>
 7    1  0.2900135E-009  0.1520461E+03  0.7561462E-02  0.1197981E+00
         -2   -1    0    0    0  501 -0.00000000000E+00  0.00000000000E+00  0.37342550096E+02  0.37342550096E+02  0.00000000000E+00 0.  1.
          2   -1    0    0  501    0  0.00000000000E+00 -0.00000000000E+00 -0.74860850527E+03  0.74860850527E+03  0.00000000000E+00 0. -1.
         25    2    1    2    0    0 -0.89265093102E+02 -0.54905119886E+02 -0.52514012637E+03  0.54991154193E+03  0.12509085734E+03 0.  0.
          5    1    3    3  502    0 -0.15429354456E+02  0.37399830440E+02 -0.19572108554E+03  0.19990254631E+03  0.41800000000E+01 0. -1.
         -5    1    3    3    0  502 -0.73835738646E+02 -0.92304950326E+02 -0.32941904083E+03  0.35000899563E+03  0.41800000000E+01 0. -1.
        -11    1    1    2    0    0  0.11046880305E+02 -0.28639977985E+02 -0.40931202146E+02  0.51162928108E+02  0.00000000000E+00 0. -1.
         11    1    1    2    0    0  0.78218212798E+02  0.83545097871E+02 -0.14519462666E+03  0.18487658533E+03  0.00000000000E+00 0.  1.
</event>
<event>
 7    1  0.2900135E-009  0.1314020E+03  0.7561462E-02  0.1225390E+00
         -2   -1    0    0    0  501 -0.00000000000E+00  0.00000000000E+00  0.43686278905E+02  0.43686278905E+02  0.00000000000E+00 0. -1.
          2   -1    0    0  501    0  0.00000000000E+00 -0.00000000000E+00 -0.40374772985E+03  0.40374772985E+03  0.00000000000E+00 0.  1.
         25    2    1    2    0    0 -0.41878703809E+02  0.60007040154E+02 -0.16666462108E+03  0.22085570102E+03  0.12508186940E+03 0.  0.
          5    1    3    3  502    0 -0.81679313538E+02  0.64944514820E+02 -0.12475173275E+03  0.16269532104E+03  0.41800000000E+01 0.  1.
         -5    1    3    3    0  502  0.39800609730E+02 -0.49374746666E+01 -0.41912888336E+02  0.58160379981E+02  0.41800000000E+01 0.  1.
        -11    1    1    2    0    0  0.69592952022E+02 -0.26273094077E+02 -0.12113582361E+03  0.14215253148E+03  0.00000000000E+00 0.  1.
         11    1    1    2    0    0 -0.27714248214E+02 -0.33733946076E+02 -0.72261006255E+02  0.84425776259E+02  0.00000000000E+00 0. -1.
</event>
<event>
 7    1  0.2900135E-009  0.1107406E+03  0.7561462E-02  0.1259205E+00
          1   -1    0    0  501    0  0.00000000000E+00  0.00000000000E+00  0.38598908973E+02  0.38598908973E+02  0.00000000000E+00 0. -1.
         -1   -1    0    0    0  501 -0.00000000000E+00 -0.00000000000E+00 -0.39990232208E+03  0.39990232208E+03  0.00000000000E+00 0.  1.
         25    2    1    2    0    0 -0.57768768459E+02  0.31281547513E+01 -0.23844818440E+03  0.27541085258E+03  0.12508631066E+03 0.  0.
          5    1    3    3  502    0 -0.28137406403E+02 -0.49988932760E+02 -0.46341538892E+02  0.73862153126E+02  0.41800000000E+01 0.  1.
         -5    1    3    3    0  502 -0.29631362056E+02  0.53117087511E+02 -0.19210664551E+03  0.20154869946E+03  0.41800000000E+01 0.  1.
        -11    1    1    2    0    0 -0.11189820382E+01 -0.35690350057E+02 -0.22307599743E+02  0.42103232825E+02  0.00000000000E+00 0. -1.
         11    1    1    2    0    0  0.58887750498E+02  0.32562195306E+02 -0.10054762896E+03  0.12098714565E+03  0.00000000000E+00 0.  1.
</event>
<event>
 7    1  0.2900135E-009  0.1627302E+03  0.7561462E-02  0.1185648E+00
         -2   -1    0    0    0  501 -0.00000000000E+00  0.00000000000E+00  0.13737337983E+03  0.13737337983E+03  0.00000000000E+00 0.  1.
          2   -1    0    0  501    0  0.00000000000E+00 -0.00000000000E+00 -0.37482756628E+03  0.37482756628E+03  0.00000000000E+00 0. -1.
         25    2    1    2    0    0 -0.92411119557E+02 -0.96466198896E+02  0.43615709337E+02  0.18813938284E+03  0.12509418342E+03 0.  0.
          5    1    3    3  502    0 -0.99353310008E+02 -0.11805857835E+03  0.53052440131E+02  0.16322053160E+03  0.41800000000E+01 0. -1.
         -5    1    3    3    0  502  0.69421904509E+01  0.21592379457E+02 -0.94367307943E+01  0.24918851237E+02  0.41800000000E+01 0. -1.
        -11    1    1    2    0    0  0.97264142595E+02  0.66835116578E+02 -0.15698985920E+03  0.19640026002E+03  0.00000000000E+00 0.  1.
         11    1    1    2    0    0 -0.48530230379E+01  0.29631082318E+02 -0.12408003658E+03  0.12766130326E+03  0.00000000000E+00 0. -1.
</event>
<event>
 7    1  0.2900135E-009  0.8256001E+02  0.7561462E-02  0.1321940E+00
         -1   -1    0    0    0  501 -0.00000000000E+00  0.00000000000E+00  0.56799530019E+02  0.56799530019E+02  0.00000000000E+00 0.  1.
          1   -1    0    0  501    0  0.00000000000E+00 -0.00000000000E+00 -0.22226557229E+03  0.22226557229E+03  0.00000000000E+00 0. -1.
         25    2    1    2    0    0 -0.92064751454E+01 -0.10224987828E+01 -0.11670543384E+03  0.17132967738E+03  0.12509154798E+03 0.  0.
          5    1    3    3  502    0  0.16234718971E+02  0.36917753570E+02  0.53891919188E+01  0.40902352234E+02  0.41800000000E+01 0. -1.
         -5    1    3    3    0  502 -0.25441194117E+02 -0.37940252353E+02 -0.12209462576E+03  0.13042732515E+03  0.41800000000E+01 0. -1.
        -11    1    1    2    0    0  0.53238044562E+01 -0.38562295776E+02  0.66858621378E+01  0.39498029089E+02  0.00000000000E+00 0.  1.
         11    1    1    2    0    0  0.38826706892E+01  0.39584794558E+02 -0.55446470568E+02  0.68237395835E+02  0.00000000000E+00 0. -1.
</event>
<event>
 7    1  0.2900135E-009  0.3929188E+03  0.7561462E-02  0.1046260E+00
         -2   -1    0    0    0  501 -0.00000000000E+00  0.00000000000E+00  0.24529390010E+03  0.24529390010E+03  0.00000000000E+00 0.  1.
          2   -1    0    0  501    0  0.00000000000E+00 -0.00000000000E+00 -0.65359993076E+03  0.65359993076E+03  0.00000000000E+00 0. -1.
         25    2    1    2    0    0  0.24226083740E+03 -0.29935865920E+03 -0.21824091552E+03  0.45997930785E+03  0.12508375703E+03 0.  0.
          5    1    3    3  502    0  0.95508441725E+02 -0.18082123758E+03 -0.16806609014E+03  0.26472979707E+03  0.41800000000E+01 0. -1.
         -5    1    3    3    0  502  0.14675239567E+03 -0.11853742162E+03 -0.50174825376E+02  0.19524951078E+03  0.41800000000E+01 0. -1.
        -11    1    1    2    0    0 -0.16850946920E+03  0.25770016330E+03 -0.17058390920E+03  0.35199955320E+03  0.00000000000E+00 0. -1.
         11    1    1    2    0    0 -0.73751368200E+02  0.41658495897E+02 -0.19481205949E+02  0.86914969809E+02  0.00000000000E+00 0.  1.
</event>
<event>
 7    1  0.2900135E-009  0.1205834E+03  0.7561462E-02  0.1242138E+00
         -1   -1    0    0    0  501 -0.00000000000E+00  0.00000000000E+00  0.18464746622E+02  0.18464746622E+02  0.00000000000E+00 0.  1.
          1   -1    0    0  501    0  0.00000000000E+00 -0.00000000000E+00 -0.91243030143E+03  0.91243030143E+03  0.00000000000E+00 0. -1.
         25    2    1    2    0    0 -0.36987380582E+02  0.12265289103E+02 -0.33623037379E+03  0.36085584543E+03  0.12509026057E+03 0.  0.
          5    1    3    3  502    0 -0.76490146036E+02  0.26826371899E+02 -0.15747133241E+03  0.17715837434E+03  0.41800000000E+01 0. -1.
         -5    1    3    3    0  502  0.39502765454E+02 -0.14561082796E+02 -0.17875904138E+03  0.18369747109E+03  0.41800000000E+01 0. -1.
        -11    1    1    2    0    0 -0.78105441715E+00  0.47222283372E+02 -0.23564882358E+03  0.24033502064E+03  0.00000000000E+00 0. -1.
         11    1    1    2    0    0  0.37768434999E+02 -0.59487572474E+02 -0.32208635745E+03  0.32970418198E+03  0.00000000000E+00 0.  1.
</event>
<event>
 7    1  0.2900135E-009  0.1078989E+03  0.7561462E-02  0.1264511E+00
          2   -1    0    0  501    0  0.00000000000E+00  0.00000000000E+00  0.20099334167E+04  0.20099334167E+04  0.00000000000E+00 0. -1.
         -2   -1    0    0    0  501 -0.00000000000E+00 -0.00000000000E+00 -0.10349202665E+02  0.10349202665E+02  0.00000000000E+00 0.  1.
         25    2    1    2    0    0  0.16978608094E+02 -0.61463763331E+02  0.15808333631E+04  0.15870563263E+04  0.12509034215E+03 0.  0.
          5    1    3    3  502    0 -0.25325627125E+02  0.47065283673E+01  0.79690286489E+02  0.83854355636E+02  0.41800000000E+01 0. -1.
         -5    1    3    3    0  502  0.42304235219E+02 -0.66170291698E+02  0.15011430766E+04  0.15032019707E+04  0.41800000000E+01 0. -1.
        -11    1    1    2    0    0  0.16845837052E+02  0.73304901762E+02  0.28382354292E+03  0.29362083435E+03  0.00000000000E+00 0.  1.
         11    1    1    2    0    0 -0.33824445146E+02 -0.11841138431E+02  0.13492730806E+03  0.13960545873E+03  0.00000000000E+00 0. -1.
</event>
<event>
 7    1  0.2900135E-009  0.1253975E+03  0.7561462E-02  0.1234449E+00
         -1   -1    0    0    0  501 -0.00000000000E+00  0.00000000000E+00  0.36887105202E+02  0.36887105202E+02  0.00000000000E+00 0.  1.
          1   -1    0    0  501    0  0.00000000000E+00 -0.00000000000E+00 -0.58566797400E+03  0.58566797400E+03  0.00000000000E+00 0. -1.
         25    2    1    2    0    0  0.51853177621E+02  0.82008759696E+02 -0.34094325676E+03  0.37590391415E+03  0.12508900688E+03 0.  0.
          5    1    3    3  502    0  0.43269314488E+02  0.10798042750E+03 -0.19292134371E+03  0.22531782787E+03  0.41800000000E+01 0. -1.
         -5    1    3    3    0  502  0.85838631331E+01 -0.25971667806E+02 -0.14802191305E+03  0.15058608627E+03  0.41800000000E+01 0. -1.
        -11    1    1    2    0    0 -0.60067436741E+02 -0.72796091947E+02 -0.21322890332E+03  0.23318218879E+03  0.00000000000E+00 0. -1.
         11    1    1    2    0    0  0.82142591203E+01 -0.92126677489E+01  0.53912912806E+01  0.13468976265E+02  0.00000000000E+00 0.  1.
</event>
<event>
 7    1  0.2900135E-009  0.8317973E+02  0.7561462E-02  0.1320263E+00
         -1   -1    0    0    0  501 -0.00000000000E+00  0.00000000000E+00  0.21706541193E+02  0.21706541193E+02  0.00000000000E+00 0.  1.
          1   -1    0    0  501    0  0.00000000000E+00 -0.00000000000E+00 -0.73497706392E+03  0.73497706392E+03  0.00000000000E+00 0. -1.
         25    2    1    2    0    0 -0.48317904914E+01  0.48484081338E+02 -0.52560503524E+03  0.54249124817E+03  0.12514810798E+03 0.  0.
          5    1    3    3  502    0 -0.20620975026E+02  0.74958200262E+01 -0.47428838181E+03  0.47481401985E+03  0.41800000000E+01 0.  1.
         -5    1    3    3    0  502  0.15789184534E+02  0.40988261312E+02 -0.51316653432E+02  0.67677228320E+02  0.41800000000E+01 0.  1.
        -11    1    1    2    0    0 -0.38145486336E+02 -0.41486528786E+02 -0.13193723311E+03  0.14347000969E+03  0.00000000000E+00 0.  1.
         11    1    1    2    0    0  0.42977276828E+02 -0.69975525517E+01 -0.55728254370E+02  0.70722347249E+02  0.00000000000E+00 0. -1.
</event>
<event>
 7    1  0.2900135E-009  0.7798178E+02  0.7561462E-02  0.1334878E+00
          1   -1    0    0  501    0  0.00000000000E+00  0.00000000000E+00  0.31771277120E+03  0.31771277120E+03  0.00000000000E+00 0. -1.
         -1   -1    0    0    0  501 -0.00000000000E+00 -0.00000000000E+00 -0.50179862537E+02  0.50179862537E+02  0.00000000000E+00 0.  1.
         25    2    1    2    0    0  0.45962621860E+02  0.42878217727E+02  0.18051077745E+03  0.22843451067E+03  0.12508829172E+03 0.  0.
          5    1    3    3  502    0  0.42679436367E+02  0.55096519458E+02  0.27809783324E+02  0.75153291302E+02  0.41800000000E+01 0.  1.
         -5    1    3    3    0  502  0.32831854930E+01 -0.12218301731E+02  0.15270099413E+03  0.15328121937E+03  0.41800000000E+01 0.  1.
        -11    1    1    2    0    0 -0.47714685995E+02 -0.23184537567E+02  0.10178727907E+03  0.11478181138E+03  0.00000000000E+00 0. -1.
         11    1    1    2    0    0  0.17520641347E+01 -0.19693680159E+02 -0.14765147864E+02  0.24676311685E+02  0.00000000000E+00 0.  1.
</event>
<event>
 7    1  0.2900135E-009  0.2128299E+03  0.7561462E-02  0.1139344E+00
          2   -1    0    0  501    0  0.00000000000E+00  0.00000000000E+00  0.31266457756E+03  0.31266457756E+03  0.00000000000E+00 0. -1.
         -2   -1    0    0    0  501 -0.00000000000E+00 -0.00000000000E+00 -0.16010222323E+03  0.16010222323E+03  0.00000000000E+00 0.  1.
         25    2    1    2    0    0  0.52149780503E+02  0.18716982897E+03  0.97698610640E+02  0.25088708315E+03  0.12508863053E+03 0.  0.
          5    1    3    3  502    0  0.85035296659E+02  0.14344048467E+03  0.10253753045E+03  0.19579987710E+03  0.41800000000E+01 0.  1.
         -5    1    3    3    0  502 -0.32885516156E+02  0.43729344294E+02 -0.48389198128E+01  0.55087206048E+02  0.41800000000E+01 0.  1.
        -11    1    1    2    0    0 -0.12269955575E+02  0.34282084103E+00 -0.13594997110E+02  0.18316475708E+02  0.00000000000E+00 0.  1.
         11    1    1    2    0    0 -0.39879824928E+02 -0.18751264981E+03  0.68458740802E+02  0.20356324194E+03  0.00000000000E+00 0. -1.
</event>
<event>
 7    1  0.2900135E-009  0.1092987E+03  0.7561462E-02  0.1261874E+00
          3   -1    0    0  501    0  0.00000000000E+00  0.00000000000E+00  0.10489984670E+03  0.10489984670E+03  0.00000000000E+00 0. -1.
         -3   -1    0    0    0  501 -0.00000000000E+00 -0.00000000000E+00 -0.16136981467E+03  0.16136981467E+03  0.00000000000E+00 0.  1.
         25    2    1    2    0    0  0.61527794947E+02  0.36342291929E+02 -0.17298609523E+02  0.14509458668E+03  0.12508703153E+03 0.  0.
          5    1    3    3  502    0  0.89394141689E+02  0.15443727992E+02  0.20943595634E+02  0.93198325632E+02  0.41800000000E+01 0.  1.
         -5    1    3    3    0  502 -0.27866346741E+02  0.20898563937E+02 -0.38242205157E+02  0.51896261046E+02  0.41800000000E+01 0.  1.
        -11    1    1    2    0    0 -0.64044290424E+02 -0.48467709367E+02 -0.57696264262E+02  0.98892107355E+02  0.00000000000E+00 0.  1.
         11    1    1    2    0    0  0.25164954766E+01  0.12125417438E+02  0.18524905824E+02  0.22282967337E+02  0.00000000000E+00 0. -1.
</event>
<event>
 7    1  0.2900135E-009  0.1412851E+03  0.7561462E-02  0.1211610E+00
         -1   -1    0    0    0  501 -0.00000000000E+00  0.00000000000E+00  0.25825817515E+03  0.25825817515E+03  0.00000000000E+00 0.  1.
          1   -1    0    0  501    0  0.00000000000E+00 -0.00000000000E+00 -0.14069204240E+03  0.14069204240E+03  0.00000000000E+00 0. -1.
         25    2    1    2    0    0  0.20765731964E+02  0.13500937638E+03  0.14270637191E+03  0.23381922415E+03  0.12509026206E+03 0.  0.
          5    1    3    3  502    0 -0.11607370065E+02  0.85639975557E+02  0.82538266131E+01  0.86916825224E+02  0.41800000000E+01 0.  1.
         -5    1    3    3    0  502  0.32373102029E+02  0.49369400820E+02  0.13445254530E+03  0.14690239893E+03  0.41800000000E+01 0.  1.
        -11    1    1    2    0    0 -0.13933290993E+02 -0.62667517972E+02 -0.56942480131E+02  0.85812589112E+02  0.00000000000E+00 0. -1.
         11    1    1    2    0    0 -0.68324409711E+01 -0.72341858405E+02  0.31802240971E+02  0.79318404282E+02  0.00000000000E+00 0.  1.
</event>
<event>
 7    1  0.2900135E-009  0.1751021E+03  0.7561462E-02  0.1172629E+00
          1   -1    0    0  501    0  0.00000000000E+00  0.00000000000E+00  0.87485182540E+03  0.87485182540E+03  0.00000000000E+00 0. -1.
         -1   -1    0    0    0  501 -0.00000000000E+00 -0.00000000000E+00 -0.45683549181E+02  0.45683549181E+02  0.00000000000E+00 0.  1.
         25    2    1    2    0    0  0.10942332614E+03  0.11725595290E+03  0.53766174052E+03  0.57483859130E+03  0.12504733519E+03 0.  0.
          5    1    3    3  502    0 -0.15916711579E+02 -0.21716539767E+01  0.97571923816E+01  0.19254427845E+02  0.41800000000E+01 0.  1.
         -5    1    3    3    0  502  0.12534003772E+03  0.11942760688E+03  0.52790454814E+03  0.55558416346E+03  0.41800000000E+01 0.  1.
        -11    1    1    2    0    0 -0.36338068461E+02 -0.36334286934E+02  0.23791661189E+02  0.56627544257E+02  0.00000000000E+00 0. -1.
         11    1    1    2    0    0 -0.73085257682E+02 -0.80921665970E+02  0.26771487451E+03  0.28906923902E+03  0.00000000000E+00 0.  1.
</event>
<event>
 7    1  0.2900135E-009  0.1426862E+03  0.7561462E-02  0.1209760E+00
          1   -1    0    0  501    0  0.00000000000E+00  0.00000000000E+00  0.17273007790E+02  0.17273007790E+02  0.00000000000E+00 0. -1.
         -1   -1    0    0    0  501 -0.00000000000E+00 -0.00000000000E+00 -0.13243733090E+04  0.13243733090E+04  0.00000000000E+00 0.  1.
         25    2    1    2    0    0  0.37401454957E+02  0.79328986138E+02 -0.53598473836E+03  0.55732842870E+03  0.12507350158E+03 0.  0.
          5    1    3    3  502    0  0.55805886538E+02  0.10003765675E+03 -0.49200890969E+03  0.50518518323E+03  0.41800000000E+01 0.  1.
         -5    1    3    3    0  502 -0.18404431581E+02 -0.20708670608E+02 -0.43975828669E+02  0.52143245462E+02  0.41800000000E+01 0.  1.
        -11    1    1    2    0    0 -0.38105296396E+02  0.20245664916E+02 -0.20209574208E+03  0.20665088804E+03  0.00000000000E+00 0. -1.
         11    1    1    2    0    0  0.70384143858E+00 -0.99574651054E+02 -0.56901982073E+03  0.57766700002E+03  0.00000000000E+00 0.  1.
</event>
<event>
 7    1  0.2900135E-009  0.1297949E+03  0.7561462E-02  0.1227760E+00
         -1   -1    0    0    0  501 -0.00000000000E+00  0.00000000000E+00  0.82077477687E+03  0.82077477687E+03  0.00000000000E+00 0.  1.
          1   -1    0    0  501    0  0.00000000000E+00 -0.00000000000E+00 -0.31734838319E+02  0.31734838319E+02  0.00000000000E+00 0. -1.
         25    2    1    2    0    0  0.11821726568E+03 -0.40051773873E+01  0.37819768807E+03  0.41553977935E+03  0.12509377925E+03 0.  0.
          5    1    3    3  502    0  0.96313138384E+02 -0.15007066632E+02  0.11347236971E+03  0.14964920235E+03  0.41800000000E+01 0.  1.
         -5    1    3    3    0  502  0.21904127300E+02  0.11001889244E+02  0.26472531836E+03  0.26589057700E+03  0.41800000000E+01 0.  1.
        -11    1    1    2    0    0 -0.55103783796E+02  0.36574850211E+02  0.28398451562E+03  0.29158421043E+03  0.00000000000E+00 0.  1.
         11    1    1    2    0    0 -0.63113481887E+02 -0.32569672824E+02  0.12685773486E+03  0.14538562541E+03  0.00000000000E+00 0. -1.
</event>
<event>
 7    1  0.2900135E-009  0.8971215E+02  0.7561462E-02  0.1303550E+00
         -2   -1    0    0    0  501 -0.00000000000E+00  0.00000000000E+00  0.61804040800E+02  0.61804040800E+02  0.00000000000E+00 0.  1.
          2   -1    0    0  501    0  0.00000000000E+00 -0.00000000000E+00 -0.31716635770E+03  0.31716635770E+03  0.00000000000E+00 0. -1.
         25    2    1    2    0    0  0.43688561455E+02 -0.62600982727E+02 -0.19645036734E+03  0.24508677839E+03  0.12508880314E+03 0.  0.
          5    1    3    3  502    0  0.55250432761E+01 -0.35211068051E+02 -0.19460905037E+03  0.19789012179E+03  0.41800000000E+01 0. -1.
         -5    1    3    3    0  502  0.38163518179E+02 -0.27389914676E+02 -0.18413169706E+01  0.47196656597E+02  0.41800000000E+01 0. -1.
        -11    1    1    2    0    0  0.86112792346E+01 -0.57189740636E+01 -0.45676350241E+02  0.46831503988E+02  0.00000000000E+00 0. -1.
         11    1    1    2    0    0 -0.52299840689E+02  0.68319956790E+02 -0.13235599314E+02  0.87052116121E+02  0.00000000000E+00 0.  1.
</event>
<event>
 7    1  0.2900135E-009  0.1185377E+03  0.7561462E-02  0.1245529E+00
          3   -1    0    0  501    0  0.00000000000E+00  0.00000000000E+00  0.19250258960E+03  0.19250258960E+03  0.00000000000E+00 0. -1.
         -3   -1    0    0    0  501 -0.00000000000E+00 -0.00000000000E+00 -0.11284294519E+03  0.11284294519E+03  0.00000000000E+00 0.  1.
         25    2    1    2    0    0  0.76806720637E+01 -0.63718842836E+02 -0.34699582731E+02  0.14480919417E+03  0.12508620235E+03 0.  0.
          5    1    3    3  502    0  0.11099421857E+02 -0.10129779843E+03 -0.19092582152E+02  0.10376145829E+03  0.41800000000E+01 0. -1.
         -5    1    3    3    0  502 -0.34187497930E+01  0.37578955595E+02 -0.15607000579E+02  0.41047735879E+02  0.41800000000E+01 0. -1.
        -11    1    1    2    0    0  0.31703186342E+02  0.16854274338E+02  0.64599010176E+01  0.36481350151E+02  0.00000000000E+00 0.  1.
         11    1    1    2    0    0 -0.39383858405E+02  0.46864568498E+02  0.10789932613E+03  0.12405499048E+03  0.00000000000E+00 0. -1.
</event>
<event>
 7    1  0.2900135E-009  0.1119134E+03  0.7561462E-02  0.1257067E+00
         -1   -1    0    0    0  501 -0.00000000000E+00  0.00000000000E+00  0.41169100867E+02  0.41169100867E+02  0.00000000000E+00 0.  1.
          1   -1    0    0  501    0  0.00000000000E+00 -0.00000000000E+00 -0.32736396277E+03  0.32736396277E+03  0.00000000000E+00 0. -1.
         25    2    1    2    0    0 -0.14817546328E+02 -0.27250760406E+02 -0.20248912912E+03  0.24002853590E+03  0.12509870906E+03 0.  0.
          5    1    3    3  502    0 -0.62051238475E+02 -0.44849274165E+02 -0.14012824685E+03  0.15973481636E+03  0.41800000000E+01 0.  1.
         -5    1    3    3    0  502  0.47233692146E+02  0.17598513759E+02 -0.62360882270E+02  0.80293719541E+02  0.41800000000E+01 0.  1.
        -11    1    1    2    0    0 -0.38411255372E+02  0.44617778417E+01 -0.42360520313E+02  0.57356304640E+02  0.00000000000E+00 0.  1.
         11    1    1    2    0    0  0.53228801700E+02  0.22788982564E+02 -0.41345212464E+02  0.71148223101E+02  0.00000000000E+00 0. -1.
</event>
<event>
 7    1  0.2900135E-009  0.1566510E+03  0.7561462E-02  0.1192531E+00
         -1   -1    0    0    0  501 -0.00000000000E+00  0.00000000000E+00  0.64401689149E+02  0.64401689149E+02  0.00000000000E+00 0.  1.
          1   -1    0    0  501    0  0.00000000000E+00 -0.00000000000E+00 -0.39702152040E+03  0.39702152040E+03  0.00000000000E+00 0. -1.
         25    2    1    2    0    0  0.63954301327E+02  0.94557304327E+02 -0.21944473179E+03  0.27719026878E+03  0.12508884176E+03 0.  0.
          5    1    3    3  502    0 -0.10893209909E+02  0.93275919901E+02 -0.11293467283E+03  0.14693798686E+03  0.41800000000E+01 0. -1.
         -5    1    3    3    0  502  0.74847511236E+02  0.12813844256E+01 -0.10651005896E+03  0.13025228191E+03  0.41800000000E+01 0. -1.
        -11    1    1    2    0    0 -0.58143902478E+01 -0.85244950898E+02 -0.77710397266E+02  0.11549638363E+03  0.00000000000E+00 0.  1.
         11    1    1    2    0    0 -0.58139911079E+02 -0.93123534294E+01 -0.35464702192E+02  0.68736557146E+02  0.00000000000E+00 0. -1.
</event>
<event>
 7    1  0.2900135E-009  0.2257067E+03  0.7561462E-02  0.1129699E+00
          1   -1    0    0  501    0  0.00000000000E+00  0.00000000000E+00  0.25000227744E+03  0.25000227744E+03  0.00000000000E+00 0. -1.
         -1   -1    0    0    0  501 -0.00000000000E+00 -0.00000000000E+00 -0.23652641225E+03  0.23652641225E+03  0.00000000000E+00 0.  1.
         25    2    1    2    0    0  0.16601349803E+03 -0.10929584537E+03  0.94421335356E+02  0.25311856674E+03  0.12509019511E+03 0.  0.
          5    1    3    3  502    0 -0.20609558728E+02 -0.12131006203E+02  0.72710623518E+01  0.25342769584E+02  0.41800000000E+01 0.  1.
         -5    1    3    3    0  502  0.18662305676E+03 -0.97164839168E+02  0.87150273005E+02  0.22777579716E+03  0.41800000000E+01 0.  1.
        -11    1    1    2    0    0 -0.35272730496E+02  0.72892089128E+02 -0.46553648113E+02  0.93405911627E+02  0.00000000000E+00 0. -1.
         11    1    1    2    0    0 -0.13074076754E+03  0.36403756242E+02 -0.34391822053E+02  0.14000421133E+03  0.00000000000E+00 0.  1.
</event>
<event>
 7    1  0.2900135E-009  0.1749099E+03  0.7561462E-02  0.1172822E+00
          3   -1    0    0  501    0  0.00000000000E+00  0.00000000000E+00  0.44805058688E+03  0.44805058688E+03  0.00000000000E+00 0. -1.
         -3   -1    0    0    0  501 -0.00000000000E+00 -0.00000000000E+00 -0.73738804751E+02  0.73738804751E+02  0.00000000000E+00 0.  1.
         25    2    1    2    0    0  0.16557768323E+02 -0.14412485671E+03  0.18437973915E+03  0.26586904752E+03  0.12507728894E+03 0.  0.
          5    1    3    3  502    0  0.25771715078E+02  0.70574036937E+01 -0.22197475936E+00  0.27046440020E+02  0.41800000000E+01 0. -1.
         -5    1    3    3    0  502 -0.92139467555E+01 -0.15118226040E+03  0.18460171391E+03  0.23882260750E+03  0.41800000000E+01 0. -1.
        -11    1    1    2    0    0  0.83181292934E+01  0.14606567999E+03  0.16713504728E+03  0.22212270973E+03  0.00000000000E+00 0. -1.
         11    1    1    2    0    0 -0.24875897616E+02 -0.19408232869E+01  0.22796995700E+02  0.33797634388E+02  0.00000000000E+00 0.  1.
</event>
<event>
 7    1  0.2900135E-009  0.1575561E+03  0.7561462E-02  0.1191484E+00
          1   -1    0    0  501    0  0.00000000000E+00  0.00000000000E+00  0.13777442357E+03  0.13777442357E+03  0.00000000000E+00 0. -1.
         -1   -1    0    0    0  501 -0.00000000000E+00 -0.00000000000E+00 -0.22371704375E+03  0.22371704375E+03  0.00000000000E+00 0.  1.
         25    2    1    2    0    0  0.38660384329E+02  0.12816577736E+03 -0.13841040342E+02  0.18373976967E+03  0.12509051427E+03 0.  0.
          5    1    3    3  502    0  0.67949904010E+02  0.94838256764E+02 -0.49362196446E+02  0.12675008181E+03  0.41800000000E+01 0.  1.
         -5    1    3    3    0  502 -0.29289519681E+02  0.33327520592E+02  0.35521156104E+02  0.56989687865E+02  0.41800000000E+01 0.  1.
        -11    1    1    2    0    0  0.99562178803E+01 -0.93657062780E+02 -0.71297124062E+02  0.11812726858E+03  0.00000000000E+00 0.  1.
         11    1    1    2    0    0 -0.48616602209E+02 -0.34508714575E+02 -0.80445578510E+00  0.59624429064E+02  0.00000000000E+00 0. -1.
</event>
<event>
 7    1  0.2900135E-009  0.1171842E+03  0.7561462E-02  0.1247816E+00
          2   -1    0    0  501    0  0.00000000000E+00  0.00000000000E+00  0.22738567177E+03  0.22738567177E+03  0.00000000000E+00 0. -1.
         -2   -1    0    0    0  501 -0.00000000000E+00 -0.00000000000E+00 -0.76259279757E+02  0.76259279757E+02  0.00000000000E+00 0.  1.
         25    2    1    2    0    0  0.48294841130E+02  0.25336470116E+02  0.12400045463E+03  0.18438527663E+03  0.12508992402E+03 0.  0.
          5    1    3    3  502    0  0.12517540050E+02  0.74398341354E+02  0.70808634317E+02  0.10355258132E+03  0.41800000000E+01 0.  1.
         -5    1    3    3    0  502  0.35777301080E+02 -0.49061871238E+02  0.53191820313E+02  0.80832695304E+02  0.41800000000E+01 0.  1.
        -11    1    1    2    0    0  0.85862957119E+00 -0.44996137907E+02  0.44747749768E+02  0.63464563187E+02  0.00000000000E+00 0. -1.
         11    1    1    2    0    0 -0.49153470701E+02  0.19659667791E+02 -0.17621812382E+02  0.55795111715E+02  0.00000000000E+00 0.  1.
</event>
<event>
 7    1  0.2900135E-009  0.1378684E+03  0.7561462E-02  0.1216226E+00
         -2   -1    0    0    0  501 -0.00000000000E+00  0.00000000000E+00  0.60649947808E+02  0.60649947808E+02  0.00000000000E+00 0.  1.
          2   -1    0    0  501    0  0.00000000000E+00 -0.00000000000E+00 -0.37754807043E+03  0.37754807043E+03  0.00000000000E+00 0. -1.
         25    2    1    2    0    0  0.96275144604E+02  0.24732862165E+02 -0.22281033638E+03  0.27417551604E+03  0.12508856726E+03 0.  0.
          5    1    3    3  502    0 -0.20096682572E+02  0.15142028864E+02 -0.10574745095E+03  0.10878029909E+03  0.41800000000E+01 0. -1.
         -5    1    3    3    0  502  0.11637182718E+03  0.95908333013E+01 -0.11706288543E+03  0.16539521695E+03  0.41800000000E+01 0. -1.
        -11    1    1    2    0    0  0.15561551909E+02 -0.14182635176E+02 -0.22513543688E+02  0.30824806369E+02  0.00000000000E+00 0. -1.
         11    1    1    2    0    0 -0.11183669651E+03 -0.10550226989E+02 -0.71574242553E+02  0.13319769583E+03  0.00000000000E+00 0.  1.
</event>
<event>
 7    1  0.2900135E-009  0.1612330E+03  0.7561462E-02  0.1187312E+00
          2   -1    0    0  501    0  0.00000000000E+00  0.00000000000E+00  0.25535543554E+03  0.25535543554E+03  0.00000000000E+00 0. -1.
         -2   -1    0    0    0  501 -0.00000000000E+00 -0.00000000000E+00 -0.11846406281E+03  0.11846406281E+03  0.00000000000E+00 0.  1.
         25    2    1    2    0    0  0.82917127175E+02  0.11301822068E+03  0.10331592706E+03  0.21440765608E+03  0.12509234195E+03 0.  0.
          5    1    3    3  502    0  0.30161716907E+02 -0.20700016841E+02  0.47609008948E+02  0.60185629489E+02  0.41800000000E+01 0.  1.
         -5    1    3    3    0  502  0.52755410268E+02  0.13371823752E+03  0.55706918115E+02  0.15422202659E+03  0.41800000000E+01 0.  1.
        -11    1    1    2    0    0 -0.49732698387E+02 -0.84656065385E+02  0.53064334336E+02  0.11160561937E+03  0.00000000000E+00 0. -1.
         11    1    1    2    0    0 -0.33184428787E+02 -0.28362155298E+02 -0.19488888663E+02  0.47806222905E+02  0.00000000000E+00 0.  1.
</event>
<event>
 7    1  0.2900135E-009  0.8008546E+02  0.7561462E-02  0.1328809E+00
         -3   -1    0    0    0  501 -0.00000000000E+00  0.00000000000E+00  0.71616751165E+02  0.71616751165E+02  0.00000000000E+00 0.  1.
          3   -1    0    0  501    0  0.00000000000E+00 -0.00000000000E+00 -0.21757001220E+03  0.21757001220E+03  0.00000000000E+00 0. -1.
         25    2    1    2    0    0 -0.47753762337E+02 -0.32410633659E+02 -0.54507257666E+02  0.14815146516E+03  0.12508774720E+03 0.  0.
          5    1    3    3  502    0  0.47659355974E+01 -0.12838005565E+01  0.37279315958E+02  0.37836253571E+02  0.41800000000E+01 0. -1.
         -5    1    3    3    0  502 -0.52519697934E+02 -0.31126833103E+02 -0.91786573624E+02  0.11031521159E+03  0.41800000000E+01 0. -1.
        -11    1    1    2    0    0 -0.18367268838E+02  0.16055719401E+02  0.30113838004E+01  0.24580706305E+02  0.00000000000E+00 0.  1.
         11    1    1    2    0    0  0.66121031175E+02  0.16354914258E+02 -0.94457387173E+02  0.11645459190E+03  0.00000000000E+00 0. -1.
</event>
<event>
 7    1  0.2900135E-009  0.1276883E+03  0.7561462E-02  0.1230927E+00
         -2   -1    0    0    0  501 -0.00000000000E+00  0.00000000000E+00  0.32027751539E+02  0.32027751539E+02  0.00000000000E+00 0.  1.
          2   -1    0    0  501    0  0.00000000000E+00 -0.00000000000E+00 -0.54930810633E+03  0.54930810633E+03  0.00000000000E+00 0. -1.
         25    2    1    2    0    0 -0.79500110143E+02 -0.36932093690E+01 -0.28175120254E+03  0.31837803473E+03  0.12508767149E+03 0.  0.
          5    1    3    3  502    0 -0.71960474566E+02  0.47776718387E+02 -0.22615904600E+03  0.24212870793E+03  0.41800000000E+01 0.  1.
         -5    1    3    3    0  502 -0.75396355770E+01 -0.51469927756E+02 -0.55592156545E+02  0.76249326798E+02  0.41800000000E+01 0.  1.
        -11    1    1    2    0    0  0.80438342252E+01  0.37007317252E+02 -0.69048297295E+02  0.78752220023E+02  0.00000000000E+00 0.  1.
         11    1    1    2    0    0  0.71456275918E+02 -0.33314107883E+02 -0.16648085496E+03  0.18420560312E+03  0.00000000000E+00 0. -1.
</event>
<event>
 7    1  0.2900135E-009  0.1676398E+03  0.7561462E-02  0.1180332E+00
         -2   -1    0    0    0  501 -0.00000000000E+00  0.00000000000E+00  0.48857467285E+03  0.48857467285E+03  0.00000000000E+00 0. -1.
          2   -1    0    0  501    0  0.00000000000E+00 -0.00000000000E+00 -0.12828283627E+03  0.12828283627E+03  0.00000000000E+00 0.  1.
         25    2    1    2    0    0  0.14400987200E+03 -0.42736131469E+02  0.38993178613E+03  0.43618825209E+03  0.12509265870E+03 0.  0.
          5    1    3    3  502    0  0.61682463313E+02  0.34983102938E+02  0.84326977685E+02  0.11025903744E+03  0.41800000000E+01 0.  1.
         -5    1    3    3    0  502  0.82327408685E+02 -0.77719234407E+02  0.30560480845E+03  0.32592921465E+03  0.41800000000E+01 0.  1.
        -11    1    1    2    0    0 -0.30698073755E+02  0.15599803392E+02  0.33588475221E+02  0.48103131560E+02  0.00000000000E+00 0. -1.
         11    1    1    2    0    0 -0.11331179824E+03  0.27136328077E+02 -0.63228424776E+02  0.13256612547E+03  0.00000000000E+00 0.  1.
</event>
<event>
 7    1  0.3226812E-009  0.1298100E+03  0.7561462E-02  0.1227738E+00
          1   -1    0    0  501    0  0.00000000000E+00  0.00000000000E+00  0.68599566669E+03  0.68599566669E+03  0.00000000000E+00 0. -1.
         -1   -1    0    0    0  501 -0.00000000000E+00 -0.00000000000E+00 -0.33655324353E+02  0.33655324353E+02  0.00000000000E+00 0.  1.
         25    2    1    2    0    0 -0.82217253902E+02  0.38429374786E+02  0.48270044813E+03  0.50683550217E+03  0.12508401155E+03 0.  0.
          5    1    3    3  502    0 -0.92514016164E+00  0.52031676878E+02  0.32176942029E+03  0.32597727454E+03  0.41800000000E+01 0. -1.
         -5    1    3    3    0  502 -0.81292113740E+02 -0.13602302092E+02  0.16093102784E+03  0.18085822763E+03  0.41800000000E+01 0. -1.
        -11    1    1    2    0    0  0.52836820960E+02  0.22355264279E+02  0.10330681591E+03  0.11816846323E+03  0.00000000000E+00 0.  1.
         11    1    1    2    0    0  0.29380432941E+02 -0.60784639065E+02  0.66333078297E+02  0.94647025640E+02  0.00000000000E+00 0. -1.
</event>
<event>
 7    1  0.2900135E-009  0.1686284E+03  0.7561462E-02  0.1179286E+00
          1   -1    0    0  501    0  0.00000000000E+00  0.00000000000E+00  0.32653721859E+03  0.32653721859E+03  0.00000000000E+00 0. -1.
         -1   -1    0    0    0  501 -0.00000000000E+00 -0.00000000000E+00 -0.13145597982E+03  0.13145597982E+03  0.00000000000E+00 0.  1.
         25    2    1    2    0    0  0.14674284561E+03  0.37415708717E+02  0.20331997696E+03  0.28270088503E+03  0.12508948547E+03 0.  0.
          5    1    3    3  502    0  0.11283767950E+03 -0.23530495903E+02  0.78058513735E+02  0.13927178508E+03  0.41800000000E+01 0. -1.
         -5    1    3    3    0  502  0.33905166107E+02  0.60946204619E+02  0.12526146322E+03  0.14342909996E+03  0.41800000000E+01 0. -1.
        -11    1    1    2    0    0 -0.26079166154E+02 -0.12138047180E+02 -0.38778726252E+02  0.48282964971E+02  0.00000000000E+00 0.  1.
         11    1    1    2    0    0 -0.12066367945E+03 -0.25277661537E+02  0.30539988070E+02  0.12700934841E+03  0.00000000000E+00 0. -1.
</event>
<event>
 7    1  0.2900135E-009  0.1727548E+03  0.7561462E-02  0.1175005E+00
         -2   -1    0    0    0  501 -0.00000000000E+00  0.00000000000E+00  0.93914686922E+02  0.93914686922E+02  0.00000000000E+00 0.  1.
          2   -1    0    0  501    0  0.00000000000E+00 -0.00000000000E+00 -0.47674789472E+03  0.47674789472E+03  0.00000000000E+00 0. -1.
         25    2    1    2    0    0  0.15400702540E+02 -0.16587986117E+03 -0.29510540029E+03  0.36123128076E+03  0.12509009129E+03 0.  0.
          5    1    3    3  502    0  0.19645430815E+01 -0.28654009543E+02 -0.17779778843E+03  0.18015115227E+03  0.41800000000E+01 0.  1.
         -5    1    3    3    0  502  0.13436159459E+02 -0.13722585162E+03 -0.11730761186E+03  0.18108012850E+03  0.41800000000E+01 0.  1.
        -11    1    1    2    0    0  0.24560581229E+02  0.45566236894E+02 -0.60756333191E+02  0.79817517613E+02  0.00000000000E+00 0. -1.
         11    1    1    2    0    0 -0.39961283770E+02  0.12031362427E+03 -0.26971474314E+02  0.12961378327E+03  0.00000000000E+00 0.  1.
</event>
<event>
 7    1  0.2900135E-009  0.9305021E+02  0.7561462E-02  0.1295629E+00
          1   -1    0    0  501    0  0.00000000000E+00  0.00000000000E+00  0.35016342327E+03  0.35016342327E+03  0.00000000000E+00 0.  1.
         -1   -1    0    0    0  501 -0.00000000000E+00 -0.00000000000E+00 -0.38547543822E+02  0.38547543822E+02  0.00000000000E+00 0. -1.
         25    2    1    2    0    0 -0.19577276817E+02  0.30939753044E+02  0.22020410121E+03  0.25589428121E+03  0.12510595061E+03 0.  0.
          5    1    3    3  502    0  0.15638329692E+02  0.55796844176E+02  0.39942034294E+02  0.70503075671E+02  0.41800000000E+01 0. -1.
         -5    1    3    3    0  502 -0.35215606509E+02 -0.24857091132E+02  0.18026206692E+03  0.18539120554E+03  0.41800000000E+01 0. -1.
        -11    1    1    2    0    0  0.46667805678E+02 -0.45709068872E+01  0.17971356257E+02  0.50216998340E+02  0.00000000000E+00 0.  1.
         11    1    1    2    0    0 -0.27090528861E+02 -0.26368846156E+02  0.73440421978E+02  0.82599687542E+02  0.00000000000E+00 0. -1.
</event>
<event>
 7    1  0.2900135E-009  0.1960101E+03  0.7561462E-02  0.1153150E+00
          1   -1    0    0  501    0  0.00000000000E+00  0.00000000000E+00  0.58362696279E+03  0.58362696279E+03  0.00000000000E+00 0. -1.
         -1   -1    0    0    0  501 -0.00000000000E+00 -0.00000000000E+00 -0.73043990773E+02  0.73043990773E+02  0.00000000000E+00 0.  1.
         25    2    1    2    0    0 -0.97829885140E+02  0.14124588631E+03  0.24359441519E+03  0.32327408959E+03  0.12508721383E+03 0.  0.
          5    1    3    3  502    0 -0.96937892387E+02  0.65978215669E+02  0.21038888482E+03  0.24089631624E+03  0.41800000000E+01 0.  1.
         -5    1    3    3    0  502 -0.89199275319E+00  0.75267670646E+02  0.33205530369E+02  0.82377773353E+02  0.41800000000E+01 0.  1.
        -11    1    1    2    0    0 -0.12943507794E+02 -0.61389564584E+02  0.93789326857E+02  0.11283904850E+03  0.00000000000E+00 0. -1.
         11    1    1    2    0    0  0.11077339293E+03 -0.79856321731E+02  0.17319922998E+03  0.22055781548E+03  0.00000000000E+00 0.  1.
</event>
<event>
 7    1  0.2900135E-009  0.8996616E+02  0.7561462E-02  0.1302934E+00
         -1   -1    0    0    0  501 -0.00000000000E+00  0.00000000000E+00  0.27535036070E+02  0.27535036070E+02  0.00000000000E+00 0.  1.
          1   -1    0    0  501    0  0.00000000000E+00 -0.00000000000E+00 -0.49981614551E+03  0.49981614551E+03  0.00000000000E+00 0. -1.
         25    2    1    2    0    0 -0.27868184210E+01 -0.80416417655E+01 -0.35793321083E+03  0.37925697873E+03  0.12508892096E+03 0.  0.
          5    1    3    3  502    0  0.56001532439E+02  0.19781826522E+02 -0.15149243419E+03  0.16277260922E+03  0.41800000000E+01 0.  1.
         -5    1    3    3    0  502 -0.58788350860E+02 -0.27823468288E+02 -0.20644077663E+03  0.21648436951E+03  0.41800000000E+01 0.  1.
        -11    1    1    2    0    0  0.74469454315E+00 -0.23549542037E+02  0.54505801985E+01  0.24183554839E+02  0.00000000000E+00 0. -1.
         11    1    1    2    0    0  0.20421238779E+01  0.31591183803E+02 -0.11979847881E+03  0.12391064801E+03  0.00000000000E+00 0.  1.
</event>
<event>
 7    1  0.2900135E-009  0.1385963E+03  0.7561462E-02  0.1215230E+00
          1   -1    0    0  501    0  0.00000000000E+00  0.00000000000E+00  0.51176734148E+02  0.51176734148E+02  0.00000000000E+00 0. -1.
         -1   -1    0    0    0  501 -0.00000000000E+00 -0.00000000000E+00 -0.43828184702E+03  0.43828184702E+03  0.00000000000E+00 0.  1.
         25    2    1    2    0    0  0.96410481243E+02 -0.23598560125E+02 -0.26356179645E+03  0.30816164395E+03  0.12508759058E+03 0.  0.
          5    1    3    3  502    0  0.10285628888E+03 -0.54329301889E+02 -0.24550344556E+03  0.27169928853E+03  0.41800000000E+01 0. -1.
         -5    1    3    3    0  502 -0.64458076398E+01  0.30730741764E+02 -0.18058350887E+02  0.36462355412E+02  0.41800000000E+01 0. -1.
        -11    1    1    2    0    0 -0.39783652554E+01 -0.24568470405E+02 -0.42565003857E+02  0.49307369443E+02  0.00000000000E+00 0.  1.
         11    1    1    2    0    0 -0.92432115988E+02  0.48167030530E+02 -0.80978312562E+02  0.13198956778E+03  0.00000000000E+00 0. -1.
</event>
<event>
 7    1  0.2900135E-009  0.9651355E+02  0.7561462E-02  0.1287803E+00
         -1   -1    0    0    0  501 -0.00000000000E+00  0.00000000000E+00  0.80028399063E+02  0.80028399063E+02  0.00000000000E+00 0.  1.
          1   -1    0    0  501    0  0.00000000000E+00 -0.00000000000E+00 -0.19386054019E+03  0.19386054019E+03  0.00000000000E+00 0. -1.
         25    2    1    2    0    0 -0.15757910656E+02  0.41558121886E+02 -0.18313820954E+02  0.13400653194E+03  0.12508783043E+03 0.  0.
          5    1    3    3  502    0 -0.30315844917E+02  0.64755012842E+02  0.30526296955E+02  0.77856209432E+02  0.41800000000E+01 0.  1.
         -5    1    3    3    0  502  0.14557934261E+02 -0.23196890956E+02 -0.48840117909E+02  0.56150322505E+02  0.41800000000E+01 0.  1.
        -11    1    1    2    0    0 -0.33189196148E+02 -0.73733489770E+01 -0.63760789337E+02  0.72258752224E+02  0.00000000000E+00 0. -1.
         11    1    1    2    0    0  0.48947106804E+02 -0.34184772909E+02 -0.31757530835E+02  0.67623655093E+02  0.00000000000E+00 0.  1.
</event>
<event>
 7    1  0.2900135E-009  0.7689064E+02  0.7561462E-02  0.1338114E+00
          1   -1    0    0  501    0  0.00000000000E+00  0.00000000000E+00  0.20367011243E+03  0.20367011243E+03  0.00000000000E+00 0. -1.
         -1   -1    0    0    0  501 -0.00000000000E+00 -0.00000000000E+00 -0.75932607265E+02  0.75932607265E+02  0.00000000000E+00 0.  1.
         25    2    1    2    0    0 -0.29039482538E+02 -0.16121421645E+02  0.14973504711E+02  0.13028438523E+03  0.12508646374E+03 0.  0.
          5    1    3    3  502    0 -0.38422127198E+02  0.31518377262E+02  0.49727549146E+02  0.70427050966E+02  0.41800000000E+01 0. -1.
         -5    1    3    3    0  502  0.93826446604E+01 -0.47639798908E+02 -0.34754044435E+02  0.59857334266E+02  0.41800000000E+01 0. -1.
        -11    1    1    2    0    0  0.41915256080E+01  0.27520315216E+02 -0.51211726733E+01  0.28304823724E+02  0.00000000000E+00 0.  1.
         11    1    1    2    0    0  0.24847956930E+02 -0.11398893571E+02  0.11788517313E+03  0.12101351074E+03  0.00000000000E+00 0. -1.
</event>
<event>
 7    1  0.2900135E-009  0.8982844E+02  0.7561462E-02  0.1303268E+00
          2   -1    0    0  501    0  0.00000000000E+00  0.00000000000E+00  0.32907180223E+02  0.32907180223E+02  0.00000000000E+00 0. -1.
         -2   -1    0    0    0  501 -0.00000000000E+00 -0.00000000000E+00 -0.43472280875E+03  0.43472280875E+03  0.00000000000E+00 0.  1.
         25    2    1    2    0    0  0.10051965543E+02  0.26122412515E+02 -0.14203066248E+03  0.19132163116E+03  0.12509130672E+03 0.  0.
          5    1    3    3  502    0  0.44547105750E+02  0.29819284330E+02 -0.99310576501E+01  0.54678447808E+02  0.41800000000E+01 0. -1.
         -5    1    3    3    0  502 -0.34495140207E+02 -0.36968718154E+01 -0.13209960483E+03  0.13664318335E+03  0.41800000000E+01 0. -1.
        -11    1    1    2    0    0 -0.10220923655E+02  0.31605007959E+02 -0.13154830596E+03  0.13567719267E+03  0.00000000000E+00 0. -1.
         11    1    1    2    0    0  0.16895811219E+00 -0.57727420473E+02 -0.12823666007E+03  0.14063116514E+03  0.00000000000E+00 0.  1.
</event>
<event>
 7    1  0.2900135E-009  0.1386905E+03  0.7561462E-02  0.1215102E+00
         -2   -1    0    0    0  501 -0.00000000000E+00  0.00000000000E+00  0.69590933641E+02  0.69590933641E+02  0.00000000000E+00 0.  1.
          2   -1    0    0  501    0  0.00000000000E+00 -0.00000000000E+00 -0.39152245442E+03  0.39152245442E+03  0.00000000000E+00 0. -1.
         25    2    1    2    0    0 -0.11328784047E+03  0.14857103851E+02 -0.21430612640E+03  0.27318380745E+03  0.12508960192E+03 0.  0.
          5    1    3    3  502    0 -0.44300236822E+02  0.45648701078E+02 -0.17837250521E+03  0.18942158775E+03  0.41800000000E+01 0. -1.
         -5    1    3    3    0  502 -0.68987603652E+02 -0.30791597227E+02 -0.35933621192E+02  0.83762219702E+02  0.41800000000E+01 0. -1.
        -11    1    1    2    0    0  0.42706635979E+02  0.31900952596E+02 -0.84935913870E+02  0.10027779913E+03  0.00000000000E+00 0. -1.
         11    1    1    2    0    0  0.70581204494E+02 -0.46758056447E+02 -0.22689480510E+02  0.87651781479E+02  0.00000000000E+00 0.  1.
</event>
<event>
 7    1  0.2900135E-009  0.1613719E+03  0.7561462E-02  0.1187157E+00
         -2   -1    0    0    0  501 -0.00000000000E+00  0.00000000000E+00  0.53853815538E+02  0.53853815538E+02  0.00000000000E+00 0.  1.
          2   -1    0    0  501    0  0.00000000000E+00 -0.00000000000E+00 -0.67000901591E+03  0.67000901591E+03  0.00000000000E+00 0. -1.
         25    2    1    2    0    0  0.10240186899E+03 -0.11680639261E+03 -0.34521644978E+03  0.39868742393E+03  0.12508952265E+03 0.  0.
          5    1    3    3  502    0  0.45909046386E+02 -0.52427173982E+02 -0.37501145478E+02  0.79246813336E+02  0.41800000000E+01 0.  1.
         -5    1    3    3    0  502  0.56492822606E+02 -0.64379218628E+02 -0.30771530430E+03  0.31944061060E+03  0.41800000000E+01 0.  1.
        -11    1    1    2    0    0 -0.16960538885E+01  0.41238364070E+02 -0.23370659891E+02  0.47430654789E+02  0.00000000000E+00 0. -1.
         11    1    1    2    0    0 -0.10070581510E+03  0.75568028539E+02 -0.24756809070E+03  0.27774475272E+03  0.00000000000E+00 0.  1.
</event>
<event>
 7    1  0.2900135E-009  0.1404876E+03  0.7561462E-02  0.1212674E+00
         -2   -1    0    0    0  501 -0.00000000000E+00  0.00000000000E+00  0.78293097201E+02  0.78293097201E+02  0.00000000000E+00 0.  1.
          2   -1    0    0  501    0  0.00000000000E+00 -0.00000000000E+00 -0.38801490802E+03  0.38801490802E+03  0.00000000000E+00 0. -1.
         25    2    1    2    0    0 -0.53172341811E+00 -0.12786779020E+03 -0.23146029586E+03  0.29252448885E+03  0.12508498519E+03 0.  0.
          5    1    3    3  502    0 -0.11646740382E+01 -0.13528629847E+03 -0.24300850341E+03  0.27816244202E+03  0.41800000000E+01 0.  1.
         -5    1    3    3    0  502  0.63295062005E+00  0.74185082749E+01  0.11548207553E+02  0.14362046832E+02  0.41800000000E+01 0.  1.
        -11    1    1    2    0    0 -0.17663476295E+02  0.16287505417E+02 -0.52637684582E+02  0.57861965622E+02  0.00000000000E+00 0. -1.
         11    1    1    2    0    0  0.18195199713E+02  0.11158028478E+03 -0.25623830377E+02  0.11592155075E+03  0.00000000000E+00 0.  1.
</event>
<event>
 7    1  0.2900135E-009  0.1863363E+03  0.7561462E-02  0.1161808E+00
          1   -1    0    0  501    0  0.00000000000E+00  0.00000000000E+00  0.95787915415E+02  0.95787915415E+02  0.00000000000E+00 0. -1.
         -1   -1    0    0    0  501 -0.00000000000E+00 -0.00000000000E+00 -0.41124058416E+03  0.41124058416E+03  0.00000000000E+00 0.  1.
         25    2    1    2    0    0 -0.42243052773E+02  0.15407704171E+03 -0.98247237999E+02  0.22543699732E+03  0.12508041292E+03 0.  0.
          5    1    3    3  502    0 -0.83096095056E+02  0.99967827914E+02 -0.87270909379E+02  0.15662762098E+03  0.41800000000E+01 0. -1.
         -5    1    3    3    0  502  0.40853042282E+02  0.54109213797E+02 -0.10976328620E+02  0.68809376333E+02  0.41800000000E+01 0. -1.
        -11    1    1    2    0    0  0.42135674675E+02 -0.32777618634E+02 -0.97579241607E+02  0.11122722579E+03  0.00000000000E+00 0.  1.
         11    1    1    2    0    0  0.10737809864E+00 -0.12129942308E+03 -0.11962618914E+03  0.17036427647E+03  0.00000000000E+00 0. -1.
</event>
<event>
 6    1  0.3073531E-009  0.1559530E+03  0.7561462E-02  0.1193343E+00
         -2   -1    0    0    0  501 -0.00000000000E+00  0.00000000000E+00  0.39581384709E+02  0.39581384709E+02  0.00000000000E+00 0.  1.
          2   -1    0    0  501    0  0.00000000000E+00 -0.00000000000E+00 -0.91519621345E+03  0.91519621345E+03  0.00000000000E+00 0. -1.
          5    1    1    2  502    0  0.14320776086E+02  0.14817712830E+00 -0.95026512858E+02  0.96190525158E+02  0.41800000000E+01 0.  1.
         -5    1    1    2    0  502 -0.14226634347E+03  0.49799797009E+02 -0.17455207412E+03  0.23066345885E+03  0.41800000000E+01 0.  1.
        -11    1    1    2    0    0  0.75324335695E+02 -0.55098912244E+02 -0.50835858171E+03  0.51685403478E+03  0.00000000000E+00 0. -1.
         11    1    1    2    0    0  0.52621231690E+02  0.51509381065E+01 -0.97677660061E+02  0.11106957938E+03  0.00000000000E+00 0.  1.
</event>
<event>
 7    1  0.2900135E-009  0.1222510E+03  0.7561462E-02  0.1239429E+00
         -3   -1    0    0    0  501 -0.00000000000E+00  0.00000000000E+00  0.37361229175E+03  0.37361229175E+03  0.00000000000E+00 0.  1.
          3   -1    0    0  501    0  0.00000000000E+00 -0.00000000000E+00 -0.56143909027E+02  0.56143909027E+02  0.00000000000E+00 0. -1.
         25    2    1    2    0    0  0.43207668023E+02  0.48830476460E+02  0.69054932576E+02  0.15705607315E+03  0.12508680344E+03 0.  0.
          5    1    3    3  502    0 -0.22388289335E+02  0.68280633744E+02  0.42196003340E+02  0.83435337488E+02  0.41800000000E+01 0. -1.
         -5    1    3    3    0  502  0.65595957359E+02 -0.19450157284E+02  0.26858929236E+02  0.73620735665E+02  0.41800000000E+01 0. -1.
        -11    1    1    2    0    0  0.20145425049E+02 -0.33020607718E+02  0.14762931566E+03  0.15261262571E+03  0.00000000000E+00 0.  1.
         11    1    1    2    0    0 -0.63353093073E+02 -0.15809868742E+02  0.10078413449E+03  0.12008750192E+03  0.00000000000E+00 0. -1.
</event>
<event>
 7    1  0.2900135E-009  0.1134799E+03  0.7561462E-02  0.1254258E+00
         -1   -1    0    0    0  501 -0.00000000000E+00  0.00000000000E+00  0.18504837093E+02  0.18504837093E+02  0.00000000000E+00 0.  1.
          1   -1    0    0  501    0  0.00000000000E+00 -0.00000000000E+00 -0.11091394067E+04  0.11091394067E+04  0.00000000000E+00 0. -1.
         25    2    1    2    0    0 -0.47420479346E+02 -0.75093663880E+02 -0.47205715591E+03  0.49636041890E+03  0.12509175347E+03 0.  0.
          5    1    3    3  502    0 -0.46163986965E+02 -0.28646399100E+02 -0.57616622644E+02  0.79302443082E+02  0.41800000000E+01 0.  1.
         -5    1    3    3    0  502 -0.12564923810E+01 -0.46447264780E+02 -0.41444053327E+03  0.41705797582E+03  0.41800000000E+01 0.  1.
        -11    1    1    2    0    0 -0.26663154835E+02  0.16419982238E+02 -0.13894438857E+03  0.14242922016E+03  0.00000000000E+00 0.  1.
         11    1    1    2    0    0  0.74083634181E+02  0.58673681642E+02 -0.47963302514E+03  0.48885460474E+03  0.00000000000E+00 0. -1.
</event>
<event>
 7    1  0.2900135E-009  0.1211474E+03  0.7561462E-02  0.1241216E+00
         -1   -1    0    0    0  501 -0.00000000000E+00  0.00000000000E+00  0.22623369288E+03  0.22623369288E+03  0.00000000000E+00 0.  1.
          1   -1    0    0  501    0  0.00000000000E+00 -0.00000000000E+00 -0.79350668205E+02  0.79350668205E+02  0.00000000000E+00 0. -1.
         25    2    1    2    0    0  0.43946850199E+02 -0.61495886087E+02  0.10195609895E+03  0.17819829055E+03  0.12508603037E+03 0.  0.
          5    1    3    3  502    0  0.77591181400E+02 -0.18210397665E+02  0.92901977519E+02  0.12247554793E+03  0.41800000000E+01 0. -1.
         -5    1    3    3    0  502 -0.33644331201E+02 -0.43285488422E+02  0.90541214263E+01  0.55722742616E+02  0.41800000000E+01 0. -1.
        -11    1    1    2    0    0  0.45747868802E+01 -0.15684450862E+02  0.31164701318E+02  0.35187629675E+02  0.00000000000E+00 0.  1.
         11    1    1    2    0    0 -0.48521637079E+02  0.77180336949E+02  0.13762224410E+02  0.92198440860E+02  0.00000000000E+00 0. -1.
</event>
<event>
 7    1  0.2900135E-009  0.1303064E+03  0.7561462E-02  0.1227002E+00
         -1   -1    0    0    0  501 -0.00000000000E+00  0.00000000000E+00  0.36828642168E+02  0.36828642168E+02  0.00000000000E+00 0.  1.
          1   -1    0    0  501    0  0.00000000000E+00 -0.00000000000E+00 -0.66011689036E+03  0.66011689036E+03  0.00000000000E+00 0. -1.
         25    2    1    2    0    0 -0.93295742250E+02 -0.42998105172E+02 -0.43801384943E+03  0.46696501949E+03  0.12508902655E+03 0.  0.
          5    1    3    3  502    0 -0.76553451941E+01 -0.62569771486E+02 -0.10505855873E+03  0.12259018629E+03  0.41800000000E+01 0.  1.
         -5    1    3    3    0  502 -0.85640397056E+02  0.19571666314E+02 -0.33295529071E+03  0.34437483320E+03  0.41800000000E+01 0.  1.
        -11    1    1    2    0    0  0.34336740896E+02 -0.33431637532E+01 -0.51658867345E+01  0.34883734104E+02  0.00000000000E+00 0.  1.
         11    1    1    2    0    0  0.58959001354E+02  0.46341268925E+02 -0.18010851202E+03  0.19509677893E+03  0.00000000000E+00 0. -1.
</event>
<event>
 7    1  0.2900135E-009  0.9634922E+02  0.7561462E-02  0.1288166E+00
         -4   -1    0    0    0  501 -0.00000000000E+00  0.00000000000E+00  0.79140576118E+02  0.79140576118E+02  0.00000000000E+00 0. -1.
          4   -1    0    0  501    0  0.00000000000E+00 -0.00000000000E+00 -0.26465803837E+03  0.26465803837E+03  0.00000000000E+00 0.  1.
         25    2    1    2    0    0 -0.69327317232E+01 -0.62606856520E+02 -0.18681575108E+03  0.23348334907E+03  0.12508664272E+03 0.  0.
          5    1    3    3  502    0 -0.26888865377E+02 -0.90155854209E+02 -0.17210687132E+03  0.19618699418E+03  0.41800000000E+01 0. -1.
         -5    1    3    3    0  502  0.19956133654E+02  0.27548997689E+02 -0.14708879763E+02  0.37296354889E+02  0.41800000000E+01 0. -1.
        -11    1    1    2    0    0  0.10283283647E+02  0.36161277822E+02  0.45300282858E+02  0.58868493808E+02  0.00000000000E+00 0. -1.
         11    1    1    2    0    0 -0.33505519236E+01  0.26445578698E+02 -0.44001994027E+02  0.51446771611E+02  0.00000000000E+00 0.  1.
</event>
<event>
 7    1  0.2900135E-009  0.1360203E+03  0.7561462E-02  0.1218787E+00
         -2   -1    0    0    0  501 -0.00000000000E+00  0.00000000000E+00  0.82017198039E+03  0.82017198039E+03  0.00000000000E+00 0.  1.
          2   -1    0    0  501    0  0.00000000000E+00 -0.00000000000E+00 -0.37572814073E+02  0.37572814073E+02  0.00000000000E+00 0. -1.
         25    2    1    2    0    0 -0.11620719289E+03 -0.31438711795E+02  0.24925725413E+03  0.30375822607E+03  0.12508947552E+03 0.  0.
          5    1    3    3  502    0  0.73376635803E+01  0.12499483067E+02  0.11521526649E+03  0.11619857321E+03  0.41800000000E+01 0. -1.
         -5    1    3    3    0  502 -0.12354485647E+03 -0.43938194862E+02  0.13404198764E+03  0.18755965286E+03  0.41800000000E+01 0. -1.
        -11    1    1    2    0    0  0.10894829885E+03  0.17910064140E+02  0.52505820333E+03  0.53654134893E+03  0.00000000000E+00 0.  1.
         11    1    1    2    0    0  0.72588940465E+01  0.13528647655E+02  0.82837088560E+01  0.17445219476E+02  0.00000000000E+00 0. -1.
</event>
<event>
 7    1  0.2900135E-009  0.2735358E+03  0.7561462E-02  0.1099273E+00
          1   -1    0    0  501    0  0.00000000000E+00  0.00000000000E+00  0.50654040649E+03  0.50654040649E+03  0.00000000000E+00 0. -1.
         -1   -1    0    0    0  501 -0.00000000000E+00 -0.00000000000E+00 -0.16365313999E+03  0.16365313999E+03  0.00000000000E+00 0.  1.
         25    2    1    2    0    0 -0.77111541017E+02 -0.25499537616E+03  0.17946108794E+03  0.34470632507E+03  0.12508931544E+03 0.  0.
          5    1    3    3  502    0 -0.32460275983E+02 -0.11703788315E+03  0.10448493584E+02  0.12197614122E+03  0.41800000000E+01 0.  1.
         -5    1    3    3    0  502 -0.44651265034E+02 -0.13795749301E+03  0.16901259436E+03  0.22273018385E+03  0.41800000000E+01 0.  1.
        -11    1    1    2    0    0 -0.18824531422E+02  0.64501426649E+02  0.51198490090E+02  0.84475336108E+02  0.00000000000E+00 0. -1.
         11    1    1    2    0    0  0.95936072439E+02  0.19049394951E+03  0.11222768847E+03  0.24101188530E+03  0.00000000000E+00 0.  1.
</event>
<event>
 7    1  0.2900135E-009  0.8894003E+02  0.7561462E-02  0.1305439E+00
         -1   -1    0    0    0  501 -0.00000000000E+00  0.00000000000E+00  0.51567623719E+02  0.51567623719E+02  0.00000000000E+00 0.  1.
          1   -1    0    0  501    0  0.00000000000E+00 -0.00000000000E+00 -0.30023852877E+03  0.30023852877E+03  0.00000000000E+00 0. -1.
         25    2    1    2    0    0 -0.36611760104E+01  0.36317866844E+02 -0.73875309096E+02  0.14979180971E+03  0.12509050045E+03 0.  0.
          5    1    3    3  502    0 -0.18600385619E+02  0.69949302666E+02 -0.63525113257E+01  0.72778472702E+02  0.41800000000E+01 0.  1.
         -5    1    3    3    0  502  0.14939209608E+02 -0.33631435822E+02 -0.67522797770E+02  0.77013337013E+02  0.41800000000E+01 0.  1.
        -11    1    1    2    0    0  0.19831564786E+02  0.78338822394E+01 -0.33169572240E+00  0.21325353335E+02  0.00000000000E+00 0.  1.
         11    1    1    2    0    0 -0.16170388776E+02 -0.44151749084E+02 -0.17446390024E+03  0.18068898944E+03  0.00000000000E+00 0. -1.
</event>
<event>
 6    1  0.2900135E-009  0.8544922E+02  0.7561462E-02  0.1314262E+00
         -2   -1    0    0    0  501 -0.00000000000E+00  0.00000000000E+00  0.46525720801E+02  0.46525720801E+02  0.00000000000E+00 0.  1.
          2   -1    0    0  501    0  0.00000000000E+00 -0.00000000000E+00 -0.40010537320E+03  0.40010537320E+03  0.00000000000E+00 0. -1.
          5    1    1    2  502    0  0.16336671307E+02  0.24665044130E+02  0.67022424598E+01  0.30620968066E+02  0.41800000000E+01 0.  1.
         -5    1    1    2    0  502  0.59680984339E+02 -0.30952239438E+01 -0.22720211331E+03  0.23496738708E+03  0.41800000000E+01 0.  1.
        -11    1    1    2    0    0 -0.27094930828E+02 -0.16978511253E+02 -0.12766413005E+03  0.13160750443E+03  0.00000000000E+00 0. -1.
         11    1    1    2    0    0 -0.48922724818E+02 -0.45913089328E+01 -0.54156515066E+01  0.49435234424E+02  0.00000000000E+00 0.  1.
</event>
<event>
 7    1  0.2900135E-009  0.1168268E+03  0.7561462E-02  0.1248426E+00
         -2   -1    0    0    0  501 -0.00000000000E+00  0.00000000000E+00  0.40225597856E+02  0.40225597856E+02  0.00000000000E+00 0.  1.
          2   -1    0    0  501    0  0.00000000000E+00 -0.00000000000E+00 -0.43222992027E+03  0.43222992027E+03  0.00000000000E+00 0. -1.
         25    2    1    2    0    0 -0.41773112020E+02 -0.60421197693E+02 -0.17915489923E+03  0.23051371799E+03  0.12507750495E+03 0.  0.
          5    1    3    3  502    0 -0.39968360755E+02  0.32693943251E+02 -0.65831413645E+02  0.83771183645E+02  0.41800000000E+01 0.  1.
         -5    1    3    3    0  502 -0.18047512654E+01 -0.93115140944E+02 -0.11332348558E+03  0.14674253434E+03  0.41800000000E+01 0.  1.
        -11    1    1    2    0    0 -0.73449367012E+01  0.29909272750E+02 -0.12199370187E+02  0.33126082239E+02  0.00000000000E+00 0.  1.
         11    1    1    2    0    0  0.49118048721E+02  0.30511924943E+02 -0.20065005300E+03  0.20881571790E+03  0.00000000000E+00 0. -1.
</event>
<event>
 7    1  0.2900135E-009  0.1332284E+03  0.7561462E-02  0.1222743E+00
         -2   -1    0    0    0  501 -0.00000000000E+00  0.00000000000E+00  0.10527423006E+03  0.10527423006E+03  0.00000000000E+00 0.  1.
          2   -1    0    0  501    0  0.00000000000E+00 -0.00000000000E+00 -0.19365198362E+03  0.19365198362E+03  0.00000000000E+00 0. -1.
         25    2    1    2    0    0 -0.45643547957E+02 -0.71903135280E+02 -0.50678750041E+01  0.15140870989E+03  0.12508205203E+03 0.  0.
          5    1    3    3  502    0  0.40315788327E+02 -0.45841112968E+02 -0.59965661276E+01  0.61483344345E+02  0.41800000000E+01 0. -1.
         -5    1    3    3    0  502 -0.85959336285E+02 -0.26062022313E+02  0.92869112347E+00  0.89925365547E+02  0.41800000000E+01 0. -1.
        -11    1    1    2    0    0 -0.19941112036E+02  0.34491606334E+02 -0.75368633863E+01  0.40547788675E+02  0.00000000000E+00 0.  1.
         11    1    1    2    0    0  0.65584659994E+02  0.37411528947E+02 -0.75773015165E+02  0.10696971512E+03  0.00000000000E+00 0. -1.
</event>
<event>
 7    1  0.2900135E-009  0.2502056E+03  0.7561462E-02  0.1113175E+00
          1   -1    0    0  501    0  0.00000000000E+00  0.00000000000E+00  0.14631253354E+04  0.14631253354E+04  0.00000000000E+00 0. -1.
         -1   -1    0    0    0  501 -0.00000000000E+00 -0.00000000000E+00 -0.53817245175E+02  0.53817245175E+02  0.00000000000E+00 0.  1.
         25    2    1    2    0    0 -0.63750110266E+02  0.23023582349E+03  0.45617583889E+03  0.52992404392E+03  0.12510189993E+03 0.  0.
          5    1    3    3  502    0 -0.51123086156E+02  0.23959963102E+03  0.45026248214E+03  0.51261616083E+03  0.41800000000E+01 0.  1.
         -5    1    3    3    0  502 -0.12627024110E+02 -0.93638075253E+01  0.59133567532E+01  0.17307883098E+02  0.41800000000E+01 0.  1.
        -11    1    1    2    0    0  0.21950778920E+02 -0.62202171926E+02  0.12892750718E+03  0.14482143832E+03  0.00000000000E+00 0. -1.
         11    1    1    2    0    0  0.41799331347E+02 -0.16803365157E+03  0.82420474413E+03  0.84219709832E+03  0.00000000000E+00 0.  1.
</event>
<event>
 7    1  0.2900135E-009  0.1267092E+03  0.7561462E-02  0.1232422E+00
          1   -1    0    0  501    0  0.00000000000E+00  0.00000000000E+00  0.47808579156E+03  0.47808579156E+03  0.00000000000E+00 0. -1.
         -1   -1    0    0    0  501 -0.00000000000E+00 -0.00000000000E+00 -0.50763245483E+02  0.50763245483E+02  0.00000000000E+00 0.  1.
         25    2    1    2    0    0 -0.99891123397E+02 -0.29171323324E+02  0.30171235254E+03  0.34279350432E+03  0.12509132779E+03 0.  0.
          5    1    3    3  502    0 -0.72650286907E+02  0.21858867139E+02  0.67917046648E+02  0.10191207919E+03  0.41800000000E+01 0. -1.
         -5    1    3    3    0  502 -0.27240836490E+02 -0.51030190463E+02  0.23379530589E+03  0.24088142512E+03  0.41800000000E+01 0. -1.
        -11    1    1    2    0    0  0.96939634777E+02  0.71303113184E+01  0.13104892880E+03  0.16316236046E+03  0.00000000000E+00 0. -1.
         11    1    1    2    0    0  0.29514886195E+01  0.22041012006E+02 -0.54387352647E+01  0.22893172270E+02  0.00000000000E+00 0.  1.
</event>
<event>
 7    1  0.2900135E-009  0.1397455E+03  0.7561462E-02  0.1213672E+00
         -1   -1    0    0    0  501 -0.00000000000E+00  0.00000000000E+00  0.95209288458E+02  0.95209288458E+02  0.00000000000E+00 0.  1.
          1   -1    0    0  501    0  0.00000000000E+00 -0.00000000000E+00 -0.27261445299E+03  0.27261445299E+03  0.00000000000E+00 0. -1.
         25    2    1    2    0    0 -0.11628652293E+03 -0.10130553903E+01 -0.66821482632E+02  0.18340300511E+03  0.12509184644E+03 0.  0.
          5    1    3    3  502    0 -0.10082394971E+03  0.28952554147E+02  0.37809499710E+01  0.10504992722E+03  0.41800000000E+01 0. -1.
         -5    1    3    3    0  502 -0.15462573227E+02 -0.29965609538E+02 -0.70602432603E+02  0.78353077893E+02  0.41800000000E+01 0.  1.
        -11    1    1    2    0    0  0.94658331128E+02 -0.32981443254E+02 -0.50932869111E+02  0.11243723763E+03  0.00000000000E+00 0.  1.
         11    1    1    2    0    0  0.21628191807E+02  0.33994498644E+02 -0.59650812786E+02  0.71983498699E+02  0.00000000000E+00 0. -1.
</event>
<event>
 7    1  0.2900135E-009  0.1990867E+03  0.7561462E-02  0.1150512E+00
         -1   -1    0    0    0  501 -0.00000000000E+00  0.00000000000E+00  0.66151800127E+02  0.66151800127E+02  0.00000000000E+00 0.  1.
          1   -1    0    0  501    0  0.00000000000E+00 -0.00000000000E+00 -0.67842899716E+03  0.67842899716E+03  0.00000000000E+00 0. -1.
         25    2    1    2    0    0 -0.18144812569E+03  0.79040844806E+01 -0.34719938246E+03  0.41131596059E+03  0.12509001316E+03 0.  0.
          5    1    3    3  502    0 -0.11142705758E+03 -0.52738630070E+02 -0.15648292079E+03  0.19925292761E+03  0.41800000000E+01 0.  1.
         -5    1    3    3    0  502 -0.70021068117E+02  0.60642714550E+02 -0.19071646166E+03  0.21206303298E+03  0.41800000000E+01 0.  1.
        -11    1    1    2    0    0  0.14149196878E+03 -0.11636847522E+02 -0.13051644252E+03  0.19284692172E+03  0.00000000000E+00 0.  1.
         11    1    1    2    0    0  0.39956156915E+02  0.37327630417E+01 -0.13456137206E+03  0.14041791497E+03  0.00000000000E+00 0. -1.
</event>
<event>
 7    1  0.2900135E-009  0.1622023E+03  0.7561462E-02  0.1186233E+00
         -1   -1    0    0    0  501 -0.00000000000E+00  0.00000000000E+00  0.56878334481E+02  0.56878334481E+02  0.00000000000E+00 0.  1.
          1   -1    0    0  501    0  0.00000000000E+00 -0.00000000000E+00 -0.48988879851E+03  0.48988879851E+03  0.00000000000E+00 0. -1.
         25    2    1    2    0    0 -0.32440288137E+02  0.12046002577E+03 -0.25791269003E+03  0.31263199119E+03  0.12512719982E+03 0.  0.
          5    1    3    3  502    0  0.37402099328E+02  0.10998335156E+02 -0.10443724151E+03  0.11155487540E+03  0.41800000000E+01 0.  1.
         -5    1    3    3    0  502 -0.69842387465E+02  0.10946169061E+03 -0.15347544852E+03  0.20107711579E+03  0.41800000000E+01 0.  1.
        -11    1    1    2    0    0  0.52807446098E+02 -0.26392261457E+02 -0.61581409256E+02  0.85307958563E+02  0.00000000000E+00 0. -1.
         11    1    1    2    0    0 -0.20367157961E+02 -0.94067764311E+02 -0.11351636475E+03  0.14882718324E+03  0.00000000000E+00 0.  1.
</event>
<event>
 7    1  0.2900135E-009  0.2040612E+03  0.7561462E-02  0.1146357E+00
         -2   -1    0    0    0  501 -0.00000000000E+00  0.00000000000E+00  0.49186167982E+02  0.49186167982E+02  0.00000000000E+00 0.  1.
          2   -1    0    0  501    0  0.00000000000E+00 -0.00000000000E+00 -0.11138286555E+04  0.11138286555E+04  0.00000000000E+00 0. -1.
         25    2    1    2    0    0  0.17523615491E+03 -0.75851075038E+02 -0.74477711721E+03  0.77896795531E+03  0.12504809274E+03 0.  0.
          5    1    3    3  502    0  0.59817084211E+02  0.23870111617E+02 -0.34653770563E+03  0.35249641079E+03  0.41800000000E+01 0.  1.
         -5    1    3    3    0  502  0.11541907070E+03 -0.99721186656E+02 -0.39823941158E+03  0.42647154452E+03  0.41800000000E+01 0.  1.
        -11    1    1    2    0    0 -0.29962901825E+02  0.11258124035E+02 -0.14165308621E+03  0.14522437011E+03  0.00000000000E+00 0. -1.
         11    1    1    2    0    0 -0.14527325309E+03  0.64592951004E+02 -0.17821228413E+03  0.23882249810E+03  0.00000000000E+00 0.  1.
</event>
<event>
 7    1  0.2900135E-009  0.9862662E+02  0.7561462E-02  0.1283211E+00
          1   -1    0    0  501    0  0.00000000000E+00  0.00000000000E+00  0.58122890398E+02  0.58122890398E+02  0.00000000000E+00 0. -1.
         -1   -1    0    0    0  501 -0.00000000000E+00 -0.00000000000E+00 -0.28935870587E+03  0.28935870587E+03  0.00000000000E+00 0.  1.
         25    2    1    2    0    0 -0.23113540010E+02  0.54392811567E+02 -0.73949564947E+02  0.15687221780E+03  0.12509013102E+03 0.  0.
          5    1    3    3  502    0 -0.42357517148E+02  0.88715980232E+02 -0.57908106631E+02  0.11417313879E+03  0.41800000000E+01 0.  1.
         -5    1    3    3    0  502  0.19243977138E+02 -0.34323168665E+02 -0.16041458317E+02  0.42699079009E+02  0.41800000000E+01 0.  1.
        -11    1    1    2    0    0  0.85150019218E+01 -0.14649893475E+02  0.88823174889E+01  0.19131654411E+02  0.00000000000E+00 0. -1.
         11    1    1    2    0    0  0.14598538088E+02 -0.39742918092E+02 -0.16616856802E+03  0.17147772406E+03  0.00000000000E+00 0.  1.
</event>
<event>
 7    1  0.2900135E-009  0.1756790E+03  0.7561462E-02  0.1172052E+00
         -2   -1    0    0    0  501 -0.00000000000E+00  0.00000000000E+00  0.36274706184E+02  0.36274706184E+02  0.00000000000E+00 0.  1.
          2   -1    0    0  501    0  0.00000000000E+00 -0.00000000000E+00 -0.92915445240E+03  0.92915445240E+03  0.00000000000E+00 0. -1.
         25    2    1    2    0    0  0.12037680348E+03 -0.70127055409E+02 -0.59621255980E+03  0.62491804555E+03  0.12507904892E+03 0.  0.
          5    1    3    3  502    0  0.14525744603E+03 -0.57202754217E+02 -0.53737140109E+03  0.55960466030E+03  0.41800000000E+01 0. -1.
         -5    1    3    3    0  502 -0.24880642555E+02 -0.12924301193E+02 -0.58841158708E+02  0.65313385254E+02  0.41800000000E+01 0. -1.
        -11    1    1    2    0    0 -0.69001965225E+00  0.44417656335E+02 -0.70194325070E+02  0.83070136593E+02  0.00000000000E+00 0.  1.
         11    1    1    2    0    0 -0.11968678382E+03  0.25709399074E+02 -0.22647286135E+03  0.25744097644E+03  0.00000000000E+00 0. -1.
</event>
<event>
 7    1  0.2900135E-009  0.1354323E+03  0.7561462E-02  0.1219611E+00
         -1   -1    0    0    0  501 -0.00000000000E+00  0.00000000000E+00  0.11407512215E+03  0.11407512215E+03  0.00000000000E+00 0.  1.
          1   -1    0    0  501    0  0.00000000000E+00 -0.00000000000E+00 -0.21550991636E+03  0.21550991636E+03  0.00000000000E+00 0. -1.
         25    2    1    2    0    0  0.83082548017E+02 -0.69643741086E+02 -0.19710523956E+02  0.16670034510E+03  0.12509012688E+03 0.  0.
          5    1    3    3  502    0  0.96482389941E+02 -0.61932583625E+02  0.26540034669E+02  0.11775543437E+03  0.41800000000E+01 0. -1.
         -5    1    3    3    0  502 -0.13399841924E+02 -0.77111574607E+01 -0.46250558625E+02  0.48944910727E+02  0.41800000000E+01 0. -1.
        -11    1    1    2    0    0  0.75738082551E+00  0.55011236209E+02 -0.40519380376E+02  0.68327373146E+02  0.00000000000E+00 0. -1.
         11    1    1    2    0    0 -0.83839928842E+02  0.14632504877E+02 -0.41204889875E+02  0.94557320271E+02  0.00000000000E+00 0.  1.
</event>
<event>
 7    1  0.2900135E-009  0.8375388E+02  0.7561462E-02  0.1318724E+00
         -1   -1    0    0    0  501 -0.00000000000E+00  0.00000000000E+00  0.10602658465E+03  0.10602658465E+03  0.00000000000E+00 0.  1.
          1   -1    0    0  501    0  0.00000000000E+00 -0.00000000000E+00 -0.15353465855E+03  0.15353465855E+03  0.00000000000E+00 0. -1.
         25    2    1    2    0    0 -0.16647214414E+02 -0.47342766211E+01  0.39685727649E+02  0.13236839612E+03  0.12508753811E+03 0.  0.
          5    1    3    3  502    0  0.22957811465E+02 -0.21469794052E+02  0.71833265057E+02  0.78520720404E+02  0.41800000000E+01 0. -1.
         -5    1    3    3    0  502 -0.39605025879E+02  0.16735517431E+02 -0.32147537409E+02  0.53847675716E+02  0.41800000000E+01 0. -1.
        -11    1    1    2    0    0  0.34811141512E+02 -0.34719550355E+02 -0.46789296321E+02  0.67871208921E+02  0.00000000000E+00 0.  1.
         11    1    1    2    0    0 -0.18163927098E+02  0.39453826976E+02 -0.40404505226E+02  0.59321638154E+02  0.00000000000E+00 0. -1.
</event>
<event>
 7    1  0.2900135E-009  0.1110539E+03  0.7561462E-02  0.1258631E+00
         -1   -1    0    0    0  501 -0.00000000000E+00  0.00000000000E+00  0.51083529576E+03  0.51083529576E+03  0.00000000000E+00 0.  1.
          1   -1    0    0  501    0  0.00000000000E+00 -0.00000000000E+00 -0.45101883504E+02  0.45101883504E+02  0.00000000000E+00 0. -1.
         25    2    1    2    0    0  0.71734978399E+02  0.73250303574E+02  0.30169782345E+03  0.34231655222E+03  0.12509009213E+03 0.  0.
          5    1    3    3  502    0  0.50574052672E+02  0.56779386034E+02  0.30555759653E+03  0.31490403408E+03  0.41800000000E+01 0.  1.
         -5    1    3    3    0  502  0.21160925727E+02  0.16470917540E+02 -0.38597730854E+01  0.27412518135E+02  0.41800000000E+01 0.  1.
        -11    1    1    2    0    0 -0.74468040085E+02 -0.38263661274E+02  0.15685442217E+03  0.17780018708E+03  0.00000000000E+00 0.  1.
         11    1    1    2    0    0  0.27330616866E+01 -0.34986642299E+02  0.71811666349E+01  0.35820439972E+02  0.00000000000E+00 0. -1.
</event>
<event>
 7    1  0.2900135E-009  0.7877761E+02  0.7561462E-02  0.1332557E+00
         -1   -1    0    0    0  501 -0.00000000000E+00  0.00000000000E+00  0.20467162772E+03  0.20467162772E+03  0.00000000000E+00 0.  1.
          1   -1    0    0  501    0  0.00000000000E+00 -0.00000000000E+00 -0.74790661573E+02  0.74790661573E+02  0.00000000000E+00 0. -1.
         25    2    1    2    0    0  0.59949020687E+02 -0.19097073790E+02  0.60764820671E+02  0.15263885448E+03  0.12509065975E+03 0.  0.
          5    1    3    3  502    0  0.36710170373E+02 -0.10230243663E+02 -0.36030536031E+02  0.52611466629E+02  0.41800000000E+01 0.  1.
         -5    1    3    3    0  502  0.23238850314E+02 -0.88668301278E+01  0.96795356702E+02  0.10002738785E+03  0.41800000000E+01 0.  1.
        -11    1    1    2    0    0 -0.73200207459E+02  0.27623123819E+02  0.76498470416E+02  0.10942268192E+03  0.00000000000E+00 0.  1.
         11    1    1    2    0    0  0.13251186772E+02 -0.85260500286E+01 -0.73823249413E+01  0.17400752900E+02  0.00000000000E+00 0. -1.
</event>
<event>
 7    1  0.2900135E-009  0.8341418E+02  0.7561462E-02  0.1319632E+00
         -1   -1    0    0    0  501 -0.00000000000E+00  0.00000000000E+00  0.20956069904E+02  0.20956069904E+02  0.00000000000E+00 0.  1.
          1   -1    0    0  501    0  0.00000000000E+00 -0.00000000000E+00 -0.56452796491E+03  0.56452796491E+03  0.00000000000E+00 0. -1.
         25    2    1    2    0    0  0.24401385796E+02  0.41526696125E+01 -0.32762872460E+03  0.35156932367E+03  0.12509091042E+03 0.  0.
          5    1    3    3  502    0  0.26416512048E+02 -0.46165483213E+02 -0.64852425168E+02  0.83978529394E+02  0.41800000000E+01 0. -1.
         -5    1    3    3    0  502 -0.20151262523E+01  0.50318152825E+02 -0.26277629943E+03  0.26759079427E+03  0.41800000000E+01 0. -1.
        -11    1    1    2    0    0  0.16948313148E+02 -0.12116441045E+02 -0.89385959135E+01  0.22670508575E+02  0.00000000000E+00 0.  1.
         11    1    1    2    0    0 -0.41349698944E+02  0.79637714325E+01 -0.20700457449E+03  0.21124420257E+03  0.00000000000E+00 0. -1.
</event>
<event>
 7    1  0.2900135E-009  0.1433154E+03  0.7561462E-02  0.1208936E+00
         -2   -1    0    0    0  501 -0.00000000000E+00  0.00000000000E+00  0.34101227558E+03  0.34101227558E+03  0.00000000000E+00 0.  1.
          2   -1    0    0  501    0  0.00000000000E+00 -0.00000000000E+00 -0.84982893782E+02  0.84982893782E+02  0.00000000000E+00 0. -1.
         25    2    1    2    0    0 -0.91335069203E+02  0.93477778577E+02  0.10046864585E+03  0.20693284282E+03  0.12508821962E+03 0.  0.
          5    1    3    3  502    0 -0.23081542716E+02  0.37289307744E+02 -0.27060696901E+02  0.51701100597E+02  0.41800000000E+01 0.  1.
         -5    1    3    3    0  502 -0.68253526487E+02  0.56188470833E+02  0.12752934275E+03  0.15523174223E+03  0.41800000000E+01 0.  1.
        -11    1    1    2    0    0  0.39169697369E+02 -0.94074495070E+02  0.98035253810E+02  0.14140433800E+03  0.00000000000E+00 0.  1.
         11    1    1    2    0    0  0.52165371834E+02  0.59671649314E+00  0.57525482143E+02  0.77657988545E+02  0.00000000000E+00 0. -1.
</event>
<event>
 7    1  0.2900135E-009  0.1465313E+03  0.7561462E-02  0.1204801E+00
         -2   -1    0    0    0  501 -0.00000000000E+00  0.00000000000E+00  0.19087695002E+03  0.19087695002E+03  0.00000000000E+00 0.  1.
          2   -1    0    0  501    0  0.00000000000E+00 -0.00000000000E+00 -0.20429755931E+03  0.20429755931E+03  0.00000000000E+00 0. -1.
         25    2    1    2    0    0 -0.99632528030E+02 -0.36477224941E+02 -0.13335964328E+03  0.21139935819E+03  0.12509062957E+03 0.  0.
          5    1    3    3  502    0 -0.17088605319E+02  0.42137233496E+02 -0.61449518773E+02  0.76557707880E+02  0.41800000000E+01 0. -1.
         -5    1    3    3    0  502 -0.82543922711E+02 -0.78614458437E+02 -0.71910124508E+02  0.13484165031E+03  0.41800000000E+01 0. -1.
        -11    1    1    2    0    0  0.30789202825E+02  0.54120370288E+02  0.29912329781E+02  0.69077760268E+02  0.00000000000E+00 0. -1.
         11    1    1    2    0    0  0.68843325205E+02 -0.17643145347E+02  0.90026704210E+02  0.11469739088E+03  0.00000000000E+00 0.  1.
</event>
<event>
 7    1  0.2900135E-009  0.1336249E+03  0.7561462E-02  0.1222174E+00
         -1   -1    0    0    0  501 -0.00000000000E+00  0.00000000000E+00  0.22147373758E+02  0.22147373758E+02  0.00000000000E+00 0.  1.
          1   -1    0    0  501    0  0.00000000000E+00 -0.00000000000E+00 -0.14428840222E+04  0.14428840222E+04  0.00000000000E+00 0. -1.
         25    2    1    2    0    0 -0.88533576577E+02 -0.32036802130E+00 -0.12027798106E+04  0.12125039857E+04  0.12509334835E+03 0.  0.
          5    1    3    3  502    0 -0.11837950616E+03 -0.11858363723E+02 -0.85838899582E+03  0.86660456312E+03  0.41800000000E+01 0. -1.
         -5    1    3    3    0  502  0.29845929586E+02  0.11537995702E+02 -0.34439081474E+03  0.34589942257E+03  0.41800000000E+01 0. -1.
        -11    1    1    2    0    0  0.21339823635E+02  0.34484868199E+02 -0.31311333250E+02  0.51234693299E+02  0.00000000000E+00 0.  1.
         11    1    1    2    0    0  0.67193752942E+02 -0.34164500178E+02 -0.18664550464E+03  0.20129271698E+03  0.00000000000E+00 0. -1.
</event>
<event>
 7    1  0.2900135E-009  0.1634656E+03  0.7561462E-02  0.1184839E+00
         -2   -1    0    0    0  501 -0.00000000000E+00  0.00000000000E+00  0.15778815741E+02  0.15778815741E+02  0.00000000000E+00 0.  1.
          2   -1    0    0  501    0  0.00000000000E+00 -0.00000000000E+00 -0.25696144097E+04  0.25696144097E+04  0.00000000000E+00 0. -1.
         25    2    1    2    0    0 -0.39125737243E+02  0.14566391106E+03 -0.17967942342E+04  0.18074475654E+04  0.12509349821E+03 0.  0.
          5    1    3    3  502    0 -0.67041570044E+01  0.30621285222E+02 -0.73579556002E+02  0.80087653800E+02  0.41800000000E+01 0.  1.
         -5    1    3    3    0  502 -0.32421580238E+02  0.11504262584E+03 -0.17232146782E+04  0.17273599116E+04  0.41800000000E+01 0.  1.
        -11    1    1    2    0    0 -0.17989540472E+02 -0.10263680352E+03 -0.37190273335E+03  0.38622477921E+03  0.00000000000E+00 0.  1.
         11    1    1    2    0    0  0.57115277715E+02 -0.43027107543E+02 -0.38513862639E+03  0.39172088082E+03  0.00000000000E+00 0. -1.
</event>
<event>
 7    1  0.2900135E-009  0.1060760E+03  0.7561462E-02  0.1268014E+00
          1   -1    0    0  501    0  0.00000000000E+00  0.00000000000E+00  0.21915881605E+03  0.21915881605E+03  0.00000000000E+00 0. -1.
         -1   -1    0    0    0  501 -0.00000000000E+00 -0.00000000000E+00 -0.62448417011E+02  0.62448417011E+02  0.00000000000E+00 0.  1.
         25    2    1    2    0    0  0.27532723808E+02 -0.19045601493E+02  0.12146614590E+03  0.17754845924E+03  0.12509454410E+03 0.  0.
          5    1    3    3  502    0  0.66663030676E+02  0.68998075706E+01  0.27772423456E+02  0.72665995542E+02  0.41800000000E+01 0.  1.
         -5    1    3    3    0  502 -0.39130306868E+02 -0.25945409064E+02  0.93693722441E+02  0.10488246370E+03  0.41800000000E+01 0.  1.
        -11    1    1    2    0    0  0.33079624326E+02  0.17064335773E+02  0.11927030352E+02  0.39085894565E+02  0.00000000000E+00 0.  1.
         11    1    1    2    0    0 -0.60612348134E+02  0.19812657200E+01  0.23317222793E+02  0.64972879257E+02  0.00000000000E+00 0. -1.
</event>
<event>
 7    1  0.2900135E-009  0.2862662E+03  0.7561462E-02  0.1092315E+00
          2   -1    0    0  501    0  0.00000000000E+00  0.00000000000E+00  0.27519870631E+03  0.27519870631E+03  0.00000000000E+00 0. -1.
         -2   -1    0    0    0  501 -0.00000000000E+00 -0.00000000000E+00 -0.36799153166E+03  0.36799153166E+03  0.00000000000E+00 0.  1.
         25    2    1    2    0    0 -0.56003712767E+02  0.27494727962E+03  0.56534527419E+02  0.31237107485E+03  0.12508842154E+03 0.  0.
          5    1    3    3  502    0 -0.15845000662E+02  0.14513876050E+03  0.91048791412E+02  0.17211530630E+03  0.41800000000E+01 0. -1.
         -5    1    3    3    0  502 -0.40158712105E+02  0.12980851912E+03 -0.34514263994E+02  0.14025576855E+03  0.41800000000E+01 0. -1.
        -11    1    1    2    0    0  0.73730459413E+02 -0.19114844297E+03 -0.13115239830E+03  0.24325883227E+03  0.00000000000E+00 0.  1.
         11    1    1    2    0    0 -0.17726746646E+02 -0.83798836644E+02 -0.18174954470E+02  0.87560330855E+02  0.00000000000E+00 0. -1.
</event>
<event>
 7    1  0.2900135E-009  0.7325310E+02  0.7561462E-02  0.1349368E+00
         -1   -1    0    0    0  501 -0.00000000000E+00  0.00000000000E+00  0.57359761338E+02  0.57359761338E+02  0.00000000000E+00 0.  1.
          1   -1    0    0  501    0  0.00000000000E+00 -0.00000000000E+00 -0.22771321980E+03  0.22771321980E+03  0.00000000000E+00 0. -1.
         25    2    1    2    0    0  0.22650430001E+02 -0.11199289094E+02 -0.13581228059E+03  0.18636253202E+03  0.12509017438E+03 0.  0.
          5    1    3    3  502    0  0.15818919559E+02 -0.38443324110E+02 -0.14922060054E+03  0.15495930889E+03  0.41800000000E+01 0. -1.
         -5    1    3    3    0  502  0.68315104413E+01  0.27244035016E+02  0.13408319954E+02  0.31403223129E+02  0.41800000000E+01 0. -1.
        -11    1    1    2    0    0 -0.70296698759E+01 -0.30761738707E+02 -0.42806312986E+02  0.53179707204E+02  0.00000000000E+00 0. -1.
         11    1    1    2    0    0 -0.15620760125E+02  0.41961027801E+02  0.82651351151E+01  0.45530741916E+02  0.00000000000E+00 0.  1.
</event>
<event>
 7    1  0.3065617E-009  0.9634124E+02  0.7561462E-02  0.1288184E+00
          2   -1    0    0  501    0  0.00000000000E+00  0.00000000000E+00  0.29206106992E+03  0.29206106992E+03  0.00000000000E+00 0. -1.
         -2   -1    0    0    0  501 -0.00000000000E+00 -0.00000000000E+00 -0.79992609124E+02  0.79992609124E+02  0.00000000000E+00 0.  1.
         25    2    1    2    0    0  0.90818735473E+02 -0.19480372107E+02  0.17990019000E+03  0.23798973545E+03  0.12509000043E+03 0.  0.
          5    1    3    3  502    0  0.38769047385E+02  0.55150295925E+01  0.17557443655E+03  0.17993696051E+03  0.41800000000E+01 0.  1.
         -5    1    3    3    0  502  0.52049688088E+02 -0.24995401700E+02  0.43257534540E+01  0.58052774948E+02  0.41800000000E+01 0.  1.
        -11    1    1    2    0    0 -0.25901349880E+02  0.15902074637E+02 -0.31000591776E+02  0.43414198067E+02  0.00000000000E+00 0.  1.
         11    1    1    2    0    0 -0.64917385594E+02  0.35782974700E+01  0.63168862569E+02  0.90649745523E+02  0.00000000000E+00 0. -1.
</event>
<event>
 7    1  0.2900135E-009  0.7338671E+02  0.7561462E-02  0.1348941E+00
          2   -1    0    0  501    0  0.00000000000E+00  0.00000000000E+00  0.18132662219E+03  0.18132662219E+03  0.00000000000E+00 0.  1.
         -2   -1    0    0    0  501 -0.00000000000E+00 -0.00000000000E+00 -0.65307754240E+02  0.65307754240E+02  0.00000000000E+00 0. -1.
         25    2    1    2    0    0  0.43994031954E+01  0.13682148394E+02  0.63055592925E+02  0.14082788413E+03  0.12509967713E+03 0.  0.
          5    1    3    3  502    0 -0.34733814759E+02  0.31916193799E+02 -0.16556733204E+02  0.50166514018E+02  0.41800000000E+01 0. -1.
         -5    1    3    3    0  502  0.39133217955E+02 -0.18234045405E+02  0.79612326130E+02  0.90661370115E+02  0.41800000000E+01 0. -1.
        -11    1    1    2    0    0  0.24956776624E+02 -0.52944559139E+01 -0.16188426479E+02  0.30214849243E+02  0.00000000000E+00 0. -1.
         11    1    1    2    0    0 -0.29356179819E+02 -0.83876924802E+01  0.69151701505E+02  0.75591643055E+02  0.00000000000E+00 0.  1.
</event>
<event>
 7    1  0.2900135E-009  0.9011364E+02  0.7561462E-02  0.1302577E+00
          1   -1    0    0  501    0  0.00000000000E+00  0.00000000000E+00  0.15851220469E+03  0.15851220469E+03  0.00000000000E+00 0. -1.
         -1   -1    0    0    0  501 -0.00000000000E+00 -0.00000000000E+00 -0.11836502125E+03  0.11836502125E+03  0.00000000000E+00 0.  1.
         25    2    1    2    0    0  0.16585546217E+02  0.29714688002E+02  0.94419274233E+02  0.16037777046E+03  0.12509191375E+03 0.  0.
          5    1    3    3  502    0  0.30473446983E+02 -0.18864084683E+02  0.10283935861E+03  0.10898573641E+03  0.41800000000E+01 0. -1.
         -5    1    3    3    0  502 -0.13887900766E+02  0.48578772684E+02 -0.84200843732E+01  0.51392034052E+02  0.41800000000E+01 0. -1.
        -11    1    1    2    0    0 -0.48863950494E+02 -0.35832298648E+02 -0.57442024355E+02  0.83493864722E+02  0.00000000000E+00 0.  1.
         11    1    1    2    0    0  0.32278404278E+02  0.61176106467E+01  0.31699335583E+01  0.33005590761E+02  0.00000000000E+00 0. -1.
</event>
<event>
 7    1  0.2900135E-009  0.7700426E+02  0.7561462E-02  0.1337774E+00
          2   -1    0    0  501    0  0.00000000000E+00  0.00000000000E+00  0.36270464706E+02  0.36270464706E+02  0.00000000000E+00 0. -1.
         -2   -1    0    0    0  501 -0.00000000000E+00 -0.00000000000E+00 -0.36013277170E+03  0.36013277170E+03  0.00000000000E+00 0.  1.
         25    2    1    2    0    0  0.41209904865E+01  0.16973796580E+01 -0.90464913021E+02  0.15443713509E+03  0.12508822706E+03 0.  0.
          5    1    3    3  502    0  0.47551777762E+02  0.35531751764E+01  0.62942947808E+01  0.48279262307E+02  0.41800000000E+01 0.  1.
         -5    1    3    3    0  502 -0.43430787275E+02 -0.18557955184E+01 -0.96759207802E+02  0.10615787279E+03  0.41800000000E+01 0.  1.
        -11    1    1    2    0    0 -0.14376518662E+02  0.27769284756E+02 -0.14159038522E+03  0.14500225740E+03  0.00000000000E+00 0.  1.
         11    1    1    2    0    0  0.10255528175E+02 -0.29466664414E+02 -0.91807008749E+02  0.96963843908E+02  0.00000000000E+00 0. -1.
</event>
<event>
 7    1  0.2900135E-009  0.1542788E+03  0.7561462E-02  0.1195312E+00
          2   -1    0    0  501    0  0.00000000000E+00  0.00000000000E+00  0.19925600353E+03  0.19925600353E+03  0.00000000000E+00 0. -1.
         -2   -1    0    0    0  501 -0.00000000000E+00 -0.00000000000E+00 -0.12968046340E+03  0.12968046340E+03  0.00000000000E+00 0.  1.
         25    2    1    2    0    0 -0.57624825278E+00  0.11155861757E+03  0.89320557835E+00  0.16761298836E+03  0.12509060250E+03 0.  0.
          5    1    3    3  502    0 -0.34193143107E+02  0.12605003849E+03 -0.16175712474E+01  0.13068233307E+03  0.41800000000E+01 0. -1.
         -5    1    3    3    0  502  0.33616894854E+02 -0.14491420923E+02  0.25107768257E+01  0.36930655291E+02  0.41800000000E+01 0. -1.
        -11    1    1    2    0    0  0.42823915411E+02 -0.67983458598E+02  0.18206808326E+02  0.82384016918E+02  0.00000000000E+00 0.  1.
         11    1    1    2    0    0 -0.42247667159E+02 -0.43575158969E+02  0.50475526222E+02  0.78939461658E+02  0.00000000000E+00 0. -1.
</event>
<event>
 7    1  0.2900135E-009  0.3014569E+03  0.7561462E-02  0.1084515E+00
          2   -1    0    0  501    0  0.00000000000E+00  0.00000000000E+00  0.28477221013E+04  0.28477221013E+04  0.00000000000E+00 0. -1.
         -2   -1    0    0    0  501 -0.00000000000E+00 -0.00000000000E+00 -0.32848150542E+02  0.32848150542E+02  0.00000000000E+00 0.  1.
         25    2    1    2    0    0  0.16640243046E+03 -0.22831013025E+03  0.12312731903E+04  0.12694487315E+04  0.12510447040E+03 0.  0.
          5    1    3    3  502    0  0.93546731101E+02 -0.21182246574E+03  0.85511266007E+03  0.88592035856E+03  0.41800000000E+01 0. -1.
         -5    1    3    3    0  502  0.72855699361E+02 -0.16487664510E+02  0.37616053019E+03  0.38352837298E+03  0.41800000000E+01 0. -1.
        -11    1    1    2    0    0  0.72078773630E+01  0.38910255465E+02  0.20624002214E+03  0.21000216239E+03  0.00000000000E+00 0.  1.
         11    1    1    2    0    0 -0.17361030782E+03  0.18939987478E+03  0.13773607383E+04  0.14011193579E+04  0.00000000000E+00 0. -1.
</event>
<event>
 7    1  0.2900135E-009  0.6326739E+02  0.7561462E-02  0.1384610E+00
         -2   -1    0    0    0  501 -0.00000000000E+00  0.00000000000E+00  0.53195166529E+02  0.53195166529E+02  0.00000000000E+00 0.  1.
          2   -1    0    0  501    0  0.00000000000E+00 -0.00000000000E+00 -0.21832697686E+03  0.21832697686E+03  0.00000000000E+00 0. -1.
         25    2    1    2    0    0  0.18701515660E+02  0.28302475223E+01 -0.90216995959E+02  0.15536608066E+03  0.12506700473E+03 0.  0.
          5    1    3    3  502    0 -0.16460859367E+02 -0.23957435319E+02  0.20675601072E+02  0.35914780772E+02  0.41800000000E+01 0. -1.
         -5    1    3    3    0  502  0.35162375028E+02  0.26787682841E+02 -0.11089259703E+03  0.11945129989E+03  0.41800000000E+01 0. -1.
        -11    1    1    2    0    0 -0.35648194924E+02 -0.42429019749E+00  0.35676240135E+01  0.35828784023E+02  0.00000000000E+00 0.  1.
         11    1    1    2    0    0  0.16946679264E+02 -0.24059573248E+01 -0.78482438382E+02  0.80327278699E+02  0.00000000000E+00 0. -1.
</event>
<event>
 7    1  0.2900135E-009  0.1090450E+03  0.7561462E-02  0.1262349E+00
          2   -1    0    0  501    0  0.00000000000E+00  0.00000000000E+00  0.46411304604E+03  0.46411304604E+03  0.00000000000E+00 0. -1.
         -2   -1    0    0    0  501 -0.00000000000E+00 -0.00000000000E+00 -0.38499783588E+02  0.38499783588E+02  0.00000000000E+00 0.  1.
         25    2    1    2    0    0  0.33444737224E+02 -0.47153237737E+02  0.34208683595E+03  0.36880033038E+03  0.12509317359E+03 0.  0.
          5    1    3    3  502    0  0.38156535020E+01  0.31072698632E+02  0.23443432353E+02  0.39333684450E+02  0.41800000000E+01 0. -1.
         -5    1    3    3    0  502  0.29629083722E+02 -0.78225936370E+02  0.31864340360E+03  0.32946664593E+03  0.41800000000E+01 0. -1.
        -11    1    1    2    0    0 -0.60842630965E+02  0.44185798686E+02  0.49494142026E+02  0.90021556547E+02  0.00000000000E+00 0.  1.
         11    1    1    2    0    0  0.27397893742E+02  0.29674390514E+01  0.34032284468E+02  0.43790942695E+02  0.00000000000E+00 0. -1.
</event>
<event>
 7    1  0.2900135E-009  0.1469746E+03  0.7561462E-02  0.1204241E+00
         -1   -1    0    0    0  501 -0.00000000000E+00  0.00000000000E+00  0.24697665641E+03  0.24697665641E+03  0.00000000000E+00 0.  1.
          1   -1    0    0  501    0  0.00000000000E+00 -0.00000000000E+00 -0.41505314633E+03  0.41505314633E+03  0.00000000000E+00 0. -1.
         25    2    1    2    0    0 -0.94283778131E+02  0.40557570859E+02  0.20720456419E+03  0.26288543009E+03  0.12506266652E+03 0.  0.
          5    1    3    3  502    0 -0.41478078693E+02 -0.43717273638E+02  0.59651244645E+02  0.84896256773E+02  0.41800000000E+01 0. -1.
         -5    1    3    3    0  502 -0.52805699439E+02  0.84274844497E+02  0.14755331955E+03  0.17798917332E+03  0.41800000000E+01 0. -1.
        -11    1    1    2    0    0  0.26612332159E+02  0.27330324921E+02 -0.78698247699E+02  0.87456143719E+02  0.00000000000E+00 0. -1.
         11    1    1    2    0    0  0.67671445973E+02 -0.67887895780E+02 -0.29658280641E+03  0.31168822893E+03  0.00000000000E+00 0.  1.
</event>
<event>
 7    1  0.2900135E-009  0.9975920E+02  0.7561462E-02  0.1280803E+00
         -2   -1    0    0    0  501 -0.00000000000E+00  0.00000000000E+00  0.13872552976E+02  0.13872552976E+02  0.00000000000E+00 0. -1.
          2   -1    0    0  501    0  0.00000000000E+00 -0.00000000000E+00 -0.89844702636E+03  0.89844702636E+03  0.00000000000E+00 0.  1.
         25    2    1    2    0    0 -0.24068872288E+02  0.72037331253E+00 -0.43662168337E+03  0.45482465850E+03  0.12508855280E+03 0.  0.
          5    1    3    3  502    0 -0.26851809869E+02 -0.50389969298E+02 -0.10820879660E+03  0.12242052426E+03  0.41800000000E+01 0.  1.
         -5    1    3    3    0  502  0.27829375815E+01  0.51110342610E+02 -0.32841288677E+03  0.33240413424E+03  0.41800000000E+01 0.  1.
        -11    1    1    2    0    0  0.33944727599E+01 -0.43376431384E+02 -0.26241810045E+03  0.26600055769E+03  0.00000000000E+00 0. -1.
         11    1    1    2    0    0  0.20674399528E+02  0.42656058071E+02 -0.18553468956E+03  0.19149436315E+03  0.00000000000E+00 0.  1.
</event>
<event>
 7    1  0.2900135E-009  0.1300274E+03  0.7561462E-02  0.1227415E+00
          2   -1    0    0  501    0  0.00000000000E+00  0.00000000000E+00  0.38401600128E+03  0.38401600128E+03  0.00000000000E+00 0. -1.
         -2   -1    0    0    0  501 -0.00000000000E+00 -0.00000000000E+00 -0.52318321851E+02  0.52318321851E+02  0.00000000000E+00 0.  1.
         25    2    1    2    0    0  0.33147698997E+02 -0.62146933604E+02  0.26574360735E+03  0.30204642430E+03  0.12510542068E+03 0.  0.
          5    1    3    3  502    0  0.12603954648E+02  0.38509521193E+02  0.77632280078E+02  0.87670326824E+02  0.41800000000E+01 0. -1.
         -5    1    3    3    0  502  0.20543744348E+02 -0.10065645480E+03  0.18811132727E+03  0.21437609748E+03  0.41800000000E+01 0. -1.
        -11    1    1    2    0    0 -0.26659585253E+02  0.86908762587E+02  0.56313616630E+02  0.10693497986E+03  0.00000000000E+00 0. -1.
         11    1    1    2    0    0 -0.64881137441E+01 -0.24761828983E+02  0.96404554530E+01  0.27352918964E+02  0.00000000000E+00 0.  1.
</event>
<event>
 7    1  0.3476747E-009  0.1724831E+03  0.7561462E-02  0.1175283E+00
         -2   -1    0    0    0  501 -0.00000000000E+00  0.00000000000E+00  0.63270316047E+02  0.63270316047E+02  0.00000000000E+00 0.  1.
          2   -1    0    0  501    0  0.00000000000E+00 -0.00000000000E+00 -0.63804629444E+03  0.63804629444E+03  0.00000000000E+00 0. -1.
         25    2    1    2    0    0 -0.69302841492E+02  0.12686996989E+03 -0.14899860814E+03  0.24237871352E+03  0.12509189600E+03 0.  0.
          5    1    3    3  502    0  0.25045120250E+01 -0.23757217188E+02 -0.18734255237E+02  0.30645108391E+02  0.41800000000E+01 0. -1.
         -5    1    3    3    0  502 -0.71807353517E+02  0.15062718708E+03 -0.13026435290E+03  0.21173360513E+03  0.41800000000E+01 0. -1.
        -11    1    1    2    0    0  0.25640772923E+02 -0.75387558191E+01 -0.19041922113E+02  0.32815802187E+02  0.00000000000E+00 0.  1.
         11    1    1    2    0    0  0.43662068568E+02 -0.11933121407E+03 -0.40673544815E+03  0.42612209478E+03  0.00000000000E+00 0. -1.
</event>
<event>
 6    1  0.2900135E-009  0.9478314E+02  0.7561462E-02  0.1291665E+00
          2   -1    0    0  501    0  0.00000000000E+00  0.00000000000E+00  0.39502152195E+03  0.39502152195E+03  0.00000000000E+00 0. -1.
         -2   -1    0    0    0  501 -0.00000000000E+00 -0.00000000000E+00 -0.62975796533E+02  0.62975796533E+02  0.00000000000E+00 0.  1.
          5    1    1    2  502    0  0.18451575382E+02  0.89164908796E+01  0.19561103512E+03  0.19672598686E+03  0.41800000000E+01 0.  1.
         -5    1    1    2    0  502 -0.80925635588E+02  0.38624174331E+02  0.10419932486E+03  0.13753456671E+03  0.41800000000E+01 0.  1.
        -11    1    1    2    0    0  0.34002681737E+02 -0.30657007109E+02 -0.28952704661E+02  0.54169119961E+02  0.00000000000E+00 0.  1.
         11    1    1    2    0    0  0.28471378469E+02 -0.16883658101E+02  0.61188070096E+02  0.69567644957E+02  0.00000000000E+00 0. -1.
</event>
<event>
 7    1  0.2900135E-009  0.1575528E+03  0.7561462E-02  0.1191488E+00
          1   -1    0    0  501    0  0.00000000000E+00  0.00000000000E+00  0.66467806039E+02  0.66467806039E+02  0.00000000000E+00 0. -1.
         -1   -1    0    0    0  501 -0.00000000000E+00 -0.00000000000E+00 -0.50292204538E+03  0.50292204538E+03  0.00000000000E+00 0.  1.
         25    2    1    2    0    0  0.13019434825E+03 -0.57904333072E+02 -0.17095657033E+03  0.25529540492E+03  0.12508443041E+03 0.  0.
          5    1    3    3  502    0 -0.14412553940E+02 -0.30458291256E+01 -0.67401016712E+02  0.69118508665E+02  0.41800000000E+01 0. -1.
         -5    1    3    3    0  502  0.14460690219E+03 -0.54858503947E+02 -0.10355555362E+03  0.18617689626E+03  0.41800000000E+01 0. -1.
        -11    1    1    2    0    0 -0.75596382350E+02  0.18748345736E+02 -0.21886281600E+03  0.23230851409E+03  0.00000000000E+00 0.  1.
         11    1    1    2    0    0 -0.54597965896E+02  0.39155987336E+02 -0.46634853018E+02  0.81785932411E+02  0.00000000000E+00 0. -1.
</event>
<event>
 7    1  0.2900135E-009  0.1303808E+03  0.7561462E-02  0.1226892E+00
         -2   -1    0    0    0  501 -0.00000000000E+00  0.00000000000E+00  0.65986029297E+02  0.65986029297E+02  0.00000000000E+00 0.  1.
          2   -1    0    0  501    0  0.00000000000E+00 -0.00000000000E+00 -0.37032541947E+03  0.37032541947E+03  0.00000000000E+00 0. -1.
         25    2    1    2    0    0  0.83099157054E+02  0.56289240212E+02 -0.23098553691E+03  0.28120439682E+03  0.12509055145E+03 0.  0.
          5    1    3    3  502    0  0.20342071189E+02  0.87658053283E+02 -0.12815511247E+03  0.15664909645E+03  0.41800000000E+01 0. -1.
         -5    1    3    3    0  502  0.62757085865E+02 -0.31368813071E+02 -0.10283042444E+03  0.12455530037E+03  0.41800000000E+01 0. -1.
        -11    1    1    2    0    0 -0.62961052438E+02 -0.41513574064E+02  0.22860065646E+01  0.75449962105E+02  0.00000000000E+00 0.  1.
         11    1    1    2    0    0 -0.20138104616E+02 -0.14775666148E+02 -0.75639859834E+02  0.79657089850E+02  0.00000000000E+00 0. -1.
</event>
<event>
 7    1  0.2900135E-009  0.3562957E+03  0.7561462E-02  0.1060060E+00
         -1   -1    0    0    0  501 -0.00000000000E+00  0.00000000000E+00  0.99440803240E+02  0.99440803240E+02  0.00000000000E+00 0.  1.
          1   -1    0    0  501    0  0.00000000000E+00 -0.00000000000E+00 -0.18963098512E+04  0.18963098512E+04  0.00000000000E+00 0. -1.
         25    2    1    2    0    0  0.21532252662E+03 -0.26542009239E+03 -0.34595817567E+03  0.50214171255E+03  0.12509046429E+03 0.  0.
          5    1    3    3  502    0  0.10829374163E+03 -0.22166610098E+03 -0.21371058131E+03  0.32642469234E+03  0.41800000000E+01 0. -1.
         -5    1    3    3    0  502  0.10702878499E+03 -0.43753991406E+02 -0.13224759436E+03  0.17571702021E+03  0.41800000000E+01 0. -1.
        -11    1    1    2    0    0 -0.41292622698E+02  0.10746285244E+03 -0.37246516220E+03  0.38985079505E+03  0.00000000000E+00 0.  1.
         11    1    1    2    0    0 -0.17402990392E+03  0.15795723995E+03 -0.10784457100E+04  0.11037581468E+04  0.00000000000E+00 0. -1.
</event>
<event>
 7    1  0.2900135E-009  0.1062165E+03  0.7561462E-02  0.1267741E+00
          4   -1    0    0  501    0  0.00000000000E+00  0.00000000000E+00  0.16035063706E+03  0.16035063706E+03  0.00000000000E+00 0. -1.
         -4   -1    0    0    0  501 -0.00000000000E+00 -0.00000000000E+00 -0.11859274196E+03  0.11859274196E+03  0.00000000000E+00 0.  1.
         25    2    1    2    0    0 -0.65256072331E+01  0.83765116233E+02  0.30173431363E+02  0.15367840013E+03  0.12508971364E+03 0.  0.
          5    1    3    3  502    0  0.23999263840E+02  0.61999696457E+02  0.71501369610E+02  0.97723309818E+02  0.41800000000E+01 0.  1.
         -5    1    3    3    0  502 -0.30524871073E+02  0.21765419776E+02 -0.41327938247E+02  0.55955090311E+02  0.41800000000E+01 0.  1.
        -11    1    1    2    0    0  0.31799369957E+01 -0.95674009069E+02 -0.14097393489E+02  0.96759312285E+02  0.00000000000E+00 0.  1.
         11    1    1    2    0    0  0.33456702375E+01  0.11908892836E+02  0.25681857228E+02  0.28505666605E+02  0.00000000000E+00 0. -1.
</event>
<event>
 7    1  0.2900135E-009  0.7184151E+02  0.7561462E-02  0.1353941E+00
          1   -1    0    0  501    0  0.00000000000E+00  0.00000000000E+00  0.76316248966E+02  0.76316248966E+02  0.00000000000E+00 0. -1.
         -1   -1    0    0    0  501 -0.00000000000E+00 -0.00000000000E+00 -0.21336853358E+03  0.21336853358E+03  0.00000000000E+00 0.  1.
         25    2    1    2    0    0 -0.52506211799E+02 -0.28416389817E+02 -0.11492438330E+03  0.18005386504E+03  0.12508951575E+03 0.  0.
          5    1    3    3  502    0  0.61810596497E+01 -0.11022362258E+02  0.24413610290E+02  0.27806379404E+02  0.41800000000E+01 0. -1.
         -5    1    3    3    0  502 -0.58687271448E+02 -0.17394027559E+02 -0.13933799359E+03  0.15224748564E+03  0.41800000000E+01 0. -1.
        -11    1    1    2    0    0  0.96661473201E+01  0.24095247010E+02 -0.51386991228E+02  0.57572894664E+02  0.00000000000E+00 0.  1.
         11    1    1    2    0    0  0.42840064479E+02  0.43211428075E+01  0.29259089914E+02  0.52058022843E+02  0.00000000000E+00 0. -1.
</event>
<event>
 7    1  0.2900135E-009  0.1956781E+03  0.7561462E-02  0.1153437E+00
         -2   -1    0    0    0  501 -0.00000000000E+00  0.00000000000E+00  0.16476420915E+03  0.16476420915E+03  0.00000000000E+00 0.  1.
          2   -1    0    0  501    0  0.00000000000E+00 -0.00000000000E+00 -0.24437843828E+03  0.24437843828E+03  0.00000000000E+00 0. -1.
         25    2    1    2    0    0  0.82772198821E+02  0.14519432935E+03 -0.58182595490E+02  0.21671422701E+03  0.12508881484E+03 0.  0.
          5    1    3    3  502    0  0.82566557648E+01  0.13202281726E+03 -0.45014883328E+02  0.13979273502E+03  0.41800000000E+01 0. -1.
         -5    1    3    3    0  502  0.74515543056E+02  0.13171512092E+02 -0.13167712162E+02  0.76921491999E+02  0.41800000000E+01 0. -1.
        -11    1    1    2    0    0 -0.99616665394E+01 -0.93255680939E+02  0.16594654448E+02  0.95243054255E+02  0.00000000000E+00 0.  1.
         11    1    1    2    0    0 -0.72810532282E+02 -0.51938648415E+02 -0.38026288086E+02  0.97185366161E+02  0.00000000000E+00 0. -1.
</event>
<event>
 7    1  0.2900135E-009  0.1188788E+03  0.7561462E-02  0.1244958E+00
          2   -1    0    0  501    0  0.00000000000E+00  0.00000000000E+00  0.12688803914E+03  0.12688803914E+03  0.00000000000E+00 0. -1.
         -2   -1    0    0    0  501 -0.00000000000E+00 -0.00000000000E+00 -0.25801231575E+03  0.25801231575E+03  0.00000000000E+00 0.  1.
         25    2    1    2    0    0  0.54359841098E+02  0.10538542875E+03  0.19517917030E+02  0.17345717427E+03  0.12508141870E+03 0.  0.
          5    1    3    3  502    0  0.38685624820E+02  0.74286743658E+02 -0.48537917151E+02  0.96894270483E+02  0.41800000000E+01 0.  1.
         -5    1    3    3    0  502  0.15674216278E+02  0.31098685094E+02  0.68055834181E+02  0.76562903789E+02  0.41800000000E+01 0.  1.
        -11    1    1    2    0    0 -0.20837486694E+02 -0.32643736316E+02 -0.11931082832E+03  0.12543878239E+03  0.00000000000E+00 0.  1.
         11    1    1    2    0    0 -0.33522354404E+02 -0.72741692437E+02 -0.31331365314E+02  0.86004398235E+02  0.00000000000E+00 0. -1.
</event>
<event>
 7    1  0.2900135E-009  0.1104899E+03  0.7561462E-02  0.1259665E+00
          1   -1    0    0  501    0  0.00000000000E+00  0.00000000000E+00  0.53315775839E+03  0.53315775839E+03  0.00000000000E+00 0. -1.
         -1   -1    0    0    0  501 -0.00000000000E+00 -0.00000000000E+00 -0.28479423169E+02  0.28479423169E+02  0.00000000000E+00 0.  1.
         25    2    1    2    0    0  0.25879487433E+02  0.34351724818E+02  0.19626497439E+03  0.23668188278E+03  0.12509430282E+03 0.  0.
          5    1    3    3  502    0  0.45279618740E+01  0.74483509568E+02  0.16561259856E+03  0.18169562691E+03  0.41800000000E+01 0.  1.
         -5    1    3    3    0  502  0.21351525559E+02 -0.40131784750E+02  0.30652375831E+02  0.54986255874E+02  0.41800000000E+01 0.  1.
        -11    1    1    2    0    0 -0.52471476796E+02 -0.47633378351E+02  0.24263886905E+03  0.25277621602E+03  0.00000000000E+00 0.  1.
         11    1    1    2    0    0  0.26591989363E+02  0.13281653533E+02  0.65774491777E+02  0.72179082755E+02  0.00000000000E+00 0. -1.
</event>
<event>
 7    1  0.2900135E-009  0.1661396E+03  0.7561462E-02  0.1181934E+00
         -2   -1    0    0    0  501 -0.00000000000E+00  0.00000000000E+00  0.39241212043E+02  0.39241212043E+02  0.00000000000E+00 0.  1.
          2   -1    0    0  501    0  0.00000000000E+00 -0.00000000000E+00 -0.88703135736E+03  0.88703135736E+03  0.00000000000E+00 0. -1.
         25    2    1    2    0    0 -0.14122779254E+03  0.49879400832E+02 -0.50632641596E+03  0.54262959309E+03  0.12508873567E+03 0.  0.
          5    1    3    3  502    0  0.32259489884E+01  0.30272376470E+02 -0.21133105846E+03  0.21355353472E+03  0.41800000000E+01 0.  1.
         -5    1    3    3    0  502 -0.14445374153E+03  0.19607024362E+02 -0.29499535750E+03  0.32907605837E+03  0.41800000000E+01 0.  1.
        -11    1    1    2    0    0  0.10445462587E+03 -0.55863725614E+02 -0.31865281590E+03  0.33995755881E+03  0.00000000000E+00 0. -1.
         11    1    1    2    0    0  0.36773166667E+02  0.59843247816E+01 -0.22810913459E+02  0.43685417506E+02  0.00000000000E+00 0.  1.
</event>
<event>
 7    1  0.2900135E-009  0.1240293E+03  0.7561462E-02  0.1236594E+00
          1   -1    0    0  501    0  0.00000000000E+00  0.00000000000E+00  0.11278205868E+04  0.11278205868E+04  0.00000000000E+00 0. -1.
         -1   -1    0    0    0  501 -0.00000000000E+00 -0.00000000000E+00 -0.14198483373E+02  0.14198483373E+02  0.00000000000E+00 0.  1.
         25    2    1    2    0    0 -0.36574739576E+02  0.51146571220E+02  0.53447343187E+03  0.55250662202E+03  0.12509210480E+03 0.  0.
          5    1    3    3  502    0  0.10434009393E+02  0.81252360743E+02  0.36196934000E+03  0.37114699269E+03  0.41800000000E+01 0. -1.
         -5    1    3    3    0  502 -0.47008748969E+02 -0.30105789523E+02  0.17250409187E+03  0.18135962934E+03  0.41800000000E+01 0. -1.
        -11    1    1    2    0    0  0.54135236209E+02  0.19072434996E+01  0.28483624773E+03  0.28994128612E+03  0.00000000000E+00 0.  1.
         11    1    1    2    0    0 -0.17560496633E+02 -0.53053814720E+02  0.29431242378E+03  0.29957116198E+03  0.00000000000E+00 0. -1.
</event>
<event>
 7    1  0.2900135E-009  0.9778493E+02  0.7561462E-02  0.1285024E+00
          1   -1    0    0  501    0  0.00000000000E+00  0.00000000000E+00  0.19073101925E+03  0.19073101925E+03  0.00000000000E+00 0. -1.
         -1   -1    0    0    0  501 -0.00000000000E+00 -0.00000000000E+00 -0.10263252364E+03  0.10263252364E+03  0.00000000000E+00 0.  1.
         25    2    1    2    0    0  0.30675070942E+02  0.37022911978E+02 -0.27174787948E+02  0.13674519136E+03  0.12509645188E+03 0.  0.
          5    1    3    3  502    0  0.31247531984E+02  0.64279668841E+02 -0.60325344777E+02  0.93621064424E+02  0.41800000000E+01 0.  1.
         -5    1    3    3    0  502 -0.57246104229E+00 -0.27256756864E+02  0.33150556829E+02  0.43124126941E+02  0.41800000000E+01 0.  1.
        -11    1    1    2    0    0 -0.29553610426E+02 -0.63422771820E+02  0.10889266601E+03  0.12943522158E+03  0.00000000000E+00 0.  1.
         11    1    1    2    0    0 -0.11214605159E+01  0.26399859843E+02  0.63806175485E+01  0.27183129947E+02  0.00000000000E+00 0. -1.
</event>
<event>
 7    1  0.2900135E-009  0.1035134E+03  0.7561462E-02  0.1273077E+00
          2   -1    0    0  501    0  0.00000000000E+00  0.00000000000E+00  0.16821510948E+03  0.16821510948E+03  0.00000000000E+00 0. -1.
         -2   -1    0    0    0  501 -0.00000000000E+00 -0.00000000000E+00 -0.85118431076E+02  0.85118431076E+02  0.00000000000E+00 0.  1.
         25    2    1    2    0    0  0.21859981308E+01 -0.23068711987E+02  0.11937984703E+02  0.12777886880E+03  0.12509188532E+03 0.  0.
          5    1    3    3  502    0  0.23340547199E+02 -0.70863410873E+02  0.50718962991E+01  0.74897267482E+02  0.41800000000E+01 0. -1.
         -5    1    3    3    0  502 -0.21154549069E+02  0.47794698887E+02  0.68660884039E+01  0.52881601318E+02  0.41800000000E+01 0. -1.
        -11    1    1    2    0    0 -0.21419993434E+02 -0.22098186535E+02 -0.85499374084E+01  0.31941311754E+02  0.00000000000E+00 0.  1.
         11    1    1    2    0    0  0.19233995304E+02  0.45166898522E+02  0.79708631113E+02  0.93613360004E+02  0.00000000000E+00 0. -1.
</event>
<event>
 7    1  0.2900135E-009  0.1136829E+03  0.7561462E-02  0.1253898E+00
         -1   -1    0    0    0  501 -0.00000000000E+00  0.00000000000E+00  0.17087040632E+03  0.17087040632E+03  0.00000000000E+00 0.  1.
          1   -1    0    0  501    0  0.00000000000E+00 -0.00000000000E+00 -0.11936548016E+03  0.11936548016E+03  0.00000000000E+00 0. -1.
         25    2    1    2    0    0 -0.82156655058E+02 -0.31109955989E+02 -0.62490204145E+01  0.15299653417E+03  0.12510533114E+03 0.  0.
          5    1    3    3  502    0 -0.78090804753E+02  0.12341028906E+02  0.40482274797E+02  0.88919973876E+02  0.41800000000E+01 0. -1.
         -5    1    3    3    0  502 -0.40658503050E+01 -0.43450984895E+02 -0.46731295212E+02  0.64076560295E+02  0.41800000000E+01 0. -1.
        -11    1    1    2    0    0  0.44604347590E+02  0.45892770541E+02  0.70212755896E+02  0.95002764709E+02  0.00000000000E+00 0.  1.
         11    1    1    2    0    0  0.37552307468E+02 -0.14782814552E+02 -0.12458809316E+02  0.42236587597E+02  0.00000000000E+00 0. -1.
</event>
<event>
 7    1  0.2900135E-009  0.1681695E+03  0.7561462E-02  0.1179770E+00
         -3   -1    0    0    0  501 -0.00000000000E+00  0.00000000000E+00  0.68315248022E+03  0.68315248022E+03  0.00000000000E+00 0.  1.
          3   -1    0    0  501    0  0.00000000000E+00 -0.00000000000E+00 -0.47713689586E+02  0.47713689586E+02  0.00000000000E+00 0. -1.
         25    2    1    2    0    0 -0.64974598303E+02 -0.11623521425E+03  0.23277201570E+03  0.29590901892E+03  0.12508801994E+03 0.  0.
          5    1    3    3  502    0 -0.49687072666E+02  0.12804220441E+02  0.51338148133E+02  0.72703721397E+02  0.41800000000E+01 0. -1.
         -5    1    3    3    0  502 -0.15287525637E+02 -0.12903943469E+03  0.18143386756E+03  0.22320529753E+03  0.41800000000E+01 0. -1.
        -11    1    1    2    0    0  0.30474260294E+01 -0.12033999687E+02  0.66046777653E+01  0.14061497867E+02  0.00000000000E+00 0. -1.
         11    1    1    2    0    0  0.61927172273E+02  0.12826921394E+03  0.39606209718E+03  0.42089565302E+03  0.00000000000E+00 0.  1.
</event>
<event>
 7    1  0.2900135E-009  0.9947844E+02  0.7561462E-02  0.1281397E+00
         -2   -1    0    0    0  501 -0.00000000000E+00  0.00000000000E+00  0.79250513125E+03  0.79250513125E+03  0.00000000000E+00 0.  1.
          2   -1    0    0  501    0  0.00000000000E+00 -0.00000000000E+00 -0.17003963188E+02  0.17003963188E+02  0.00000000000E+00 0. -1.
         25    2    1    2    0    0  0.31404557899E+02  0.22246898839E+02  0.48059403200E+03  0.49809410561E+03  0.12508374667E+03 0.  0.
          5    1    3    3  502    0  0.30241426858E+02  0.56786920215E+02  0.12358258609E+03  0.13938947662E+03  0.41800000000E+01 0. -1.
         -5    1    3    3    0  502  0.11631310405E+01 -0.34540021376E+02  0.35701144591E+03  0.35870462899E+03  0.41800000000E+01 0. -1.
        -11    1    1    2    0    0  0.10956361448E+02 -0.48575712667E+02  0.16076831118E+03  0.16830356977E+03  0.00000000000E+00 0.  1.
         11    1    1    2    0    0 -0.42360919347E+02  0.26328813828E+02  0.13413882488E+03  0.14311141906E+03  0.00000000000E+00 0. -1.
</event>
<event>
 7    1  0.2900135E-009  0.1342757E+03  0.7561462E-02  0.1221246E+00
          2   -1    0    0  501    0  0.00000000000E+00  0.00000000000E+00  0.31711170391E+03  0.31711170391E+03  0.00000000000E+00 0.  1.
         -2   -1    0    0    0  501 -0.00000000000E+00 -0.00000000000E+00 -0.62192547977E+02  0.62192547977E+02  0.00000000000E+00 0. -1.
         25    2    1    2    0    0  0.37701912095E+02  0.73281932901E+02  0.18221562014E+03  0.23588408798E+03  0.12508834826E+03 0.  0.
          5    1    3    3  502    0 -0.44173036263E+02  0.21628346588E+02  0.38715367697E+02  0.62732723556E+02  0.41800000000E+01 0.  1.
         -5    1    3    3    0  502  0.81874948358E+02  0.51653586313E+02  0.14350025245E+03  0.17315136442E+03  0.41800000000E+01 0.  1.
        -11    1    1    2    0    0  0.30098419169E+02 -0.21898235255E+02  0.32118790762E+02  0.49163647787E+02  0.00000000000E+00 0.  1.
         11    1    1    2    0    0 -0.67800331264E+02 -0.51383697646E+02  0.40584745029E+02  0.94256516127E+02  0.00000000000E+00 0. -1.
</event>
<event>
 7    1  0.2900135E-009  0.1025508E+03  0.7561462E-02  0.1275022E+00
         -2   -1    0    0    0  501 -0.00000000000E+00  0.00000000000E+00  0.23145004179E+03  0.23145004179E+03  0.00000000000E+00 0.  1.
          2   -1    0    0  501    0  0.00000000000E+00 -0.00000000000E+00 -0.75989564325E+02  0.75989564325E+02  0.00000000000E+00 0. -1.
         25    2    1    2    0    0  0.48266516726E+02 -0.30931362621E+02  0.14422769336E+03  0.19933903525E+03  0.12509203658E+03 0.  0.
          5    1    3    3  502    0  0.66165858579E+02 -0.58970628890E+02  0.13971607270E+03  0.16550984649E+03  0.41800000000E+01 0. -1.
         -5    1    3    3    0  502 -0.17899341853E+02  0.28039266269E+02  0.45116206554E+01  0.33829188767E+02  0.41800000000E+01 0. -1.
        -11    1    1    2    0    0 -0.37472129318E+01  0.37637538880E+02 -0.29047077802E+02  0.47690236596E+02  0.00000000000E+00 0.  1.
         11    1    1    2    0    0 -0.44519303794E+02 -0.67061762598E+01  0.40279861906E+02  0.60410334261E+02  0.00000000000E+00 0. -1.
</event>
<event>
 7    1  0.2900135E-009  0.1255332E+03  0.7561462E-02  0.1234238E+00
         -1   -1    0    0    0  501 -0.00000000000E+00  0.00000000000E+00  0.67535695593E+03  0.67535695593E+03  0.00000000000E+00 0.  1.
          1   -1    0    0  501    0  0.00000000000E+00 -0.00000000000E+00 -0.26015566384E+02  0.26015566384E+02  0.00000000000E+00 0. -1.
         25    2    1    2    0    0 -0.47383261835E+02  0.50169499177E+02  0.43958592922E+03  0.46221593839E+03  0.12508250231E+03 0.  0.
          5    1    3    3  502    0 -0.43587424556E+02  0.88933429989E+02  0.36164182413E+03  0.37498173277E+03  0.41800000000E+01 0.  1.
         -5    1    3    3    0  502 -0.37958372784E+01 -0.38763930812E+02  0.77944105091E+02  0.87234205625E+02  0.41800000000E+01 0.  1.
        -11    1    1    2    0    0  0.19790095993E+02  0.25466963990E+02  0.82384951190E+02  0.88473127767E+02  0.00000000000E+00 0. -1.
         11    1    1    2    0    0  0.27593165841E+02 -0.75636463167E+02  0.12737050914E+03  0.15068345616E+03  0.00000000000E+00 0.  1.
</event>
<event>
 7    1  0.2900135E-009  0.1067158E+03  0.7561462E-02  0.1266775E+00
          2   -1    0    0  501    0  0.00000000000E+00  0.00000000000E+00  0.30850833639E+03  0.30850833639E+03  0.00000000000E+00 0. -1.
         -2   -1    0    0    0  501 -0.00000000000E+00 -0.00000000000E+00 -0.53220078863E+02  0.53220078863E+02  0.00000000000E+00 0.  1.
         25    2    1    2    0    0 -0.48905500915E+02 -0.15377796573E+02  0.76928094217E+02  0.15554218402E+03  0.12508882717E+03 0.  0.
          5    1    3    3  502    0 -0.89792079916E+02 -0.17192849588E+01  0.63949839038E+02  0.11032963278E+03  0.41800000000E+01 0. -1.
         -5    1    3    3    0  502  0.40886579001E+02 -0.13658511614E+02  0.12978255179E+02  0.45212551238E+02  0.41800000000E+01 0. -1.
        -11    1    1    2    0    0  0.32806780568E+01  0.31617513156E+02  0.14229884744E+03  0.14580600800E+03  0.00000000000E+00 0. -1.
         11    1    1    2    0    0  0.45624822858E+02 -0.16239716583E+02  0.36061315872E+02  0.60380223235E+02  0.00000000000E+00 0.  1.
</event>
<event>
 7    1  0.2900135E-009  0.1790186E+03  0.7561462E-02  0.1168756E+00
          2   -1    0    0  501    0  0.00000000000E+00  0.00000000000E+00  0.38063583916E+03  0.38063583916E+03  0.00000000000E+00 0. -1.
         -2   -1    0    0    0  501 -0.00000000000E+00 -0.00000000000E+00 -0.10073930165E+03  0.10073930165E+03  0.00000000000E+00 0.  1.
         25    2    1    2    0    0  0.88214758567E+02  0.12762120017E+03  0.20672793282E+03  0.28715022503E+03  0.12509915733E+03 0.  0.
          5    1    3    3  502    0  0.10756699360E+03  0.79506435876E+02  0.95660152036E+02  0.16450005637E+03  0.41800000000E+01 0. -1.
         -5    1    3    3    0  502 -0.19352235033E+02  0.48114764298E+02  0.11106778079E+03  0.12265016866E+03  0.41800000000E+01 0. -1.
        -11    1    1    2    0    0 -0.98940202190E+01 -0.79811119570E+02  0.62679340658E+01  0.80665937301E+02  0.00000000000E+00 0. -1.
         11    1    1    2    0    0 -0.78320738348E+02 -0.47810080604E+02  0.66900670624E+02  0.11355897848E+03  0.00000000000E+00 0.  1.
</event>
<event>
 7    1  0.2900135E-009  0.1562264E+03  0.7561462E-02  0.1193024E+00
         -3   -1    0    0    0  501 -0.00000000000E+00  0.00000000000E+00  0.50319503379E+03  0.50319503379E+03  0.00000000000E+00 0.  1.
          3   -1    0    0  501    0  0.00000000000E+00 -0.00000000000E+00 -0.67745332749E+02  0.67745332749E+02  0.00000000000E+00 0. -1.
         25    2    1    2    0    0  0.11271399368E+03  0.74954604393E+02  0.13380526312E+03  0.22775824882E+03  0.12508930560E+03 0.  0.
          5    1    3    3  502    0  0.78245366243E+02  0.12948890079E+02  0.13506197087E+03  0.15668190536E+03  0.41800000000E+01 0.  1.
         -5    1    3    3    0  502  0.34468627439E+02  0.62005714314E+02 -0.12567077513E+01  0.71076343459E+02  0.41800000000E+01 0.  1.
        -11    1    1    2    0    0 -0.75684457693E+02 -0.93712658329E+02  0.20126801021E+03  0.23456131693E+03  0.00000000000E+00 0.  1.
         11    1    1    2    0    0 -0.37029535989E+02  0.18758053936E+02  0.10037642772E+03  0.10862080079E+03  0.00000000000E+00 0. -1.
</event>
<event>
 7    1  0.2900135E-009  0.1168697E+03  0.7561462E-02  0.1248352E+00
         -3   -1    0    0    0  501 -0.00000000000E+00  0.00000000000E+00  0.94230906189E+01  0.94230906189E+01  0.00000000000E+00 0.  1.
          3   -1    0    0  501    0  0.00000000000E+00 -0.00000000000E+00 -0.19199717076E+04  0.19199717076E+04  0.00000000000E+00 0. -1.
         25    2    1    2    0    0  0.74465432578E+02 -0.51912918700E+01 -0.12659837701E+04  0.12743369885E+04  0.12509118234E+03 0.  0.
          5    1    3    3  502    0  0.23209321623E+02 -0.45788319230E+02 -0.20638753287E+03  0.21271701604E+03  0.41800000000E+01 0. -1.
         -5    1    3    3    0  502  0.51256110955E+02  0.40597027361E+02 -0.10595962372E+04  0.10616199725E+04  0.41800000000E+01 0. -1.
        -11    1    1    2    0    0 -0.79678489190E+01  0.40602660965E+02 -0.21843586037E+03  0.22232023702E+03  0.00000000000E+00 0.  1.
         11    1    1    2    0    0 -0.66497583659E+02 -0.35411369095E+02 -0.42612898652E+03  0.43273757273E+03  0.00000000000E+00 0. -1.
</event>
<event>
 7    1  0.2900135E-009  0.1107800E+03  0.7561462E-02  0.1259132E+00
         -1   -1    0    0    0  501 -0.00000000000E+00  0.00000000000E+00  0.50354375472E+02  0.50354375472E+02  0.00000000000E+00 0.  1.
          1   -1    0    0  501    0  0.00000000000E+00 -0.00000000000E+00 -0.41611336704E+03  0.41611336704E+03  0.00000000000E+00 0. -1.
         25    2    1    2    0    0 -0.31784135405E+02 -0.79528628368E+02 -0.27173374571E+03  0.31116284090E+03  0.12509217005E+03 0.  0.
          5    1    3    3  502    0 -0.16187582678E+01 -0.82727551602E+02 -0.74040836789E+02  0.11111249293E+03  0.41800000000E+01 0. -1.
         -5    1    3    3    0  502 -0.30165377137E+02  0.31989232344E+01 -0.19769290892E+03  0.20005034797E+03  0.41800000000E+01 0. -1.
        -11    1    1    2    0    0 -0.10369392924E+02 -0.65354199379E+01  0.85374660911E+01  0.14937347510E+02  0.00000000000E+00 0.  1.
         11    1    1    2    0    0  0.42153528329E+02  0.86064048306E+02 -0.10256271196E+03  0.14036755410E+03  0.00000000000E+00 0. -1.
</event>
<event>
 7    1  0.2900135E-009  0.9708575E+02  0.7561462E-02  0.1286546E+00
         -2   -1    0    0    0  501 -0.00000000000E+00  0.00000000000E+00  0.30329780212E+02  0.30329780212E+02  0.00000000000E+00 0.  1.
          2   -1    0    0  501    0  0.00000000000E+00 -0.00000000000E+00 -0.58274819115E+03  0.58274819115E+03  0.00000000000E+00 0. -1.
         25    2    1    2    0    0  0.77221929479E+01  0.75634750984E+02 -0.33863744320E+03  0.36892246043E+03  0.12509282972E+03 0.  0.
          5    1    3    3  502    0 -0.65279469244E+01  0.51354585944E+02 -0.32076798694E+02  0.61043435380E+02  0.41800000000E+01 0.  1.
         -5    1    3    3    0  502  0.14250139872E+02  0.24280165041E+02 -0.30656064451E+03  0.30787902505E+03  0.41800000000E+01 0.  1.
        -11    1    1    2    0    0 -0.45014823366E+02 -0.27016479355E+02 -0.67150599768E+02  0.85237477254E+02  0.00000000000E+00 0.  1.
         11    1    1    2    0    0  0.37292630418E+02 -0.48618271629E+02 -0.14663036796E+03  0.15891803368E+03  0.00000000000E+00 0. -1.
</event>
<event>
 7    1  0.2900135E-009  0.1126212E+03  0.7561462E-02  0.1255791E+00
          2   -1    0    0  501    0  0.00000000000E+00  0.00000000000E+00  0.65927298871E+03  0.65927298871E+03  0.00000000000E+00 0. -1.
         -2   -1    0    0    0  501 -0.00000000000E+00 -0.00000000000E+00 -0.33458749871E+02  0.33458749871E+02  0.00000000000E+00 0.  1.
         25    2    1    2    0    0  0.73689642518E+02  0.15963892022E+02  0.18264148161E+03  0.23386041242E+03  0.12509105655E+03 0.  0.
          5    1    3    3  502    0  0.33742689118E+02  0.53314905446E+02  0.26854165420E+02  0.68699831238E+02  0.41800000000E+01 0.  1.
         -5    1    3    3    0  502  0.39946953400E+02 -0.37351013424E+02  0.15578731619E+03  0.16516058118E+03  0.41800000000E+01 0.  1.
        -11    1    1    2    0    0  0.33928215003E+01  0.21282183716E+02  0.30094440944E+02  0.37015104446E+02  0.00000000000E+00 0.  1.
         11    1    1    2    0    0 -0.77082464019E+02 -0.37246075738E+02  0.41307831628E+03  0.42185622171E+03  0.00000000000E+00 0. -1.
</event>
<event>
 7    1  0.2900135E-009  0.1804628E+03  0.7561462E-02  0.1167356E+00
         -2   -1    0    0    0  501 -0.00000000000E+00  0.00000000000E+00  0.31899324415E+03  0.31899324415E+03  0.00000000000E+00 0. -1.
          2   -1    0    0  501    0  0.00000000000E+00 -0.00000000000E+00 -0.17263304817E+03  0.17263304817E+03  0.00000000000E+00 0.  1.
         25    2    1    2    0    0 -0.10287168503E+03  0.13425171296E+03 -0.43334418362E+02  0.21478169200E+03  0.12508875805E+03 0.  0.
          5    1    3    3  502    0 -0.76754546592E+02  0.11821291430E+03 -0.83661041817E+02  0.16395790877E+03  0.41800000000E+01 0. -1.
         -5    1    3    3    0  502 -0.26117138434E+02  0.16038798657E+02  0.40326623455E+02  0.50823783228E+02  0.41800000000E+01 0. -1.
        -11    1    1    2    0    0 -0.36545738961E+01 -0.57678156197E+02  0.10744310669E+03  0.12200060159E+03  0.00000000000E+00 0. -1.
         11    1    1    2    0    0  0.10652625892E+03 -0.76573556759E+02  0.82251507650E+02  0.15484399874E+03  0.00000000000E+00 0.  1.
</event>
<event>
 7    1  0.2900135E-009  0.9831832E+02  0.7561462E-02  0.1283873E+00
         -2   -1    0    0    0  501 -0.00000000000E+00  0.00000000000E+00  0.72710173925E+02  0.72710173925E+02  0.00000000000E+00 0.  1.
          2   -1    0    0  501    0  0.00000000000E+00 -0.00000000000E+00 -0.21386837060E+03  0.21386837060E+03  0.00000000000E+00 0. -1.
         25    2    1    2    0    0 -0.54628623309E+02 -0.16646144401E+02 -0.52550198177E+02  0.14720830346E+03  0.12508949064E+03 0.  0.
          5    1    3    3  502    0 -0.64343964123E+02 -0.51900220977E+02 -0.68164260735E+02  0.10722694390E+03  0.41800000000E+01 0.  1.
         -5    1    3    3    0  502  0.97153408137E+01  0.35254076576E+02  0.15614062557E+02  0.39981359556E+02  0.41800000000E+01 0.  1.
        -11    1    1    2    0    0 -0.90432518102E+01 -0.43211796866E+01  0.13749679198E+02  0.17014895687E+02  0.00000000000E+00 0.  1.
         11    1    1    2    0    0  0.63671875120E+02  0.20967324087E+02 -0.10235767770E+03  0.12235534538E+03  0.00000000000E+00 0. -1.
</event>
<event>
 7    1  0.2900135E-009  0.1830910E+03  0.7561462E-02  0.1164845E+00
          2   -1    0    0  501    0  0.00000000000E+00  0.00000000000E+00  0.11310185250E+04  0.11310185250E+04  0.00000000000E+00 0. -1.
         -2   -1    0    0    0  501 -0.00000000000E+00 -0.00000000000E+00 -0.39798767628E+02  0.39798767628E+02  0.00000000000E+00 0.  1.
         25    2    1    2    0    0 -0.88053026077E+02 -0.15942862476E+03  0.57468807665E+03  0.61569852387E+03  0.12508982798E+03 0.  0.
          5    1    3    3  502    0 -0.32967233715E+02 -0.65650229441E+02  0.78019975320E+02  0.10724448738E+03  0.41800000000E+01 0. -1.
         -5    1    3    3    0  502 -0.55085792362E+02 -0.93778395317E+02  0.49666810133E+03  0.50845403649E+03  0.41800000000E+01 0. -1.
        -11    1    1    2    0    0  0.33063849797E+02  0.85129349287E+02  0.37585825199E+03  0.38679406647E+03  0.00000000000E+00 0. -1.
         11    1    1    2    0    0  0.54989176280E+02  0.74299275470E+02  0.14067342870E+03  0.16832470225E+03  0.00000000000E+00 0.  1.
</event>
<event>
 7    1  0.2900135E-009  0.1082319E+03  0.7561462E-02  0.1263880E+00
          2   -1    0    0  501    0  0.00000000000E+00  0.00000000000E+00  0.40147676914E+03  0.40147676914E+03  0.00000000000E+00 0. -1.
         -2   -1    0    0    0  501 -0.00000000000E+00 -0.00000000000E+00 -0.34697706010E+02  0.34697706010E+02  0.00000000000E+00 0.  1.
         25    2    1    2    0    0  0.12842918732E+02  0.43781220332E+02  0.22670643297E+03  0.26291768953E+03  0.12509264128E+03 0.  0.
          5    1    3    3  502    0  0.24249784760E+02 -0.31660630640E+02  0.14752631222E+03  0.15287881734E+03  0.41800000000E+01 0. -1.
         -5    1    3    3    0  502 -0.11406866027E+02  0.75441850972E+02  0.79180120742E+02  0.11003887218E+03  0.41800000000E+01 0. -1.
        -11    1    1    2    0    0 -0.51176801634E+02 -0.29316471684E+02  0.99036563199E+02  0.11526821499E+03  0.00000000000E+00 0. -1.
         11    1    1    2    0    0  0.38333882902E+02 -0.14464748648E+02  0.41036066962E+02  0.57988570629E+02  0.00000000000E+00 0.  1.
</event>
<event>
 7    1  0.2900135E-009  0.8875268E+02  0.7561462E-02  0.1305901E+00
          2   -1    0    0  501    0  0.00000000000E+00  0.00000000000E+00  0.55582311363E+03  0.55582311363E+03  0.00000000000E+00 0. -1.
         -2   -1    0    0    0  501 -0.00000000000E+00 -0.00000000000E+00 -0.29725094047E+02  0.29725094047E+02  0.00000000000E+00 0.  1.
         25    2    1    2    0    0  0.28117322657E+02 -0.53885287368E+02  0.38426996631E+03  0.40866375122E+03  0.12509375094E+03 0.  0.
          5    1    3    3  502    0  0.15887454549E+02 -0.63319620690E+02  0.77247887683E+02  0.10122496791E+03  0.41800000000E+01 0. -1.
         -5    1    3    3    0  502  0.12229868108E+02  0.94343333214E+01  0.30702207863E+03  0.30743878331E+03  0.41800000000E+01 0. -1.
        -11    1    1    2    0    0 -0.47509774672E+02  0.10630150714E+02  0.34844221469E+02  0.59869011712E+02  0.00000000000E+00 0.  1.
         11    1    1    2    0    0  0.19392452015E+02  0.43255136654E+02  0.10698383180E+03  0.11701544475E+03  0.00000000000E+00 0. -1.
</event>
<event>
 7    1  0.2900135E-009  0.1100113E+03  0.7561462E-02  0.1260549E+00
         -2   -1    0    0    0  501 -0.00000000000E+00  0.00000000000E+00  0.70214551629E+02  0.70214551629E+02  0.00000000000E+00 0.  1.
          2   -1    0    0  501    0  0.00000000000E+00 -0.00000000000E+00 -0.18044773215E+03  0.18044773215E+03  0.00000000000E+00 0. -1.
         25    2    1    2    0    0 -0.22296236180E+02  0.61314236346E+01 -0.44139044084E+02  0.13464739776E+03  0.12508776921E+03 0.  0.
          5    1    3    3  502    0  0.51366173907E+02  0.62725544558E+01 -0.81331830311E+01  0.52549498831E+02  0.41800000000E+01 0.  1.
         -5    1    3    3    0  502 -0.73662410087E+02 -0.14113082115E+00 -0.36005861052E+02  0.82097898925E+02  0.41800000000E+01 0.  1.
        -11    1    1    2    0    0 -0.21320370729E+02  0.30604988118E+02 -0.17997245354E+02  0.41414059763E+02  0.00000000000E+00 0.  1.
         11    1    1    2    0    0  0.43616606909E+02 -0.36736411752E+02 -0.48096891081E+02  0.74600826258E+02  0.00000000000E+00 0. -1.
</event>
<event>
 7    1  0.2900135E-009  0.9655106E+02  0.7561462E-02  0.1287720E+00
          2   -1    0    0  501    0  0.00000000000E+00  0.00000000000E+00  0.13423187269E+03  0.13423187269E+03  0.00000000000E+00 0. -1.
         -2   -1    0    0    0  501 -0.00000000000E+00 -0.00000000000E+00 -0.10655868446E+03  0.10655868446E+03  0.00000000000E+00 0.  1.
         25    2    1    2    0    0 -0.53769852599E+02  0.37015615551E+02  0.15654178710E+02  0.14196384781E+03  0.12508927983E+03 0.  0.
          5    1    3    3  502    0  0.21752437976E+02  0.32921292070E+01  0.48070189403E+02  0.53030389230E+02  0.41800000000E+01 0.  1.
         -5    1    3    3    0  502 -0.75522290575E+02  0.33723486344E+02 -0.32416010693E+02  0.88933458575E+02  0.41800000000E+01 0.  1.
        -11    1    1    2    0    0 -0.15581787491E+01 -0.32329511082E+02 -0.16581971037E+02  0.36367388844E+02  0.00000000000E+00 0.  1.
         11    1    1    2    0    0  0.55328031348E+02 -0.46861044690E+01  0.28600980562E+02  0.62459320498E+02  0.00000000000E+00 0. -1.
</event>
<event>
 7    1  0.2900135E-009  0.1382238E+03  0.7561462E-02  0.1215739E+00
         -1   -1    0    0    0  501 -0.00000000000E+00  0.00000000000E+00  0.45619948703E+02  0.45619948703E+02  0.00000000000E+00 0.  1.
          1   -1    0    0  501    0  0.00000000000E+00 -0.00000000000E+00 -0.43418916619E+03  0.43418916619E+03  0.00000000000E+00 0. -1.
         25    2    1    2    0    0  0.48987016862E+02  0.70460442927E+02 -0.25056600056E+03  0.29290663250E+03  0.12508626177E+03 0.  0.
          5    1    3    3  502    0 -0.32405719684E+01 -0.34219379625E+02 -0.55948594546E+02  0.65796541552E+02  0.41800000000E+01 0. -1.
         -5    1    3    3    0  502  0.52227588830E+02  0.10467982255E+03 -0.19461740602E+03  0.22711009095E+03  0.41800000000E+01 0. -1.
        -11    1    1    2    0    0 -0.19256030250E+01 -0.77196660696E+02 -0.98016689233E+02  0.12478102315E+03  0.00000000000E+00 0.  1.
         11    1    1    2    0    0 -0.47061413837E+02  0.67362177692E+01 -0.39986527691E+02  0.62121459247E+02  0.00000000000E+00 0. -1.
</event>
<event>
 7    1  0.2900135E-009  0.1328856E+03  0.7561462E-02  0.1223236E+00
         -2   -1    0    0    0  501 -0.00000000000E+00  0.00000000000E+00  0.17701066870E+02  0.17701066870E+02  0.00000000000E+00 0. -1.
          2   -1    0    0  501    0  0.00000000000E+00 -0.00000000000E+00 -0.10419556869E+04  0.10419556869E+04  0.00000000000E+00 0.  1.
         25    2    1    2    0    0 -0.11178296279E+02  0.35523561882E+02 -0.55732096505E+03  0.57239963066E+03  0.12509117213E+03 0.  0.
          5    1    3    3  502    0  0.37072333372E+02 -0.28794383009E+02 -0.26671950889E+03  0.27085096126E+03  0.41800000000E+01 0.  1.
         -5    1    3    3    0  502 -0.48250629651E+02  0.64317944890E+02 -0.29060145616E+03  0.30154866941E+03  0.41800000000E+01 0.  1.
        -11    1    1    2    0    0 -0.56569758653E+02  0.86879974466E+01 -0.16364428618E+03  0.17336398500E+03  0.00000000000E+00 0.  1.
         11    1    1    2    0    0  0.67748054932E+02 -0.44211559328E+02 -0.30328936878E+03  0.31389313809E+03  0.00000000000E+00 0. -1.
</event>
<event>
 7    1  0.2900135E-009  0.8256840E+02  0.7561462E-02  0.1321917E+00
         -4   -1    0    0    0  501 -0.00000000000E+00  0.00000000000E+00  0.52952670303E+02  0.52952670303E+02  0.00000000000E+00 0.  1.
          4   -1    0    0  501    0  0.00000000000E+00 -0.00000000000E+00 -0.25228774898E+03  0.25228774898E+03  0.00000000000E+00 0. -1.
         25    2    1    2    0    0  0.10750144577E+02  0.19568045018E+02 -0.15989841366E+03  0.20423497549E+03  0.12508376603E+03 0.  0.
          5    1    3    3  502    0  0.65965490141E+02  0.16660847269E+02 -0.64231057352E+02  0.93659654333E+02  0.41800000000E+01 0. -1.
         -5    1    3    3    0  502 -0.55215345564E+02  0.29071977489E+01 -0.95667356312E+02  0.11057532115E+03  0.41800000000E+01 0. -1.
        -11    1    1    2    0    0 -0.22864515644E+02 -0.18405060241E+02  0.23064987793E+02  0.37329960890E+02  0.00000000000E+00 0.  1.
         11    1    1    2    0    0  0.12114371067E+02 -0.11629847761E+01 -0.62501652806E+02  0.63675482907E+02  0.00000000000E+00 0. -1.
</event>
<event>
 7    1  0.2900135E-009  0.1228024E+03  0.7561462E-02  0.1238544E+00
          1   -1    0    0  501    0  0.00000000000E+00  0.00000000000E+00  0.12667265268E+04  0.12667265268E+04  0.00000000000E+00 0. -1.
         -1   -1    0    0    0  501 -0.00000000000E+00 -0.00000000000E+00 -0.20607675580E+02  0.20607675580E+02  0.00000000000E+00 0.  1.
         25    2    1    2    0    0 -0.26795769037E+02  0.87927950233E+02  0.96204903390E+03  0.97449241637E+03  0.12509111985E+03 0.  0.
          5    1    3    3  502    0  0.26375076562E+02  0.95942689626E+02  0.55203001099E+03  0.56094139603E+03  0.41800000000E+01 0. -1.
         -5    1    3    3    0  502 -0.53170845600E+02 -0.80147393929E+01  0.41001902292E+03  0.41355102034E+03  0.41800000000E+01 0. -1.
        -11    1    1    2    0    0  0.21531852650E+02 -0.62229493514E+02  0.27829789367E+03  0.28598225148E+03  0.00000000000E+00 0. -1.
         11    1    1    2    0    0  0.52639163874E+01 -0.25698456720E+02  0.57719236750E+01  0.26859534553E+02  0.00000000000E+00 0.  1.
</event>
<event>
 7    1  0.2900135E-009  0.1658573E+03  0.7561462E-02  0.1182238E+00
          1   -1    0    0  501    0  0.00000000000E+00  0.00000000000E+00  0.77838427846E+02  0.77838427846E+02  0.00000000000E+00 0. -1.
         -1   -1    0    0    0  501 -0.00000000000E+00 -0.00000000000E+00 -0.60022377219E+03  0.60022377219E+03  0.00000000000E+00 0.  1.
         25    2    1    2    0    0  0.14411105679E+03  0.30231056137E+02 -0.91998012241E+02  0.21397730526E+03  0.12506294201E+03 0.  0.
          5    1    3    3  502    0  0.28383436050E+02 -0.39033027873E+02  0.36497354445E+01  0.48579724945E+02  0.41800000000E+01 0.  1.
         -5    1    3    3    0  502  0.11572762074E+03  0.69264084010E+02 -0.95647747685E+02  0.16539758031E+03  0.41800000000E+01 0.  1.
        -11    1    1    2    0    0 -0.98403591017E+02 -0.12024837575E+02 -0.38355397866E+03  0.39615845061E+03  0.00000000000E+00 0.  1.
         11    1    1    2    0    0 -0.45707465777E+02 -0.18206218562E+02 -0.46833353441E+02  0.67926444163E+02  0.00000000000E+00 0. -1.
</event>
<event>
 7    1  0.2900135E-009  0.9908008E+02  0.7561462E-02  0.1282242E+00
          1   -1    0    0  501    0  0.00000000000E+00  0.00000000000E+00  0.37057152167E+03  0.37057152167E+03  0.00000000000E+00 0. -1.
         -1   -1    0    0    0  501 -0.00000000000E+00 -0.00000000000E+00 -0.37737524495E+02  0.37737524495E+02  0.00000000000E+00 0.  1.
         25    2    1    2    0    0  0.23086562906E+02 -0.36054338709E+01  0.26091587218E+03  0.29029246678E+03  0.12508651157E+03 0.  0.
          5    1    3    3  502    0  0.21332091207E+02 -0.62517502198E+02  0.11219232150E+03  0.13026160447E+03  0.41800000000E+01 0. -1.
         -5    1    3    3    0  502  0.17544716994E+01  0.58912068328E+02  0.14872355068E+03  0.16003086231E+03  0.41800000000E+01 0. -1.
        -11    1    1    2    0    0  0.79686598461E+01  0.30671900634E+02  0.69927997474E+02  0.76773627367E+02  0.00000000000E+00 0. -1.
         11    1    1    2    0    0 -0.31055222752E+02 -0.27066466763E+02  0.19901275219E+01  0.41242952014E+02  0.00000000000E+00 0.  1.
</event>
<event>
 7    1  0.2900135E-009  0.1542064E+03  0.7561462E-02  0.1195397E+00
         -1   -1    0    0    0  501 -0.00000000000E+00  0.00000000000E+00  0.37332785218E+03  0.37332785218E+03  0.00000000000E+00 0.  1.
          1   -1    0    0  501    0  0.00000000000E+00 -0.00000000000E+00 -0.80757959271E+02  0.80757959271E+02  0.00000000000E+00 0. -1.
         25    2    1    2    0    0 -0.12115770166E+03 -0.57885657088E+02  0.16046201769E+03  0.24377419302E+03  0.12509140697E+03 0.  0.
          5    1    3    3  502    0 -0.11130401786E+03 -0.18606448659E+02  0.16794544103E+03  0.20238065097E+03  0.41800000000E+01 0. -1.
         -5    1    3    3    0  502 -0.98536837986E+01 -0.39279208428E+02 -0.74834233413E+01  0.41393542057E+02  0.41800000000E+01 0. -1.
        -11    1    1    2    0    0  0.13234963647E+03  0.53576412153E+02  0.13650698840E+03  0.19753737898E+03  0.00000000000E+00 0.  1.
         11    1    1    2    0    0 -0.11191934810E+02  0.43092449350E+01 -0.43991131730E+01  0.12774239446E+02  0.00000000000E+00 0. -1.
</event>
<event>
 7    1  0.2900135E-009  0.9723514E+02  0.7561462E-02  0.1286220E+00
         -1   -1    0    0    0  501 -0.00000000000E+00  0.00000000000E+00  0.16258461614E+03  0.16258461614E+03  0.00000000000E+00 0.  1.
          1   -1    0    0  501    0  0.00000000000E+00 -0.00000000000E+00 -0.88446855112E+02  0.88446855112E+02  0.00000000000E+00 0. -1.
         25    2    1    2    0    0  0.14836869006E+01  0.45993911371E+02  0.28993357370E+02  0.13637880525E+03  0.12506367394E+03 0.  0.
          5    1    3    3  502    0 -0.20564188601E+02 -0.29685862587E+02  0.42894227449E+02  0.56227426038E+02  0.41800000000E+01 0. -1.
         -5    1    3    3    0  502  0.22047875502E+02  0.75679773958E+02 -0.13900870079E+02  0.80151379211E+02  0.41800000000E+01 0. -1.
        -11    1    1    2    0    0 -0.13373284850E+02  0.13207653664E+02  0.50643621329E+02  0.54019100736E+02  0.00000000000E+00 0.  1.
         11    1    1    2    0    0  0.11889597949E+02 -0.59201565035E+02 -0.54992176725E+01  0.60633565267E+02  0.00000000000E+00 0. -1.
</event>
<event>
 7    1  0.2900135E-009  0.1834146E+03  0.7561462E-02  0.1164539E+00
          2   -1    0    0  501    0  0.00000000000E+00  0.00000000000E+00  0.38832046227E+03  0.38832046227E+03  0.00000000000E+00 0. -1.
         -2   -1    0    0    0  501 -0.00000000000E+00 -0.00000000000E+00 -0.94206157158E+02  0.94206157158E+02  0.00000000000E+00 0.  1.
         25    2    1    2    0    0  0.87554859243E+02  0.12957130005E+03  0.13320142694E+03  0.24051106738E+03  0.12509347793E+03 0.  0.
          5    1    3    3  502    0  0.10226884171E+03  0.14228819468E+03  0.99975206232E+02  0.20178543206E+03  0.41800000000E+01 0.  1.
         -5    1    3    3    0  502 -0.14713982462E+02 -0.12716894632E+02  0.33226220707E+02  0.38725635326E+02  0.41800000000E+01 0.  1.
        -11    1    1    2    0    0 -0.73657809534E+02 -0.45784166454E+02  0.11914899246E+03  0.14737077460E+03  0.00000000000E+00 0.  1.
         11    1    1    2    0    0 -0.13897049709E+02 -0.83787133596E+02  0.41763885712E+02  0.94644777440E+02  0.00000000000E+00 0. -1.
</event>
<event>
 7    1  0.2900135E-009  0.1080928E+03  0.7561462E-02  0.1264143E+00
         -1   -1    0    0    0  501 -0.00000000000E+00  0.00000000000E+00  0.18681679615E+03  0.18681679615E+03  0.00000000000E+00 0.  1.
          1   -1    0    0  501    0  0.00000000000E+00 -0.00000000000E+00 -0.73369879180E+02  0.73369879180E+02  0.00000000000E+00 0. -1.
         25    2    1    2    0    0  0.37709647996E+02  0.10099804621E+02  0.39000149061E+02  0.13672660838E+03  0.12509648359E+03 0.  0.
          5    1    3    3  502    0  0.72582826582E+02 -0.17287885230E+02  0.51151734225E+02  0.90559980149E+02  0.41800000000E+01 0.  1.
         -5    1    3    3    0  502 -0.34873178586E+02  0.27387689851E+02 -0.12151585164E+02  0.46166628229E+02  0.41800000000E+01 0.  1.
        -11    1    1    2    0    0 -0.47574016094E+02 -0.42040320051E+02  0.37940668902E+02  0.73960596767E+02  0.00000000000E+00 0.  1.
         11    1    1    2    0    0  0.98643680987E+01  0.31940515431E+02  0.36506099007E+02  0.49499470186E+02  0.00000000000E+00 0. -1.
</event>
<event>
 7    1  0.2900135E-009  0.1299100E+03  0.7561462E-02  0.1227589E+00
         -1   -1    0    0    0  501 -0.00000000000E+00  0.00000000000E+00  0.94218925292E+02  0.94218925292E+02  0.00000000000E+00 0.  1.
          1   -1    0    0  501    0  0.00000000000E+00 -0.00000000000E+00 -0.29046490615E+03  0.29046490615E+03  0.00000000000E+00 0. -1.
         25    2    1    2    0    0  0.96583224803E+02  0.80221551711E+02 -0.11825537867E+03  0.21306456342E+03  0.12509339283E+03 0.  0.
          5    1    3    3  502    0  0.78937956821E+02  0.84293598698E+02 -0.14189240058E+03  0.18299600420E+03  0.41800000000E+01 0.  1.
         -5    1    3    3    0  502  0.17645267982E+02 -0.40720469871E+01  0.23637021916E+02  0.30068559226E+02  0.41800000000E+01 0.  1.
        -11    1    1    2    0    0 -0.60738379691E+02 -0.46956586255E+02  0.31992717244E+01  0.76839489195E+02  0.00000000000E+00 0.  1.
         11    1    1    2    0    0 -0.35844845113E+02 -0.33264965457E+02 -0.81189873917E+02  0.94779778828E+02  0.00000000000E+00 0. -1.
</event>
<event>
 7    1  0.2900135E-009  0.7462881E+02  0.7561462E-02  0.1345024E+00
         -1   -1    0    0    0  501 -0.00000000000E+00  0.00000000000E+00  0.69850747083E+02  0.69850747083E+02  0.00000000000E+00 0.  1.
          1   -1    0    0  501    0  0.00000000000E+00 -0.00000000000E+00 -0.19601076645E+03  0.19601076645E+03  0.00000000000E+00 0. -1.
         25    2    1    2    0    0 -0.18194482573E+02  0.12358635357E+02 -0.32930652829E+02  0.13120840437E+03  0.12508973745E+03 0.  0.
          5    1    3    3  502    0  0.76990696612E+01 -0.28184762468E+02  0.36310181112E+02  0.46792714833E+02  0.41800000000E+01 0.  1.
         -5    1    3    3    0  502 -0.25893552235E+02  0.40543397825E+02 -0.69240833941E+02  0.84415689533E+02  0.41800000000E+01 0.  1.
        -11    1    1    2    0    0 -0.14051271147E+02  0.20865402199E+02  0.53718391669E+01  0.25722750354E+02  0.00000000000E+00 0.  1.
         11    1    1    2    0    0  0.32245753720E+02 -0.33224037555E+02 -0.98601205703E+02  0.10893035881E+03  0.00000000000E+00 0. -1.
</event>
<event>
 7    1  0.2900135E-009  0.6033586E+02  0.7561462E-02  0.1396428E+00
         -2   -1    0    0    0  501 -0.00000000000E+00  0.00000000000E+00  0.89714987922E+02  0.89714987922E+02  0.00000000000E+00 0.  1.
          2   -1    0    0  501    0  0.00000000000E+00 -0.00000000000E+00 -0.13368065892E+03  0.13368065892E+03  0.00000000000E+00 0. -1.
         25    2    1    2    0    0 -0.11446656334E+02 -0.96727945625E+01 -0.49485977282E+02  0.13535448900E+03  0.12508951535E+03 0.  0.
          5    1    3    3  502    0  0.13654323235E+02 -0.82558390175E+01  0.39492109778E+02  0.42798347581E+02  0.41800000000E+01 0. -1.
         -5    1    3    3    0  502 -0.25100979569E+02 -0.14169555450E+01 -0.88978087060E+02  0.92556141423E+02  0.41800000000E+01 0. -1.
        -11    1    1    2    0    0  0.43954016561E+02  0.13447897908E+02 -0.16230286291E+02  0.48746525241E+02  0.00000000000E+00 0. -1.
         11    1    1    2    0    0 -0.32507360227E+02 -0.37751033450E+01  0.21750592570E+02  0.39294632602E+02  0.00000000000E+00 0.  1.
</event>
<event>
 7    1  0.2900135E-009  0.1628963E+03  0.7561462E-02  0.1185465E+00
         -1   -1    0    0    0  501 -0.00000000000E+00  0.00000000000E+00  0.17853708105E+03  0.17853708105E+03  0.00000000000E+00 0.  1.
          1   -1    0    0  501    0  0.00000000000E+00 -0.00000000000E+00 -0.17963933032E+03  0.17963933032E+03  0.00000000000E+00 0. -1.
         25    2    1    2    0    0  0.86097074058E+02 -0.11349123170E+03  0.35193392294E+01  0.18960970414E+03  0.12508592376E+03 0.  0.
          5    1    3    3  502    0  0.75294574084E+02 -0.13511669098E+03 -0.19510778054E+02  0.15596132831E+03  0.41800000000E+01 0.  1.
         -5    1    3    3    0  502  0.10802499974E+02  0.21625459274E+02  0.23030117283E+02  0.33648375838E+02  0.41800000000E+01 0.  1.
        -11    1    1    2    0    0 -0.13499757904E+02  0.22440597643E+01  0.28539386795E+02  0.31650843059E+02  0.00000000000E+00 0.  1.
         11    1    1    2    0    0 -0.72597316155E+02  0.11124717194E+03 -0.33160975303E+02  0.13691586417E+03  0.00000000000E+00 0. -1.
</event>
<event>
 7    1  0.2900135E-009  0.1040576E+03  0.7561462E-02  0.1271988E+00
          1   -1    0    0  501    0  0.00000000000E+00  0.00000000000E+00  0.60290016261E+03  0.60290016261E+03  0.00000000000E+00 0. -1.
         -1   -1    0    0    0  501 -0.00000000000E+00 -0.00000000000E+00 -0.29263461666E+02  0.29263461666E+02  0.00000000000E+00 0.  1.
         25    2    1    2    0    0  0.47966353372E+02  0.35263278263E+02  0.20837347376E+03  0.25022269246E+03  0.12509045288E+03 0.  0.
          5    1    3    3  502    0 -0.21173845197E+02  0.12484456931E+02  0.16178297135E+03  0.16369299192E+03  0.41800000000E+01 0.  1.
         -5    1    3    3    0  502  0.69140198570E+02  0.22778821332E+02  0.46590502415E+02  0.86529700536E+02  0.41800000000E+01 0.  1.
        -11    1    1    2    0    0 -0.18096226747E+01  0.30151937549E+02  0.12871282191E+03  0.13220969933E+03  0.00000000000E+00 0. -1.
         11    1    1    2    0    0 -0.46156730698E+02 -0.65415215812E+02  0.23655040526E+03  0.24973123248E+03  0.00000000000E+00 0.  1.
</event>
<event>
 7    1  0.2900135E-009  0.8037064E+02  0.7561462E-02  0.1328003E+00
         -1   -1    0    0    0  501 -0.00000000000E+00  0.00000000000E+00  0.72735664466E+02  0.72735664466E+02  0.00000000000E+00 0.  1.
          1   -1    0    0  501    0  0.00000000000E+00 -0.00000000000E+00 -0.21940985685E+03  0.21940985685E+03  0.00000000000E+00 0. -1.
         25    2    1    2    0    0  0.23664201535E+02  0.54907649113E+02 -0.11307201620E+03  0.17888169271E+03  0.12505412737E+03 0.  0.
          5    1    3    3  502    0 -0.27715915451E+02  0.14296741193E+02 -0.10864276683E+03  0.11310743548E+03  0.41800000000E+01 0.  1.
         -5    1    3    3    0  502  0.51380116986E+02  0.40610907919E+02 -0.44292493753E+01  0.65774257225E+02  0.41800000000E+01 0.  1.
        -11    1    1    2    0    0 -0.21448840142E+00 -0.27831488426E+02  0.29592029006E+02  0.40624203795E+02  0.00000000000E+00 0.  1.
         11    1    1    2    0    0 -0.23449713133E+02 -0.27076160687E+02 -0.63194205187E+02  0.72639624812E+02  0.00000000000E+00 0. -1.
</event>
<event>
 7    1  0.2900135E-009  0.1483747E+03  0.7561462E-02  0.1202484E+00
          1   -1    0    0  501    0  0.00000000000E+00  0.00000000000E+00  0.10647651826E+03  0.10647651826E+03  0.00000000000E+00 0. -1.
         -1   -1    0    0    0  501 -0.00000000000E+00 -0.00000000000E+00 -0.28877931457E+03  0.28877931457E+03  0.00000000000E+00 0.  1.
         25    2    1    2    0    0  0.11918900325E+03 -0.31223988015E+01 -0.20223683991E+02  0.17399246630E+03  0.12509441661E+03 0.  0.
          5    1    3    3  502    0 -0.18361070271E+02 -0.37179607352E+01  0.22804870963E+02  0.29807493574E+02  0.41800000000E+01 0. -1.
         -5    1    3    3    0  502  0.13755007352E+03  0.59556193369E+00 -0.43028554954E+02  0.14418497273E+03  0.41800000000E+01 0. -1.
        -11    1    1    2    0    0 -0.69021049164E+02  0.38046904546E+02 -0.49238289684E+02  0.92929442828E+02  0.00000000000E+00 0.  1.
         11    1    1    2    0    0 -0.50167954081E+02 -0.34924505745E+02 -0.11284082264E+03  0.12833392370E+03  0.00000000000E+00 0. -1.
</event>
<event>
 7    1  0.2900135E-009  0.1204747E+03  0.7561462E-02  0.1242316E+00
          1   -1    0    0  501    0  0.00000000000E+00  0.00000000000E+00  0.15194939321E+03  0.15194939321E+03  0.00000000000E+00 0. -1.
         -1   -1    0    0    0  501 -0.00000000000E+00 -0.00000000000E+00 -0.14690974181E+03  0.14690974181E+03  0.00000000000E+00 0.  1.
         25    2    1    2    0    0  0.98306061589E+02  0.36231090847E+02  0.18393782591E+01  0.16317900174E+03  0.12508888683E+03 0.  0.
          5    1    3    3  502    0  0.10059800850E+03  0.24189694985E+02 -0.46226080061E+02  0.11339939830E+03  0.41800000000E+01 0. -1.
         -5    1    3    3    0  502 -0.22919469103E+01  0.12041395861E+02  0.48065458320E+02  0.49779603438E+02  0.41800000000E+01 0. -1.
        -11    1    1    2    0    0 -0.31560107843E+02  0.19838585154E+02  0.26154227749E+02  0.45537385707E+02  0.00000000000E+00 0.  1.
         11    1    1    2    0    0 -0.66745953746E+02 -0.56069676000E+02 -0.22953954613E+02  0.90142747577E+02  0.00000000000E+00 0. -1.
</event>
<event>
 7    1  0.2900135E-009  0.2143162E+03  0.7561462E-02  0.1138193E+00
         -1   -1    0    0    0  501 -0.00000000000E+00  0.00000000000E+00  0.31279971128E+02  0.31279971128E+02  0.00000000000E+00 0.  1.
          1   -1    0    0  501    0  0.00000000000E+00 -0.00000000000E+00 -0.17763758153E+04  0.17763758153E+04  0.00000000000E+00 0. -1.
         25    2    1    2    0    0  0.10047635829E+02 -0.20839233382E+03 -0.94520339578E+03  0.97600465513E+03  0.12508919880E+03 0.  0.
          5    1    3    3  502    0  0.14748079277E+02 -0.73417087342E+02 -0.13344449256E+03  0.15307671132E+03  0.41800000000E+01 0.  1.
         -5    1    3    3    0  502 -0.47004434484E+01 -0.13497524648E+03 -0.81175890322E+03  0.82292794380E+03  0.41800000000E+01 0.  1.
        -11    1    1    2    0    0 -0.36960238254E+02  0.94246590961E+02 -0.25665600389E+03  0.27589995189E+03  0.00000000000E+00 0. -1.
         11    1    1    2    0    0  0.26912602425E+02  0.11414574286E+03 -0.54323644452E+03  0.55575117943E+03  0.00000000000E+00 0.  1.
</event>
<event>
 7    1  0.2900135E-009  0.2609299E+03  0.7561462E-02  0.1106586E+00
         -2   -1    0    0    0  501 -0.00000000000E+00  0.00000000000E+00  0.11474116470E+03  0.11474116470E+03  0.00000000000E+00 0.  1.
          2   -1    0    0  501    0  0.00000000000E+00 -0.00000000000E+00 -0.79052457741E+03  0.79052457741E+03  0.00000000000E+00 0. -1.
         25    2    1    2    0    0 -0.19039719894E+03 -0.15005741494E+03 -0.13325431148E+03  0.30360065790E+03  0.12509327241E+03 0.  0.
          5    1    3    3  502    0 -0.31413450611E+02 -0.85628033423E+02 -0.86450254319E+02  0.12573815594E+03  0.41800000000E+01 0. -1.
         -5    1    3    3    0  502 -0.15898374833E+03 -0.64429381518E+02 -0.46804057162E+02  0.17786250196E+03  0.41800000000E+01 0. -1.
        -11    1    1    2    0    0  0.79159533785E+02  0.95219938509E+01 -0.14175023216E+03  0.16263464721E+03  0.00000000000E+00 0. -1.
         11    1    1    2    0    0  0.11123766515E+03  0.14053542109E+03 -0.40077886906E+03  0.43903043700E+03  0.00000000000E+00 0.  1.
</event>
<event>
 7    1  0.2900135E-009  0.7556932E+02  0.7561462E-02  0.1342117E+00
          1   -1    0    0  501    0  0.00000000000E+00  0.00000000000E+00  0.61524181891E+03  0.61524181891E+03  0.00000000000E+00 0. -1.
         -1   -1    0    0    0  501 -0.00000000000E+00 -0.00000000000E+00 -0.22408089389E+02  0.22408089389E+02  0.00000000000E+00 0.  1.
         25    2    1    2    0    0 -0.39640634039E+02  0.93011025547E+01  0.38477782114E+03  0.40664400322E+03  0.12508990101E+03 0.  0.
          5    1    3    3  502    0 -0.27289916853E+02  0.29255285830E+02  0.38026171956E+03  0.38238339278E+03  0.41800000000E+01 0. -1.
         -5    1    3    3    0  502 -0.12350717186E+02 -0.19954183275E+02  0.45161015794E+01  0.24260610435E+02  0.41800000000E+01 0. -1.
        -11    1    1    2    0    0  0.20399591430E+02  0.34024175604E+02  0.39781328268E+02  0.56181330839E+02  0.00000000000E+00 0.  1.
         11    1    1    2    0    0  0.19241042609E+02 -0.43325278158E+02  0.16827458012E+03  0.17482457425E+03  0.00000000000E+00 0. -1.
</event>
<event>
 7    1  0.2900135E-009  0.1223787E+03  0.7561462E-02  0.1239224E+00
         -1   -1    0    0    0  501 -0.00000000000E+00  0.00000000000E+00  0.42900655370E+02  0.42900655370E+02  0.00000000000E+00 0.  1.
          1   -1    0    0  501    0  0.00000000000E+00 -0.00000000000E+00 -0.71612484421E+03  0.71612484421E+03  0.00000000000E+00 0. -1.
         25    2    1    2    0    0 -0.82080113832E+02 -0.16149269821E+01 -0.11983728002E+03  0.19171412170E+03  0.12511425859E+03 0.  0.
          5    1    3    3  502    0 -0.13317486725E+02 -0.50071110108E+02 -0.86937370471E+02  0.10129190641E+03  0.41800000000E+01 0. -1.
         -5    1    3    3    0  502 -0.68762627107E+02  0.48456183126E+02 -0.32899909547E+02  0.90422215290E+02  0.41800000000E+01 0. -1.
        -11    1    1    2    0    0  0.94866657088E+02 -0.31190303198E+01 -0.53973215122E+03  0.54801478633E+03  0.00000000000E+00 0. -1.
         11    1    1    2    0    0 -0.12786543256E+02  0.47339573019E+01 -0.13654757602E+02  0.19296591547E+02  0.00000000000E+00 0.  1.
</event>
<event>
 7    1  0.2900135E-009  0.2337996E+03  0.7561462E-02  0.1123994E+00
         -2   -1    0    0    0  501 -0.00000000000E+00  0.00000000000E+00  0.68112240292E+03  0.68112240292E+03  0.00000000000E+00 0.  1.
          2   -1    0    0  501    0  0.00000000000E+00 -0.00000000000E+00 -0.12058556423E+03  0.12058556423E+03  0.00000000000E+00 0. -1.
         25    2    1    2    0    0 -0.18807055722E+03 -0.10756190108E+03  0.50004076192E+03  0.55913149359E+03  0.12508863450E+03 0.  0.
          5    1    3    3  502    0 -0.13312562527E+03 -0.11706598132E+03  0.27474519144E+03  0.32700041086E+03  0.41800000000E+01 0. -1.
         -5    1    3    3    0  502 -0.54944931953E+02  0.95040802344E+01  0.22529557048E+03  0.23213108273E+03  0.41800000000E+01 0. -1.
        -11    1    1    2    0    0  0.35392476723E+02  0.67963314763E+02  0.27653607913E+02  0.81463866792E+02  0.00000000000E+00 0.  1.
         11    1    1    2    0    0  0.15267808050E+03  0.39598586319E+02  0.32842468857E+02  0.16111260678E+03  0.00000000000E+00 0. -1.
</event>
<event>
 7    1  0.2900135E-009  0.1086430E+03  0.7561462E-02  0.1263104E+00
         -2   -1    0    0    0  501 -0.00000000000E+00  0.00000000000E+00  0.25344677861E+02  0.25344677861E+02  0.00000000000E+00 0.  1.
          2   -1    0    0  501    0  0.00000000000E+00 -0.00000000000E+00 -0.76433429961E+03  0.76433429961E+03  0.00000000000E+00 0. -1.
         25    2    1    2    0    0 -0.60064369917E+02  0.37423459208E+02 -0.53464886814E+03  0.55363037790E+03  0.12509572055E+03 0.  0.
          5    1    3    3  502    0 -0.35858127325E+02 -0.40424740656E+02 -0.30792734418E+03  0.31266065734E+03  0.41800000000E+01 0. -1.
         -5    1    3    3    0  502 -0.24206242593E+02  0.77848199864E+02 -0.22672152396E+03  0.24096972056E+03  0.41800000000E+01 0. -1.
        -11    1    1    2    0    0  0.52174856093E+02 -0.10265281035E+02 -0.33422701628E+02  0.62806596685E+02  0.00000000000E+00 0.  1.
         11    1    1    2    0    0  0.78895138245E+01 -0.27158178173E+02 -0.17091805198E+03  0.17324200288E+03  0.00000000000E+00 0. -1.
</event>
<event>
 7    1  0.2900135E-009  0.3694087E+03  0.7561462E-02  0.1054919E+00
         -2   -1    0    0    0  501 -0.00000000000E+00  0.00000000000E+00  0.41529613145E+03  0.41529613145E+03  0.00000000000E+00 0. -1.
          2   -1    0    0  501    0  0.00000000000E+00 -0.00000000000E+00 -0.34384426371E+03  0.34384426371E+03  0.00000000000E+00 0.  1.
         25    2    1    2    0    0 -0.35511942727E+03  0.42186967876E+02 -0.17934238559E+02  0.37928725306E+03  0.12509050940E+03 0.  0.
          5    1    3    3  502    0 -0.26775661725E+03  0.82801764408E+02  0.42705548533E+01  0.28033096209E+03  0.41800000000E+01 0. -1.
         -5    1    3    3    0  502 -0.87362810022E+02 -0.40614796532E+02 -0.22204793412E+02  0.98956290971E+02  0.41800000000E+01 0. -1.
        -11    1    1    2    0    0  0.34419449823E+03 -0.29668286173E+02  0.66890899915E+02  0.35188698798E+03  0.00000000000E+00 0. -1.
         11    1    1    2    0    0  0.10924929034E+02 -0.12518681703E+02  0.22495206380E+02  0.27966154116E+02  0.00000000000E+00 0.  1.
</event>
<event>
 7    1  0.2900135E-009  0.1121343E+03  0.7561462E-02  0.1256668E+00
          2   -1    0    0  501    0  0.00000000000E+00  0.00000000000E+00  0.80292511163E+03  0.80292511163E+03  0.00000000000E+00 0. -1.
         -2   -1    0    0    0  501 -0.00000000000E+00 -0.00000000000E+00 -0.18989026388E+02  0.18989026388E+02  0.00000000000E+00 0.  1.
         25    2    1    2    0    0  0.43103862758E+02 -0.33619052094E+02  0.51956726267E+03  0.53720206655E+03  0.12509091181E+03 0.  0.
          5    1    3    3  502    0  0.18140159041E+01  0.36671235134E+02  0.60186621745E+02  0.70625575941E+02  0.41800000000E+01 0.  1.
         -5    1    3    3    0  502  0.41289846854E+02 -0.70290287227E+02  0.45938064093E+03  0.46657649061E+03  0.41800000000E+01 0.  1.
        -11    1    1    2    0    0 -0.93412142195E+01 -0.31218626779E+02  0.80983508647E+02  0.87293697446E+02  0.00000000000E+00 0.  1.
         11    1    1    2    0    0 -0.33762648539E+02  0.64837678872E+02  0.18338531392E+03  0.19741837402E+03  0.00000000000E+00 0. -1.
</event>
<event>
 7    1  0.2900135E-009  0.1872422E+03  0.7561462E-02  0.1160972E+00
         -1   -1    0    0    0  501 -0.00000000000E+00  0.00000000000E+00  0.17028661121E+03  0.17028661121E+03  0.00000000000E+00 0.  1.
          1   -1    0    0  501    0  0.00000000000E+00 -0.00000000000E+00 -0.42052643213E+03  0.42052643213E+03  0.00000000000E+00 0. -1.
         25    2    1    2    0    0 -0.10863593945E+02  0.17994278128E+03  0.56492577042E+02  0.22658167442E+03  0.12510164553E+03 0.  0.
          5    1    3    3  502    0  0.21718805983E+01  0.72265956145E+02  0.87609370085E+02  0.11366600024E+03  0.41800000000E+01 0. -1.
         -5    1    3    3    0  502 -0.13035474544E+02  0.10767682513E+03 -0.31116793043E+02  0.11291567419E+03  0.41800000000E+01 0. -1.
        -11    1    1    2    0    0  0.40902273661E+02 -0.95304794132E+02 -0.19513792124E+03  0.22098599069E+03  0.00000000000E+00 0. -1.
         11    1    1    2    0    0 -0.30038679716E+02 -0.84637987147E+02 -0.11159447673E+03  0.14324537823E+03  0.00000000000E+00 0.  1.
</event>
<event>
 7    1  0.2900135E-009  0.1230053E+03  0.7561462E-02  0.1238220E+00
         -2   -1    0    0    0  501 -0.00000000000E+00  0.00000000000E+00  0.33045150786E+02  0.33045150786E+02  0.00000000000E+00 0. -1.
          2   -1    0    0  501    0  0.00000000000E+00 -0.00000000000E+00 -0.49554576136E+03  0.49554576136E+03  0.00000000000E+00 0.  1.
         25    2    1    2    0    0  0.64611932555E+02  0.48573809272E+01 -0.20869198108E+03  0.25179196883E+03  0.12509419101E+03 0.  0.
          5    1    3    3  502    0 -0.33559183500E+02  0.19586067411E+02 -0.39385707798E+02  0.55484585360E+02  0.41800000000E+01 0.  1.
         -5    1    3    3    0  502  0.98171116055E+02 -0.14728686484E+02 -0.16930627328E+03  0.19630738347E+03  0.41800000000E+01 0.  1.
        -11    1    1    2    0    0 -0.17269899933E+02 -0.43281174560E+02 -0.14193202628E+03  0.14938610913E+03  0.00000000000E+00 0. -1.
         11    1    1    2    0    0 -0.47342032622E+02  0.38423793632E+02 -0.11187660321E+03  0.12741283419E+03  0.00000000000E+00 0.  1.
</event>
<event>
 7    1  0.2900135E-009  0.3281916E+03  0.7561462E-02  0.1071940E+00
          2   -1    0    0  501    0  0.00000000000E+00  0.00000000000E+00  0.13296156273E+04  0.13296156273E+04  0.00000000000E+00 0. -1.
         -2   -1    0    0    0  501 -0.00000000000E+00 -0.00000000000E+00 -0.84221289703E+02  0.84221289703E+02  0.00000000000E+00 0.  1.
         25    2    1    2    0    0  0.30589424474E+03  0.79044624273E+02  0.60083169005E+03  0.69026548450E+03  0.12509347595E+03 0.  0.
          5    1    3    3  502    0  0.10791734029E+03  0.87220911458E+02  0.20486239765E+03  0.24746659189E+03  0.41800000000E+01 0. -1.
         -5    1    3    3    0  502  0.19797690445E+03 -0.81762871850E+01  0.39596929240E+03  0.44279889261E+03  0.41800000000E+01 0. -1.
        -11    1    1    2    0    0 -0.26938036562E+03 -0.53057558619E+02  0.47958207857E+03  0.55261184930E+03  0.00000000000E+00 0.  1.
         11    1    1    2    0    0 -0.36513879120E+02 -0.25987065654E+02  0.16498056901E+03  0.17095958323E+03  0.00000000000E+00 0. -1.
</event>
<event>
 7    1  0.2900135E-009  0.9378786E+02  0.7561462E-02  0.1293930E+00
         -1   -1    0    0    0  501 -0.00000000000E+00  0.00000000000E+00  0.38548625076E+02  0.38548625076E+02  0.00000000000E+00 0.  1.
          1   -1    0    0  501    0  0.00000000000E+00 -0.00000000000E+00 -0.43723697217E+03  0.43723697217E+03  0.00000000000E+00 0. -1.
         25    2    1    2    0    0 -0.32767362633E+01 -0.71130803884E+02 -0.21468585999E+03  0.25847091330E+03  0.12508743454E+03 0.  0.
          5    1    3    3  502    0 -0.10757008646E+01 -0.80729035488E+02 -0.22769899875E+03  0.24162500023E+03  0.41800000000E+01 0.  1.
         -5    1    3    3    0  502 -0.22010353987E+01  0.95982316033E+01  0.13013138761E+02  0.16845913069E+02  0.41800000000E+01 0.  1.
        -11    1    1    2    0    0  0.10537584213E+02  0.82157764653E+02 -0.18632726558E+03  0.20390877586E+03  0.00000000000E+00 0. -1.
         11    1    1    2    0    0 -0.72608479493E+01 -0.11026960768E+02  0.23247784773E+01  0.13405908089E+02  0.00000000000E+00 0.  1.
</event>
<event>
 7    1  0.2900135E-009  0.1302494E+03  0.7561462E-02  0.1227086E+00
         -1   -1    0    0    0  501 -0.00000000000E+00  0.00000000000E+00  0.76216365606E+03  0.76216365606E+03  0.00000000000E+00 0.  1.
          1   -1    0    0  501    0  0.00000000000E+00 -0.00000000000E+00 -0.26245322010E+02  0.26245322010E+02  0.00000000000E+00 0. -1.
         25    2    1    2    0    0 -0.35974797105E+02 -0.71934871878E+02  0.51835763830E+03  0.53927044676E+03  0.12509660969E+03 0.  0.
          5    1    3    3  502    0  0.26421978406E+02 -0.77422199786E+02  0.35345696225E+03  0.36282449548E+03  0.41800000000E+01 0. -1.
         -5    1    3    3    0  502 -0.62396775511E+02  0.54873279087E+01  0.16490067605E+03  0.17644595128E+03  0.41800000000E+01 0. -1.
        -11    1    1    2    0    0 -0.10824808441E+02  0.67986268589E+02  0.16423120120E+03  0.17807637868E+03  0.00000000000E+00 0.  1.
         11    1    1    2    0    0  0.46799605546E+02  0.39486032889E+01  0.53329494554E+02  0.71062152631E+02  0.00000000000E+00 0. -1.
</event>
<event>
 7    1  0.2900135E-009  0.9585112E+02  0.7561462E-02  0.1289271E+00
          3   -1    0    0  501    0  0.00000000000E+00  0.00000000000E+00  0.29796916437E+02  0.29796916437E+02  0.00000000000E+00 0. -1.
         -3   -1    0    0    0  501 -0.00000000000E+00 -0.00000000000E+00 -0.41788487407E+03  0.41788487407E+03  0.00000000000E+00 0.  1.
         25    2    1    2    0    0  0.15610217063E+02 -0.23730122065E+02 -0.20495570400E+03  0.24178462378E+03  0.12508463584E+03 0.  0.
          5    1    3    3  502    0  0.67015363912E+00 -0.73156462012E+02 -0.92807978111E+02  0.11825020186E+03  0.41800000000E+01 0. -1.
         -5    1    3    3    0  502  0.14940063424E+02  0.49426339946E+02 -0.11214772589E+03  0.12353442192E+03  0.41800000000E+01 0. -1.
        -11    1    1    2    0    0  0.14730717111E+02  0.31952155032E+02 -0.16680369998E+03  0.17047407007E+03  0.00000000000E+00 0.  1.
         11    1    1    2    0    0 -0.30340934173E+02 -0.82220329666E+01 -0.16328553651E+02  0.35423096659E+02  0.00000000000E+00 0. -1.
</event>
<event>
 7    1  0.2900135E-009  0.9463338E+02  0.7561462E-02  0.1292004E+00
          2   -1    0    0  501    0  0.00000000000E+00  0.00000000000E+00  0.28285809886E+03  0.28285809886E+03  0.00000000000E+00 0. -1.
         -2   -1    0    0    0  501 -0.00000000000E+00 -0.00000000000E+00 -0.48521762715E+02  0.48521762715E+02  0.00000000000E+00 0.  1.
         25    2    1    2    0    0 -0.40967426719E+02  0.97904152426E+01  0.12253264535E+03  0.18010270903E+03  0.12509418188E+03 0.  0.
          5    1    3    3  502    0 -0.77950701972E+02 -0.11314941491E+02  0.43115080342E+02  0.89892838378E+02  0.41800000000E+01 0. -1.
         -5    1    3    3    0  502  0.36983275253E+02  0.21105356734E+02  0.79417565009E+02  0.90209870654E+02  0.41800000000E+01 0. -1.
        -11    1    1    2    0    0  0.46989691076E+02  0.90230032013E+01  0.11719928941E+02  0.49262586093E+02  0.00000000000E+00 0.  1.
         11    1    1    2    0    0 -0.60222643575E+01 -0.18813418444E+02  0.10008376185E+03  0.10201456645E+03  0.00000000000E+00 0. -1.
</event>
<event>
 7    1  0.2900135E-009  0.1775320E+03  0.7561462E-02  0.1170213E+00
          2   -1    0    0  501    0  0.00000000000E+00  0.00000000000E+00  0.12717608546E+04  0.12717608546E+04  0.00000000000E+00 0. -1.
         -2   -1    0    0    0  501 -0.00000000000E+00 -0.00000000000E+00 -0.57890737329E+02  0.57890737329E+02  0.00000000000E+00 0.  1.
         25    2    1    2    0    0  0.13983586278E+03  0.37863512976E+02  0.11131712498E+04  0.11295072787E+04  0.12509495314E+03 0.  0.
          5    1    3    3  502    0 -0.16825524759E+02  0.18782593154E+02  0.71315111326E+02  0.75757518389E+02  0.41800000000E+01 0.  1.
         -5    1    3    3    0  502  0.15666138754E+03  0.19080919821E+02  0.10418561384E+04  0.10537497604E+04  0.41800000000E+01 0.  1.
        -11    1    1    2    0    0 -0.75833969424E+02  0.27007635164E+02  0.34879834174E+02  0.87731443096E+02  0.00000000000E+00 0.  1.
         11    1    1    2    0    0 -0.64001893358E+02 -0.64871148140E+02  0.65819033350E+02  0.11241287011E+03  0.00000000000E+00 0. -1.
</event>
<event>
 7    1  0.2900135E-009  0.7746232E+02  0.7561462E-02  0.1336411E+00
          2   -1    0    0  501    0  0.00000000000E+00  0.00000000000E+00  0.50486031916E+02  0.50486031916E+02  0.00000000000E+00 0. -1.
         -2   -1    0    0    0  501 -0.00000000000E+00 -0.00000000000E+00 -0.35656722002E+03  0.35656722002E+03  0.00000000000E+00 0.  1.
         25    2    1    2    0    0  0.32958840513E+02  0.41433424314E+02 -0.14518266070E+03  0.19881389933E+03  0.12508376305E+03 0.  0.
          5    1    3    3  502    0 -0.10564730043E+02 -0.38153327493E+01  0.19293315944E+02  0.22712875754E+02  0.41800000000E+01 0. -1.
         -5    1    3    3    0  502  0.43523570556E+02  0.45248757063E+02 -0.16447597665E+03  0.17610102357E+03  0.41800000000E+01 0. -1.
        -11    1    1    2    0    0  0.14982483423E+02 -0.25356272097E+02  0.91432583161E+01  0.30838523259E+02  0.00000000000E+00 0. -1.
         11    1    1    2    0    0 -0.47941323936E+02 -0.16077152217E+02 -0.17004178571E+03  0.17740082935E+03  0.00000000000E+00 0.  1.
</event>
<event>
 7    1  0.2900135E-009  0.1423817E+03  0.7561462E-02  0.1210160E+00
          1   -1    0    0  501    0  0.00000000000E+00  0.00000000000E+00  0.32783265299E+02  0.32783265299E+02  0.00000000000E+00 0. -1.
         -1   -1    0    0    0  501 -0.00000000000E+00 -0.00000000000E+00 -0.63840230199E+03  0.63840230199E+03  0.00000000000E+00 0.  1.
         25    2    1    2    0    0 -0.29411824084E+02  0.91242489205E+02 -0.32128007918E+03  0.35785638697E+03  0.12510018859E+03 0.  0.
          5    1    3    3  502    0 -0.75305630928E+01 -0.30186364703E+02 -0.41381228966E+02  0.51940393772E+02  0.41800000000E+01 0. -1.
         -5    1    3    3    0  502 -0.21881260991E+02  0.12142885391E+03 -0.27989885021E+03  0.30591599320E+03  0.41800000000E+01 0. -1.
        -11    1    1    2    0    0  0.29711162876E+02  0.79242365923E+01 -0.90760240489E+02  0.95827803787E+02  0.00000000000E+00 0.  1.
         11    1    1    2    0    0 -0.29933879251E+00 -0.99166725797E+02 -0.19357871703E+03  0.21750137654E+03  0.00000000000E+00 0. -1.
</event>
<event>
 7    1  0.2900135E-009  0.1024144E+03  0.7561462E-02  0.1275299E+00
          3   -1    0    0  501    0  0.00000000000E+00  0.00000000000E+00  0.13379456267E+03  0.13379456267E+03  0.00000000000E+00 0. -1.
         -3   -1    0    0    0  501 -0.00000000000E+00 -0.00000000000E+00 -0.85380990338E+02  0.85380990338E+02  0.00000000000E+00 0.  1.
         25    2    1    2    0    0 -0.60283177490E+00 -0.11191170145E+02  0.39871378621E+02  0.13176693162E+03  0.12508873546E+03 0.  0.
          5    1    3    3  502    0 -0.40426011873E+02  0.41016261440E+02  0.30518989699E+02  0.65310621424E+02  0.41800000000E+01 0. -1.
         -5    1    3    3    0  502  0.39823180098E+02 -0.52207431585E+02  0.93523889214E+01  0.66456310192E+02  0.41800000000E+01 0. -1.
        -11    1    1    2    0    0  0.39544240531E+02  0.14711769503E+02 -0.11134212612E+02  0.43636610908E+02  0.00000000000E+00 0. -1.
         11    1    1    2    0    0 -0.38941408756E+02 -0.35205993580E+01  0.19676406319E+02  0.43772010479E+02  0.00000000000E+00 0.  1.
</event>
<event>
 7    1  0.2900135E-009  0.9162766E+02  0.7561462E-02  0.1298957E+00
          1   -1    0    0  501    0  0.00000000000E+00  0.00000000000E+00  0.92259148424E+01  0.92259148424E+01  0.00000000000E+00 0. -1.
         -1   -1    0    0    0  501 -0.00000000000E+00 -0.00000000000E+00 -0.17236528289E+04  0.17236528289E+04  0.00000000000E+00 0.  1.
         25    2    1    2    0    0  0.32562510744E+00 -0.50449142170E+02 -0.12386074030E+04  0.12459301737E+04  0.12509387273E+03 0.  0.
          5    1    3    3  502    0  0.15898257285E+02 -0.59178036170E+02 -0.26018276952E+03  0.26733376238E+03  0.41800000000E+01 0.  1.
         -5    1    3    3    0  502 -0.15572632178E+02  0.87288939997E+01 -0.97842463348E+03  0.97859641133E+03  0.41800000000E+01 0.  1.
        -11    1    1    2    0    0 -0.75390721632E+01  0.76295678677E+02 -0.35544934374E+03  0.36362357481E+03  0.00000000000E+00 0.  1.
         11    1    1    2    0    0  0.72134470557E+01 -0.25846536507E+02 -0.12037016727E+03  0.12332499518E+03  0.00000000000E+00 0. -1.
</event>
<event>
 7    1  0.2900135E-009  0.1952510E+03  0.7561462E-02  0.1153809E+00
          2   -1    0    0  501    0  0.00000000000E+00  0.00000000000E+00  0.73035190516E+02  0.73035190516E+02  0.00000000000E+00 0. -1.
         -2   -1    0    0    0  501 -0.00000000000E+00 -0.00000000000E+00 -0.56241633284E+03  0.56241633284E+03  0.00000000000E+00 0.  1.
         25    2    1    2    0    0  0.89492273413E+02  0.14507871151E+03 -0.24606770462E+03  0.32442778810E+03  0.12508946757E+03 0.  0.
          5    1    3    3  502    0  0.12015296272E+03  0.12978816786E+03 -0.20637672704E+03  0.27182812370E+03  0.41800000000E+01 0.  1.
         -5    1    3    3    0  502 -0.30660689306E+02  0.15290543648E+02 -0.39690977578E+02  0.52599664399E+02  0.41800000000E+01 0.  1.
        -11    1    1    2    0    0 -0.14108973626E+02 -0.74431417114E+02 -0.46909579305E+02  0.89104475875E+02  0.00000000000E+00 0.  1.
         11    1    1    2    0    0 -0.75383299787E+02 -0.70647294399E+02 -0.19640385840E+03  0.22191925939E+03  0.00000000000E+00 0. -1.
</event>
<event>
 7    1  0.2900135E-009  0.1502607E+03  0.7561462E-02  0.1200153E+00
          1   -1    0    0  501    0  0.00000000000E+00  0.00000000000E+00  0.10627043221E+04  0.10627043221E+04  0.00000000000E+00 0.  1.
         -1   -1    0    0    0  501 -0.00000000000E+00 -0.00000000000E+00 -0.26056113530E+02  0.26056113530E+02  0.00000000000E+00 0. -1.
         25    2    1    2    0    0 -0.95085931029E+02  0.77250400283E+02  0.65030868206E+03  0.67346753260E+03  0.12509267318E+03 0.  0.
          5    1    3    3  502    0  0.19204787698E+02 -0.16920345349E+02  0.73655774564E+02  0.78088203231E+02  0.41800000000E+01 0.  1.
         -5    1    3    3    0  502 -0.11429071873E+03  0.94170745631E+02  0.57665290749E+03  0.59537932937E+03  0.41800000000E+01 0.  1.
        -11    1    1    2    0    0  0.51106190497E+02 -0.21538546984E+02  0.29207448093E+03  0.29729321237E+03  0.00000000000E+00 0.  1.
         11    1    1    2    0    0  0.43979740532E+02 -0.55711853299E+02  0.94265045571E+02  0.11799969064E+03  0.00000000000E+00 0. -1.
</event>
<event>
 7    1  0.2900135E-009  0.1085836E+03  0.7561462E-02  0.1263216E+00
          1   -1    0    0  501    0  0.00000000000E+00  0.00000000000E+00  0.23717732556E+03  0.23717732556E+03  0.00000000000E+00 0. -1.
         -1   -1    0    0    0  501 -0.00000000000E+00 -0.00000000000E+00 -0.69166336678E+02  0.69166336678E+02  0.00000000000E+00 0.  1.
         25    2    1    2    0    0 -0.57545854838E+02 -0.15259675948E+02  0.13191047145E+03  0.19128467734E+03  0.12508026298E+03 0.  0.
          5    1    3    3  502    0 -0.96946737165E+01  0.52064918496E+02  0.33794246633E+02  0.62962416901E+02  0.41800000000E+01 0.  1.
         -5    1    3    3    0  502 -0.47851181121E+02 -0.67324594444E+02  0.98116224816E+02  0.12832226044E+03  0.41800000000E+01 0.  1.
        -11    1    1    2    0    0  0.18872192744E+02  0.33600165867E+02  0.55902136549E+02  0.67898303926E+02  0.00000000000E+00 0. -1.
         11    1    1    2    0    0  0.38673662094E+02 -0.18340489920E+02 -0.19801619117E+02  0.47160680973E+02  0.00000000000E+00 0.  1.
</event>
<event>
 7    1  0.2900135E-009  0.9933257E+02  0.7561462E-02  0.1281706E+00
         -1   -1    0    0    0  501 -0.00000000000E+00  0.00000000000E+00  0.50076732091E+03  0.50076732091E+03  0.00000000000E+00 0.  1.
          1   -1    0    0  501    0  0.00000000000E+00 -0.00000000000E+00 -0.29193014483E+02  0.29193014483E+02  0.00000000000E+00 0. -1.
         25    2    1    2    0    0 -0.51583614631E+02 -0.20800317607E+02  0.25683189267E+03  0.29104064214E+03  0.12509401174E+03 0.  0.
          5    1    3    3  502    0  0.11739463719E+02 -0.28790270111E+02  0.20856360541E+03  0.21090980196E+03  0.41800000000E+01 0. -1.
         -5    1    3    3    0  502 -0.63323078350E+02  0.79899525038E+01  0.48268287259E+02  0.80130840178E+02  0.41800000000E+01 0. -1.
        -11    1    1    2    0    0  0.69806078027E+02 -0.69308945390E+01  0.16296546669E+03  0.17742229049E+03  0.00000000000E+00 0.  1.
         11    1    1    2    0    0 -0.18222463396E+02  0.27731212146E+02  0.51776947070E+02  0.61497402768E+02  0.00000000000E+00 0. -1.
</event>
<event>
 7    1  0.2900135E-009  0.6960151E+02  0.7561462E-02  0.1361453E+00
          2   -1    0    0  501    0  0.00000000000E+00  0.00000000000E+00  0.13416565604E+03  0.13416565604E+03  0.00000000000E+00 0. -1.
         -2   -1    0    0    0  501 -0.00000000000E+00 -0.00000000000E+00 -0.13436794075E+03  0.13436794075E+03  0.00000000000E+00 0.  1.
         25    2    1    2    0    0  0.10554693075E+02 -0.74655607979E+01  0.77208520434E+02  0.14756648610E+03  0.12509027160E+03 0.  0.
          5    1    3    3  502    0 -0.36141404983E+02  0.16878493200E+02 -0.13735023813E+02  0.42393489664E+02  0.41800000000E+01 0.  1.
         -5    1    3    3    0  502  0.46696098057E+02 -0.24344053997E+02  0.90943544247E+02  0.10517299643E+03  0.41800000000E+01 0.  1.
        -11    1    1    2    0    0 -0.24103285402E+02 -0.82907952773E+01 -0.92072108362E+02  0.95535222781E+02  0.00000000000E+00 0.  1.
         11    1    1    2    0    0  0.13548592328E+02  0.15756356075E+02  0.14661303211E+02  0.25431887910E+02  0.00000000000E+00 0. -1.
</event>
<event>
 7    1  0.2900135E-009  0.9865586E+02  0.7561462E-02  0.1283148E+00
          2   -1    0    0  501    0  0.00000000000E+00  0.00000000000E+00  0.46883821554E+03  0.46883821554E+03  0.00000000000E+00 0. -1.
         -2   -1    0    0    0  501 -0.00000000000E+00 -0.00000000000E+00 -0.31135905552E+02  0.31135905552E+02  0.00000000000E+00 0.  1.
         25    2    1    2    0    0  0.36494761665E+02  0.31172775238E+02  0.27825180324E+03  0.30883517498E+03  0.12510591415E+03 0.  0.
          5    1    3    3  502    0 -0.34235669633E+02  0.42348792146E+02  0.17338035407E+03  0.18177931909E+03  0.41800000000E+01 0.  1.
         -5    1    3    3    0  502  0.70730431299E+02 -0.11176016908E+02  0.10487144917E+03  0.12705585589E+03  0.41800000000E+01 0.  1.
        -11    1    1    2    0    0 -0.25269551571E+02  0.10826963086E+02  0.17401602423E+01  0.27546352280E+02  0.00000000000E+00 0.  1.
         11    1    1    2    0    0 -0.11225210094E+02 -0.41999738324E+02  0.15771034650E+03  0.16359259383E+03  0.00000000000E+00 0. -1.
</event>
<event>
 7    1  0.2900135E-009  0.1325173E+03  0.7561462E-02  0.1223768E+00
         -1   -1    0    0    0  501 -0.00000000000E+00  0.00000000000E+00  0.24958084491E+02  0.24958084491E+02  0.00000000000E+00 0.  1.
          1   -1    0    0  501    0  0.00000000000E+00 -0.00000000000E+00 -0.84885721231E+03  0.84885721231E+03  0.00000000000E+00 0. -1.
         25    2    1    2    0    0 -0.75285993706E+02  0.61463630470E+02 -0.46764574192E+03  0.49374654026E+03  0.12508935754E+03 0.  0.
          5    1    3    3  502    0 -0.10548653801E+03  0.40082310393E+02 -0.40878685525E+03  0.42409688367E+03  0.41800000000E+01 0.  1.
         -5    1    3    3    0  502  0.30200544307E+02  0.21381320077E+02 -0.58858886667E+02  0.69649656599E+02  0.41800000000E+01 0.  1.
        -11    1    1    2    0    0  0.67670936325E+02 -0.73955646866E+02 -0.35014979827E+03  0.36421652153E+03  0.00000000000E+00 0.  1.
         11    1    1    2    0    0  0.76150573812E+01  0.12492016396E+02 -0.61035876216E+01  0.15852234997E+02  0.00000000000E+00 0. -1.
</event>
<event>
 7    1  0.2900135E-009  0.1082798E+03  0.7561462E-02  0.1263789E+00
         -1   -1    0    0    0  501 -0.00000000000E+00  0.00000000000E+00  0.17205476677E+03  0.17205476677E+03  0.00000000000E+00 0.  1.
          1   -1    0    0  501    0  0.00000000000E+00 -0.00000000000E+00 -0.86505083666E+02  0.86505083666E+02  0.00000000000E+00 0. -1.
         25    2    1    2    0    0 -0.30177108373E+02 -0.35674242079E+02  0.14977186885E+02  0.13436976104E+03  0.12509039587E+03 0.  0.
          5    1    3    3  502    0 -0.76580329713E+01  0.38845965645E+02  0.35944483833E+02  0.53638911565E+02  0.41800000000E+01 0.  1.
         -5    1    3    3    0  502 -0.22519075401E+02 -0.74520207724E+02 -0.20967296947E+02  0.80730849478E+02  0.41800000000E+01 0.  1.
        -11    1    1    2    0    0 -0.11281353941E+02  0.52753900594E+02  0.54156712131E+02  0.76440777360E+02  0.00000000000E+00 0.  1.
         11    1    1    2    0    0  0.41458462314E+02 -0.17079658515E+02  0.16415784089E+02  0.47749312033E+02  0.00000000000E+00 0. -1.
</event>
<event>
 7    1  0.2900135E-009  0.1288376E+03  0.7561462E-02  0.1229191E+00
         -2   -1    0    0    0  501 -0.00000000000E+00  0.00000000000E+00  0.30657750051E+02  0.30657750051E+02  0.00000000000E+00 0.  1.
          2   -1    0    0  501    0  0.00000000000E+00 -0.00000000000E+00 -0.73511413894E+03  0.73511413894E+03  0.00000000000E+00 0. -1.
         25    2    1    2    0    0  0.76532260267E+02 -0.96043071516E+01 -0.20662605386E+03  0.25355428110E+03  0.12508404275E+03 0.  0.
          5    1    3    3  502    0  0.36379280357E+02  0.52459579168E+02 -0.53228562310E+02  0.83223865155E+02  0.41800000000E+01 0.  1.
         -5    1    3    3    0  502  0.40152979910E+02 -0.62063886320E+02 -0.15339749155E+03  0.17033041594E+03  0.41800000000E+01 0.  1.
        -11    1    1    2    0    0 -0.26773680638E+02  0.49238306684E+02 -0.26435562980E+03  0.27023164105E+03  0.00000000000E+00 0. -1.
         11    1    1    2    0    0 -0.49758579629E+02 -0.39633999532E+02 -0.23347470523E+03  0.24198596684E+03  0.00000000000E+00 0.  1.
</event>
<event>
 7    1  0.3130484E-009  0.1082226E+03  0.7561462E-02  0.1263897E+00
         -2   -1    0    0    0  501 -0.00000000000E+00  0.00000000000E+00  0.90706938156E+02  0.90706938156E+02  0.00000000000E+00 0.  1.
          2   -1    0    0  501    0  0.00000000000E+00 -0.00000000000E+00 -0.20806961797E+03  0.20806961797E+03  0.00000000000E+00 0. -1.
         25    2    1    2    0    0  0.36507315141E+02 -0.29411849751E+02 -0.14000618814E+03  0.19351834803E+03  0.12509907011E+03 0.  0.
          5    1    3    3  502    0  0.60923044404E+02  0.30698802454E+02 -0.77445345676E+02  0.10329224452E+03  0.41800000000E+01 0.  1.
         -5    1    3    3    0  502 -0.24415729263E+02 -0.60110652205E+02 -0.62560842464E+02  0.90226103506E+02  0.41800000000E+01 0.  1.
        -11    1    1    2    0    0 -0.55025914391E+02  0.33079934800E+02 -0.12458711867E+02  0.65401474313E+02  0.00000000000E+00 0. -1.
         11    1    1    2    0    0  0.18518599250E+02 -0.36680850492E+01  0.35102220190E+02  0.39856733789E+02  0.00000000000E+00 0.  1.
</event>
<event>
 7    1  0.2900135E-009  0.7402139E+02  0.7561462E-02  0.1346929E+00
         -1   -1    0    0    0  501 -0.00000000000E+00  0.00000000000E+00  0.26304298349E+02  0.26304298349E+02  0.00000000000E+00 0.  1.
          1   -1    0    0  501    0  0.00000000000E+00 -0.00000000000E+00 -0.50167352740E+03  0.50167352740E+03  0.00000000000E+00 0. -1.
         25    2    1    2    0    0 -0.10394111556E+02 -0.10584804029E+02 -0.19298787935E+03  0.23046169097E+03  0.12509274079E+03 0.  0.
          5    1    3    3  502    0 -0.33030090804E+02 -0.32087504556E+01  0.24474777276E+01  0.33537225962E+02  0.41800000000E+01 0.  1.
         -5    1    3    3    0  502  0.22635979248E+02 -0.73760535732E+01 -0.19543535708E+03  0.19692446501E+03  0.41800000000E+01 0.  1.
        -11    1    1    2    0    0 -0.26109379328E+02 -0.27326559033E+02 -0.81200675433E+02  0.89565563741E+02  0.00000000000E+00 0.  1.
         11    1    1    2    0    0  0.36503490884E+02  0.37911363061E+02 -0.20118067426E+03  0.20795057103E+03  0.00000000000E+00 0. -1.
</event>
<event>
 7    1  0.2900135E-009  0.1223081E+03  0.7561462E-02  0.1239337E+00
         -2   -1    0    0    0  501 -0.00000000000E+00  0.00000000000E+00  0.67252713878E+03  0.67252713878E+03  0.00000000000E+00 0.  1.
          2   -1    0    0  501    0  0.00000000000E+00 -0.00000000000E+00 -0.35096974113E+02  0.35096974113E+02  0.00000000000E+00 0. -1.
         25    2    1    2    0    0  0.57446925588E+02  0.89129166359E+02  0.35040344591E+03  0.38687829885E+03  0.12509230857E+03 0.  0.
          5    1    3    3  502    0  0.33359645929E+02  0.62851816383E+02  0.34287573229E+03  0.35020630633E+03  0.41800000000E+01 0.  1.
         -5    1    3    3    0  502  0.24087279659E+02  0.26277349976E+02  0.75277136130E+01  0.36671992520E+02  0.41800000000E+01 0.  1.
        -11    1    1    2    0    0 -0.80502532593E+01 -0.87658819753E+02  0.22385347961E+03  0.24053950942E+03  0.00000000000E+00 0.  1.
         11    1    1    2    0    0 -0.49396672329E+02 -0.14703466065E+01  0.63173239144E+02  0.80206304617E+02  0.00000000000E+00 0. -1.
</event>
<event>
 7    1  0.2900135E-009  0.9552742E+02  0.7561462E-02  0.1289993E+00
          1   -1    0    0  501    0  0.00000000000E+00  0.00000000000E+00  0.12799280263E+04  0.12799280263E+04  0.00000000000E+00 0. -1.
         -1   -1    0    0    0  501 -0.00000000000E+00 -0.00000000000E+00 -0.14548470027E+02  0.14548470027E+02  0.00000000000E+00 0.  1.
         25    2    1    2    0    0 -0.55706545798E+02 -0.41376608503E+02  0.93164553358E+03  0.94256362904E+03  0.12509017374E+03 0.  0.
          5    1    3    3  502    0 -0.50600107368E+02 -0.34683148374E+01  0.85767608332E+03  0.85918457643E+03  0.41800000000E+01 0.  1.
         -5    1    3    3    0  502 -0.51064384298E+01 -0.37908293665E+02  0.73969450258E+02  0.83379052606E+02  0.41800000000E+01 0.  1.
        -11    1    1    2    0    0 -0.81771776397E+01  0.36734350869E+02  0.60324953012E+02  0.71101186514E+02  0.00000000000E+00 0.  1.
         11    1    1    2    0    0  0.63883723438E+02  0.46422576339E+01  0.27340906970E+03  0.28081168080E+03  0.00000000000E+00 0. -1.
</event>
<event>
 7    1  0.2900135E-009  0.1528838E+03  0.7561462E-02  0.1196974E+00
          3   -1    0    0  501    0  0.00000000000E+00  0.00000000000E+00  0.33242157884E+03  0.33242157884E+03  0.00000000000E+00 0. -1.
         -3   -1    0    0    0  501 -0.00000000000E+00 -0.00000000000E+00 -0.19219428316E+03  0.19219428316E+03  0.00000000000E+00 0.  1.
         25    2    1    2    0    0  0.91838509671E+02  0.71590169868E+02 -0.13116333085E+03  0.21543231104E+03  0.12509115475E+03 0.  0.
          5    1    3    3  502    0  0.56330722352E+02 -0.25022671494E+02 -0.22632007398E+02  0.65794867036E+02  0.41800000000E+01 0. -1.
         -5    1    3    3    0  502  0.35507787319E+02  0.96612841362E+02 -0.10853132345E+03  0.14963744400E+03  0.41800000000E+01 0. -1.
        -11    1    1    2    0    0 -0.67139330536E+02 -0.88465570576E+02  0.16672724841E+03  0.20032928454E+03  0.00000000000E+00 0.  1.
         11    1    1    2    0    0 -0.24699179135E+02  0.16875400709E+02  0.10466337812E+03  0.10885426643E+03  0.00000000000E+00 0. -1.
</event>
<event>
 7    1  0.2900135E-009  0.1114570E+03  0.7561462E-02  0.1257895E+00
         -4   -1    0    0    0  501 -0.00000000000E+00  0.00000000000E+00  0.65651444963E+02  0.65651444963E+02  0.00000000000E+00 0. -1.
          4   -1    0    0  501    0  0.00000000000E+00 -0.00000000000E+00 -0.35721290904E+03  0.35721290904E+03  0.00000000000E+00 0.  1.
         25    2    1    2    0    0 -0.37061982756E+02 -0.49509884340E+02 -0.28224971883E+03  0.31486139470E+03  0.12509186577E+03 0.  0.
          5    1    3    3  502    0 -0.58746594542E+02 -0.78310740784E+02 -0.23958834399E+03  0.25885088655E+03  0.41800000000E+01 0. -1.
         -5    1    3    3    0  502  0.21684611786E+02  0.28800856444E+02 -0.42661374839E+02  0.56010508151E+02  0.41800000000E+01 0. -1.
        -11    1    1    2    0    0  0.34884838189E+02 -0.39709502501E+01 -0.34164762917E+02  0.48989298898E+02  0.00000000000E+00 0.  1.
         11    1    1    2    0    0  0.21771445672E+01  0.53480834590E+02  0.24853017668E+02  0.59013660403E+02  0.00000000000E+00 0. -1.
</event>
<event>
 7    1  0.2900135E-009  0.8956747E+02  0.7561462E-02  0.1303903E+00
          2   -1    0    0  501    0  0.00000000000E+00  0.00000000000E+00  0.21636912663E+03  0.21636912663E+03  0.00000000000E+00 0. -1.
         -2   -1    0    0    0  501 -0.00000000000E+00 -0.00000000000E+00 -0.64859867756E+02  0.64859867756E+02  0.00000000000E+00 0.  1.
         25    2    1    2    0    0  0.13218013381E+02  0.22630976390E+02  0.13505482317E+03  0.18594182508E+03  0.12509068743E+03 0.  0.
          5    1    3    3  502    0  0.42613156130E+02 -0.76997480337E+01 -0.90191727006E+00  0.43513825963E+02  0.41800000000E+01 0. -1.
         -5    1    3    3    0  502 -0.29395142749E+02  0.30330724424E+02  0.13595674044E+03  0.14242799911E+03  0.41800000000E+01 0. -1.
        -11    1    1    2    0    0 -0.26989972677E+02 -0.53201931967E+02  0.15956399489E+02  0.61753630459E+02  0.00000000000E+00 0. -1.
         11    1    1    2    0    0  0.13771959296E+02  0.30570955577E+02  0.49803621795E+00  0.33533538850E+02  0.00000000000E+00 0.  1.
</event>
<event>
 7    1  0.2900135E-009  0.9121465E+02  0.7561462E-02  0.1299937E+00
         -1   -1    0    0    0  501 -0.00000000000E+00  0.00000000000E+00  0.78253849179E+02  0.78253849179E+02  0.00000000000E+00 0.  1.
          1   -1    0    0  501    0  0.00000000000E+00 -0.00000000000E+00 -0.18440468652E+03  0.18440468652E+03  0.00000000000E+00 0. -1.
         25    2    1    2    0    0 -0.33653339292E+02  0.34738409704E+02 -0.39621996770E+02  0.13984852273E+03  0.12509357429E+03 0.  0.
          5    1    3    3  502    0 -0.59593122303E+02  0.58363382292E+02  0.41195386318E+01  0.83618584161E+02  0.41800000000E+01 0.  1.
         -5    1    3    3    0  502  0.25939783011E+02 -0.23624972589E+02 -0.43741535402E+02  0.56229938571E+02  0.41800000000E+01 0.  1.
        -11    1    1    2    0    0  0.82653099845E+01 -0.37166524637E+02 -0.83775752086E+02  0.92021967705E+02  0.00000000000E+00 0. -1.
         11    1    1    2    0    0  0.25388029308E+02  0.24281149335E+01  0.17246911514E+02  0.30788045262E+02  0.00000000000E+00 0.  1.
</event>
<event>
 7    1  0.2900135E-009  0.7673154E+02  0.7561462E-02  0.1338591E+00
          3   -1    0    0  501    0  0.00000000000E+00  0.00000000000E+00  0.36527208223E+03  0.36527208223E+03  0.00000000000E+00 0. -1.
         -3   -1    0    0    0  501 -0.00000000000E+00 -0.00000000000E+00 -0.48340055717E+02  0.48340055717E+02  0.00000000000E+00 0.  1.
         25    2    1    2    0    0 -0.27909909817E+02 -0.59222512775E+02  0.23804047711E+03  0.27676224660E+03  0.12509118000E+03 0.  0.
          5    1    3    3  502    0 -0.32835298658E+01 -0.53474647360E+02  0.20184871456E+02  0.57404014793E+02  0.41800000000E+01 0. -1.
         -5    1    3    3    0  502 -0.24626379951E+02 -0.57478654146E+01  0.21785560565E+03  0.21935823181E+03  0.41800000000E+01 0. -1.
        -11    1    1    2    0    0 -0.30311273853E+01  0.34108759305E+02  0.89318801569E+02  0.95657950575E+02  0.00000000000E+00 0. -1.
         11    1    1    2    0    0  0.30941037202E+02  0.25113753470E+02 -0.10427252169E+02  0.41191940769E+02  0.00000000000E+00 0.  1.
</event>
<event>
 7    1  0.2900135E-009  0.9216495E+02  0.7561462E-02  0.1297692E+00
          1   -1    0    0  501    0  0.00000000000E+00  0.00000000000E+00  0.41452537591E+02  0.41452537591E+02  0.00000000000E+00 0. -1.
         -1   -1    0    0    0  501 -0.00000000000E+00 -0.00000000000E+00 -0.41885815233E+03  0.41885815233E+03  0.00000000000E+00 0.  1.
         25    2    1    2    0    0 -0.27140425059E+02 -0.54601915760E+02 -0.27244068915E+03  0.30592439871E+03  0.12509131363E+03 0.  0.
          5    1    3    3  502    0  0.74090639404E+01 -0.22709523604E+02  0.47768968961E+01  0.24716549815E+02  0.41800000000E+01 0.  1.
         -5    1    3    3    0  502 -0.34549489000E+02 -0.31892392156E+02 -0.27721758604E+03  0.28120784889E+03  0.41800000000E+01 0.  1.
        -11    1    1    2    0    0 -0.35781406025E+02  0.22074431665E+02 -0.33399439214E+02  0.53694618821E+02  0.00000000000E+00 0. -1.
         11    1    1    2    0    0  0.62921831085E+02  0.32527484095E+02 -0.71565486375E+02  0.10069167239E+03  0.00000000000E+00 0.  1.
</event>
<event>
 7    1  0.2900135E-009  0.1091840E+03  0.7561462E-02  0.1262088E+00
          1   -1    0    0  501    0  0.00000000000E+00  0.00000000000E+00  0.52851959541E+03  0.52851959541E+03  0.00000000000E+00 0. -1.
         -1   -1    0    0    0  501 -0.00000000000E+00 -0.00000000000E+00 -0.44399121946E+02  0.44399121946E+02  0.00000000000E+00 0.  1.
         25    2    1    2    0    0  0.77713740112E+02  0.83513895951E+01  0.12360878584E+03  0.19244649204E+03  0.12508936506E+03 0.  0.
          5    1    3    3  502    0 -0.25461555598E+01 -0.18693032003E+02  0.10351262808E+03  0.10530075463E+03  0.41800000000E+01 0. -1.
         -5    1    3    3    0  502  0.80259895672E+02  0.27044421598E+02  0.20096157767E+02  0.87145737416E+02  0.41800000000E+01 0. -1.
        -11    1    1    2    0    0 -0.94647735897E+02 -0.15423996245E+02  0.33846125014E+03  0.35178418301E+03  0.00000000000E+00 0. -1.
         11    1    1    2    0    0  0.16933995785E+02  0.70726066500E+01  0.22050437484E+02  0.28688042305E+02  0.00000000000E+00 0.  1.
</event>
<event>
 7    1  0.2900135E-009  0.1090674E+03  0.7561462E-02  0.1262307E+00
         -1   -1    0    0    0  501 -0.00000000000E+00  0.00000000000E+00  0.38407316409E+02  0.38407316409E+02  0.00000000000E+00 0.  1.
          1   -1    0    0  501    0  0.00000000000E+00 -0.00000000000E+00 -0.35961727695E+03  0.35961727695E+03  0.00000000000E+00 0. -1.
         25    2    1    2    0    0 -0.70884717987E+01 -0.39800767261E+02 -0.20210902991E+03  0.24110720302E+03  0.12510106263E+03 0.  0.
          5    1    3    3  502    0  0.39712101502E+02  0.20100135972E+02 -0.32730774312E+02  0.55406159034E+02  0.41800000000E+01 0. -1.
         -5    1    3    3    0  502 -0.46800573301E+02 -0.59900903232E+02 -0.16937825559E+03  0.18570104399E+03  0.41800000000E+01 0. -1.
        -11    1    1    2    0    0 -0.14575995133E+02 -0.25018725716E+02 -0.15606500091E+02  0.32893146941E+02  0.00000000000E+00 0.  1.
         11    1    1    2    0    0  0.21664466932E+02  0.64819492977E+02 -0.10349443054E+03  0.12402424340E+03  0.00000000000E+00 0. -1.
</event>
<event>
 7    1  0.2900135E-009  0.1333268E+03  0.7561462E-02  0.1222601E+00
          1   -1    0    0  501    0  0.00000000000E+00  0.00000000000E+00  0.25435006735E+03  0.25435006735E+03  0.00000000000E+00 0. -1.
         -1   -1    0    0    0  501 -0.00000000000E+00 -0.00000000000E+00 -0.93518814507E+02  0.93518814507E+02  0.00000000000E+00 0.  1.
         25    2    1    2    0    0  0.19842418883E+02  0.84256907968E+02  0.16242990353E+03  0.22254054549E+03  0.12509145733E+03 0.  0.
          5    1    3    3  502    0 -0.45776488230E+02  0.59842856981E+02  0.51718419997E+02  0.91481811161E+02  0.41800000000E+01 0.  1.
         -5    1    3    3    0  502  0.65618907113E+02  0.24414050987E+02  0.11071148353E+03  0.13105873432E+03  0.41800000000E+01 0.  1.
        -11    1    1    2    0    0 -0.47499549327E+02 -0.80048597060E+02 -0.15045955521E+02  0.94288736629E+02  0.00000000000E+00 0. -1.
         11    1    1    2    0    0  0.27657130443E+02 -0.42083109079E+01  0.13447304836E+02  0.31039599746E+02  0.00000000000E+00 0.  1.
</event>
<event>
 7    1  0.2900135E-009  0.1758395E+03  0.7561462E-02  0.1171891E+00
         -1   -1    0    0    0  501 -0.00000000000E+00  0.00000000000E+00  0.44062007471E+03  0.44062007471E+03  0.00000000000E+00 0.  1.
          1   -1    0    0  501    0  0.00000000000E+00 -0.00000000000E+00 -0.80462272942E+02  0.80462272942E+02  0.00000000000E+00 0. -1.
         25    2    1    2    0    0 -0.13841279307E+03 -0.49443097462E+02  0.12818954055E+03  0.23169419756E+03  0.12508765610E+03 0.  0.
          5    1    3    3  502    0 -0.66671882566E+01 -0.56290131936E+02  0.61749804584E+02  0.83925807228E+02  0.41800000000E+01 0. -1.
         -5    1    3    3    0  502 -0.13174560481E+03  0.68470344746E+01  0.66439735963E+02  0.14776839034E+03  0.41800000000E+01 0. -1.
        -11    1    1    2    0    0  0.25508505890E+02  0.42709273181E+02  0.12148777776E+03  0.13127850561E+03  0.00000000000E+00 0.  1.
         11    1    1    2    0    0  0.11290428718E+03  0.67338242808E+01  0.11048048345E+03  0.15810964448E+03  0.00000000000E+00 0. -1.
</event>
<event>
 7    1  0.2900135E-009  0.1489328E+03  0.7561462E-02  0.1201791E+00
          2   -1    0    0  501    0  0.00000000000E+00  0.00000000000E+00  0.12869428806E+04  0.12869428806E+04  0.00000000000E+00 0. -1.
         -2   -1    0    0    0  501 -0.00000000000E+00 -0.00000000000E+00 -0.20014925601E+02  0.20014925601E+02  0.00000000000E+00 0.  1.
         25    2    1    2    0    0 -0.93845736444E+02 -0.70589220140E+02  0.72543635347E+03  0.74544993405E+03  0.12509133061E+03 0.  0.
          5    1    3    3  502    0 -0.46813194901E+02 -0.96364183580E+02  0.34632807284E+03  0.36254398014E+03  0.41800000000E+01 0. -1.
         -5    1    3    3    0  502 -0.47032541544E+02  0.25774963441E+02  0.37910828063E+03  0.38290595392E+03  0.41800000000E+01 0. -1.
        -11    1    1    2    0    0  0.13688438336E+02  0.53069543197E+02  0.11754156201E+03  0.12969105042E+03  0.00000000000E+00 0.  1.
         11    1    1    2    0    0  0.80157298109E+02  0.17519676943E+02  0.42395003955E+03  0.43181682176E+03  0.00000000000E+00 0. -1.
</event>
<event>
 7    1  0.2900135E-009  0.1496860E+03  0.7561462E-02  0.1200859E+00
          1   -1    0    0  501    0  0.00000000000E+00  0.00000000000E+00  0.23035942929E+03  0.23035942929E+03  0.00000000000E+00 0.  1.
         -1   -1    0    0    0  501 -0.00000000000E+00 -0.00000000000E+00 -0.15108866640E+03  0.15108866640E+03  0.00000000000E+00 0. -1.
         25    2    1    2    0    0  0.14654146407E+03 -0.19682470066E+02  0.68230193720E+01  0.19379290084E+03  0.12508930611E+03 0.  0.
          5    1    3    3  502    0  0.26179865228E+02 -0.12114313804E+02  0.56279423904E+02  0.63379712031E+02  0.41800000000E+01 0. -1.
         -5    1    3    3    0  502  0.12036159885E+03 -0.75681562621E+01 -0.49456404532E+02  0.13041318881E+03  0.41800000000E+01 0. -1.
        -11    1    1    2    0    0 -0.81314654083E+02  0.22154226582E+02 -0.73069204898E+01  0.84594762315E+02  0.00000000000E+00 0. -1.
         11    1    1    2    0    0 -0.65226809992E+02 -0.24717565165E+01  0.79754664010E+02  0.10306043253E+03  0.00000000000E+00 0.  1.
</event>
<event>
 7    1  0.2900135E-009  0.9210630E+02  0.7561462E-02  0.1297830E+00
          1   -1    0    0  501    0  0.00000000000E+00  0.00000000000E+00  0.41732149473E+02  0.41732149473E+02  0.00000000000E+00 0. -1.
         -1   -1    0    0    0  501 -0.00000000000E+00 -0.00000000000E+00 -0.36808165498E+03  0.36808165498E+03  0.00000000000E+00 0.  1.
         25    2    1    2    0    0 -0.44315812430E+02 -0.18126643557E+02 -0.24264316256E+03  0.27713805723E+03  0.12504931823E+03 0.  0.
          5    1    3    3  502    0 -0.75754545676E+02 -0.74304643017E+01 -0.22835836824E+03  0.24074671283E+03  0.41800000000E+01 0.  1.
         -5    1    3    3    0  502  0.31438733246E+02 -0.10696179255E+02 -0.14284794315E+02  0.36391344402E+02  0.41800000000E+01 0.  1.
        -11    1    1    2    0    0  0.21514958062E+02  0.38388514077E+02 -0.91203359291E+02  0.10126511828E+03  0.00000000000E+00 0.  1.
         11    1    1    2    0    0  0.22800854367E+02 -0.20261870520E+02  0.74970163429E+01  0.31410628948E+02  0.00000000000E+00 0. -1.
</event>
<event>
 7    1  0.2900135E-009  0.1437650E+03  0.7561462E-02  0.1208351E+00
          1   -1    0    0  501    0  0.00000000000E+00  0.00000000000E+00  0.49684954550E+03  0.49684954550E+03  0.00000000000E+00 0. -1.
         -1   -1    0    0    0  501 -0.00000000000E+00 -0.00000000000E+00 -0.66061332026E+02  0.66061332026E+02  0.00000000000E+00 0.  1.
         25    2    1    2    0    0 -0.11280195656E+03  0.41224143900E+02  0.35556591807E+03  0.39559699884E+03  0.12508457919E+03 0.  0.
          5    1    3    3  502    0 -0.13556890432E+03  0.26016491498E+02  0.24134284503E+03  0.27806406977E+03  0.41800000000E+01 0.  1.
         -5    1    3    3    0  502  0.22766947754E+02  0.15207652402E+02  0.11422307303E+03  0.11753292907E+03  0.41800000000E+01 0. -1.
        -11    1    1    2    0    0  0.37413766421E+02 -0.23832263943E+02 -0.16490936473E+02  0.47325655920E+02  0.00000000000E+00 0.  1.
         11    1    1    2    0    0  0.75388190143E+02 -0.17391879957E+02  0.91713231874E+02  0.11998822276E+03  0.00000000000E+00 0. -1.
</event>
<event>
 7    1  0.2900135E-009  0.1761832E+03  0.7561462E-02  0.1171549E+00
         -1   -1    0    0    0  501 -0.00000000000E+00  0.00000000000E+00  0.62380910852E+02  0.62380910852E+02  0.00000000000E+00 0.  1.
          1   -1    0    0  501    0  0.00000000000E+00 -0.00000000000E+00 -0.71290570502E+03  0.71290570502E+03  0.00000000000E+00 0. -1.
         25    2    1    2    0    0  0.11051557524E+03 -0.10613089817E+03 -0.16323421876E+03  0.25645725152E+03  0.12508977483E+03 0.  0.
          5    1    3    3  502    0  0.13652685368E+02  0.15036414929E+02  0.10721649019E+02  0.23343430539E+02  0.41800000000E+01 0. -1.
         -5    1    3    3    0  502  0.96862889868E+02 -0.12116731310E+03 -0.17395586778E+03  0.23311382098E+03  0.41800000000E+01 0. -1.
        -11    1    1    2    0    0 -0.53069307732E+02  0.10651288818E+03 -0.36044598936E+03  0.37958221510E+03  0.00000000000E+00 0. -1.
         11    1    1    2    0    0 -0.57446267505E+02 -0.38199001351E+00 -0.12684458605E+03  0.13924714926E+03  0.00000000000E+00 0.  1.
</event>
<event>
 7    1  0.2900135E-009  0.1285440E+03  0.7561462E-02  0.1229632E+00
          2   -1    0    0  501    0  0.00000000000E+00  0.00000000000E+00  0.20098394155E+03  0.20098394155E+03  0.00000000000E+00 0. -1.
         -2   -1    0    0    0  501 -0.00000000000E+00 -0.00000000000E+00 -0.85640905369E+02  0.85640905369E+02  0.00000000000E+00 0.  1.
         25    2    1    2    0    0  0.50992851495E+02  0.48264081881E+02  0.40525804343E+02  0.14906118839E+03  0.12508878672E+03 0.  0.
          5    1    3    3  502    0 -0.43350950644E+00  0.81799639303E+02  0.22732915496E+02  0.85003686788E+02  0.41800000000E+01 0.  1.
         -5    1    3    3    0  502  0.51426361002E+02 -0.33535557422E+02  0.17792888847E+02  0.64057501599E+02  0.41800000000E+01 0.  1.
        -11    1    1    2    0    0 -0.26988399181E+02  0.24852155776E+02  0.35886446430E+02  0.51320954535E+02  0.00000000000E+00 0.  1.
         11    1    1    2    0    0 -0.24004452315E+02 -0.73116237657E+02  0.38930785407E+02  0.86242703995E+02  0.00000000000E+00 0. -1.
</event>
<event>
 7    1  0.3424120E-009  0.1483862E+03  0.7561462E-02  0.1202470E+00
          1   -1    0    0  501    0  0.00000000000E+00  0.00000000000E+00  0.77473069971E+03  0.77473069971E+03  0.00000000000E+00 0. -1.
         -1   -1    0    0    0  501 -0.00000000000E+00 -0.00000000000E+00 -0.29117280977E+02  0.29117280977E+02  0.00000000000E+00 0.  1.
         25    2    1    2    0    0 -0.24389121140E+02 -0.99829814383E+02  0.37629315928E+03  0.40963956912E+03  0.12508882364E+03 0.  0.
          5    1    3    3  502    0 -0.33741890968E+02  0.19492816206E+02  0.62525703390E+02  0.73793096385E+02  0.41800000000E+01 0.  1.
         -5    1    3    3    0  502  0.93527698280E+01 -0.11932263059E+03  0.31376745589E+03  0.33584647274E+03  0.41800000000E+01 0.  1.
        -11    1    1    2    0    0  0.52776498898E+02  0.26230733697E+02  0.15379668085E+03  0.16470224426E+03  0.00000000000E+00 0.  1.
         11    1    1    2    0    0 -0.28387377757E+02  0.73599080686E+02  0.21552357861E+03  0.22950616730E+03  0.00000000000E+00 0. -1.
</event>
<event>
 7    1  0.2900135E-009  0.1178268E+03  0.7561462E-02  0.1246726E+00
          2   -1    0    0  501    0  0.00000000000E+00  0.00000000000E+00  0.73250510267E+02  0.73250510267E+02  0.00000000000E+00 0. -1.
         -2   -1    0    0    0  501 -0.00000000000E+00 -0.00000000000E+00 -0.29715910735E+03  0.29715910735E+03  0.00000000000E+00 0.  1.
         25    2    1    2    0    0  0.80626189189E+02  0.30653485948E+01 -0.48391628712E+02  0.15653246084E+03  0.12510268910E+03 0.  0.
          5    1    3    3  502    0  0.42883622801E+02 -0.60591011919E+02 -0.29919555325E+02  0.80143172016E+02  0.41800000000E+01 0.  1.
         -5    1    3    3    0  502  0.37742566388E+02  0.63656360514E+02 -0.18472073388E+02  0.76389288822E+02  0.41800000000E+01 0.  1.
        -11    1    1    2    0    0 -0.18558200376E+02  0.13491757105E+02 -0.13714458013E+03  0.13905060291E+03  0.00000000000E+00 0.  1.
         11    1    1    2    0    0 -0.62067988813E+02 -0.16557105700E+02 -0.38372388241E+02  0.74826553868E+02  0.00000000000E+00 0. -1.
</event>
<event>
 7    1  0.2900135E-009  0.1290040E+03  0.7561462E-02  0.1228941E+00
          2   -1    0    0  501    0  0.00000000000E+00  0.00000000000E+00  0.63591355016E+03  0.63591355016E+03  0.00000000000E+00 0. -1.
         -2   -1    0    0    0  501 -0.00000000000E+00 -0.00000000000E+00 -0.39777290008E+02  0.39777290008E+02  0.00000000000E+00 0.  1.
         25    2    1    2    0    0 -0.69078460983E+01  0.11551761718E+03  0.28346967052E+03  0.33074752114E+03  0.12508729121E+03 0.  0.
          5    1    3    3  502    0 -0.12114813871E+02  0.40514470597E+01  0.17351020790E+03  0.17403001920E+03  0.41800000000E+01 0.  1.
         -5    1    3    3    0  502  0.52069677730E+01  0.11146617012E+03  0.10995946262E+03  0.15671750194E+03  0.41800000000E+01 0.  1.
        -11    1    1    2    0    0  0.30653589831E+02 -0.99857386683E+02  0.17045648538E+03  0.19991636665E+03  0.00000000000E+00 0.  1.
         11    1    1    2    0    0 -0.23745743732E+02 -0.15660230500E+02  0.14221010426E+03  0.14502695238E+03  0.00000000000E+00 0. -1.
</event>
<event>
 7    1  0.2900135E-009  0.7603527E+02  0.7561462E-02  0.1340695E+00
          1   -1    0    0  501    0  0.00000000000E+00  0.00000000000E+00  0.11926602852E+03  0.11926602852E+03  0.00000000000E+00 0. -1.
         -1   -1    0    0    0  501 -0.00000000000E+00 -0.00000000000E+00 -0.14107681510E+03  0.14107681510E+03  0.00000000000E+00 0.  1.
         25    2    1    2    0    0  0.62276332096E+02 -0.39556718174E+02 -0.97635077686E+01  0.14555257869E+03  0.12508857497E+03 0.  0.
          5    1    3    3  502    0  0.55967299969E+02 -0.41790350825E+02 -0.61535996709E+02  0.93182205270E+02  0.41800000000E+01 0. -1.
         -5    1    3    3    0  502  0.63090321269E+01  0.22336326513E+01  0.51772488941E+02  0.52370373422E+02  0.41800000000E+01 0. -1.
        -11    1    1    2    0    0 -0.22550592867E+02  0.98808436855E+01 -0.47725904651E+02  0.53702162762E+02  0.00000000000E+00 0.  1.
         11    1    1    2    0    0 -0.39725739230E+02  0.29675874489E+02  0.35678625840E+02  0.61088102162E+02  0.00000000000E+00 0. -1.
</event>
<event>
 7    1  0.2900135E-009  0.1244892E+03  0.7561462E-02  0.1235870E+00
          1   -1    0    0  501    0  0.00000000000E+00  0.00000000000E+00  0.57829990976E+02  0.57829990976E+02  0.00000000000E+00 0. -1.
         -1   -1    0    0    0  501 -0.00000000000E+00 -0.00000000000E+00 -0.30283089676E+03  0.30283089676E+03  0.00000000000E+00 0.  1.
         25    2    1    2    0    0 -0.31252777385E+02 -0.49017911669E+02 -0.18731006300E+03  0.23261842388E+03  0.12508708833E+03 0.  0.
          5    1    3    3  502    0  0.39254158800E+01  0.39215044965E+02 -0.79781048243E+02  0.89082639724E+02  0.41800000000E+01 0.  1.
         -5    1    3    3    0  502 -0.35178193265E+02 -0.88232956635E+02 -0.10752901475E+03  0.14353578415E+03  0.41800000000E+01 0.  1.
        -11    1    1    2    0    0  0.36987852391E+02  0.77149012855E+02 -0.44695027904E+02  0.96528321898E+02  0.00000000000E+00 0.  1.
         11    1    1    2    0    0 -0.57350750067E+01 -0.28131101186E+02 -0.12995814884E+02  0.31514141965E+02  0.00000000000E+00 0. -1.
</event>
<event>
 7    1  0.2900135E-009  0.1082446E+03  0.7561462E-02  0.1263856E+00
          1   -1    0    0  501    0  0.00000000000E+00  0.00000000000E+00  0.30332506897E+03  0.30332506897E+03  0.00000000000E+00 0. -1.
         -1   -1    0    0    0  501 -0.00000000000E+00 -0.00000000000E+00 -0.56856050325E+02  0.56856050325E+02  0.00000000000E+00 0.  1.
         25    2    1    2    0    0 -0.18895165995E+01 -0.69235771999E+02  0.16711524504E+03  0.21993644868E+03  0.12508946372E+03 0.  0.
          5    1    3    3  502    0 -0.23414422569E+02 -0.10101117597E+03  0.13046781789E+03  0.16670577902E+03  0.41800000000E+01 0.  1.
         -5    1    3    3    0  502  0.21524905970E+02  0.31775403971E+02  0.36647427156E+02  0.53230669653E+02  0.41800000000E+01 0.  1.
        -11    1    1    2    0    0  0.13111536958E+02  0.22470030515E+02  0.87660290498E+02  0.91439276041E+02  0.00000000000E+00 0. -1.
         11    1    1    2    0    0 -0.11222020358E+02  0.46765741484E+02 -0.83065168920E+01  0.48805394583E+02  0.00000000000E+00 0.  1.
</event>
<event>
 7    1  0.2900135E-009  0.1771970E+03  0.7561462E-02  0.1170544E+00
          1   -1    0    0  501    0  0.00000000000E+00  0.00000000000E+00  0.46348459200E+02  0.46348459200E+02  0.00000000000E+00 0. -1.
         -1   -1    0    0    0  501 -0.00000000000E+00 -0.00000000000E+00 -0.80115906586E+03  0.80115906586E+03  0.00000000000E+00 0.  1.
         25    2    1    2    0    0 -0.15237964082E+03 -0.42947475638E+02 -0.41500424690E+03  0.46145462201E+03  0.12509117726E+03 0.  0.
          5    1    3    3  502    0 -0.72705124818E+02  0.38021290398E+02 -0.23096073276E+03  0.24513666836E+03  0.41800000000E+01 0. -1.
         -5    1    3    3    0  502 -0.79674516006E+02 -0.80968766037E+02 -0.18404351415E+03  0.21631795365E+03  0.41800000000E+01 0. -1.
        -11    1    1    2    0    0  0.38205230578E+02  0.67776053836E+01 -0.19166791656E+03  0.19555604265E+03  0.00000000000E+00 0.  1.
         11    1    1    2    0    0  0.11417441025E+03  0.36169870255E+02 -0.14813844321E+03  0.19049686041E+03  0.00000000000E+00 0. -1.
</event>
<event>
 7    1  0.2900135E-009  0.2526831E+03  0.7561462E-02  0.1111621E+00
         -1   -1    0    0    0  501 -0.00000000000E+00  0.00000000000E+00  0.19255722278E+03  0.19255722278E+03  0.00000000000E+00 0.  1.
          1   -1    0    0  501    0  0.00000000000E+00 -0.00000000000E+00 -0.42727362581E+03  0.42727362581E+03  0.00000000000E+00 0. -1.
         25    2    1    2    0    0 -0.61028765116E+02 -0.24464034242E+03 -0.30982600603E+02  0.28316193884E+03  0.12508938706E+03 0.  0.
          5    1    3    3  502    0 -0.35901044905E+02 -0.13338438479E+03  0.45819596057E+02  0.14559253729E+03  0.41800000000E+01 0. -1.
         -5    1    3    3    0  502 -0.25127720211E+02 -0.11125595762E+03 -0.76802196660E+02  0.13756940155E+03  0.41800000000E+01 0. -1.
        -11    1    1    2    0    0  0.39070332014E+02  0.11266564433E+03 -0.15207424131E+03  0.19325271829E+03  0.00000000000E+00 0.  1.
         11    1    1    2    0    0  0.21958433103E+02  0.13197469809E+03 -0.51659561123E+02  0.14341619147E+03  0.00000000000E+00 0. -1.
</event>
<event>
 7    1  0.2900135E-009  0.2064858E+03  0.7561462E-02  0.1144379E+00
          1   -1    0    0  501    0  0.00000000000E+00  0.00000000000E+00  0.55295431352E+03  0.55295431352E+03  0.00000000000E+00 0. -1.
         -1   -1    0    0    0  501 -0.00000000000E+00 -0.00000000000E+00 -0.94513618558E+02  0.94513618558E+02  0.00000000000E+00 0.  1.
         25    2    1    2    0    0  0.16530690327E+03 -0.15253361177E+02  0.36689335455E+03  0.42168387003E+03  0.12509002890E+03 0.  0.
          5    1    3    3  502    0  0.64097612530E+02  0.54336165016E+02  0.16789296469E+03  0.18779361745E+03  0.41800000000E+01 0.  1.
         -5    1    3    3    0  502  0.10120929074E+03 -0.69589526192E+02  0.19900038986E+03  0.23389025258E+03  0.41800000000E+01 0.  1.
        -11    1    1    2    0    0 -0.54531602219E+02  0.64714163408E+02  0.44982203943E+02  0.95838495698E+02  0.00000000000E+00 0.  1.
         11    1    1    2    0    0 -0.11077530106E+03 -0.49460802231E+02  0.46565136475E+02  0.12994556636E+03  0.00000000000E+00 0. -1.
</event>
<event>
 7    1  0.2900135E-009  0.8276273E+02  0.7561462E-02  0.1321389E+00
         -1   -1    0    0    0  501 -0.00000000000E+00  0.00000000000E+00  0.48621588530E+02  0.48621588530E+02  0.00000000000E+00 0.  1.
          1   -1    0    0  501    0  0.00000000000E+00 -0.00000000000E+00 -0.40441882608E+03  0.40441882608E+03  0.00000000000E+00 0. -1.
         25    2    1    2    0    0  0.39280436843E+02  0.22693299767E+02 -0.31756982118E+03  0.34432020029E+03  0.12509144827E+03 0.  0.
          5    1    3    3  502    0 -0.15744703845E+02  0.22917582926E+02 -0.71212340769E+01  0.29005097502E+02  0.41800000000E+01 0.  1.
         -5    1    3    3    0  502  0.55025140688E+02 -0.22428315911E+00 -0.31044858711E+03  0.31531510279E+03  0.41800000000E+01 0.  1.
        -11    1    1    2    0    0  0.63459484932E+01 -0.34512945805E+02  0.14525360761E+02  0.37978949375E+02  0.00000000000E+00 0.  1.
         11    1    1    2    0    0 -0.45626385336E+02  0.11819646038E+02 -0.52752777131E+02  0.70741264947E+02  0.00000000000E+00 0. -1.
</event>
<event>
 7    1  0.2900135E-009  0.1160848E+03  0.7561462E-02  0.1249699E+00
         -1   -1    0    0    0  501 -0.00000000000E+00  0.00000000000E+00  0.78039894273E+02  0.78039894273E+02  0.00000000000E+00 0.  1.
          1   -1    0    0  501    0  0.00000000000E+00 -0.00000000000E+00 -0.25263675202E+03  0.25263675202E+03  0.00000000000E+00 0. -1.
         25    2    1    2    0    0 -0.35752842782E+02  0.61090686098E+02 -0.15026537898E+03  0.20793736085E+03  0.12509166328E+03 0.  0.
          5    1    3    3  502    0 -0.37453938390E+02  0.95672789395E+02 -0.82913247470E+02  0.13209148019E+03  0.41800000000E+01 0. -1.
         -5    1    3    3    0  502  0.17010956077E+01 -0.34582103297E+02 -0.67352131513E+02  0.75845880667E+02  0.41800000000E+01 0. -1.
        -11    1    1    2    0    0 -0.47615527565E+01  0.10879761333E+02 -0.37292762261E+02  0.39138110690E+02  0.00000000000E+00 0. -1.
         11    1    1    2    0    0  0.40514395539E+02 -0.71970447431E+02  0.12961283501E+02  0.83601174748E+02  0.00000000000E+00 0.  1.
</event>
<event>
 7    1  0.2900135E-009  0.1117955E+03  0.7561462E-02  0.1257281E+00
          1   -1    0    0  501    0  0.00000000000E+00  0.00000000000E+00  0.11518774896E+04  0.11518774896E+04  0.00000000000E+00 0. -1.
         -1   -1    0    0    0  501 -0.00000000000E+00 -0.00000000000E+00 -0.12351757482E+02  0.12351757482E+02  0.00000000000E+00 0.  1.
         25    2    1    2    0    0 -0.35529752986E+02  0.24634028294E+02  0.75572698388E+03  0.76722804275E+03  0.12508555757E+03 0.  0.
          5    1    3    3  502    0 -0.69494095158E+02 -0.13970602516E+02  0.28627074975E+03  0.29494579428E+03  0.41800000000E+01 0. -1.
         -5    1    3    3    0  502  0.33964342172E+02  0.38604630810E+02  0.46945623413E+03  0.47228224847E+03  0.41800000000E+01 0. -1.
        -11    1    1    2    0    0  0.64919058217E+02 -0.29322436062E+02  0.28846036395E+03  0.29712568207E+03  0.00000000000E+00 0.  1.
         11    1    1    2    0    0 -0.29389305232E+02  0.46884077685E+01  0.95338384322E+02  0.99875522299E+02  0.00000000000E+00 0. -1.
</event>
<event>
 7    1  0.2900135E-009  0.1450701E+03  0.7561462E-02  0.1206665E+00
         -2   -1    0    0    0  501 -0.00000000000E+00  0.00000000000E+00  0.31706163537E+02  0.31706163537E+02  0.00000000000E+00 0.  1.
          2   -1    0    0  501    0  0.00000000000E+00 -0.00000000000E+00 -0.10751760344E+04  0.10751760344E+04  0.00000000000E+00 0. -1.
         25    2    1    2    0    0  0.11004720949E+03 -0.33650387488E+02 -0.83013397897E+03  0.84735457174E+03  0.12507841666E+03 0.  0.
          5    1    3    3  502    0  0.35505018990E+02 -0.70915593716E+02 -0.28448179078E+03  0.29535908567E+03  0.41800000000E+01 0.  1.
         -5    1    3    3    0  502  0.74542190496E+02  0.37265206228E+02 -0.54565218819E+03  0.55199548606E+03  0.41800000000E+01 0.  1.
        -11    1    1    2    0    0 -0.67024857275E+02 -0.78756902483E+01 -0.45586669246E+02  0.81440176833E+02  0.00000000000E+00 0.  1.
         11    1    1    2    0    0 -0.43022352211E+02  0.41526077736E+02 -0.16774922263E+03  0.17808744935E+03  0.00000000000E+00 0. -1.
</event>
<event>
 7    1  0.2900135E-009  0.1021033E+03  0.7561462E-02  0.1275934E+00
          1   -1    0    0  501    0  0.00000000000E+00  0.00000000000E+00  0.30616214975E+03  0.30616214975E+03  0.00000000000E+00 0. -1.
         -1   -1    0    0    0  501 -0.00000000000E+00 -0.00000000000E+00 -0.55464158512E+02  0.55464158512E+02  0.00000000000E+00 0.  1.
         25    2    1    2    0    0  0.29672765594E+02  0.35122978445E+02  0.21106706413E+03  0.24962134700E+03  0.12508962661E+03 0.  0.
          5    1    3    3  502    0  0.69201758428E+02  0.16665463139E+02  0.18585000300E+03  0.19905857692E+03  0.41800000000E+01 0.  1.
         -5    1    3    3    0  502 -0.39528992834E+02  0.18457515306E+02  0.25217061124E+02  0.50562770073E+02  0.41800000000E+01 0.  1.
        -11    1    1    2    0    0 -0.26162944157E+01 -0.55277940093E+02 -0.55496335495E+01  0.55617390176E+02  0.00000000000E+00 0.  1.
         11    1    1    2    0    0 -0.27056471178E+02  0.20154961648E+02  0.45180560665E+02  0.56387571092E+02  0.00000000000E+00 0. -1.
</event>
<event>
 7    1  0.2900135E-009  0.1017789E+03  0.7561462E-02  0.1276599E+00
         -2   -1    0    0    0  501 -0.00000000000E+00  0.00000000000E+00  0.73017730600E+02  0.73017730600E+02  0.00000000000E+00 0.  1.
          2   -1    0    0  501    0  0.00000000000E+00 -0.00000000000E+00 -0.27473891594E+03  0.27473891594E+03  0.00000000000E+00 0. -1.
         25    2    1    2    0    0  0.98816197932E+01 -0.74251392597E+02 -0.17289051467E+03  0.22616433983E+03  0.12509301675E+03 0.  0.
          5    1    3    3  502    0  0.27197785840E+02  0.10904166916E+02 -0.12164570496E+03  0.12519492940E+03  0.41800000000E+01 0.  1.
         -5    1    3    3    0  502 -0.17316166046E+02 -0.85155559513E+02 -0.51244809704E+02  0.10096941044E+03  0.41800000000E+01 0.  1.
        -11    1    1    2    0    0 -0.20480752957E+02  0.11843606616E+02  0.27906347380E+02  0.36585468201E+02  0.00000000000E+00 0.  1.
         11    1    1    2    0    0  0.10599133164E+02  0.62407785981E+02 -0.56737018053E+02  0.85006838504E+02  0.00000000000E+00 0. -1.
</event>
<event>
 7    1  0.2900135E-009  0.1107995E+03  0.7561462E-02  0.1259096E+00
         -4   -1    0    0    0  501 -0.00000000000E+00  0.00000000000E+00  0.33680716946E+03  0.33680716946E+03  0.00000000000E+00 0. -1.
          4   -1    0    0  501    0  0.00000000000E+00 -0.00000000000E+00 -0.53063937586E+02  0.53063937586E+02  0.00000000000E+00 0.  1.
         25    2    1    2    0    0 -0.52493451713E+02  0.55917727714E+02  0.12650237380E+03  0.19373863442E+03  0.12509777434E+03 0.  0.
          5    1    3    3  502    0 -0.52125780494E+01 -0.26892143668E+02  0.85460018953E+02  0.89840111312E+02  0.41800000000E+01 0. -1.
         -5    1    3    3    0  502 -0.47280873663E+02  0.82809871382E+02  0.41042354844E+02  0.10389852311E+03  0.41800000000E+01 0. -1.
        -11    1    1    2    0    0  0.40848444727E+02  0.48206154866E+00  0.12190206639E+03  0.12856493150E+03  0.00000000000E+00 0.  1.
         11    1    1    2    0    0  0.11645006986E+02 -0.56399789263E+02  0.35338791680E+02  0.67567541128E+02  0.00000000000E+00 0. -1.
</event>
<event>
 7    1  0.2900135E-009  0.1568583E+03  0.7561462E-02  0.1192290E+00
         -1   -1    0    0    0  501 -0.00000000000E+00  0.00000000000E+00  0.10075940861E+03  0.10075940861E+03  0.00000000000E+00 0.  1.
          1   -1    0    0  501    0  0.00000000000E+00 -0.00000000000E+00 -0.26021597113E+03  0.26021597113E+03  0.00000000000E+00 0. -1.
         25    2    1    2    0    0  0.85336095583E+02 -0.76617799296E+02 -0.41601645983E+02  0.17472831205E+03  0.12508696857E+03 0.  0.
          5    1    3    3  502    0  0.88448638593E+02  0.42528296080E+01 -0.22921509479E+02  0.91564819802E+02  0.41800000000E+01 0.  1.
         -5    1    3    3    0  502 -0.31125430099E+01 -0.80870628904E+02 -0.18680136504E+02  0.83163492250E+02  0.41800000000E+01 0.  1.
        -11    1    1    2    0    0 -0.57314230106E+02 -0.51958460537E+01 -0.42476780547E+02  0.71527579817E+02  0.00000000000E+00 0. -1.
         11    1    1    2    0    0 -0.28021865477E+02  0.81813645350E+02 -0.75378135989E+02  0.11471948786E+03  0.00000000000E+00 0.  1.
</event>
<event>
 7    1  0.2900135E-009  0.1136564E+03  0.7561462E-02  0.1253945E+00
          2   -1    0    0  501    0  0.00000000000E+00  0.00000000000E+00  0.38594347482E+03  0.38594347482E+03  0.00000000000E+00 0. -1.
         -2   -1    0    0    0  501 -0.00000000000E+00 -0.00000000000E+00 -0.43336816017E+02  0.43336816017E+02  0.00000000000E+00 0.  1.
         25    2    1    2    0    0  0.64239030983E+02  0.20288609284E+02  0.21693323132E+03  0.25931739900E+03  0.12508879169E+03 0.  0.
          5    1    3    3  502    0  0.77830692134E+02 -0.20204917039E+02  0.19531769683E+03  0.21126365140E+03  0.41800000000E+01 0. -1.
         -5    1    3    3    0  502 -0.13591661151E+02  0.40493526322E+02  0.21615534492E+02  0.48053747598E+02  0.41800000000E+01 0. -1.
        -11    1    1    2    0    0 -0.59145869802E+01  0.27713928936E+02  0.71776758836E+02  0.77168305056E+02  0.00000000000E+00 0.  1.
         11    1    1    2    0    0 -0.58324444003E+02 -0.48002538220E+02  0.53896668643E+02  0.92794586774E+02  0.00000000000E+00 0. -1.
</event>
<event>
 7    1  0.2900135E-009  0.1031013E+03  0.7561462E-02  0.1273906E+00
          2   -1    0    0  501    0  0.00000000000E+00  0.00000000000E+00  0.94235686667E+03  0.94235686667E+03  0.00000000000E+00 0. -1.
         -2   -1    0    0    0  501 -0.00000000000E+00 -0.00000000000E+00 -0.13657991596E+02  0.13657991596E+02  0.00000000000E+00 0.  1.
         25    2    1    2    0    0  0.40138745118E+00  0.21466548342E+02  0.63379822974E+03  0.64638097499E+03  0.12508874845E+03 0.  0.
          5    1    3    3  502    0 -0.50748969394E+02  0.31274383529E+02  0.18172191777E+03  0.19129525023E+03  0.41800000000E+01 0.  1.
         -5    1    3    3    0  502  0.51150356845E+02 -0.98078351870E+01  0.45207631197E+03  0.45508572476E+03  0.41800000000E+01 0.  1.
        -11    1    1    2    0    0  0.21701862528E+02  0.30667123977E+02  0.12711163869E+03  0.13254739538E+03  0.00000000000E+00 0. -1.
         11    1    1    2    0    0 -0.22103249979E+02 -0.52133672318E+02  0.16778900664E+03  0.17708648791E+03  0.00000000000E+00 0.  1.
</event>
<event>
 7    1  0.2900135E-009  0.1485700E+03  0.7561462E-02  0.1202241E+00
          2   -1    0    0  501    0  0.00000000000E+00  0.00000000000E+00  0.25964235331E+03  0.25964235331E+03  0.00000000000E+00 0. -1.
         -2   -1    0    0    0  501 -0.00000000000E+00 -0.00000000000E+00 -0.85643603966E+02  0.85643603966E+02  0.00000000000E+00 0.  1.
         25    2    1    2    0    0 -0.91770185853E+02  0.50483297694E+02  0.89738899626E+02  0.18620240499E+03  0.12509170700E+03 0.  0.
          5    1    3    3  502    0 -0.37107635796E+02  0.88654666814E+02  0.49010910549E+02  0.10796373620E+03  0.41800000000E+01 0. -1.
         -5    1    3    3    0  502 -0.54662550058E+02 -0.38171369120E+02  0.40727989077E+02  0.78238668787E+02  0.41800000000E+01 0. -1.
        -11    1    1    2    0    0  0.46828231287E+02 -0.70746495589E+02  0.61488365005E+02  0.10477962070E+03  0.00000000000E+00 0. -1.
         11    1    1    2    0    0  0.44941954566E+02  0.20263197894E+02  0.22771484709E+02  0.54303931579E+02  0.00000000000E+00 0.  1.
</event>
<event>
 7    1  0.2900135E-009  0.1253688E+03  0.7561462E-02  0.1234494E+00
         -1   -1    0    0    0  501 -0.00000000000E+00  0.00000000000E+00  0.61710750352E+03  0.61710750352E+03  0.00000000000E+00 0.  1.
          1   -1    0    0  501    0  0.00000000000E+00 -0.00000000000E+00 -0.30078941594E+02  0.30078941594E+02  0.00000000000E+00 0. -1.
         25    2    1    2    0    0 -0.56423826831E+02  0.51912213969E+02  0.25315190357E+03  0.29259476461E+03  0.12508910346E+03 0.  0.
          5    1    3    3  502    0  0.12066728030E+02 -0.26242135333E+02  0.15196161245E+02  0.32903667102E+02  0.41800000000E+01 0. -1.
         -5    1    3    3    0  502 -0.68490554861E+02  0.78154349302E+02  0.23795574233E+03  0.25969109751E+03  0.41800000000E+01 0. -1.
        -11    1    1    2    0    0  0.55406441051E+01 -0.64819510685E+02  0.21531361083E+03  0.22492714090E+03  0.00000000000E+00 0.  1.
         11    1    1    2    0    0  0.50883182726E+02  0.12907296716E+02  0.11856304752E+03  0.12966453960E+03  0.00000000000E+00 0. -1.
</event>
<event>
 7    1  0.2900135E-009  0.7242604E+02  0.7561462E-02  0.1352032E+00
          3   -1    0    0  501    0  0.00000000000E+00  0.00000000000E+00  0.11148607664E+03  0.11148607664E+03  0.00000000000E+00 0. -1.
         -3   -1    0    0    0  501 -0.00000000000E+00 -0.00000000000E+00 -0.19897985097E+03  0.19897985097E+03  0.00000000000E+00 0.  1.
         25    2    1    2    0    0  0.10012598404E+02  0.52582571627E+02 -0.13776215957E+03  0.19363141665E+03  0.12509809727E+03 0.  0.
          5    1    3    3  502    0 -0.14535199382E+02  0.18334079044E+01 -0.13623234592E+03  0.13708157382E+03  0.41800000000E+01 0.  1.
         -5    1    3    3    0  502  0.24547797785E+02  0.50749163723E+02 -0.15298136488E+01  0.56549842833E+02  0.41800000000E+01 0.  1.
        -11    1    1    2    0    0  0.16071196231E+02 -0.20250191071E+01  0.57269026550E+02  0.59515758020E+02  0.00000000000E+00 0. -1.
         11    1    1    2    0    0 -0.26083794634E+02 -0.50557552520E+02 -0.70006413185E+01  0.57318752937E+02  0.00000000000E+00 0.  1.
</event>
<event>
 7    1  0.2900135E-009  0.1119449E+03  0.7561462E-02  0.1257010E+00
         -2   -1    0    0    0  501 -0.00000000000E+00  0.00000000000E+00  0.22861455528E+03  0.22861455528E+03  0.00000000000E+00 0.  1.
          2   -1    0    0  501    0  0.00000000000E+00 -0.00000000000E+00 -0.63795623813E+02  0.63795623813E+02  0.00000000000E+00 0. -1.
         25    2    1    2    0    0 -0.46567568160E+02 -0.13446910244E+02  0.81670604174E+02  0.15705105403E+03  0.12508232563E+03 0.  0.
          5    1    3    3  502    0 -0.28398503179E+02  0.46321595360E+02  0.44476289368E+00  0.54496196138E+02  0.41800000000E+01 0.  1.
         -5    1    3    3    0  502 -0.18169064981E+02 -0.59768505605E+02  0.81225841280E+02  0.10255485789E+03  0.41800000000E+01 0.  1.
        -11    1    1    2    0    0  0.69622747653E+02 -0.13922209922E+02  0.53934068169E+02  0.89162989122E+02  0.00000000000E+00 0.  1.
         11    1    1    2    0    0 -0.23055179494E+02  0.27369120166E+02  0.29214259123E+02  0.46196135945E+02  0.00000000000E+00 0. -1.
</event>
<event>
 7    1  0.2900135E-009  0.9282358E+02  0.7561462E-02  0.1296155E+00
         -1   -1    0    0    0  501 -0.00000000000E+00  0.00000000000E+00  0.96244892949E+02  0.96244892949E+02  0.00000000000E+00 0.  1.
          1   -1    0    0  501    0  0.00000000000E+00 -0.00000000000E+00 -0.22741411696E+03  0.22741411696E+03  0.00000000000E+00 0. -1.
         25    2    1    2    0    0  0.55390875773E+02 -0.50000266655E+02 -0.14639065862E+03  0.20650970764E+03  0.12509140112E+03 0.  0.
          5    1    3    3  502    0  0.13430537926E+02 -0.64508100436E+02 -0.14929256974E+02  0.67690689793E+02  0.41800000000E+01 0. -1.
         -5    1    3    3    0  502  0.41960337846E+02  0.14507833781E+02 -0.13146140164E+03  0.13881901785E+03  0.41800000000E+01 0. -1.
        -11    1    1    2    0    0 -0.15518045314E+02  0.18947076648E+02  0.50084954484E+02  0.55752166860E+02  0.00000000000E+00 0.  1.
         11    1    1    2    0    0 -0.39872830458E+02  0.31053190006E+02 -0.34863519874E+02  0.61397135408E+02  0.00000000000E+00 0. -1.
</event>
<event>
 7    1  0.2900135E-009  0.1115194E+03  0.7561462E-02  0.1257782E+00
         -2   -1    0    0    0  501 -0.00000000000E+00  0.00000000000E+00  0.45506049625E+03  0.45506049625E+03  0.00000000000E+00 0. -1.
          2   -1    0    0  501    0  0.00000000000E+00 -0.00000000000E+00 -0.36891342439E+02  0.36891342439E+02  0.00000000000E+00 0.  1.
         25    2    1    2    0    0  0.60056825450E+02 -0.36178661928E+02  0.24941749854E+03  0.28770194997E+03  0.12509038963E+03 0.  0.
          5    1    3    3  502    0  0.11717611609E+02 -0.76868376082E+02  0.16217784816E+03  0.17990324204E+03  0.41800000000E+01 0.  1.
         -5    1    3    3    0  502  0.48339213841E+02  0.40689714154E+02  0.87239650379E+02  0.10779870793E+03  0.41800000000E+01 0.  1.
        -11    1    1    2    0    0 -0.43859070357E+02  0.18605169322E+01  0.15916675677E+03  0.16510946683E+03  0.00000000000E+00 0. -1.
         11    1    1    2    0    0 -0.16197755093E+02  0.34318144996E+02  0.95848984933E+01  0.39140421882E+02  0.00000000000E+00 0.  1.
</event>
<event>
 7    1  0.2900135E-009  0.9601204E+02  0.7561462E-02  0.1288913E+00
          2   -1    0    0  501    0  0.00000000000E+00  0.00000000000E+00  0.37705011820E+03  0.37705011820E+03  0.00000000000E+00 0. -1.
         -2   -1    0    0    0  501 -0.00000000000E+00 -0.00000000000E+00 -0.52412967838E+02  0.52412967838E+02  0.00000000000E+00 0.  1.
         25    2    1    2    0    0 -0.18946527052E+02  0.17687489409E+02  0.30878161242E+03  0.33416331717E+03  0.12508884924E+03 0.  0.
          5    1    3    3  502    0 -0.59450188075E+02  0.13602267615E+02  0.27313453478E+03  0.27989157371E+03  0.41800000000E+01 0. -1.
         -5    1    3    3    0  502  0.40503661024E+02  0.40852217942E+01  0.35647077644E+02  0.54271743458E+02  0.41800000000E+01 0. -1.
        -11    1    1    2    0    0 -0.47183893921E+01  0.33366972380E+02 -0.72473421432E+01  0.34469435917E+02  0.00000000000E+00 0.  1.
         11    1    1    2    0    0  0.23664916444E+02 -0.51054461790E+02  0.23102880083E+02  0.60830332952E+02  0.00000000000E+00 0. -1.
</event>
<event>
 7    1  0.2900135E-009  0.1428091E+03  0.7561462E-02  0.1209598E+00
         -1   -1    0    0    0  501 -0.00000000000E+00  0.00000000000E+00  0.42459490067E+02  0.42459490067E+02  0.00000000000E+00 0.  1.
          1   -1    0    0  501    0  0.00000000000E+00 -0.00000000000E+00 -0.67533490056E+03  0.67533490056E+03  0.00000000000E+00 0. -1.
         25    2    1    2    0    0  0.12651832013E+03 -0.35527900706E+02 -0.33714016214E+03  0.38286196514E+03  0.12510267129E+03 0.  0.
          5    1    3    3  502    0  0.94893027068E+02 -0.14374439223E+02 -0.86359971007E+02  0.12917750610E+03  0.41800000000E+01 0. -1.
         -5    1    3    3    0  502  0.31625293063E+02 -0.21153461483E+02 -0.25078019113E+03  0.25368445904E+03  0.41800000000E+01 0. -1.
        -11    1    1    2    0    0 -0.55271491591E+02 -0.22213259538E+02 -0.16346473419E+03  0.17398013107E+03  0.00000000000E+00 0.  1.
         11    1    1    2    0    0 -0.71246828540E+02  0.57741160244E+02 -0.13227051416E+03  0.16095229442E+03  0.00000000000E+00 0. -1.
</event>
<event>
 7    1  0.2900135E-009  0.1191319E+03  0.7561462E-02  0.1244536E+00
          2   -1    0    0  501    0  0.00000000000E+00  0.00000000000E+00  0.14795928030E+03  0.14795928030E+03  0.00000000000E+00 0. -1.
         -2   -1    0    0    0  501 -0.00000000000E+00 -0.00000000000E+00 -0.15892481913E+03  0.15892481913E+03  0.00000000000E+00 0.  1.
         25    2    1    2    0    0 -0.11202792813E+02  0.96661440652E+02  0.43521597478E+02  0.16435498331E+03  0.12509793930E+03 0.  0.
          5    1    3    3  502    0 -0.54780477883E+02  0.65316506312E+02  0.64073015785E+02  0.10672380477E+03  0.41800000000E+01 0. -1.
         -5    1    3    3    0  502  0.43577685070E+02  0.31344934340E+02 -0.20551418307E+02  0.57631178534E+02  0.41800000000E+01 0. -1.
        -11    1    1    2    0    0 -0.12568858235E+01 -0.65490861550E+02 -0.77767402129E+02  0.10167793046E+03  0.00000000000E+00 0.  1.
         11    1    1    2    0    0  0.12459678636E+02 -0.31170579102E+02  0.23280265826E+02  0.40851185664E+02  0.00000000000E+00 0. -1.
</event>
<event>
 7    1  0.2900135E-009  0.1277060E+03  0.7561462E-02  0.1230900E+00
         -1   -1    0    0    0  501 -0.00000000000E+00  0.00000000000E+00  0.91313770078E+02  0.91313770078E+02  0.00000000000E+00 0.  1.
          1   -1    0    0  501    0  0.00000000000E+00 -0.00000000000E+00 -0.33742367248E+03  0.33742367248E+03  0.00000000000E+00 0. -1.
         25    2    1    2    0    0 -0.51609479296E+02  0.59462491947E+02 -0.26744734369E+03  0.30557372991E+03  0.12509155233E+03 0.  0.
          5    1    3    3  502    0 -0.78312232262E+02  0.11556060695E+02 -0.90667946999E+02  0.12043461825E+03  0.41800000000E+01 0. -1.
         -5    1    3    3    0  502  0.26702752966E+02  0.47906431252E+02 -0.17677939669E+03  0.18513911166E+03  0.41800000000E+01 0. -1.
        -11    1    1    2    0    0  0.18718602767E+02  0.24574941527E+02  0.82533248471E+01  0.31975478286E+02  0.00000000000E+00 0.  1.
         11    1    1    2    0    0  0.32890876529E+02 -0.84037433474E+02  0.13084116436E+02  0.91188234365E+02  0.00000000000E+00 0. -1.
</event>
<event>
 7    1  0.2900135E-009  0.2381451E+03  0.7561462E-02  0.1121035E+00
          1   -1    0    0  501    0  0.00000000000E+00  0.00000000000E+00  0.26447495193E+03  0.26447495193E+03  0.00000000000E+00 0. -1.
         -1   -1    0    0    0  501 -0.00000000000E+00 -0.00000000000E+00 -0.23360564221E+03  0.23360564221E+03  0.00000000000E+00 0.  1.
         25    2    1    2    0    0  0.21310738711E+03 -0.20167442381E+02  0.79281219722E+02  0.26029669651E+03  0.12508946494E+03 0.  0.
          5    1    3    3  502    0  0.37534477549E+02 -0.53259040172E+02  0.42305931916E+02  0.77798628781E+02  0.41800000000E+01 0.  1.
         -5    1    3    3    0  502  0.17557290956E+03  0.33091597792E+02  0.36975287806E+02  0.18249806773E+03  0.41800000000E+01 0.  1.
        -11    1    1    2    0    0 -0.16740351707E+03 -0.23536495412E+02 -0.28130993502E+02  0.17137460996E+03  0.00000000000E+00 0. -1.
         11    1    1    2    0    0 -0.45703870039E+02  0.43703937793E+02 -0.20280916505E+02  0.66409287675E+02  0.00000000000E+00 0.  1.
</event>
<event>
 7    1  0.2900135E-009  0.9357845E+02  0.7561462E-02  0.1294410E+00
         -2   -1    0    0    0  501 -0.00000000000E+00  0.00000000000E+00  0.11891852505E+02  0.11891852505E+02  0.00000000000E+00 0.  1.
          2   -1    0    0  501    0  0.00000000000E+00 -0.00000000000E+00 -0.12559822756E+04  0.12559822756E+04  0.00000000000E+00 0. -1.
         25    2    1    2    0    0  0.23845533387E+01 -0.38200013716E+02 -0.90409021538E+03  0.91350541424E+03  0.12509235451E+03 0.  0.
          5    1    3    3  502    0 -0.18595946473E+01 -0.62344679594E+02 -0.21339900718E+03  0.22236664730E+03  0.41800000000E+01 0.  1.
         -5    1    3    3    0  502  0.42441479860E+01  0.24144665878E+02 -0.69069120820E+03  0.69113876694E+03  0.41800000000E+01 0.  1.
        -11    1    1    2    0    0  0.35155251981E+02 -0.11951097217E+02 -0.13463367597E+03  0.13966011303E+03  0.00000000000E+00 0.  1.
         11    1    1    2    0    0 -0.37539805320E+02  0.50151110932E+02 -0.20536653174E+03  0.21470860083E+03  0.00000000000E+00 0. -1.
</event>
<event>
 7    1  0.2900135E-009  0.1087650E+03  0.7561462E-02  0.1262874E+00
         -2   -1    0    0    0  501 -0.00000000000E+00  0.00000000000E+00  0.21167981972E+02  0.21167981972E+02  0.00000000000E+00 0.  1.
          2   -1    0    0  501    0  0.00000000000E+00 -0.00000000000E+00 -0.69871594221E+03  0.69871594221E+03  0.00000000000E+00 0. -1.
         25    2    1    2    0    0 -0.48304362084E+01  0.54503178623E+02 -0.35692354148E+03  0.38215282125E+03  0.12510969079E+03 0.  0.
          5    1    3    3  502    0 -0.40102764515E+02 -0.25148578682E+02 -0.97534686619E+02  0.10849502397E+03  0.41800000000E+01 0.  1.
         -5    1    3    3    0  502  0.35272328307E+02  0.79651757305E+02 -0.25938885486E+03  0.27365779728E+03  0.41800000000E+01 0.  1.
        -11    1    1    2    0    0 -0.10314903601E+02  0.11284784531E+02 -0.68088249730E+01  0.16736298746E+02  0.00000000000E+00 0.  1.
         11    1    1    2    0    0  0.15145339809E+02 -0.65787963154E+02 -0.31381559379E+03  0.32099480419E+03  0.00000000000E+00 0. -1.
</event>
<event>
 7    1  0.2900135E-009  0.1106421E+03  0.7561462E-02  0.1259385E+00
          2   -1    0    0  501    0  0.00000000000E+00  0.00000000000E+00  0.70605591441E+02  0.70605591441E+02  0.00000000000E+00 0. -1.
         -2   -1    0    0    0  501 -0.00000000000E+00 -0.00000000000E+00 -0.22911817141E+03  0.22911817141E+03  0.00000000000E+00 0.  1.
         25    2    1    2    0    0 -0.70248780428E+02  0.19750823809E+02 -0.75811971860E+02  0.16346142628E+03  0.12508875494E+03 0.  0.
          5    1    3    3  502    0  0.23215425494E+02 -0.13121843273E+02  0.13343667031E+02  0.30110871817E+02  0.41800000000E+01 0. -1.
         -5    1    3    3    0  502 -0.93464205922E+02  0.32872667082E+02 -0.89155638891E+02  0.13335055446E+03  0.41800000000E+01 0. -1.
        -11    1    1    2    0    0  0.46824610924E+02  0.18439806716E+02 -0.75722612238E+02  0.90920210427E+02  0.00000000000E+00 0.  1.
         11    1    1    2    0    0  0.23424169503E+02 -0.38190630525E+02 -0.69779958718E+01  0.45342126143E+02  0.00000000000E+00 0. -1.
</event>
<event>
 7    1  0.2900135E-009  0.7422870E+02  0.7561462E-02  0.1346276E+00
         -1   -1    0    0    0  501 -0.00000000000E+00  0.00000000000E+00  0.15269356327E+03  0.15269356327E+03  0.00000000000E+00 0.  1.
          1   -1    0    0  501    0  0.00000000000E+00 -0.00000000000E+00 -0.84447235896E+02  0.84447235896E+02  0.00000000000E+00 0. -1.
         25    2    1    2    0    0 -0.14003171310E+02  0.52059603793E+01  0.67370065169E+02  0.14286228477E+03  0.12509083060E+03 0.  0.
          5    1    3    3  502    0 -0.33162451230E+02 -0.29731594149E+02 -0.18263940802E+02  0.48319352188E+02  0.41800000000E+01 0. -1.
         -5    1    3    3    0  502  0.19159279919E+02  0.34937554528E+02  0.85634005971E+02  0.94542932587E+02  0.41800000000E+01 0. -1.
        -11    1    1    2    0    0  0.90492243052E+01  0.28339250102E+02  0.35160971010E+02  0.46057523155E+02  0.00000000000E+00 0.  1.
         11    1    1    2    0    0  0.49539470049E+01 -0.33545210481E+02 -0.34284708809E+02  0.48220991231E+02  0.00000000000E+00 0. -1.
</event>
<event>
 6    1  0.2900135E-009  0.7873886E+02  0.7561462E-02  0.1332669E+00
          1   -1    0    0  501    0  0.00000000000E+00  0.00000000000E+00  0.13968508992E+03  0.13968508992E+03  0.00000000000E+00 0. -1.
         -1   -1    0    0    0  501 -0.00000000000E+00 -0.00000000000E+00 -0.79736375798E+02  0.79736375798E+02  0.00000000000E+00 0.  1.
          5    1    1    2  502    0  0.53777159487E+02 -0.17224006838E+02 -0.24541799910E+02  0.61712410720E+02  0.41800000000E+01 0.  1.
         -5    1    1    2    0  502 -0.53803564075E+02  0.16363033461E+02  0.29343991340E+02  0.63569761672E+02  0.41800000000E+01 0.  1.
        -11    1    1    2    0    0  0.22111097601E+02  0.28274630691E+01  0.65848729074E+02  0.69519423942E+02  0.00000000000E+00 0. -1.
         11    1    1    2    0    0 -0.22084693012E+02 -0.19664896924E+01 -0.10702206381E+02  0.24619869386E+02  0.00000000000E+00 0.  1.
</event>
<event>
 7    1  0.2900135E-009  0.1284266E+03  0.7561462E-02  0.1229809E+00
         -2   -1    0    0    0  501 -0.00000000000E+00  0.00000000000E+00  0.52102726874E+02  0.52102726874E+02  0.00000000000E+00 0.  1.
          2   -1    0    0  501    0  0.00000000000E+00 -0.00000000000E+00 -0.33716945907E+03  0.33716945907E+03  0.00000000000E+00 0. -1.
         25    2    1    2    0    0  0.42086801706E+02  0.63819894372E+02 -0.16152993788E+03  0.21813778103E+03  0.12509153802E+03 0.  0.
          5    1    3    3  502    0 -0.42200201353E+02  0.25975572822E+02 -0.32589635616E+02  0.59457078025E+02  0.41800000000E+01 0. -1.
         -5    1    3    3    0  502  0.84287003059E+02  0.37844321550E+02 -0.12894030226E+03  0.15868070300E+03  0.41800000000E+01 0. -1.
        -11    1    1    2    0    0 -0.68254277752E+02 -0.39217020529E+02 -0.63343581098E+02  0.10103974662E+03  0.00000000000E+00 0.  1.
         11    1    1    2    0    0  0.26167476046E+02 -0.24602873843E+02 -0.60193213223E+02  0.70094658299E+02  0.00000000000E+00 0. -1.
</event>
<event>
 7    1  0.2900135E-009  0.1264554E+03  0.7561462E-02  0.1232812E+00
         -2   -1    0    0    0  501 -0.00000000000E+00  0.00000000000E+00  0.11640287470E+03  0.11640287470E+03  0.00000000000E+00 0.  1.
          2   -1    0    0  501    0  0.00000000000E+00 -0.00000000000E+00 -0.32712738751E+03  0.32712738751E+03  0.00000000000E+00 0. -1.
         25    2    1    2    0    0  0.32097624677E+02  0.72408409779E+02 -0.27177112698E+03  0.30948421661E+03  0.12509076524E+03 0.  0.
          5    1    3    3  502    0 -0.42186462378E+02  0.31227906972E+02 -0.52738745993E+02  0.74523335343E+02  0.41800000000E+01 0. -1.
         -5    1    3    3    0  502  0.74284087055E+02  0.41180502807E+02 -0.21903238099E+03  0.23496088126E+03  0.41800000000E+01 0. -1.
        -11    1    1    2    0    0  0.10348192063E+02  0.14899684494E+02 -0.20615518960E+01  0.18257482664E+02  0.00000000000E+00 0. -1.
         11    1    1    2    0    0 -0.42445816740E+02 -0.87308094273E+02  0.63108166073E+02  0.11578856295E+03  0.00000000000E+00 0.  1.
</event>
<event>
 7    1  0.2900135E-009  0.1014669E+03  0.7561462E-02  0.1277241E+00
          4   -1    0    0  501    0  0.00000000000E+00  0.00000000000E+00  0.31946958505E+03  0.31946958505E+03  0.00000000000E+00 0. -1.
         -4   -1    0    0    0  501 -0.00000000000E+00 -0.00000000000E+00 -0.42094806882E+02  0.42094806882E+02  0.00000000000E+00 0.  1.
         25    2    1    2    0    0  0.37547366469E+02  0.90344341367E+01  0.18673813693E+03  0.22805735444E+03  0.12509036493E+03 0.  0.
          5    1    3    3  502    0  0.66626999694E+02  0.42927338478E+02  0.15144896057E+03  0.17098588694E+03  0.41800000000E+01 0.  1.
         -5    1    3    3    0  502 -0.29079633226E+02 -0.33892904341E+02  0.35289176364E+02  0.57071467492E+02  0.41800000000E+01 0.  1.
        -11    1    1    2    0    0 -0.83138250085E+01  0.29326101082E+02  0.77858975511E+02  0.83613156612E+02  0.00000000000E+00 0. -1.
         11    1    1    2    0    0 -0.29233541460E+02 -0.38360535218E+02  0.12777665729E+02  0.49893880888E+02  0.00000000000E+00 0.  1.
</event>
<event>
 7    1  0.2900135E-009  0.9868146E+02  0.7561462E-02  0.1283093E+00
         -1   -1    0    0    0  501 -0.00000000000E+00  0.00000000000E+00  0.14881475370E+03  0.14881475370E+03  0.00000000000E+00 0.  1.
          1   -1    0    0  501    0  0.00000000000E+00 -0.00000000000E+00 -0.26864249704E+03  0.26864249704E+03  0.00000000000E+00 0. -1.
         25    2    1    2    0    0 -0.77780199043E+02 -0.46096365321E+02 -0.21058767100E+03  0.26109279811E+03  0.12509055834E+03 0.  0.
          5    1    3    3  502    0 -0.28511958946E+02 -0.45297181295E+00 -0.18787331533E+03  0.19007101830E+03  0.41800000000E+01 0. -1.
         -5    1    3    3    0  502 -0.49268240098E+02 -0.45643393508E+02 -0.22714355677E+02  0.71021779808E+02  0.41800000000E+01 0. -1.
        -11    1    1    2    0    0  0.79246699411E+02  0.29452628038E+02  0.10472308498E+03  0.13458982574E+03  0.00000000000E+00 0.  1.
         11    1    1    2    0    0 -0.14665003675E+01  0.16643737283E+02 -0.13963157311E+02  0.21774626890E+02  0.00000000000E+00 0. -1.
</event>
<event>
 7    1  0.2900135E-009  0.2955525E+03  0.7561462E-02  0.1087485E+00
         -2   -1    0    0    0  501 -0.00000000000E+00  0.00000000000E+00  0.46342566890E+02  0.46342566890E+02  0.00000000000E+00 0.  1.
          2   -1    0    0  501    0  0.00000000000E+00 -0.00000000000E+00 -0.20720321181E+04  0.20720321181E+04  0.00000000000E+00 0. -1.
         25    2    1    2    0    0  0.26167874487E+03  0.12115646118E+03 -0.93398165065E+03  0.98545715457E+03  0.12509766641E+03 0.  0.
          5    1    3    3  502    0  0.24405114277E+03  0.99643549671E+02 -0.91317802072E+03  0.95047428540E+03  0.41800000000E+01 0. -1.
         -5    1    3    3    0  502  0.17627602099E+02  0.21512911507E+02 -0.20803629932E+02  0.34982869173E+02  0.41800000000E+01 0. -1.
        -11    1    1    2    0    0 -0.57620586670E+02  0.75008740685E+01 -0.15163755119E+03  0.16238947642E+03  0.00000000000E+00 0.  1.
         11    1    1    2    0    0 -0.20405815820E+03 -0.12865733525E+03 -0.94007034933E+03  0.97052805397E+03  0.00000000000E+00 0. -1.
</event>
<event>
 7    1  0.2900135E-009  0.9496142E+02  0.7561462E-02  0.1291263E+00
          2   -1    0    0  501    0  0.00000000000E+00  0.00000000000E+00  0.21382716408E+03  0.21382716408E+03  0.00000000000E+00 0. -1.
         -2   -1    0    0    0  501 -0.00000000000E+00 -0.00000000000E+00 -0.98730684056E+02  0.98730684056E+02  0.00000000000E+00 0.  1.
         25    2    1    2    0    0 -0.35435534286E+02  0.18038988949E+02 -0.32438605309E+02  0.13520737036E+03  0.12509071777E+03 0.  0.
          5    1    3    3  502    0  0.18901168429E+02  0.30415938506E+02 -0.62198515070E+02  0.71892358148E+02  0.41800000000E+01 0.  1.
         -5    1    3    3    0  502 -0.54336702715E+02 -0.12376949558E+02  0.29759909761E+02  0.63315012211E+02  0.41800000000E+01 0.  1.
        -11    1    1    2    0    0  0.61982615645E+02  0.58670588239E+01  0.85537115908E+02  0.10579633840E+03  0.00000000000E+00 0.  1.
         11    1    1    2    0    0 -0.26547081359E+02 -0.23906047772E+02  0.61997969425E+02  0.71554139374E+02  0.00000000000E+00 0. -1.
</event>
<event>
 7    1  0.2900135E-009  0.1151053E+03  0.7561462E-02  0.1251397E+00
         -2   -1    0    0    0  501 -0.00000000000E+00  0.00000000000E+00  0.50643732289E+02  0.50643732289E+02  0.00000000000E+00 0. -1.
          2   -1    0    0  501    0  0.00000000000E+00 -0.00000000000E+00 -0.46283687252E+03  0.46283687252E+03  0.00000000000E+00 0.  1.
         25    2    1    2    0    0 -0.90982457318E+01  0.10573459533E+03 -0.19255231745E+03  0.25294485253E+03  0.12506846420E+03 0.  0.
          5    1    3    3  502    0  0.54079342278E+01  0.55276210506E+02 -0.25257107904E+01  0.55754433146E+02  0.41800000000E+01 0.  1.
         -5    1    3    3    0  502 -0.14506179960E+02  0.50458384827E+02 -0.19002660666E+03  0.19719041938E+03  0.41800000000E+01 0.  1.
        -11    1    1    2    0    0  0.33030222536E+02 -0.39912404902E+02 -0.33602367870E+02  0.61750423418E+02  0.00000000000E+00 0. -1.
         11    1    1    2    0    0 -0.23931976804E+02 -0.65822190430E+02 -0.18603845491E+03  0.19878532886E+03  0.00000000000E+00 0.  1.
</event>
<event>
 7    1  0.2900135E-009  0.1558057E+03  0.7561462E-02  0.1193515E+00
          2   -1    0    0  501    0  0.00000000000E+00  0.00000000000E+00  0.53539699134E+03  0.53539699134E+03  0.00000000000E+00 0. -1.
         -2   -1    0    0    0  501 -0.00000000000E+00 -0.00000000000E+00 -0.48022469260E+02  0.48022469260E+02  0.00000000000E+00 0.  1.
         25    2    1    2    0    0  0.71250333880E+02 -0.10566047246E+03  0.32246633999E+03  0.36860948261E+03  0.12509062604E+03 0.  0.
          5    1    3    3  502    0  0.10523466875E+03 -0.59368286448E+02  0.22401326918E+03  0.25455519266E+03  0.41800000000E+01 0.  1.
         -5    1    3    3    0  502 -0.33984334875E+02 -0.46292186016E+02  0.98453070808E+02  0.11405428994E+03  0.41800000000E+01 0.  1.
        -11    1    1    2    0    0 -0.48034426928E+02  0.97205792185E+02  0.15262345521E+03  0.18721696314E+03  0.00000000000E+00 0. -1.
         11    1    1    2    0    0 -0.23215906952E+02  0.84546802785E+01  0.12284726875E+02  0.27593014851E+02  0.00000000000E+00 0.  1.
</event>
<event>
 7    1  0.2900135E-009  0.9754000E+02  0.7561462E-02  0.1285556E+00
         -2   -1    0    0    0  501 -0.00000000000E+00  0.00000000000E+00  0.82812923397E+02  0.82812923397E+02  0.00000000000E+00 0.  1.
          2   -1    0    0  501    0  0.00000000000E+00 -0.00000000000E+00 -0.30046716796E+03  0.30046716796E+03  0.00000000000E+00 0. -1.
         25    2    1    2    0    0  0.16248318124E+02 -0.54376976935E+02 -0.23852087673E+03  0.27524543245E+03  0.12508787306E+03 0.  0.
          5    1    3    3  502    0  0.47528020220E+02 -0.37046890705E+02 -0.37660884785E+02  0.71184264129E+02  0.41800000000E+01 0. -1.
         -5    1    3    3    0  502 -0.31279702096E+02 -0.17330086230E+02 -0.20085999195E+03  0.20406116832E+03  0.41800000000E+01 0. -1.
        -11    1    1    2    0    0 -0.44535892983E+02  0.93671777654E+01  0.29418005499E+02  0.54190486532E+02  0.00000000000E+00 0.  1.
         11    1    1    2    0    0  0.28287574859E+02  0.45009799170E+02 -0.85513733298E+01  0.53844172373E+02  0.00000000000E+00 0. -1.
</event>
<event>
 7    1  0.2900135E-009  0.1247910E+03  0.7561462E-02  0.1235396E+00
          1   -1    0    0  501    0  0.00000000000E+00  0.00000000000E+00  0.95696095025E+02  0.95696095025E+02  0.00000000000E+00 0. -1.
         -1   -1    0    0    0  501 -0.00000000000E+00 -0.00000000000E+00 -0.18625965223E+03  0.18625965223E+03  0.00000000000E+00 0.  1.
         25    2    1    2    0    0  0.64570261203E+02 -0.46750013384E+02 -0.35316689794E+02  0.15247695560E+03  0.12508825296E+03 0.  0.
          5    1    3    3  502    0  0.85701421363E+02 -0.68852881798E+02 -0.46790102870E+02  0.11955015300E+03  0.41800000000E+01 0. -1.
         -5    1    3    3    0  502 -0.21131160160E+02  0.22102868414E+02  0.11473413076E+02  0.32926802600E+02  0.41800000000E+01 0. -1.
        -11    1    1    2    0    0 -0.67415996268E+02  0.58091071120E+01 -0.10013876555E+02  0.68402777735E+02  0.00000000000E+00 0. -1.
         11    1    1    2    0    0  0.28457350653E+01  0.40940906272E+02 -0.45232990852E+02  0.61076013915E+02  0.00000000000E+00 0.  1.
</event>
<event>
 7    1  0.2900135E-009  0.2213187E+03  0.7561462E-02  0.1132904E+00
          2   -1    0    0  501    0  0.00000000000E+00  0.00000000000E+00  0.37455259282E+03  0.37455259282E+03  0.00000000000E+00 0. -1.
         -2   -1    0    0    0  501 -0.00000000000E+00 -0.00000000000E+00 -0.14245471906E+03  0.14245471906E+03  0.00000000000E+00 0.  1.
         25    2    1    2    0    0  0.99586601435E+02 -0.16510601369E+03  0.46804085874E+02  0.23455547959E+03  0.12509262011E+03 0.  0.
          5    1    3    3  502    0 -0.38038598595E+01 -0.11386793693E+03  0.29853218010E+02  0.11785187074E+03  0.41800000000E+01 0. -1.
         -5    1    3    3    0  502  0.10339046129E+03 -0.51238076759E+02  0.16950867863E+02  0.11670360885E+03  0.41800000000E+01 0. -1.
        -11    1    1    2    0    0  0.17615055964E+02  0.22506962383E+02  0.26022600758E+02  0.38652675232E+02  0.00000000000E+00 0. -1.
         11    1    1    2    0    0 -0.11720165740E+03  0.14259905131E+03  0.15927118713E+03  0.24379915705E+03  0.00000000000E+00 0.  1.
</event>
<event>
 7    1  0.2900135E-009  0.1196646E+03  0.7561462E-02  0.1243651E+00
         -1   -1    0    0    0  501 -0.00000000000E+00  0.00000000000E+00  0.10871337027E+03  0.10871337027E+03  0.00000000000E+00 0.  1.
          1   -1    0    0  501    0  0.00000000000E+00 -0.00000000000E+00 -0.16003204097E+03  0.16003204097E+03  0.00000000000E+00 0. -1.
         25    2    1    2    0    0 -0.68535666292E+02 -0.12746276557E+02  0.30123691841E+01  0.14323262806E+03  0.12508759432E+03 0.  0.
          5    1    3    3  502    0 -0.71704839932E+02 -0.61209149722E+02 -0.35886818029E+00  0.94370256256E+02  0.41800000000E+01 0. -1.
         -5    1    3    3    0  502  0.31691736400E+01  0.48462873165E+02  0.33712373643E+01  0.48862371804E+02  0.41800000000E+01 0. -1.
        -11    1    1    2    0    0  0.30294030862E+02  0.39326622660E+02  0.52176363728E+01  0.49915281077E+02  0.00000000000E+00 0.  1.
         11    1    1    2    0    0  0.38241635430E+02 -0.26580346103E+02 -0.59548676255E+02  0.75597502095E+02  0.00000000000E+00 0. -1.
</event>
<event>
 7    1  0.2900135E-009  0.7027264E+02  0.7561462E-02  0.1359168E+00
         -1   -1    0    0    0  501 -0.00000000000E+00  0.00000000000E+00  0.47654438270E+02  0.47654438270E+02  0.00000000000E+00 0.  1.
          1   -1    0    0  501    0  0.00000000000E+00 -0.00000000000E+00 -0.33766635245E+03  0.33766635245E+03  0.00000000000E+00 0. -1.
         25    2    1    2    0    0 -0.49440849648E+02 -0.32696632886E+02 -0.11360582778E+03  0.17907212089E+03  0.12508826067E+03 0.  0.
          5    1    3    3  502    0 -0.17442806571E+02 -0.11921925816E+02 -0.13392537791E+03  0.13564609491E+03  0.41800000000E+01 0. -1.
         -5    1    3    3    0  502 -0.31998043077E+02 -0.20774707070E+02  0.20319550130E+02  0.43426025976E+02  0.41800000000E+01 0. -1.
        -11    1    1    2    0    0  0.42642312462E+02 -0.44422696126E+01 -0.23789179587E+02  0.49030864125E+02  0.00000000000E+00 0.  1.
         11    1    1    2    0    0  0.67985371863E+01  0.37138902499E+02 -0.15261690682E+03  0.15721780571E+03  0.00000000000E+00 0. -1.
</event>
<event>
 7    1  0.2900135E-009  0.1087178E+03  0.7561462E-02  0.1262963E+00
         -2   -1    0    0    0  501 -0.00000000000E+00  0.00000000000E+00  0.59852347157E+02  0.59852347157E+02  0.00000000000E+00 0. -1.
          2   -1    0    0  501    0  0.00000000000E+00 -0.00000000000E+00 -0.24535846470E+03  0.24535846470E+03  0.00000000000E+00 0.  1.
         25    2    1    2    0    0 -0.31946991807E+02 -0.22350167094E+02 -0.57288648609E+02  0.14300200191E+03  0.12508973993E+03 0.  0.
          5    1    3    3  502    0  0.38487124073E+01 -0.65095771431E+02 -0.57576423543E+02  0.87090694069E+02  0.41800000000E+01 0.  1.
         -5    1    3    3    0  502 -0.35795704214E+02  0.42745604336E+02  0.28777493361E+00  0.55911307843E+02  0.41800000000E+01 0.  1.
        -11    1    1    2    0    0 -0.30018443872E+02 -0.81044180882E+00 -0.60496817450E+02  0.67539830545E+02  0.00000000000E+00 0. -1.
         11    1    1    2    0    0  0.61965435678E+02  0.23160608903E+02 -0.67720651483E+02  0.94668979401E+02  0.00000000000E+00 0.  1.
</event>
<event>
 7    1  0.2900135E-009  0.1171949E+03  0.7561462E-02  0.1247798E+00
          1   -1    0    0  501    0  0.00000000000E+00  0.00000000000E+00  0.49731390684E+03  0.49731390684E+03  0.00000000000E+00 0. -1.
         -1   -1    0    0    0  501 -0.00000000000E+00 -0.00000000000E+00 -0.28946429336E+02  0.28946429336E+02  0.00000000000E+00 0.  1.
         25    2    1    2    0    0 -0.46750828624E+02  0.27753258794E+02  0.24959774689E+03  0.28443428314E+03  0.12509173761E+03 0.  0.
          5    1    3    3  502    0  0.12105954786E+01 -0.44589944607E+02  0.12279713192E+03  0.13071471497E+03  0.41800000000E+01 0.  1.
         -5    1    3    3    0  502 -0.47961424102E+02  0.72343203401E+02  0.12680061497E+03  0.15371956817E+03  0.41800000000E+01 0.  1.
        -11    1    1    2    0    0  0.51123095682E+02 -0.55002322380E+02  0.15063568891E+03  0.16831499384E+03  0.00000000000E+00 0.  1.
         11    1    1    2    0    0 -0.43722670583E+01  0.27249063586E+02  0.68134041706E+02  0.73511059201E+02  0.00000000000E+00 0. -1.
</event>
<event>
 7    1  0.2900135E-009  0.1256363E+03  0.7561462E-02  0.1234078E+00
         -3   -1    0    0    0  501 -0.00000000000E+00  0.00000000000E+00  0.84339132740E+02  0.84339132740E+02  0.00000000000E+00 0.  1.
          3   -1    0    0  501    0  0.00000000000E+00 -0.00000000000E+00 -0.21850565466E+03  0.21850565466E+03  0.00000000000E+00 0. -1.
         25    2    1    2    0    0  0.72789266547E+02  0.15525970043E+02 -0.37850016780E+02  0.15039972415E+03  0.12509244655E+03 0.  0.
          5    1    3    3  502    0  0.88932153992E+02 -0.22300340258E+02 -0.53456064459E+02  0.10621325914E+03  0.41800000000E+01 0. -1.
         -5    1    3    3    0  502 -0.16142887444E+02  0.37826310301E+02  0.15606047679E+02  0.44186465011E+02  0.41800000000E+01 0. -1.
        -11    1    1    2    0    0 -0.53664979312E+01  0.34046964418E+02 -0.27176742220E+02  0.43892714701E+02  0.00000000000E+00 0.  1.
         11    1    1    2    0    0 -0.67422768616E+02 -0.49572934461E+02 -0.69139762915E+02  0.10855234855E+03  0.00000000000E+00 0. -1.
</event>
<event>
 7    1  0.2900135E-009  0.1107080E+03  0.7561462E-02  0.1259264E+00
         -2   -1    0    0    0  501 -0.00000000000E+00  0.00000000000E+00  0.20992968854E+03  0.20992968854E+03  0.00000000000E+00 0.  1.
          2   -1    0    0  501    0  0.00000000000E+00 -0.00000000000E+00 -0.12495692040E+03  0.12495692040E+03  0.00000000000E+00 0. -1.
         25    2    1    2    0    0 -0.40137895328E+02 -0.83198804510E+02  0.12659055993E+03  0.20051297093E+03  0.12508872826E+03 0.  0.
          5    1    3    3  502    0 -0.99260311067E+00 -0.29608019238E+02  0.13051546747E+03  0.13390063373E+03  0.41800000000E+01 0.  1.
         -5    1    3    3    0  502 -0.39145292218E+02 -0.53590785272E+02 -0.39249075416E+01  0.66612337206E+02  0.41800000000E+01 0.  1.
        -11    1    1    2    0    0 -0.17017563267E+02  0.61589522384E+02 -0.73554893547E+01  0.64319281330E+02  0.00000000000E+00 0.  1.
         11    1    1    2    0    0  0.57155458596E+02  0.21609282126E+02 -0.34262302431E+02  0.70054356675E+02  0.00000000000E+00 0. -1.
</event>
<event>
 7    1  0.2900135E-009  0.2235339E+03  0.7561462E-02  0.1131275E+00
         -2   -1    0    0    0  501 -0.00000000000E+00  0.00000000000E+00  0.10574326729E+03  0.10574326729E+03  0.00000000000E+00 0. -1.
          2   -1    0    0  501    0  0.00000000000E+00 -0.00000000000E+00 -0.51567657108E+03  0.51567657108E+03  0.00000000000E+00 0.  1.
         25    2    1    2    0    0  0.11362901224E+03 -0.17177241924E+03 -0.24312821867E+03  0.34230691035E+03  0.12508146837E+03 0.  0.
          5    1    3    3  502    0 -0.25001247535E+02 -0.33576631423E+02 -0.23933682309E+02  0.48401922534E+02  0.41800000000E+01 0. -1.
         -5    1    3    3    0  502  0.13863025978E+03 -0.13819578781E+03 -0.21919453636E+03  0.29390498782E+03  0.41800000000E+01 0. -1.
        -11    1    1    2    0    0 -0.68251437769E+02  0.69948567858E+02 -0.12806625664E+03  0.16109632830E+03  0.00000000000E+00 0.  1.
         11    1    1    2    0    0 -0.45377574474E+02  0.10182385138E+03 -0.38738828479E+02  0.11801659971E+03  0.00000000000E+00 0. -1.
</event>
<event>
 7    1  0.2900135E-009  0.2977223E+03  0.7561462E-02  0.1086385E+00
         -1   -1    0    0    0  501 -0.00000000000E+00  0.00000000000E+00  0.76372172131E+02  0.76372172131E+02  0.00000000000E+00 0.  1.
          1   -1    0    0  501    0  0.00000000000E+00 -0.00000000000E+00 -0.15156411111E+04  0.15156411111E+04  0.00000000000E+00 0. -1.
         25    2    1    2    0    0 -0.20788093834E+03 -0.20054130645E+03 -0.39694228734E+03  0.50659967041E+03  0.12509494980E+03 0.  0.
          5    1    3    3  502    0 -0.12260264310E+03 -0.54346529317E+02 -0.24394526516E+03  0.27840926374E+03  0.41800000000E+01 0. -1.
         -5    1    3    3    0  502 -0.85278295233E+02 -0.14619477714E+03 -0.15299702218E+03  0.22819040667E+03  0.41800000000E+01 0. -1.
        -11    1    1    2    0    0  0.69992941413E+02  0.41069902499E+02 -0.43583939934E+03  0.44333027277E+03  0.00000000000E+00 0.  1.
         11    1    1    2    0    0  0.13788799692E+03  0.15947140396E+03 -0.60648725230E+03  0.64208334005E+03  0.00000000000E+00 0. -1.
</event>
<event>
 7    1  0.2900135E-009  0.1715017E+03  0.7561462E-02  0.1176291E+00
          1   -1    0    0  501    0  0.00000000000E+00  0.00000000000E+00  0.30187627380E+03  0.30187627380E+03  0.00000000000E+00 0. -1.
         -1   -1    0    0    0  501 -0.00000000000E+00 -0.00000000000E+00 -0.17419529732E+03  0.17419529732E+03  0.00000000000E+00 0.  1.
         25    2    1    2    0    0 -0.12613622871E+03 -0.68226138869E+02  0.21295298734E+03  0.28558945776E+03  0.12508880585E+03 0.  0.
          5    1    3    3  502    0 -0.41166861863E+02 -0.81977382245E+02  0.15989859858E+03  0.18439098661E+03  0.41800000000E+01 0. -1.
         -5    1    3    3    0  502 -0.84969366847E+02  0.13751243376E+02  0.53054388767E+02  0.10119847116E+03  0.41800000000E+01 0. -1.
        -11    1    1    2    0    0  0.39397541554E+02  0.67617456874E+02 -0.64190690154E+02  0.10121626083E+03  0.00000000000E+00 0.  1.
         11    1    1    2    0    0  0.86738687156E+02  0.60868199508E+00 -0.21081320708E+02  0.89265852520E+02  0.00000000000E+00 0. -1.
</event>
<event>
 7    1  0.2900135E-009  0.9624822E+02  0.7561462E-02  0.1288389E+00
         -2   -1    0    0    0  501 -0.00000000000E+00  0.00000000000E+00  0.22110425643E+02  0.22110425643E+02  0.00000000000E+00 0.  1.
          2   -1    0    0  501    0  0.00000000000E+00 -0.00000000000E+00 -0.86828896388E+03  0.86828896388E+03  0.00000000000E+00 0. -1.
         25    2    1    2    0    0 -0.53939309122E+02  0.60924897454E+02 -0.54919861239E+03  0.56911015541E+03  0.12508381569E+03 0.  0.
          5    1    3    3  502    0 -0.21944536451E+02  0.37737853213E+02 -0.43214877384E+02  0.61568711798E+02  0.41800000000E+01 0. -1.
         -5    1    3    3    0  502 -0.31994772671E+02  0.23187044241E+02 -0.50598373500E+03  0.50754144361E+03  0.41800000000E+01 0. -1.
        -11    1    1    2    0    0  0.26239836034E+01 -0.57413251730E+02 -0.22865811639E+03  0.23577044122E+03  0.00000000000E+00 0. -1.
         11    1    1    2    0    0  0.51315325519E+02 -0.35116457241E+01 -0.68321809464E+02  0.85518792889E+02  0.00000000000E+00 0.  1.
</event>
<event>
 7    1  0.2900135E-009  0.6828543E+02  0.7561462E-02  0.1366023E+00
          2   -1    0    0  501    0  0.00000000000E+00  0.00000000000E+00  0.23294609424E+02  0.23294609424E+02  0.00000000000E+00 0. -1.
         -2   -1    0    0    0  501 -0.00000000000E+00 -0.00000000000E+00 -0.10175622147E+04  0.10175622147E+04  0.00000000000E+00 0.  1.
         25    2    1    2    0    0  0.42007311388E+01  0.52763887434E+02 -0.86157577363E+03  0.87221515461E+03  0.12507912802E+03 0.  0.
          5    1    3    3  502    0  0.49418164800E+01  0.18005857492E+02 -0.13500439450E+02  0.23417231251E+02  0.41800000000E+01 0.  1.
         -5    1    3    3    0  502 -0.74108534120E+00  0.34758029943E+02 -0.84807533418E+03  0.84879792336E+03  0.41800000000E+01 0.  1.
        -11    1    1    2    0    0 -0.47985872653E+01 -0.67501046672E+02 -0.13739877735E+03  0.15315953042E+03  0.00000000000E+00 0.  1.
         11    1    1    2    0    0  0.59785612655E+00  0.14737159237E+02  0.47069456723E+01  0.15482139125E+02  0.00000000000E+00 0. -1.
</event>
<event>
 7    1  0.2900135E-009  0.1096428E+03  0.7561462E-02  0.1261233E+00
         -3   -1    0    0    0  501 -0.00000000000E+00  0.00000000000E+00  0.17625943597E+02  0.17625943597E+02  0.00000000000E+00 0. -1.
          3   -1    0    0  501    0  0.00000000000E+00 -0.00000000000E+00 -0.70647065445E+03  0.70647065445E+03  0.00000000000E+00 0.  1.
         25    2    1    2    0    0  0.28394962640E+02  0.72197790435E+01 -0.37105784213E+03  0.39267044985E+03  0.12509101032E+03 0.  0.
          5    1    3    3  502    0 -0.46187619230E+02  0.21780292262E+02 -0.12439006474E+03  0.13452894821E+03  0.41800000000E+01 0.  1.
         -5    1    3    3    0  502  0.74582581869E+02 -0.14560513218E+02 -0.24666777739E+03  0.25814150164E+03  0.41800000000E+01 0.  1.
        -11    1    1    2    0    0 -0.50468712354E+02  0.22223424652E+02 -0.22375590285E+03  0.23045102645E+03  0.00000000000E+00 0.  1.
         11    1    1    2    0    0  0.22073749715E+02 -0.29443203696E+02 -0.94030965868E+02  0.10097512175E+03  0.00000000000E+00 0. -1.
</event>
<event>
 7    1  0.2900135E-009  0.9770064E+02  0.7561462E-02  0.1285207E+00
          2   -1    0    0  501    0  0.00000000000E+00  0.00000000000E+00  0.33547315486E+03  0.33547315486E+03  0.00000000000E+00 0. -1.
         -2   -1    0    0    0  501 -0.00000000000E+00 -0.00000000000E+00 -0.43540819625E+02  0.43540819625E+02  0.00000000000E+00 0.  1.
         25    2    1    2    0    0 -0.33137632880E+02  0.24926431721E+02  0.22652746940E+03  0.26207472747E+03  0.12509611773E+03 0.  0.
          5    1    3    3  502    0  0.34930806094E+02  0.28050938094E+02  0.16201592464E+03  0.16814769871E+03  0.41800000000E+01 0.  1.
         -5    1    3    3    0  502 -0.68068438973E+02 -0.31245063730E+01  0.64511544761E+02  0.93927028760E+02  0.41800000000E+01 0.  1.
        -11    1    1    2    0    0 -0.27787881546E+01 -0.42195148943E+02  0.23570143763E+01  0.42352187366E+02  0.00000000000E+00 0.  1.
         11    1    1    2    0    0  0.35916421034E+02  0.17268717222E+02  0.63047851453E+02  0.74587059650E+02  0.00000000000E+00 0. -1.
</event>
<event>
 7    1  0.2900135E-009  0.1283909E+03  0.7561462E-02  0.1229863E+00
          3   -1    0    0  501    0  0.00000000000E+00  0.00000000000E+00  0.15724811415E+03  0.15724811415E+03  0.00000000000E+00 0. -1.
         -3   -1    0    0    0  501 -0.00000000000E+00 -0.00000000000E+00 -0.13950167521E+03  0.13950167521E+03  0.00000000000E+00 0.  1.
         25    2    1    2    0    0  0.86193527697E+02 -0.11083081205E+02  0.57654430892E+02  0.16286009334E+03  0.12508883921E+03 0.  0.
          5    1    3    3  502    0 -0.12940236595E+02  0.36949344006E+02  0.29176582379E+02  0.49004582489E+02  0.41800000000E+01 0. -1.
         -5    1    3    3    0  502  0.99133764292E+02 -0.48032425211E+02  0.28477848513E+02  0.11385551085E+03  0.41800000000E+01 0. -1.
        -11    1    1    2    0    0 -0.17281856042E+02  0.30955720887E+02  0.19765792032E+02  0.40590710003E+02  0.00000000000E+00 0. -1.
         11    1    1    2    0    0 -0.68911671655E+02 -0.19872639682E+02 -0.59673783986E+02  0.93298986026E+02  0.00000000000E+00 0.  1.
</event>
<event>
 7    1  0.2900135E-009  0.1811140E+03  0.7561462E-02  0.1166729E+00
          2   -1    0    0  501    0  0.00000000000E+00  0.00000000000E+00  0.79345228229E+03  0.79345228229E+03  0.00000000000E+00 0. -1.
         -2   -1    0    0    0  501 -0.00000000000E+00 -0.00000000000E+00 -0.45860327559E+02  0.45860327559E+02  0.00000000000E+00 0.  1.
         25    2    1    2    0    0  0.80451867067E+02 -0.12206103244E+03  0.26865060449E+03  0.33044221797E+03  0.12509002187E+03 0.  0.
          5    1    3    3  502    0  0.90820347202E+02 -0.27367828898E+02  0.10966822024E+03  0.14505834845E+03  0.41800000000E+01 0.  1.
         -5    1    3    3    0  502 -0.10368480136E+02 -0.94693203537E+02  0.15898238425E+03  0.18538386952E+03  0.41800000000E+01 0.  1.
        -11    1    1    2    0    0  0.60674779223E+01  0.71426765492E+02  0.20262842046E+03  0.21493458050E+03  0.00000000000E+00 0.  1.
         11    1    1    2    0    0 -0.86519344989E+02  0.50634266943E+02  0.27631292979E+03  0.29393581138E+03  0.00000000000E+00 0. -1.
</event>
<event>
 7    1  0.2900135E-009  0.9556751E+02  0.7561462E-02  0.1289903E+00
          2   -1    0    0  501    0  0.00000000000E+00  0.00000000000E+00  0.24091283458E+03  0.24091283458E+03  0.00000000000E+00 0. -1.
         -2   -1    0    0    0  501 -0.00000000000E+00 -0.00000000000E+00 -0.38731745502E+02  0.38731745502E+02  0.00000000000E+00 0.  1.
         25    2    1    2    0    0 -0.27286547361E+02  0.26318903938E+01  0.13350340604E+03  0.18499317867E+03  0.12509130352E+03 0.  0.
          5    1    3    3  502    0  0.47085441606E+02 -0.18292062659E+02  0.53215598660E+02  0.73491568960E+02  0.41800000000E+01 0. -1.
         -5    1    3    3    0  502 -0.74371988967E+02  0.20923953053E+02  0.80287807376E+02  0.11150160971E+03  0.41800000000E+01 0. -1.
        -11    1    1    2    0    0  0.40096026146E+02  0.13653400469E+02  0.34258332918E+02  0.54476967898E+02  0.00000000000E+00 0.  1.
         11    1    1    2    0    0 -0.12809478786E+02 -0.16285290863E+02  0.34419350121E+02  0.40174433512E+02  0.00000000000E+00 0. -1.
</event>
<event>
 7    1  0.2900135E-009  0.1750068E+03  0.7561462E-02  0.1172725E+00
         -1   -1    0    0    0  501 -0.00000000000E+00  0.00000000000E+00  0.10232863429E+03  0.10232863429E+03  0.00000000000E+00 0.  1.
          1   -1    0    0  501    0  0.00000000000E+00 -0.00000000000E+00 -0.81190642735E+03  0.81190642735E+03  0.00000000000E+00 0. -1.
         25    2    1    2    0    0 -0.93671635450E+02 -0.10576229706E+03 -0.38199520420E+01  0.18874462922E+03  0.12509957736E+03 0.  0.
          5    1    3    3  502    0 -0.50059127193E+02 -0.12866465862E+03  0.63629530862E+01  0.13826955618E+03  0.41800000000E+01 0. -1.
         -5    1    3    3    0  502 -0.43612508257E+02  0.22902361559E+02 -0.10182905128E+02  0.50475073039E+02  0.41800000000E+01 0. -1.
        -11    1    1    2    0    0  0.52350755497E+02  0.38611154996E+01 -0.14895961494E+03  0.15793820531E+03  0.00000000000E+00 0.  1.
         11    1    1    2    0    0  0.41320879953E+02  0.10190118156E+03 -0.55679822608E+03  0.56755222710E+03  0.00000000000E+00 0. -1.
</event>
<event>
 7    1  0.2900135E-009  0.1049428E+03  0.7561462E-02  0.1270232E+00
         -1   -1    0    0    0  501 -0.00000000000E+00  0.00000000000E+00  0.28551686637E+03  0.28551686637E+03  0.00000000000E+00 0.  1.
          1   -1    0    0  501    0  0.00000000000E+00 -0.00000000000E+00 -0.44527761534E+02  0.44527761534E+02  0.00000000000E+00 0. -1.
         25    2    1    2    0    0 -0.30912922224E+02 -0.12851757241E+02  0.14650418093E+03  0.19552889771E+03  0.12508916174E+03 0.  0.
          5    1    3    3  502    0 -0.26156365807E+02  0.51740364850E+02  0.10006995822E+03  0.11572678932E+03  0.41800000000E+01 0. -1.
         -5    1    3    3    0  502 -0.47565564172E+01 -0.64592122091E+02  0.46434222704E+02  0.79802108389E+02  0.41800000000E+01 0. -1.
        -11    1    1    2    0    0 -0.15445363906E+02  0.32903394878E+02  0.68891813335E+02  0.77892712145E+02  0.00000000000E+00 0.  1.
         11    1    1    2    0    0  0.46358286130E+02 -0.20051637637E+02  0.25593110577E+02  0.56623018056E+02  0.00000000000E+00 0. -1.
</event>
<event>
 7    1  0.2900135E-009  0.1105558E+03  0.7561462E-02  0.1259544E+00
          3   -1    0    0  501    0  0.00000000000E+00  0.00000000000E+00  0.13837218526E+03  0.13837218526E+03  0.00000000000E+00 0. -1.
         -3   -1    0    0    0  501 -0.00000000000E+00 -0.00000000000E+00 -0.12331315538E+03  0.12331315538E+03  0.00000000000E+00 0.  1.
         25    2    1    2    0    0  0.51310653987E+02  0.24194861998E+00  0.61143824588E+02  0.14838676587E+03  0.12508886141E+03 0.  0.
          5    1    3    3  502    0  0.51787249451E+02  0.54717030542E+02  0.55069114848E+02  0.93412806655E+02  0.41800000000E+01 0.  1.
         -5    1    3    3    0  502 -0.47659546416E+00 -0.54475081922E+02  0.60747097399E+01  0.54973959217E+02  0.41800000000E+01 0.  1.
        -11    1    1    2    0    0 -0.39380288765E+01 -0.33121762232E+02  0.79323421820E+01  0.34285292142E+02  0.00000000000E+00 0. -1.
         11    1    1    2    0    0 -0.47372625111E+02  0.32879813612E+02 -0.54017136896E+02  0.79013282627E+02  0.00000000000E+00 0.  1.
</event>
<event>
 7    1  0.2900135E-009  0.9751031E+02  0.7561462E-02  0.1285620E+00
         -1   -1    0    0    0  501 -0.00000000000E+00  0.00000000000E+00  0.15949732840E+03  0.15949732840E+03  0.00000000000E+00 0.  1.
          1   -1    0    0  501    0  0.00000000000E+00 -0.00000000000E+00 -0.99547271062E+02  0.99547271062E+02  0.00000000000E+00 0. -1.
         25    2    1    2    0    0 -0.64422132749E+02 -0.72742143730E+00  0.17790341560E+02  0.14182612394E+03  0.12508961928E+03 0.  0.
          5    1    3    3  502    0 -0.23517383412E+02  0.55290394434E+02  0.35768333987E+02  0.70049562136E+02  0.41800000000E+01 0. -1.
         -5    1    3    3    0  502 -0.40904749337E+02 -0.56017815871E+02 -0.17977992427E+02  0.71776561809E+02  0.41800000000E+01 0. -1.
        -11    1    1    2    0    0  0.12765856746E+02 -0.41331455484E+01  0.60666112975E+02  0.62132336622E+02  0.00000000000E+00 0.  1.
         11    1    1    2    0    0  0.51656276003E+02  0.48605669857E+01 -0.18506397192E+02  0.55086138900E+02  0.00000000000E+00 0. -1.
</event>
<event>
 7    1  0.2900135E-009  0.1227497E+03  0.7561462E-02  0.1238629E+00
          1   -1    0    0  501    0  0.00000000000E+00  0.00000000000E+00  0.29350780198E+03  0.29350780198E+03  0.00000000000E+00 0. -1.
         -1   -1    0    0    0  501 -0.00000000000E+00 -0.00000000000E+00 -0.55828383839E+02  0.55828383839E+02  0.00000000000E+00 0.  1.
         25    2    1    2    0    0 -0.66970429940E+02  0.71056086770E+01  0.13115319482E+03  0.19334444809E+03  0.12508152116E+03 0.  0.
          5    1    3    3  502    0 -0.94861863419E+02  0.26520103789E+02  0.62786958088E+02  0.11688354693E+03  0.41800000000E+01 0. -1.
         -5    1    3    3    0  502  0.27891433479E+02 -0.19414495112E+02  0.68366236732E+02  0.76460901165E+02  0.41800000000E+01 0. -1.
        -11    1    1    2    0    0  0.75752904710E+02  0.24698666191E+02  0.64194737093E+02  0.10232053046E+03  0.00000000000E+00 0. -1.
         11    1    1    2    0    0 -0.87824747701E+01 -0.31804274868E+02  0.42331486230E+02  0.53671207266E+02  0.00000000000E+00 0.  1.
</event>
<event>
 7    1  0.2900135E-009  0.1393507E+03  0.7561462E-02  0.1214205E+00
          3   -1    0    0  501    0  0.00000000000E+00  0.00000000000E+00  0.41293358464E+02  0.41293358464E+02  0.00000000000E+00 0. -1.
         -3   -1    0    0    0  501 -0.00000000000E+00 -0.00000000000E+00 -0.54562216644E+03  0.54562216644E+03  0.00000000000E+00 0.  1.
         25    2    1    2    0    0 -0.90540304393E+02 -0.31028325241E+02 -0.34490831340E+03  0.37916970169E+03  0.12509042464E+03 0.  0.
          5    1    3    3  502    0  0.29258391905E+02 -0.96821661977E+00 -0.36858188008E+02  0.47254516858E+02  0.41800000000E+01 0. -1.
         -5    1    3    3    0  502 -0.11979869630E+03 -0.30060108621E+02 -0.30805012540E+03  0.33191518483E+03  0.41800000000E+01 0. -1.
        -11    1    1    2    0    0  0.83712998673E+02  0.55302621648E+02 -0.15074126749E+03  0.18107781706E+03  0.00000000000E+00 0.  1.
         11    1    1    2    0    0  0.68273057200E+01 -0.24274296407E+02 -0.86792270879E+01  0.26668006155E+02  0.00000000000E+00 0. -1.
</event>
<event>
 7    1  0.2900135E-009  0.1048155E+03  0.7561462E-02  0.1270484E+00
         -2   -1    0    0    0  501 -0.00000000000E+00  0.00000000000E+00  0.82649680681E+02  0.82649680681E+02  0.00000000000E+00 0. -1.
          2   -1    0    0  501    0  0.00000000000E+00 -0.00000000000E+00 -0.18629735020E+03  0.18629735020E+03  0.00000000000E+00 0.  1.
         25    2    1    2    0    0 -0.21252667850E+01  0.59834499407E+02 -0.66840272405E+02  0.15394524552E+03  0.12508729961E+03 0.  0.
          5    1    3    3  502    0 -0.47744348412E+02  0.26256242840E+00 -0.62377217518E+02  0.78663723594E+02  0.41800000000E+01 0. -1.
         -5    1    3    3    0  502  0.45619081627E+02  0.59571936979E+02 -0.44630548867E+01  0.75281521922E+02  0.41800000000E+01 0. -1.
        -11    1    1    2    0    0  0.77450311858E+01  0.12118515153E+02  0.18957600792E+02  0.23795683335E+02  0.00000000000E+00 0. -1.
         11    1    1    2    0    0 -0.56197644008E+01 -0.71953014560E+02 -0.55764997906E+02  0.91206102030E+02  0.00000000000E+00 0.  1.
</event>
<event>
 7    1  0.2900135E-009  0.1102547E+03  0.7561462E-02  0.1260099E+00
          2   -1    0    0  501    0  0.00000000000E+00  0.00000000000E+00  0.62062809439E+03  0.62062809439E+03  0.00000000000E+00 0. -1.
         -2   -1    0    0    0  501 -0.00000000000E+00 -0.00000000000E+00 -0.32307342227E+02  0.32307342227E+02  0.00000000000E+00 0.  1.
         25    2    1    2    0    0 -0.76346032140E+01 -0.86196274409E+02  0.26220103600E+03  0.30314284200E+03  0.12513238785E+03 0.  0.
          5    1    3    3  502    0  0.96215753752E+01 -0.72115300431E+02  0.26962269717E+03  0.27929744449E+03  0.41800000000E+01 0. -1.
         -5    1    3    3    0  502 -0.17256178589E+02 -0.14080973978E+02 -0.74216611753E+01  0.23845397507E+02  0.41800000000E+01 0. -1.
        -11    1    1    2    0    0 -0.39837806537E+02  0.23225635465E+02  0.14746708240E+03  0.15450896856E+03  0.00000000000E+00 0. -1.
         11    1    1    2    0    0  0.47472409752E+02  0.62970638944E+02  0.17865263377E+03  0.19528362606E+03  0.00000000000E+00 0.  1.
</event>
<event>
 7    1  0.2900135E-009  0.2607178E+03  0.7561462E-02  0.1106713E+00
          2   -1    0    0  501    0  0.00000000000E+00  0.00000000000E+00  0.14302292890E+04  0.14302292890E+04  0.00000000000E+00 0. -1.
         -2   -1    0    0    0  501 -0.00000000000E+00 -0.00000000000E+00 -0.70741524648E+02  0.70741524648E+02  0.00000000000E+00 0.  1.
         25    2    1    2    0    0 -0.20624326691E+03  0.14966277322E+03  0.32443047562E+03  0.43108692193E+03  0.12508225260E+03 0.  0.
          5    1    3    3  502    0 -0.43655668376E+02  0.46409287540E+01  0.13612236003E+03  0.14308782234E+03  0.41800000000E+01 0.  1.
         -5    1    3    3    0  502 -0.16258759854E+03  0.14502184446E+03  0.18830811559E+03  0.28799909959E+03  0.41800000000E+01 0.  1.
        -11    1    1    2    0    0  0.11686221026E+03 -0.11381149318E+03  0.49154441098E+03  0.51790514588E+03  0.00000000000E+00 0.  1.
         11    1    1    2    0    0  0.89381056657E+02 -0.35851280039E+02  0.54351287773E+03  0.55197874582E+03  0.00000000000E+00 0. -1.
</event>
<event>
 7    1  0.3914675E-009  0.9184335E+02  0.7561462E-02  0.1298448E+00
         -2   -1    0    0    0  501 -0.00000000000E+00  0.00000000000E+00  0.28549062128E+02  0.28549062128E+02  0.00000000000E+00 0. -1.
          2   -1    0    0  501    0  0.00000000000E+00 -0.00000000000E+00 -0.58297685143E+03  0.58297685143E+03  0.00000000000E+00 0.  1.
         25    2    1    2    0    0 -0.12253576576E+02 -0.67055106143E+02 -0.34695094308E+03  0.37505883840E+03  0.12509051908E+03 0.  0.
          5    1    3    3  502    0 -0.52535366327E+02 -0.35894239365E+02 -0.29639780609E+03  0.30317897848E+03  0.41800000000E+01 0.  1.
         -5    1    3    3    0  502  0.40281789750E+02 -0.31160866779E+02 -0.50553136983E+02  0.71879859924E+02  0.41800000000E+01 0.  1.
        -11    1    1    2    0    0  0.13078365363E+02  0.47965540148E+02 -0.21122367484E+03  0.21699580064E+03  0.00000000000E+00 0.  1.
         11    1    1    2    0    0 -0.82478878694E+00  0.19089565995E+02  0.37468286180E+01  0.19471274512E+02  0.00000000000E+00 0. -1.
</event>
<event>
 7    1  0.2900135E-009  0.1032028E+03  0.7561462E-02  0.1273701E+00
          1   -1    0    0  501    0  0.00000000000E+00  0.00000000000E+00  0.21922236145E+02  0.21922236145E+02  0.00000000000E+00 0. -1.
         -1   -1    0    0    0  501 -0.00000000000E+00 -0.00000000000E+00 -0.84479652216E+03  0.84479652216E+03  0.00000000000E+00 0.  1.
         25    2    1    2    0    0  0.46661965162E+01  0.26705517578E+02 -0.69641708225E+03  0.70807853791E+03  0.12507399942E+03 0.  0.
          5    1    3    3  502    0 -0.51097037484E+02  0.20629621997E+02 -0.51959138553E+03  0.52252193146E+03  0.41800000000E+01 0.  1.
         -5    1    3    3    0  502  0.55763234000E+02  0.60758955808E+01 -0.17682569672E+03  0.18555660644E+03  0.41800000000E+01 0.  1.
        -11    1    1    2    0    0 -0.40264092131E+02 -0.40131782222E+02 -0.64925815410E+02  0.86296689195E+02  0.00000000000E+00 0.  1.
         11    1    1    2    0    0  0.35597895615E+02  0.13426264644E+02 -0.61531388355E+02  0.72343531207E+02  0.00000000000E+00 0. -1.
</event>
<event>
 7    1  0.2900135E-009  0.9710310E+02  0.7561462E-02  0.1286508E+00
         -1   -1    0    0    0  501 -0.00000000000E+00  0.00000000000E+00  0.19686185086E+03  0.19686185086E+03  0.00000000000E+00 0.  1.
          1   -1    0    0  501    0  0.00000000000E+00 -0.00000000000E+00 -0.10574768880E+03  0.10574768880E+03  0.00000000000E+00 0. -1.
         25    2    1    2    0    0 -0.39451983295E+02  0.41016929789E+02 -0.30063326115E+02  0.14067742387E+03  0.12508991364E+03 0.  0.
          5    1    3    3  502    0  0.15420483649E+01  0.72708258984E+02  0.11975514292E+02  0.73822450380E+02  0.41800000000E+01 0. -1.
         -5    1    3    3    0  502 -0.40994031660E+02 -0.31691329194E+02 -0.42038840407E+02  0.66854973492E+02  0.41800000000E+01 0. -1.
        -11    1    1    2    0    0  0.47056283525E+02 -0.29375250527E+02  0.13272899936E+03  0.14385474074E+03  0.00000000000E+00 0.  1.
         11    1    1    2    0    0 -0.76043002298E+01 -0.11641679262E+02 -0.11551511188E+02  0.18077375051E+02  0.00000000000E+00 0. -1.
</event>
<event>
 7    1  0.2900135E-009  0.1064869E+03  0.7561462E-02  0.1267217E+00
          2   -1    0    0  501    0  0.00000000000E+00  0.00000000000E+00  0.38763392459E+03  0.38763392459E+03  0.00000000000E+00 0. -1.
         -2   -1    0    0    0  501 -0.00000000000E+00 -0.00000000000E+00 -0.38331068712E+02  0.38331068712E+02  0.00000000000E+00 0.  1.
         25    2    1    2    0    0  0.44354846834E+02  0.39519741874E+01  0.25175486400E+03  0.28462505297E+03  0.12509172113E+03 0.  0.
          5    1    3    3  502    0  0.28343862435E+02 -0.49039488565E+02  0.20281767916E+03  0.21061986933E+03  0.41800000000E+01 0.  1.
         -5    1    3    3    0  502  0.16010984399E+02  0.52991462752E+02  0.48937184836E+02  0.74005183641E+02  0.41800000000E+01 0.  1.
        -11    1    1    2    0    0 -0.75482595679E+01  0.41498056703E+02  0.28763392821E+02  0.51052891194E+02  0.00000000000E+00 0.  1.
         11    1    1    2    0    0 -0.36806587267E+02 -0.45450030891E+02  0.68784599066E+02  0.90287049142E+02  0.00000000000E+00 0. -1.
</event>
<event>
 7    1  0.2900135E-009  0.2300709E+03  0.7561462E-02  0.1126590E+00
          2   -1    0    0  501    0  0.00000000000E+00  0.00000000000E+00  0.11608799920E+04  0.11608799920E+04  0.00000000000E+00 0. -1.
         -2   -1    0    0    0  501 -0.00000000000E+00 -0.00000000000E+00 -0.55002070263E+02  0.55002070263E+02  0.00000000000E+00 0.  1.
         25    2    1    2    0    0  0.19974337489E+03 -0.95870945822E+02  0.68835459677E+03  0.73387183490E+03  0.12508862900E+03 0.  0.
          5    1    3    3  502    0  0.79350070043E+02 -0.49419448243E+02  0.47785563208E+03  0.48693140481E+03  0.41800000000E+01 0.  1.
         -5    1    3    3    0  502  0.12039330485E+03 -0.46451497579E+02  0.21049896469E+03  0.24694043009E+03  0.41800000000E+01 0.  1.
        -11    1    1    2    0    0 -0.12184592916E+03  0.11132822696E+02  0.25525061676E+03  0.28306050157E+03  0.00000000000E+00 0.  1.
         11    1    1    2    0    0 -0.77897445730E+02  0.84738123126E+02  0.16227270821E+03  0.19894972579E+03  0.00000000000E+00 0. -1.
</event>
<event>
 7    1  0.2900135E-009  0.1006244E+03  0.7561462E-02  0.1278988E+00
          3   -1    0    0  501    0  0.00000000000E+00  0.00000000000E+00  0.27315324427E+03  0.27315324427E+03  0.00000000000E+00 0. -1.
         -3   -1    0    0    0  501 -0.00000000000E+00 -0.00000000000E+00 -0.64915973026E+02  0.64915973026E+02  0.00000000000E+00 0.  1.
         25    2    1    2    0    0 -0.38252117647E+02 -0.63979301855E+02  0.88226009119E+02  0.17025790650E+03  0.12508936994E+03 0.  0.
          5    1    3    3  502    0 -0.90457538771E+01  0.14026942918E+02  0.85076586618E+02  0.86799071317E+02  0.41800000000E+01 0.  1.
         -5    1    3    3    0  502 -0.29206363770E+02 -0.78006244773E+02  0.31494225007E+01  0.83458835185E+02  0.41800000000E+01 0.  1.
        -11    1    1    2    0    0  0.30985964646E+02 -0.49092517578E+01  0.25887433872E+01  0.31479077976E+02  0.00000000000E+00 0.  1.
         11    1    1    2    0    0  0.72661530009E+01  0.68888553613E+02  0.11742251874E+03  0.13633223282E+03  0.00000000000E+00 0. -1.
</event>
<event>
 7    1  0.2900135E-009  0.1217193E+03  0.7561462E-02  0.1240287E+00
          3   -1    0    0  501    0  0.00000000000E+00  0.00000000000E+00  0.33830604462E+03  0.33830604462E+03  0.00000000000E+00 0. -1.
         -3   -1    0    0    0  501 -0.00000000000E+00 -0.00000000000E+00 -0.61593754157E+02  0.61593754157E+02  0.00000000000E+00 0.  1.
         25    2    1    2    0    0  0.10075696751E+02 -0.77355977422E+02  0.19767638762E+03  0.24659619482E+03  0.12509301407E+03 0.  0.
          5    1    3    3  502    0  0.16733386338E+02 -0.11119584883E+03  0.15576702401E+03  0.19215972831E+03  0.41800000000E+01 0.  1.
         -5    1    3    3    0  502 -0.66576895870E+01  0.33839871411E+02  0.41909363607E+02  0.54436466506E+02  0.41800000000E+01 0.  1.
        -11    1    1    2    0    0 -0.28814853005E+02  0.18110335346E+02 -0.17675804259E+02  0.38349889912E+02  0.00000000000E+00 0.  1.
         11    1    1    2    0    0  0.18739156254E+02  0.59245642075E+02  0.96711707105E+02  0.11495371405E+03  0.00000000000E+00 0. -1.
</event>
<event>
 7    1  0.2900135E-009  0.1108958E+03  0.7561462E-02  0.1258920E+00
          2   -1    0    0  501    0  0.00000000000E+00  0.00000000000E+00  0.17384158204E+03  0.17384158204E+03  0.00000000000E+00 0. -1.
         -2   -1    0    0    0  501 -0.00000000000E+00 -0.00000000000E+00 -0.77506438383E+02  0.77506438383E+02  0.00000000000E+00 0.  1.
         25    2    1    2    0    0 -0.34884128559E+02  0.26453943806E+02  0.72804093971E+02  0.15121333894E+03  0.12509326204E+03 0.  0.
          5    1    3    3  502    0 -0.24839037701E+02  0.75540155848E+02  0.29697950977E+02  0.84986667376E+02  0.41800000000E+01 0.  1.
         -5    1    3    3    0  502 -0.10045090858E+02 -0.49086212042E+02  0.43106142994E+02  0.66226671567E+02  0.41800000000E+01 0.  1.
        -11    1    1    2    0    0  0.14779589350E+02 -0.55010537138E+02  0.30363639415E+02  0.64548788184E+02  0.00000000000E+00 0. -1.
         11    1    1    2    0    0  0.20104539209E+02  0.28556593332E+02 -0.68325897255E+01  0.35585893299E+02  0.00000000000E+00 0.  1.
</event>
<event>
 7    1  0.2900135E-009  0.8251356E+02  0.7561462E-02  0.1322066E+00
         -1   -1    0    0    0  501 -0.00000000000E+00  0.00000000000E+00  0.29147066798E+02  0.29147066798E+02  0.00000000000E+00 0.  1.
          1   -1    0    0  501    0  0.00000000000E+00 -0.00000000000E+00 -0.42027285721E+03  0.42027285721E+03  0.00000000000E+00 0. -1.
         25    2    1    2    0    0 -0.16878413151E+02 -0.69208502263E+01 -0.28809642243E+03  0.31461026513E+03  0.12508913346E+03 0.  0.
          5    1    3    3  502    0 -0.70912813116E+02 -0.45107121736E+01 -0.14377756363E+03  0.16043202233E+03  0.41800000000E+01 0.  1.
         -5    1    3    3    0  502  0.54034399966E+02 -0.24101380528E+01 -0.14431885881E+03  0.15417824280E+03  0.41800000000E+01 0.  1.
        -11    1    1    2    0    0  0.21557678703E+01 -0.13917893923E+02  0.11056565271E+02  0.17905383044E+02  0.00000000000E+00 0.  1.
         11    1    1    2    0    0  0.14722645280E+02  0.20838744149E+02 -0.11408593325E+03  0.11690427583E+03  0.00000000000E+00 0. -1.
</event>
<event>
 7    1  0.2900135E-009  0.1420560E+03  0.7561462E-02  0.1210589E+00
         -1   -1    0    0    0  501 -0.00000000000E+00  0.00000000000E+00  0.44875708297E+02  0.44875708297E+02  0.00000000000E+00 0.  1.
          1   -1    0    0  501    0  0.00000000000E+00 -0.00000000000E+00 -0.64655603758E+03  0.64655603758E+03  0.00000000000E+00 0. -1.
         25    2    1    2    0    0  0.65861702171E+01 -0.12459086384E+03 -0.23033440420E+03  0.29028870712E+03  0.12508930702E+03 0.  0.
          5    1    3    3  502    0 -0.29898645535E+02 -0.82117298676E+02 -0.48610130718E+02  0.10008794610E+03  0.41800000000E+01 0. -1.
         -5    1    3    3    0  502  0.36484815752E+02 -0.42473565168E+02 -0.18172427349E+03  0.19020076102E+03  0.41800000000E+01 0. -1.
        -11    1    1    2    0    0  0.24272859459E+02  0.93762232908E+02 -0.31694970822E+03  0.33141763014E+03  0.00000000000E+00 0. -1.
         11    1    1    2    0    0 -0.30859029676E+02  0.30828630936E+02 -0.54396216857E+02  0.69725408613E+02  0.00000000000E+00 0.  1.
</event>
<event>
 7    1  0.2900135E-009  0.1319032E+03  0.7561462E-02  0.1224659E+00
          2   -1    0    0  501    0  0.00000000000E+00  0.00000000000E+00  0.14380581353E+04  0.14380581353E+04  0.00000000000E+00 0. -1.
         -2   -1    0    0    0  501 -0.00000000000E+00 -0.00000000000E+00 -0.20443578508E+02  0.20443578508E+02  0.00000000000E+00 0.  1.
         25    2    1    2    0    0  0.18403702271E+02 -0.99292874206E+02  0.11692874952E+04  0.11802873205E+04  0.12508853408E+03 0.  0.
          5    1    3    3  502    0  0.93812118745E+01  0.22182898417E+02  0.67708271691E+02  0.71985905383E+02  0.41800000000E+01 0. -1.
         -5    1    3    3    0  502  0.90224903962E+01 -0.12147577262E+03  0.11015792235E+04  0.11083014151E+04  0.41800000000E+01 0. -1.
        -11    1    1    2    0    0 -0.37470416671E+02  0.87177028171E+02  0.23104564140E+03  0.24977180540E+03  0.00000000000E+00 0. -1.
         11    1    1    2    0    0  0.19066714401E+02  0.12115846035E+02  0.17281420196E+02  0.28442587913E+02  0.00000000000E+00 0.  1.
</event>
<event>
 7    1  0.2900135E-009  0.1345682E+03  0.7561462E-02  0.1220830E+00
          2   -1    0    0  501    0  0.00000000000E+00  0.00000000000E+00  0.71894368384E+03  0.71894368384E+03  0.00000000000E+00 0.  1.
         -2   -1    0    0    0  501 -0.00000000000E+00 -0.00000000000E+00 -0.29889586093E+02  0.29889586093E+02  0.00000000000E+00 0. -1.
         25    2    1    2    0    0  0.50367101118E+02 -0.82376081103E+02  0.34712014561E+03  0.38139583829E+03  0.12509087242E+03 0.  0.
          5    1    3    3  502    0  0.68373519042E+02 -0.13286875526E+02  0.86474945794E+02  0.11111646061E+03  0.41800000000E+01 0.  1.
         -5    1    3    3    0  502 -0.18006417924E+02 -0.69089205577E+02  0.26064519982E+03  0.27027937768E+03  0.41800000000E+01 0.  1.
        -11    1    1    2    0    0 -0.65314421538E+02  0.27333472654E+02  0.24441511122E+03  0.25446382646E+03  0.00000000000E+00 0.  1.
         11    1    1    2    0    0  0.14947320420E+02  0.55042608449E+02  0.97518840923E+02  0.11297360518E+03  0.00000000000E+00 0. -1.
</event>
<event>
 7    1  0.2900135E-009  0.8827972E+02  0.7561462E-02  0.1307072E+00
         -2   -1    0    0    0  501 -0.00000000000E+00  0.00000000000E+00  0.32446370860E+02  0.32446370860E+02  0.00000000000E+00 0.  1.
          2   -1    0    0  501    0  0.00000000000E+00 -0.00000000000E+00 -0.39710769223E+03  0.39710769223E+03  0.00000000000E+00 0. -1.
         25    2    1    2    0    0  0.37488845333E+02 -0.85890245474E+01 -0.19485174032E+03  0.23472463072E+03  0.12509702910E+03 0.  0.
          5    1    3    3  502    0 -0.22751451603E+02 -0.28537442658E+02 -0.15585405679E+03  0.16012486878E+03  0.41800000000E+01 0. -1.
         -5    1    3    3    0  502  0.60240296937E+02  0.19948418110E+02 -0.38997683533E+02  0.74599761937E+02  0.41800000000E+01 0. -1.
        -11    1    1    2    0    0 -0.76356558830E+01  0.35332998219E+02 -0.14076273889E+03  0.14533021938E+03  0.00000000000E+00 0. -1.
         11    1    1    2    0    0 -0.29853189450E+02 -0.26743973671E+02 -0.29046842155E+02  0.49499212996E+02  0.00000000000E+00 0.  1.
</event>
<event>
 7    1  0.3008319E-009  0.1308101E+03  0.7561462E-02  0.1226259E+00
          2   -1    0    0  501    0  0.00000000000E+00  0.00000000000E+00  0.57211634295E+03  0.57211634295E+03  0.00000000000E+00 0. -1.
         -2   -1    0    0    0  501 -0.00000000000E+00 -0.00000000000E+00 -0.41039860227E+02  0.41039860227E+02  0.00000000000E+00 0.  1.
         25    2    1    2    0    0  0.20392810253E+02  0.70732438298E+02  0.44406593843E+03  0.46718373108E+03  0.12508851417E+03 0.  0.
          5    1    3    3  502    0 -0.31238933346E+02  0.85025346006E+02  0.30083564883E+03  0.31420493381E+03  0.41800000000E+01 0.  1.
         -5    1    3    3    0  502  0.51631743598E+02 -0.14292907707E+02  0.14323028960E+03  0.15297879728E+03  0.41800000000E+01 0.  1.
        -11    1    1    2    0    0 -0.37706476606E+02  0.63189277677E+01  0.28166717212E+02  0.47487589797E+02  0.00000000000E+00 0.  1.
         11    1    1    2    0    0  0.17313666354E+02 -0.77051366066E+02  0.58843827076E+02  0.98484882293E+02  0.00000000000E+00 0. -1.
</event>
<event>
 7    1  0.2900135E-009  0.1056488E+03  0.7561462E-02  0.1268847E+00
          2   -1    0    0  501    0  0.00000000000E+00  0.00000000000E+00  0.41362613864E+03  0.41362613864E+03  0.00000000000E+00 0. -1.
         -2   -1    0    0    0  501 -0.00000000000E+00 -0.00000000000E+00 -0.33011995478E+02  0.33011995478E+02  0.00000000000E+00 0.  1.
         25    2    1    2    0    0  0.94405324729E+01 -0.24171967340E+01  0.29263742857E+03  0.31839988235E+03  0.12508738541E+03 0.  0.
          5    1    3    3  502    0  0.55548054259E+02 -0.32213710932E+02  0.10788307851E+03  0.12561664114E+03  0.41800000000E+01 0. -1.
         -5    1    3    3    0  502 -0.46107521786E+02  0.29796514198E+02  0.18475435007E+03  0.19278324121E+03  0.41800000000E+01 0. -1.
        -11    1    1    2    0    0  0.28988743328E+01 -0.43881618610E+02  0.53251861802E+02  0.69063454225E+02  0.00000000000E+00 0.  1.
         11    1    1    2    0    0 -0.12339406806E+02  0.46298815344E+02  0.34724852786E+02  0.59174797537E+02  0.00000000000E+00 0. -1.
</event>
<event>
 7    1  0.2900135E-009  0.2243889E+03  0.7561462E-02  0.1130653E+00
         -1   -1    0    0    0  501 -0.00000000000E+00  0.00000000000E+00  0.15679177598E+03  0.15679177598E+03  0.00000000000E+00 0.  1.
          1   -1    0    0  501    0  0.00000000000E+00 -0.00000000000E+00 -0.44542007754E+03  0.44542007754E+03  0.00000000000E+00 0. -1.
         25    2    1    2    0    0  0.87969002535E+02 -0.19397668695E+03 -0.27599490192E+03  0.37038490899E+03  0.12508514873E+03 0.  0.
          5    1    3    3  502    0  0.37721573441E+02 -0.13292367157E+03 -0.81697730628E+02  0.16057275970E+03  0.41800000000E+01 0. -1.
         -5    1    3    3    0  502  0.50247429094E+02 -0.61053015382E+02 -0.19429717129E+03  0.20981214929E+03  0.41800000000E+01 0. -1.
        -11    1    1    2    0    0 -0.82635905636E+01  0.12694950598E+03 -0.10691603129E+02  0.12766665334E+03  0.00000000000E+00 0.  1.
         11    1    1    2    0    0 -0.79705411971E+02  0.67027180979E+02 -0.19417965136E+01  0.10416029119E+03  0.00000000000E+00 0. -1.
</event>
<event>
 7    1  0.2900135E-009  0.1227034E+03  0.7561462E-02  0.1238703E+00
          4   -1    0    0  501    0  0.00000000000E+00  0.00000000000E+00  0.24506377732E+02  0.24506377732E+02  0.00000000000E+00 0. -1.
         -4   -1    0    0    0  501 -0.00000000000E+00 -0.00000000000E+00 -0.88880296705E+03  0.88880296705E+03  0.00000000000E+00 0.  1.
         25    2    1    2    0    0 -0.19922730149E+02 -0.97561031852E+02 -0.43610583755E+03  0.46449108321E+03  0.12509434330E+03 0.  0.
          5    1    3    3  502    0  0.30310670022E+02 -0.47408998155E+02 -0.62598997453E+02  0.84276074335E+02  0.41800000000E+01 0.  1.
         -5    1    3    3    0  502 -0.50233400171E+02 -0.50152033697E+02 -0.37350684009E+03  0.38021500887E+03  0.41800000000E+01 0.  1.
        -11    1    1    2    0    0 -0.19344508156E+02  0.61826488929E+02 -0.33806912800E+03  0.34422007501E+03  0.00000000000E+00 0.  1.
         11    1    1    2    0    0  0.39267238304E+02  0.35734542923E+02 -0.90121623766E+02  0.10459818656E+03  0.00000000000E+00 0. -1.
</event>
<event>
 7    1  0.2900135E-009  0.1009511E+03  0.7561462E-02  0.1278309E+00
         -1   -1    0    0    0  501 -0.00000000000E+00  0.00000000000E+00  0.16103812856E+03  0.16103812856E+03  0.00000000000E+00 0.  1.
          1   -1    0    0  501    0  0.00000000000E+00 -0.00000000000E+00 -0.87292184510E+02  0.87292184510E+02  0.00000000000E+00 0. -1.
         25    2    1    2    0    0  0.26532251401E+02  0.63343125816E+01  0.51229081529E+01  0.12813110552E+03  0.12508897687E+03 0.  0.
          5    1    3    3  502    0  0.33711041800E+02  0.62540941301E+02  0.44539252881E+01  0.71309981970E+02  0.41800000000E+01 0. -1.
         -5    1    3    3    0  502 -0.71787903992E+01 -0.56206628720E+02  0.66898286485E+00  0.56821123552E+02  0.41800000000E+01 0. -1.
        -11    1    1    2    0    0 -0.49549507166E+02  0.15788414460E+01  0.23862534942E+01  0.49632052208E+02  0.00000000000E+00 0. -1.
         11    1    1    2    0    0  0.23017255765E+02 -0.79131540276E+01  0.66236782402E+02  0.70567155339E+02  0.00000000000E+00 0.  1.
</event>
<event>
 7    1  0.2900135E-009  0.9792512E+02  0.7561462E-02  0.1284721E+00
         -2   -1    0    0    0  501 -0.00000000000E+00  0.00000000000E+00  0.26507185324E+03  0.26507185324E+03  0.00000000000E+00 0.  1.
          2   -1    0    0  501    0  0.00000000000E+00 -0.00000000000E+00 -0.51673054478E+02  0.51673054478E+02  0.00000000000E+00 0. -1.
         25    2    1    2    0    0 -0.15880176578E+02  0.32674633957E+02  0.15269367326E+03  0.20070825127E+03  0.12509449453E+03 0.  0.
          5    1    3    3  502    0  0.42501481240E+02  0.16178521431E+02  0.11675751067E+02  0.47137204269E+02  0.41800000000E+01 0. -1.
         -5    1    3    3    0  502 -0.58381657818E+02  0.16496112526E+02  0.14101792219E+03  0.15357104700E+03  0.41800000000E+01 0. -1.
        -11    1    1    2    0    0  0.43212052072E+02 -0.42226101309E+02  0.62627340633E+02  0.87020163588E+02  0.00000000000E+00 0.  1.
         11    1    1    2    0    0 -0.27331875493E+02  0.95514673517E+01 -0.19222151352E+01  0.29016492855E+02  0.00000000000E+00 0. -1.
</event>
<event>
 7    1  0.2900135E-009  0.9654065E+02  0.7561462E-02  0.1287743E+00
         -2   -1    0    0    0  501 -0.00000000000E+00  0.00000000000E+00  0.32004396907E+02  0.32004396907E+02  0.00000000000E+00 0.  1.
          2   -1    0    0  501    0  0.00000000000E+00 -0.00000000000E+00 -0.43296353206E+03  0.43296353206E+03  0.00000000000E+00 0. -1.
         25    2    1    2    0    0 -0.23110976553E+02  0.23769113254E+02 -0.15960823516E+03  0.20547671300E+03  0.12508718109E+03 0.  0.
          5    1    3    3  502    0  0.80514991102E+01 -0.37774608972E+02 -0.91593535742E+01  0.39913830671E+02  0.41800000000E+01 0.  1.
         -5    1    3    3    0  502 -0.31162475663E+02  0.61543722226E+02 -0.15044888159E+03  0.16556288233E+03  0.41800000000E+01 0.  1.
        -11    1    1    2    0    0  0.41854664595E+02  0.13020612859E+02 -0.65190247089E+02  0.78556461370E+02  0.00000000000E+00 0.  1.
         11    1    1    2    0    0 -0.18743688041E+02 -0.36789726113E+02 -0.17616065290E+03  0.18093475459E+03  0.00000000000E+00 0. -1.
</event>
<event>
 7    1  0.2900135E-009  0.2294347E+03  0.7561462E-02  0.1127038E+00
         -2   -1    0    0    0  501 -0.00000000000E+00  0.00000000000E+00  0.10101155413E+03  0.10101155413E+03  0.00000000000E+00 0. -1.
          2   -1    0    0  501    0  0.00000000000E+00 -0.00000000000E+00 -0.68627426681E+03  0.68627426681E+03  0.00000000000E+00 0.  1.
         25    2    1    2    0    0  0.69922199506E+02  0.21161500042E+03 -0.43183321288E+03  0.50179412156E+03  0.12508954512E+03 0.  0.
          5    1    3    3  502    0 -0.34703972433E+01  0.63032610459E+02 -0.24028043069E+03  0.24846994066E+03  0.41800000000E+01 0. -1.
         -5    1    3    3    0  502  0.73392596749E+02  0.14858238996E+03 -0.19155278219E+03  0.25332418090E+03  0.41800000000E+01 0. -1.
        -11    1    1    2    0    0 -0.18303437512E+02 -0.83586624501E+01  0.71603610235E+01  0.21357758138E+02  0.00000000000E+00 0. -1.
         11    1    1    2    0    0 -0.51618761994E+02 -0.20325633797E+03 -0.16058986083E+03  0.26413394124E+03  0.00000000000E+00 0.  1.
</event>
<event>
 7    1  0.2900135E-009  0.9546259E+02  0.7561462E-02  0.1290138E+00
          1   -1    0    0  501    0  0.00000000000E+00  0.00000000000E+00  0.22835598521E+03  0.22835598521E+03  0.00000000000E+00 0. -1.
         -1   -1    0    0    0  501 -0.00000000000E+00 -0.00000000000E+00 -0.66168095026E+02  0.66168095026E+02  0.00000000000E+00 0.  1.
         25    2    1    2    0    0 -0.42167941469E+02  0.34275038966E+02  0.72834044027E+02  0.15461324712E+03  0.12509014602E+03 0.  0.
          5    1    3    3  502    0  0.44207168171E+02  0.19753000022E+02  0.28776860286E+02  0.56480393195E+02  0.41800000000E+01 0.  1.
         -5    1    3    3    0  502 -0.86375109640E+02  0.14522038944E+02  0.44057183741E+02  0.98132853926E+02  0.41800000000E+01 0.  1.
        -11    1    1    2    0    0  0.15737481353E+02 -0.93298914169E+01  0.10030003770E+03  0.10195495454E+03  0.00000000000E+00 0. -1.
         11    1    1    2    0    0  0.26430460116E+02 -0.24945147549E+02 -0.10946191550E+02  0.37955878565E+02  0.00000000000E+00 0.  1.
</event>
<event>
 7    1  0.2900135E-009  0.1118403E+03  0.7561462E-02  0.1257199E+00
         -1   -1    0    0    0  501 -0.00000000000E+00  0.00000000000E+00  0.20150215863E+02  0.20150215863E+02  0.00000000000E+00 0. -1.
          1   -1    0    0  501    0  0.00000000000E+00 -0.00000000000E+00 -0.98767764043E+03  0.98767764043E+03  0.00000000000E+00 0.  1.
         25    2    1    2    0    0 -0.37757069724E+02  0.69722215759E+02 -0.37609429364E+03  0.40420530456E+03  0.12509287286E+03 0.  0.
          5    1    3    3  502    0 -0.21657854672E+02 -0.83432031580E+01 -0.43397970089E+01  0.23978697755E+02  0.41800000000E+01 0. -1.
         -5    1    3    3    0  502 -0.16099215052E+02  0.78065418917E+02 -0.37175449663E+03  0.38022660681E+03  0.41800000000E+01 0. -1.
        -11    1    1    2    0    0  0.24639151218E+02 -0.91553410886E+02 -0.44459192158E+03  0.45458892590E+03  0.00000000000E+00 0.  1.
         11    1    1    2    0    0  0.13117918506E+02  0.21831195128E+02 -0.14684120935E+03  0.14903362584E+03  0.00000000000E+00 0. -1.
</event>
<event>
 7    1  0.3351036E-009  0.1778378E+03  0.7561462E-02  0.1169912E+00
          2   -1    0    0  501    0  0.00000000000E+00  0.00000000000E+00  0.10441705072E+04  0.10441705072E+04  0.00000000000E+00 0. -1.
         -2   -1    0    0    0  501 -0.00000000000E+00 -0.00000000000E+00 -0.32804841709E+02  0.32804841709E+02  0.00000000000E+00 0.  1.
         25    2    1    2    0    0 -0.14638639658E+03 -0.49683792101E+01  0.44694775710E+03  0.48668607946E+03  0.12508948982E+03 0.  0.
          5    1    3    3  502    0 -0.19049852255E+02  0.43089733052E+02  0.19101820705E+03  0.19678681305E+03  0.41800000000E+01 0.  1.
         -5    1    3    3    0  502 -0.12733654432E+03 -0.48058112262E+02  0.25592955005E+03  0.28989926641E+03  0.41800000000E+01 0.  1.
        -11    1    1    2    0    0  0.11179121008E+03 -0.37060583542E+02  0.36181428100E+03  0.38050011228E+03  0.00000000000E+00 0.  1.
         11    1    1    2    0    0  0.34595186494E+02  0.42028962752E+02  0.20260362741E+03  0.20978915720E+03  0.00000000000E+00 0. -1.
</event>
<event>
 7    1  0.2900135E-009  0.1001780E+03  0.7561462E-02  0.1279922E+00
         -1   -1    0    0    0  501 -0.00000000000E+00  0.00000000000E+00  0.12285849027E+02  0.12285849027E+02  0.00000000000E+00 0.  1.
          1   -1    0    0  501    0  0.00000000000E+00 -0.00000000000E+00 -0.11676683834E+04  0.11676683834E+04  0.00000000000E+00 0. -1.
         25    2    1    2    0    0  0.40347847278E+02 -0.24350362282E+02 -0.87189879051E+03  0.88208575590E+03  0.12508753317E+03 0.  0.
          5    1    3    3  502    0  0.76684480145E+02 -0.26407379515E+01 -0.72766349589E+03  0.73170972294E+03  0.41800000000E+01 0.  1.
         -5    1    3    3    0  502 -0.36336632867E+02 -0.21709624331E+02 -0.14423529461E+03  0.15037603296E+03  0.41800000000E+01 0.  1.
        -11    1    1    2    0    0 -0.30541044374E+02 -0.19373959584E+02 -0.60993851421E+02  0.70910899110E+02  0.00000000000E+00 0.  1.
         11    1    1    2    0    0 -0.98068029039E+01  0.43724321866E+02 -0.22248989245E+03  0.22695757742E+03  0.00000000000E+00 0. -1.
</event>
<event>
 7    1  0.2900135E-009  0.1321421E+03  0.7561462E-02  0.1224311E+00
         -2   -1    0    0    0  501 -0.00000000000E+00  0.00000000000E+00  0.18691044749E+03  0.18691044749E+03  0.00000000000E+00 0.  1.
          2   -1    0    0  501    0  0.00000000000E+00 -0.00000000000E+00 -0.71955243419E+03  0.71955243419E+03  0.00000000000E+00 0. -1.
         25    2    1    2    0    0  0.70066535716E+02  0.42288070013E+02 -0.69023733761E+03  0.70624003593E+03  0.12509918396E+03 0.  0.
          5    1    3    3  502    0  0.97549762311E+02  0.61735134694E+02 -0.54070503783E+03  0.55290740031E+03  0.41800000000E+01 0.  1.
         -5    1    3    3    0  502 -0.27483226595E+02 -0.19447064682E+02 -0.14953229978E+03  0.15333263562E+03  0.41800000000E+01 0.  1.
        -11    1    1    2    0    0 -0.37751695202E+02 -0.65120273194E+02  0.64718113283E+02  0.99268699288E+02  0.00000000000E+00 0. -1.
         11    1    1    2    0    0 -0.32314840514E+02  0.22832203181E+02  0.92877237623E+02  0.10095414646E+03  0.00000000000E+00 0.  1.
</event>
<event>
 7    1  0.2900135E-009  0.9716797E+02  0.7561462E-02  0.1286367E+00
          2   -1    0    0  501    0  0.00000000000E+00  0.00000000000E+00  0.51540337240E+03  0.51540337240E+03  0.00000000000E+00 0.  1.
         -2   -1    0    0    0  501 -0.00000000000E+00 -0.00000000000E+00 -0.24886978474E+02  0.24886978474E+02  0.00000000000E+00 0. -1.
         25    2    1    2    0    0  0.22009371219E+02  0.86575553068E+01  0.32663619415E+03  0.35056533369E+03  0.12508190985E+03 0.  0.
          5    1    3    3  502    0 -0.44633742074E+02  0.95763978264E+01  0.58954050080E+02  0.74678850740E+02  0.41800000000E+01 0.  1.
         -5    1    3    3    0  502  0.66643113293E+02 -0.91884251954E+00  0.26768214407E+03  0.27588648295E+03  0.41800000000E+01 0.  1.
        -11    1    1    2    0    0 -0.17372032337E+02 -0.43356642260E+02  0.41650048005E+02  0.62580447701E+02  0.00000000000E+00 0. -1.
         11    1    1    2    0    0 -0.46373388819E+01  0.34699086953E+02  0.12223015177E+03  0.12714456948E+03  0.00000000000E+00 0.  1.
</event>
<event>
 7    1  0.2900135E-009  0.1207457E+03  0.7561462E-02  0.1241872E+00
          1   -1    0    0  501    0  0.00000000000E+00  0.00000000000E+00  0.27600311569E+03  0.27600311569E+03  0.00000000000E+00 0. -1.
         -1   -1    0    0    0  501 -0.00000000000E+00 -0.00000000000E+00 -0.59323925052E+02  0.59323925052E+02  0.00000000000E+00 0.  1.
         25    2    1    2    0    0 -0.46853407929E+02  0.40440037282E+02  0.15925865183E+03  0.21175836722E+03  0.12509056500E+03 0.  0.
          5    1    3    3  502    0  0.29508132364E+02  0.54153918719E+02  0.73547405457E+02  0.96073253498E+02  0.41800000000E+01 0. -1.
         -5    1    3    3    0  502 -0.76361540294E+02 -0.13713881438E+02  0.85711246378E+02  0.11568511372E+03  0.41800000000E+01 0. -1.
        -11    1    1    2    0    0 -0.19165402161E+02 -0.29328578040E+02 -0.50654641601E+00  0.35039045636E+02  0.00000000000E+00 0.  1.
         11    1    1    2    0    0  0.66018810090E+02 -0.11111459241E+02  0.57927085215E+02  0.88529627886E+02  0.00000000000E+00 0. -1.
</event>
<event>
 7    1  0.2900135E-009  0.2150961E+03  0.7561462E-02  0.1137593E+00
         -2   -1    0    0    0  501 -0.00000000000E+00  0.00000000000E+00  0.42744479273E+02  0.42744479273E+02  0.00000000000E+00 0.  1.
          2   -1    0    0  501    0  0.00000000000E+00 -0.00000000000E+00 -0.16479955973E+04  0.16479955973E+04  0.00000000000E+00 0. -1.
         25    2    1    2    0    0 -0.19566074812E+03 -0.62696881765E+02 -0.12276095659E+04  0.12509535932E+04  0.12508244762E+03 0.  0.
          5    1    3    3  502    0 -0.17004096285E+03 -0.80027939829E+02 -0.78294187877E+03  0.80519181450E+03  0.41800000000E+01 0.  1.
         -5    1    3    3    0  502 -0.25619785270E+02  0.17331058064E+02 -0.44466768716E+03  0.44576177873E+03  0.41800000000E+01 0.  1.
        -11    1    1    2    0    0  0.95173417660E+02  0.55691387790E+02 -0.27353203472E+03  0.29492250528E+03  0.00000000000E+00 0. -1.
         11    1    1    2    0    0  0.10048733046E+03  0.70054939748E+01 -0.10410951734E+03  0.14486397803E+03  0.00000000000E+00 0.  1.
</event>
<event>
 7    1  0.2900135E-009  0.9157534E+02  0.7561462E-02  0.1299081E+00
         -1   -1    0    0    0  501 -0.00000000000E+00  0.00000000000E+00  0.17583913750E+02  0.17583913750E+02  0.00000000000E+00 0.  1.
          1   -1    0    0  501    0  0.00000000000E+00 -0.00000000000E+00 -0.67539000157E+03  0.67539000157E+03  0.00000000000E+00 0. -1.
         25    2    1    2    0    0 -0.23443000891E+02  0.11477049585E+02 -0.35239395267E+03  0.37484724146E+03  0.12509060555E+03 0.  0.
          5    1    3    3  502    0  0.36906035278E+02 -0.37145505754E+01 -0.34291297126E+02  0.50687461808E+02  0.41800000000E+01 0.  1.
         -5    1    3    3    0  502 -0.60349036169E+02  0.15191600161E+02 -0.31810265555E+03  0.32415977966E+03  0.41800000000E+01 0.  1.
        -11    1    1    2    0    0  0.15112067666E+01  0.33435707426E+02 -0.71664816346E+02  0.79095361298E+02  0.00000000000E+00 0.  1.
         11    1    1    2    0    0  0.21931794124E+02 -0.44912757011E+02 -0.23374731880E+03  0.23903131256E+03  0.00000000000E+00 0. -1.
</event>
<event>
 7    1  0.2900135E-009  0.1126026E+03  0.7561462E-02  0.1255825E+00
          2   -1    0    0  501    0  0.00000000000E+00  0.00000000000E+00  0.32749974051E+03  0.32749974051E+03  0.00000000000E+00 0. -1.
         -2   -1    0    0    0  501 -0.00000000000E+00 -0.00000000000E+00 -0.62319695049E+02  0.62319695049E+02  0.00000000000E+00 0.  1.
         25    2    1    2    0    0  0.89029789278E+02 -0.27000658966E+02  0.14672377637E+03  0.21408087813E+03  0.12508963532E+03 0.  0.
          5    1    3    3  502    0  0.24876325938E+02  0.10839893569E+02 -0.18288796043E+02  0.32989200437E+02  0.41800000000E+01 0. -1.
         -5    1    3    3    0  502  0.64153463340E+02 -0.37840552536E+02  0.16501257241E+03  0.18109167769E+03  0.41800000000E+01 0. -1.
        -11    1    1    2    0    0 -0.50871663685E+02  0.55677226257E+02  0.44056416579E+02  0.87343274105E+02  0.00000000000E+00 0.  1.
         11    1    1    2    0    0 -0.38158125594E+02 -0.28676567290E+02  0.74399852518E+02  0.88395283330E+02  0.00000000000E+00 0. -1.
</event>
<event>
 7    1  0.3284801E-009  0.1210340E+03  0.7561462E-02  0.1241401E+00
         -1   -1    0    0    0  501 -0.00000000000E+00  0.00000000000E+00  0.16683639100E+02  0.16683639100E+02  0.00000000000E+00 0.  1.
          1   -1    0    0  501    0  0.00000000000E+00 -0.00000000000E+00 -0.88089703146E+03  0.88089703146E+03  0.00000000000E+00 0. -1.
         25    2    1    2    0    0 -0.48544650167E+02 -0.23306829455E+02 -0.48571963140E+03  0.50445165962E+03  0.12509246664E+03 0.  0.
          5    1    3    3  502    0 -0.62188602584E+02 -0.66115257515E+02 -0.33727937816E+03  0.34930430987E+03  0.41800000000E+01 0. -1.
         -5    1    3    3    0  502  0.13643952417E+02  0.42808428060E+02 -0.14844025324E+03  0.15514734974E+03  0.41800000000E+01 0. -1.
        -11    1    1    2    0    0  0.41331372191E+02 -0.30768325115E+02 -0.17219886912E+03  0.17974265683E+03  0.00000000000E+00 0. -1.
         11    1    1    2    0    0  0.72132779754E+01  0.54075154570E+02 -0.20629489184E+03  0.21338635411E+03  0.00000000000E+00 0.  1.
</event>
<event>
 7    1  0.2900135E-009  0.2775974E+03  0.7561462E-02  0.1097008E+00
         -2   -1    0    0    0  501 -0.00000000000E+00  0.00000000000E+00  0.34355084328E+03  0.34355084328E+03  0.00000000000E+00 0.  1.
          2   -1    0    0  501    0  0.00000000000E+00 -0.00000000000E+00 -0.23765213078E+03  0.23765213078E+03  0.00000000000E+00 0. -1.
         25    2    1    2    0    0 -0.65541499908E+02 -0.24690392879E+03  0.12187474634E+03  0.30944870190E+03  0.12509119492E+03 0.  0.
          5    1    3    3  502    0 -0.41801403055E+02 -0.25510806966E+03  0.10591601409E+03  0.27939785064E+03  0.41800000000E+01 0. -1.
         -5    1    3    3    0  502 -0.23740096852E+02  0.82041408680E+01  0.15958732255E+02  0.30050851254E+02  0.41800000000E+01 0. -1.
        -11    1    1    2    0    0 -0.22843706883E+02  0.66113602569E+02 -0.72950780188E+01  0.70328241497E+02  0.00000000000E+00 0. -1.
         11    1    1    2    0    0  0.88385206791E+02  0.18079032623E+03 -0.86809558271E+01  0.20142603067E+03  0.00000000000E+00 0.  1.
</event>
<event>
 7    1  0.2900135E-009  0.1068448E+03  0.7561462E-02  0.1266527E+00
         -1   -1    0    0    0  501 -0.00000000000E+00  0.00000000000E+00  0.59994581460E+03  0.59994581460E+03  0.00000000000E+00 0.  1.
          1   -1    0    0  501    0  0.00000000000E+00 -0.00000000000E+00 -0.30517012965E+02  0.30517012965E+02  0.00000000000E+00 0. -1.
         25    2    1    2    0    0 -0.79526671758E+02  0.22268783790E+02  0.30537504382E+03  0.34017841413E+03  0.12508815210E+03 0.  0.
          5    1    3    3  502    0 -0.64835173235E+02 -0.20892861653E+01  0.47015492426E+02  0.80224022170E+02  0.41800000000E+01 0.  1.
         -5    1    3    3    0  502 -0.14691498524E+02  0.24358069955E+02  0.25835955140E+03  0.25995439196E+03  0.41800000000E+01 0.  1.
        -11    1    1    2    0    0 -0.14438562079E+02 -0.21583193308E+02  0.70398786727E+02  0.75035294901E+02  0.00000000000E+00 0. -1.
         11    1    1    2    0    0  0.93965233837E+02 -0.68559048228E+00  0.19365497109E+03  0.21524911854E+03  0.00000000000E+00 0.  1.
</event>
<event>
 7    1  0.2900135E-009  0.1699787E+03  0.7561462E-02  0.1177870E+00
          2   -1    0    0  501    0  0.00000000000E+00  0.00000000000E+00  0.65694978143E+02  0.65694978143E+02  0.00000000000E+00 0.  1.
         -2   -1    0    0    0  501 -0.00000000000E+00 -0.00000000000E+00 -0.49035390958E+03  0.49035390958E+03  0.00000000000E+00 0. -1.
         25    2    1    2    0    0  0.11958645064E+02 -0.13565729313E+03 -0.28503244263E+03  0.33975981125E+03  0.12508927060E+03 0.  0.
          5    1    3    3  502    0 -0.46698553297E+02 -0.12672860765E+02 -0.72398103555E+02  0.87179780215E+02  0.41800000000E+01 0. -1.
         -5    1    3    3    0  502  0.58657198362E+02 -0.12298443237E+03 -0.21263433908E+03  0.25258003104E+03  0.41800000000E+01 0. -1.
        -11    1    1    2    0    0 -0.68832451735E+00  0.14209023251E+03 -0.97801301507E+02  0.17249696386E+03  0.00000000000E+00 0.  1.
         11    1    1    2    0    0 -0.11270320547E+02 -0.64329393754E+01 -0.41825187297E+02  0.43792112608E+02  0.00000000000E+00 0. -1.
</event>
<event>
 7    1  0.2900135E-009  0.1422876E+03  0.7561462E-02  0.1210284E+00
          2   -1    0    0  501    0  0.00000000000E+00  0.00000000000E+00  0.95778707018E+02  0.95778707018E+02  0.00000000000E+00 0. -1.
         -2   -1    0    0    0  501 -0.00000000000E+00 -0.00000000000E+00 -0.26301114017E+03  0.26301114017E+03  0.00000000000E+00 0.  1.
         25    2    1    2    0    0 -0.17723655711E+02 -0.11205945278E+03 -0.60924415556E+02  0.17952634564E+03  0.12508587226E+03 0.  0.
          5    1    3    3  502    0 -0.57557791509E+02 -0.14122557252E+02 -0.44267296359E+01  0.59576961336E+02  0.41800000000E+01 0.  1.
         -5    1    3    3    0  502  0.39834135799E+02 -0.97936895532E+02 -0.56497685920E+02  0.11994938431E+03  0.41800000000E+01 0.  1.
        -11    1    1    2    0    0 -0.92166913323E+01  0.60312817236E+02 -0.35704141251E+01  0.61117355793E+02  0.00000000000E+00 0. -1.
         11    1    1    2    0    0  0.26940347043E+02  0.51746635548E+02 -0.10273760348E+03  0.11814614576E+03  0.00000000000E+00 0.  1.
</event>
<event>
 7    1  0.2900135E-009  0.1065586E+03  0.7561462E-02  0.1267079E+00
         -4   -1    0    0    0  501 -0.00000000000E+00  0.00000000000E+00  0.55880468418E+02  0.55880468418E+02  0.00000000000E+00 0.  1.
          4   -1    0    0  501    0  0.00000000000E+00 -0.00000000000E+00 -0.30418612623E+03  0.30418612623E+03  0.00000000000E+00 0. -1.
         25    2    1    2    0    0  0.26792363580E+02  0.49232634120E+02 -0.76511252019E+02  0.15698223920E+03  0.12509104177E+03 0.  0.
          5    1    3    3  502    0 -0.37610018365E+02  0.31194643975E+02  0.74000314920E+01  0.49596896680E+02  0.41800000000E+01 0.  1.
         -5    1    3    3    0  502  0.64402381946E+02  0.18037990145E+02 -0.83911283511E+02  0.10738534253E+03  0.41800000000E+01 0.  1.
        -11    1    1    2    0    0 -0.70055133611E+01  0.22024027664E+02 -0.99847932453E+01  0.25176002624E+02  0.00000000000E+00 0.  1.
         11    1    1    2    0    0 -0.19786850219E+02 -0.71256661784E+02 -0.16180961255E+03  0.17790835282E+03  0.00000000000E+00 0. -1.
</event>
<event>
 7    1  0.2900135E-009  0.1371882E+03  0.7561462E-02  0.1217163E+00
          1   -1    0    0  501    0  0.00000000000E+00  0.00000000000E+00  0.28020417649E+02  0.28020417649E+02  0.00000000000E+00 0. -1.
         -1   -1    0    0    0  501 -0.00000000000E+00 -0.00000000000E+00 -0.84899999062E+03  0.84899999062E+03  0.00000000000E+00 0.  1.
         25    2    1    2    0    0 -0.10684786233E+03  0.70681757709E+01 -0.28908354193E+03  0.33269038263E+03  0.12508865533E+03 0.  0.
          5    1    3    3  502    0  0.22559612731E+01  0.46824881422E+02 -0.64727816884E+02  0.80030129077E+02  0.41800000000E+01 0.  1.
         -5    1    3    3    0  502 -0.10910382360E+03 -0.39756705651E+02 -0.22435572504E+03  0.25266025356E+03  0.41800000000E+01 0.  1.
        -11    1    1    2    0    0  0.71244258164E+02 -0.18702316322E+02 -0.41779426734E+03  0.42423763480E+03  0.00000000000E+00 0.  1.
         11    1    1    2    0    0  0.35603604167E+02  0.11634140551E+02 -0.11410176371E+03  0.12009239084E+03  0.00000000000E+00 0. -1.
</event>
<event>
 7    1  0.2900135E-009  0.1084027E+03  0.7561462E-02  0.1263557E+00
          2   -1    0    0  501    0  0.00000000000E+00  0.00000000000E+00  0.19119575831E+03  0.19119575831E+03  0.00000000000E+00 0. -1.
         -2   -1    0    0    0  501 -0.00000000000E+00 -0.00000000000E+00 -0.11684689898E+03  0.11684689898E+03  0.00000000000E+00 0.  1.
         25    2    1    2    0    0  0.39644834696E+02  0.49508222325E+02 -0.43576390372E+02  0.14686179557E+03  0.12508680268E+03 0.  0.
          5    1    3    3  502    0  0.34453758298E+02  0.78661801203E+02 -0.66897383176E+02  0.10893793052E+03  0.41800000000E+01 0.  1.
         -5    1    3    3    0  502  0.51910763975E+01 -0.29153578878E+02  0.23320992804E+02  0.37923865058E+02  0.41800000000E+01 0.  1.
        -11    1    1    2    0    0 -0.30651776543E+02 -0.71157705774E+02  0.57848861437E+02  0.96692508840E+02  0.00000000000E+00 0.  1.
         11    1    1    2    0    0 -0.89930581526E+01  0.21649483449E+02  0.60076388265E+02  0.64488352867E+02  0.00000000000E+00 0. -1.
</event>
<event>
 7    1  0.3460194E-009  0.1185866E+03  0.7561462E-02  0.1245447E+00
         -2   -1    0    0    0  501 -0.00000000000E+00  0.00000000000E+00  0.13835214724E+02  0.13835214724E+02  0.00000000000E+00 0.  1.
          2   -1    0    0  501    0  0.00000000000E+00 -0.00000000000E+00 -0.16098725193E+04  0.16098725193E+04  0.00000000000E+00 0. -1.
         25    2    1    2    0    0 -0.62611503580E+02 -0.79207475631E+02 -0.92664819702E+03  0.94048804090E+03  0.12508736729E+03 0.  0.
          5    1    3    3  502    0 -0.27920797558E+02 -0.50115128256E+02 -0.84562688130E+03  0.84758090575E+03  0.41800000000E+01 0. -1.
         -5    1    3    3    0  502 -0.34690706022E+02 -0.29092347376E+02 -0.81021315718E+02  0.92907135145E+02  0.41800000000E+01 0. -1.
        -11    1    1    2    0    0  0.31889230112E+01  0.74509444859E+02 -0.43639008008E+03  0.44271675889E+03  0.00000000000E+00 0.  1.
         11    1    1    2    0    0  0.59422580569E+02  0.46980307725E+01 -0.23299902746E+03  0.24050293422E+03  0.00000000000E+00 0. -1.
</event>
<event>
 7    1  0.2900135E-009  0.8592440E+02  0.7561462E-02  0.1313033E+00
         -2   -1    0    0    0  501 -0.00000000000E+00  0.00000000000E+00  0.14002460687E+02  0.14002460687E+02  0.00000000000E+00 0.  1.
          2   -1    0    0  501    0  0.00000000000E+00 -0.00000000000E+00 -0.15335429481E+04  0.15335429481E+04  0.00000000000E+00 0. -1.
         25    2    1    2    0    0 -0.11819249979E+01  0.63018721045E+02 -0.12112529189E+04  0.12193251709E+04  0.12508989838E+03 0.  0.
          5    1    3    3  502    0 -0.16029686369E+02  0.21385683580E+01 -0.96645553310E+03  0.96659986249E+03  0.41800000000E+01 0. -1.
         -5    1    3    3    0  502  0.14847761371E+02  0.60880152688E+02 -0.24479738582E+03  0.25272530842E+03  0.41800000000E+01 0. -1.
        -11    1    1    2    0    0 -0.31918948851E+02 -0.18589629686E+02 -0.40722722599E+02  0.54979393990E+02  0.00000000000E+00 0.  1.
         11    1    1    2    0    0  0.33100873849E+02 -0.44429091359E+02 -0.26756484588E+03  0.27324084387E+03  0.00000000000E+00 0. -1.
</event>
<event>
 7    1  0.2900135E-009  0.1022997E+03  0.7561462E-02  0.1275533E+00
         -1   -1    0    0    0  501 -0.00000000000E+00  0.00000000000E+00  0.26868038002E+03  0.26868038002E+03  0.00000000000E+00 0.  1.
          1   -1    0    0  501    0  0.00000000000E+00 -0.00000000000E+00 -0.68389853021E+02  0.68389853021E+02  0.00000000000E+00 0. -1.
         25    2    1    2    0    0 -0.76402062788E+02 -0.21651142816E+02  0.89880793433E+02  0.17329552907E+03  0.12508691453E+03 0.  0.
          5    1    3    3  502    0 -0.26702017769E+02  0.49111674038E+01  0.10995012513E+03  0.11332969485E+03  0.41800000000E+01 0.  1.
         -5    1    3    3    0  502 -0.49700045019E+02 -0.26562310220E+02 -0.20069331701E+02  0.59965834223E+02  0.41800000000E+01 0.  1.
        -11    1    1    2    0    0  0.90408918189E+02  0.38882646741E+02  0.85120760773E+02  0.13011985483E+03  0.00000000000E+00 0.  1.
         11    1    1    2    0    0 -0.14006855400E+02 -0.17231503925E+02  0.25288972795E+02  0.33654849142E+02  0.00000000000E+00 0. -1.
</event>
<event>
 7    1  0.2900135E-009  0.1033903E+03  0.7561462E-02  0.1273324E+00
         -2   -1    0    0    0  501 -0.00000000000E+00  0.00000000000E+00  0.45875930482E+03  0.45875930482E+03  0.00000000000E+00 0.  1.
          2   -1    0    0  501    0  0.00000000000E+00 -0.00000000000E+00 -0.27652983295E+02  0.27652983295E+02  0.00000000000E+00 0. -1.
         25    2    1    2    0    0  0.58528510893E+01  0.25888355721E+02  0.28686657098E+03  0.31407734230E+03  0.12509070538E+03 0.  0.
          5    1    3    3  502    0  0.44156650887E+02  0.50296152002E+02  0.23784713623E+03  0.24711990073E+03  0.41800000000E+01 0. -1.
         -5    1    3    3    0  502 -0.38303799797E+02 -0.24407796282E+02  0.49019434751E+02  0.66957441570E+02  0.41800000000E+01 0. -1.
        -11    1    1    2    0    0  0.40890201503E+02 -0.44927915614E+00  0.57162151524E+02  0.70283155859E+02  0.00000000000E+00 0. -1.
         11    1    1    2    0    0 -0.46743052592E+02 -0.25439076564E+02  0.87077599022E+02  0.10205178996E+03  0.00000000000E+00 0.  1.
</event>
<event>
 7    1  0.2900135E-009  0.1177673E+03  0.7561462E-02  0.1246826E+00
         -2   -1    0    0    0  501 -0.00000000000E+00  0.00000000000E+00  0.33507646673E+02  0.33507646673E+02  0.00000000000E+00 0.  1.
          2   -1    0    0  501    0  0.00000000000E+00 -0.00000000000E+00 -0.51549947382E+03  0.51549947382E+03  0.00000000000E+00 0. -1.
         25    2    1    2    0    0  0.42270145858E+02 -0.15139329497E+02 -0.32490249492E+03  0.35103476632E+03  0.12509121244E+03 0.  0.
          5    1    3    3  502    0  0.29517200003E+02 -0.69890500352E+02 -0.17054421328E+03  0.18670497642E+03  0.41800000000E+01 0. -1.
         -5    1    3    3    0  502  0.12752945855E+02  0.54751170855E+02 -0.15435828164E+03  0.16432978990E+03  0.41800000000E+01 0. -1.
        -11    1    1    2    0    0  0.54598124996E+01  0.46012376079E+02 -0.21762386191E+02  0.51191305490E+02  0.00000000000E+00 0.  1.
         11    1    1    2    0    0 -0.47729958358E+02 -0.30873046582E+02 -0.13532694604E+03  0.14678104869E+03  0.00000000000E+00 0. -1.
</event>
<event>
 7    1  0.2900135E-009  0.1328624E+03  0.7561462E-02  0.1223269E+00
         -1   -1    0    0    0  501 -0.00000000000E+00  0.00000000000E+00  0.20673500508E+03  0.20673500508E+03  0.00000000000E+00 0.  1.
          1   -1    0    0  501    0  0.00000000000E+00 -0.00000000000E+00 -0.95200696375E+02  0.95200696375E+02  0.00000000000E+00 0. -1.
         25    2    1    2    0    0  0.38153242913E+02 -0.80381505213E+02  0.58955801516E+02  0.16443960479E+03  0.12509092999E+03 0.  0.
          5    1    3    3  502    0  0.14087899971E+02 -0.10871661541E+03  0.22069647678E+02  0.11190314178E+03  0.41800000000E+01 0. -1.
         -5    1    3    3    0  502  0.24065342942E+02  0.28335110197E+02  0.36886153839E+02  0.52536463012E+02  0.41800000000E+01 0. -1.
        -11    1    1    2    0    0  0.20972683399E+02  0.29406222984E+01  0.31261520115E+02  0.37759546453E+02  0.00000000000E+00 0.  1.
         11    1    1    2    0    0 -0.59125926312E+02  0.77440882915E+02  0.21316987069E+02  0.99736550204E+02  0.00000000000E+00 0. -1.
</event>
<event>
 7    1  0.2900135E-009  0.1632206E+03  0.7561462E-02  0.1185108E+00
         -3   -1    0    0    0  501 -0.00000000000E+00  0.00000000000E+00  0.81257614672E+02  0.81257614672E+02  0.00000000000E+00 0.  1.
          3   -1    0    0  501    0  0.00000000000E+00 -0.00000000000E+00 -0.44168575452E+03  0.44168575452E+03  0.00000000000E+00 0. -1.
         25    2    1    2    0    0 -0.95248741388E+02  0.10330189113E+03 -0.10015182659E+03  0.21312402334E+03  0.12509139662E+03 0.  0.
          5    1    3    3  502    0  0.93690116330E+01  0.73026859469E+02 -0.16082042374E+02  0.75477182445E+02  0.41800000000E+01 0.  1.
         -5    1    3    3    0  502 -0.10461775302E+03  0.30275031656E+02 -0.84069784218E+02  0.13764684089E+03  0.41800000000E+01 0.  1.
        -11    1    1    2    0    0  0.49449241486E+02 -0.31791527547E+02 -0.19217541536E+03  0.20096596472E+03  0.00000000000E+00 0. -1.
         11    1    1    2    0    0  0.45799499902E+02 -0.71510363579E+02 -0.68100897897E+02  0.10885338114E+03  0.00000000000E+00 0.  1.
</event>
<event>
 7    1  0.3004500E-009  0.1264900E+03  0.7561462E-02  0.1232759E+00
          1   -1    0    0  501    0  0.00000000000E+00  0.00000000000E+00  0.95386371576E+03  0.95386371576E+03  0.00000000000E+00 0. -1.
         -1   -1    0    0    0  501 -0.00000000000E+00 -0.00000000000E+00 -0.22122684655E+02  0.22122684655E+02  0.00000000000E+00 0.  1.
         25    2    1    2    0    0 -0.96088419561E+02  0.31021367905E+01  0.48259195991E+03  0.50772748896E+03  0.12509834391E+03 0.  0.
          5    1    3    3  502    0 -0.21599285780E+02 -0.31843588585E+02  0.33643673860E+02  0.51282672229E+02  0.41800000000E+01 0.  1.
         -5    1    3    3    0  502 -0.74489133781E+02  0.34945725376E+02  0.44894828605E+03  0.45644481673E+03  0.41800000000E+01 0.  1.
        -11    1    1    2    0    0  0.35136422035E+02 -0.45614052018E+02  0.21678263992E+03  0.22429873577E+03  0.00000000000E+00 0.  1.
         11    1    1    2    0    0  0.60951997526E+02  0.42511915228E+02  0.23236643128E+03  0.24396017569E+03  0.00000000000E+00 0. -1.
</event>
<event>
 7    1  0.4328268E-009  0.1139132E+03  0.7561462E-02  0.1253490E+00
         -1   -1    0    0    0  501 -0.00000000000E+00  0.00000000000E+00  0.24249857236E+02  0.24249857236E+02  0.00000000000E+00 0.  1.
          1   -1    0    0  501    0  0.00000000000E+00 -0.00000000000E+00 -0.86944373002E+03  0.86944373002E+03  0.00000000000E+00 0. -1.
         25    2    1    2    0    0 -0.64108150229E+02  0.29915146013E+02 -0.65965870533E+03  0.67513041106E+03  0.12508674403E+03 0.  0.
          5    1    3    3  502    0  0.60347025558E+01  0.46582419411E+02 -0.96993328328E+02  0.10784951355E+03  0.41800000000E+01 0. -1.
         -5    1    3    3    0  502 -0.70142852785E+02 -0.16667273398E+02 -0.56266537700E+03  0.56728089751E+03  0.41800000000E+01 0. -1.
        -11    1    1    2    0    0  0.34998239926E+02  0.27214247071E+02 -0.40754013902E+02  0.60219446118E+02  0.00000000000E+00 0.  1.
         11    1    1    2    0    0  0.29109910304E+02 -0.57129393084E+02 -0.14478115355E+03  0.15834373008E+03  0.00000000000E+00 0. -1.
</event>
<event>
 7    1  0.2900135E-009  0.1342454E+03  0.7561462E-02  0.1221289E+00
         -1   -1    0    0    0  501 -0.00000000000E+00  0.00000000000E+00  0.11989540742E+03  0.11989540742E+03  0.00000000000E+00 0.  1.
          1   -1    0    0  501    0  0.00000000000E+00 -0.00000000000E+00 -0.26513403323E+03  0.26513403323E+03  0.00000000000E+00 0. -1.
         25    2    1    2    0    0 -0.74506565941E+02  0.20943683400E+01  0.48948193538E+02  0.15361869722E+03  0.12508862353E+03 0.  0.
          5    1    3    3  502    0 -0.11752043415E+01 -0.53136778671E+02  0.23484090440E+02  0.58256958868E+02  0.41800000000E+01 0. -1.
         -5    1    3    3    0  502 -0.73331361599E+02  0.55231147011E+02  0.25464103098E+02  0.95361738348E+02  0.41800000000E+01 0. -1.
        -11    1    1    2    0    0 -0.19360804651E+02 -0.19869452991E+02 -0.26202876833E+02  0.38160538167E+02  0.00000000000E+00 0. -1.
         11    1    1    2    0    0  0.93867370592E+02  0.17775084651E+02 -0.16798394251E+03  0.19325020527E+03  0.00000000000E+00 0.  1.
</event>
<event>
 7    1  0.2900135E-009  0.1080909E+03  0.7561462E-02  0.1264147E+00
          2   -1    0    0  501    0  0.00000000000E+00  0.00000000000E+00  0.87087457244E+02  0.87087457244E+02  0.00000000000E+00 0. -1.
         -2   -1    0    0    0  501 -0.00000000000E+00 -0.00000000000E+00 -0.19819780798E+03  0.19819780798E+03  0.00000000000E+00 0.  1.
         25    2    1    2    0    0  0.37183646634E+02  0.61415870540E+02 -0.37530764730E+02  0.14903334734E+03  0.12509135696E+03 0.  0.
          5    1    3    3  502    0  0.33521938600E+02 -0.34298993440E+02 -0.87468778914E+01  0.48929761815E+02  0.41800000000E+01 0. -1.
         -5    1    3    3    0  502  0.36617080348E+01  0.95714863980E+02 -0.28783886838E+02  0.10010358552E+03  0.41800000000E+01 0. -1.
        -11    1    1    2    0    0 -0.25599481195E+02 -0.35405576683E+02  0.12615504091E+02  0.45475699458E+02  0.00000000000E+00 0. -1.
         11    1    1    2    0    0 -0.11584165439E+02 -0.26010293857E+02 -0.86195090097E+02  0.90776218429E+02  0.00000000000E+00 0.  1.
</event>
<event>
 7    1  0.2900135E-009  0.1118830E+03  0.7561462E-02  0.1257122E+00
         -1   -1    0    0    0  501 -0.00000000000E+00  0.00000000000E+00  0.13776640701E+03  0.13776640701E+03  0.00000000000E+00 0.  1.
          1   -1    0    0  501    0  0.00000000000E+00 -0.00000000000E+00 -0.11311037005E+03  0.11311037005E+03  0.00000000000E+00 0. -1.
         25    2    1    2    0    0 -0.50568315993E+02  0.39475588979E+02  0.19433511632E+02  0.14192393980E+03  0.12509702876E+03 0.  0.
          5    1    3    3  502    0 -0.61402657697E+02 -0.15994327589E+02 -0.26583042482E+02  0.68921951764E+02  0.41800000000E+01 0. -1.
         -5    1    3    3    0  502  0.10834341705E+02  0.55469916568E+02  0.46016554114E+02  0.73001988033E+02  0.41800000000E+01 0. -1.
        -11    1    1    2    0    0  0.46411158799E+02 -0.63762230260E+02  0.18440053864E+02  0.80991686334E+02  0.00000000000E+00 0.  1.
         11    1    1    2    0    0  0.41571571938E+01  0.24286641281E+02 -0.13217528537E+02  0.27961150929E+02  0.00000000000E+00 0. -1.
</event>
<event>
 7    1  0.2900135E-009  0.1596612E+03  0.7561462E-02  0.1189080E+00
          2   -1    0    0  501    0  0.00000000000E+00  0.00000000000E+00  0.97919754264E+02  0.97919754264E+02  0.00000000000E+00 0.  1.
         -2   -1    0    0    0  501 -0.00000000000E+00 -0.00000000000E+00 -0.28575256017E+03  0.28575256017E+03  0.00000000000E+00 0. -1.
         25    2    1    2    0    0 -0.12716772059E+03  0.39711363021E+01 -0.96114409575E+02  0.20266402809E+03  0.12508928600E+03 0.  0.
          5    1    3    3  502    0  0.24683402105E+02  0.29535965728E+01 -0.22783939844E+02  0.33979028636E+02  0.41800000000E+01 0. -1.
         -5    1    3    3    0  502 -0.15185112269E+03  0.10175397293E+01 -0.73330469731E+02  0.16868499945E+03  0.41800000000E+01 0. -1.
        -11    1    1    2    0    0  0.56318394752E+02 -0.33406813783E+02 -0.80025633939E+02  0.10340154197E+03  0.00000000000E+00 0. -1.
         11    1    1    2    0    0  0.70849325835E+02  0.29435677480E+02 -0.11692762392E+02  0.77606744374E+02  0.00000000000E+00 0.  1.
</event>
<event>
 7    1  0.2900135E-009  0.1109299E+03  0.7561462E-02  0.1258858E+00
          1   -1    0    0  501    0  0.00000000000E+00  0.00000000000E+00  0.79068215156E+03  0.79068215156E+03  0.00000000000E+00 0. -1.
         -1   -1    0    0    0  501 -0.00000000000E+00 -0.00000000000E+00 -0.25648526580E+02  0.25648526580E+02  0.00000000000E+00 0.  1.
         25    2    1    2    0    0  0.48937213258E+01 -0.86264880557E+02  0.32386444608E+03  0.35777405382E+03  0.12509402876E+03 0.  0.
          5    1    3    3  502    0  0.51608318048E+00  0.16969945877E+02 -0.32782357143E+00  0.17487860739E+02  0.41800000000E+01 0. -1.
         -5    1    3    3    0  502  0.43776381454E+01 -0.10323482643E+03  0.32419226965E+03  0.34028619308E+03  0.41800000000E+01 0. -1.
        -11    1    1    2    0    0 -0.21408000790E+02  0.11313204947E+02  0.22977515204E+02  0.33380492940E+02  0.00000000000E+00 0.  1.
         11    1    1    2    0    0  0.16514279464E+02  0.74951675610E+02  0.41819166370E+03  0.42517613137E+03  0.00000000000E+00 0. -1.
</event>
<event>
 7    1  0.2900135E-009  0.1336346E+03  0.7561462E-02  0.1222160E+00
         -2   -1    0    0    0  501 -0.00000000000E+00  0.00000000000E+00  0.63248375716E+02  0.63248375716E+02  0.00000000000E+00 0.  1.
          2   -1    0    0  501    0  0.00000000000E+00 -0.00000000000E+00 -0.71148105818E+03  0.71148105818E+03  0.00000000000E+00 0. -1.
         25    2    1    2    0    0  0.73009431908E+02  0.40336528296E+02 -0.63150528622E+03  0.64915610977E+03  0.12508923082E+03 0.  0.
          5    1    3    3  502    0  0.76014948611E+02 -0.27565200472E+02 -0.30035210977E+03  0.31107390590E+03  0.41800000000E+01 0. -1.
         -5    1    3    3    0  502 -0.30055167030E+01  0.67901728768E+02 -0.33115317645E+03  0.33808220387E+03  0.41800000000E+01 0. -1.
        -11    1    1    2    0    0 -0.92056961260E+02 -0.33895163884E+02  0.19667059591E+01  0.98118470144E+02  0.00000000000E+00 0.  1.
         11    1    1    2    0    0  0.19047529352E+02 -0.64413644121E+01 -0.18694102203E+02  0.27454853980E+02  0.00000000000E+00 0. -1.
</event>
<event>
 7    1  0.2900135E-009  0.9729672E+02  0.7561462E-02  0.1286085E+00
         -2   -1    0    0    0  501 -0.00000000000E+00  0.00000000000E+00  0.25243710643E+03  0.25243710643E+03  0.00000000000E+00 0.  1.
          2   -1    0    0  501    0  0.00000000000E+00 -0.00000000000E+00 -0.52023707648E+02  0.52023707648E+02  0.00000000000E+00 0. -1.
         25    2    1    2    0    0 -0.34241072006E+02 -0.10378604312E+02  0.95423410779E+02  0.16134001430E+03  0.12507920070E+03 0.  0.
          5    1    3    3  502    0  0.36011593581E+02  0.71751853791E+00  0.80863430966E+02  0.88621197084E+02  0.41800000000E+01 0.  1.
         -5    1    3    3    0  502 -0.70252665587E+02 -0.11096122850E+02  0.14559979813E+02  0.72718817211E+02  0.41800000000E+01 0.  1.
        -11    1    1    2    0    0 -0.10899331498E+02 -0.26591837867E+02  0.68545601802E+02  0.74326447477E+02  0.00000000000E+00 0. -1.
         11    1    1    2    0    0  0.45140403504E+02  0.36970442179E+02  0.36444386202E+02  0.68794352305E+02  0.00000000000E+00 0.  1.
</event>
<event>
 7    1  0.2900135E-009  0.1153845E+03  0.7561462E-02  0.1250911E+00
          1   -1    0    0  501    0  0.00000000000E+00  0.00000000000E+00  0.16838846898E+04  0.16838846898E+04  0.00000000000E+00 0. -1.
         -1   -1    0    0    0  501 -0.00000000000E+00 -0.00000000000E+00 -0.96927771575E+01  0.96927771575E+01  0.00000000000E+00 0.  1.
         25    2    1    2    0    0 -0.29790891470E+02 -0.16558182836E+02  0.12060004891E+04  0.12129500731E+04  0.12509608080E+03 0.  0.
          5    1    3    3  502    0 -0.51176369018E+02  0.38297250006E+02  0.81575126660E+03  0.81826236713E+03  0.41800000000E+01 0.  1.
         -5    1    3    3    0  502  0.21385477548E+02 -0.54855432842E+02  0.39024922254E+03  0.39468770598E+03  0.41800000000E+01 0.  1.
        -11    1    1    2    0    0 -0.86883525033E+01 -0.39083273745E+02  0.14463355563E+03  0.15007283289E+03  0.00000000000E+00 0.  1.
         11    1    1    2    0    0  0.38479243973E+02  0.55641456581E+02  0.32355786787E+03  0.33055456096E+03  0.00000000000E+00 0. -1.
</event>
<event>
 7    1  0.2900135E-009  0.4544095E+02  0.7561462E-02  0.1471608E+00
          2   -1    0    0  501    0  0.00000000000E+00  0.00000000000E+00  0.12153273464E+03  0.12153273464E+03  0.00000000000E+00 0.  1.
         -2   -1    0    0    0  501 -0.00000000000E+00 -0.00000000000E+00 -0.10861979438E+03  0.10861979438E+03  0.00000000000E+00 0. -1.
         25    2    1    2    0    0 -0.21286441439E+02  0.25067195404E+02 -0.82246106260E+01  0.12959847386E+03  0.12508654337E+03 0.  0.
          5    1    3    3  502    0 -0.24546366418E+02  0.11270249066E+01  0.55759529565E+02  0.61076933672E+02  0.41800000000E+01 0. -1.
         -5    1    3    3    0  502  0.32599249781E+01  0.23940170497E+02 -0.63984140191E+02  0.68521540192E+02  0.41800000000E+01 0. -1.
        -11    1    1    2    0    0  0.25900143693E+02 -0.13989893004E+02 -0.33510718631E+02  0.44603843027E+02  0.00000000000E+00 0. -1.
         11    1    1    2    0    0 -0.46137022536E+01 -0.11077302399E+02  0.54648269512E+02  0.55950212132E+02  0.00000000000E+00 0.  1.
</event>
<event>
 7    1  0.2900135E-009  0.1364250E+03  0.7561462E-02  0.1218222E+00
          2   -1    0    0  501    0  0.00000000000E+00  0.00000000000E+00  0.77425647030E+02  0.77425647030E+02  0.00000000000E+00 0. -1.
         -2   -1    0    0    0  501 -0.00000000000E+00 -0.00000000000E+00 -0.24923862423E+03  0.24923862423E+03  0.00000000000E+00 0.  1.
         25    2    1    2    0    0  0.70083343535E+02  0.44169246531E+02 -0.65388865692E+02  0.16366475627E+03  0.12509137183E+03 0.  0.
          5    1    3    3  502    0  0.17898666294E+02  0.82621701931E+02 -0.43160071810E+02  0.95010378821E+02  0.41800000000E+01 0.  1.
         -5    1    3    3    0  502  0.52184677241E+02 -0.38452455400E+02 -0.22228793882E+02  0.68654377446E+02  0.41800000000E+01 0.  1.
        -11    1    1    2    0    0 -0.68020188930E+02  0.10255107251E+02 -0.54665645928E+02  0.87864931409E+02  0.00000000000E+00 0. -1.
         11    1    1    2    0    0 -0.20631546054E+01 -0.54424353781E+02 -0.51758465583E+02  0.75134583588E+02  0.00000000000E+00 0.  1.
</event>
<event>
 7    1  0.2900135E-009  0.5973805E+02  0.7561462E-02  0.1398934E+00
          3   -1    0    0  501    0  0.00000000000E+00  0.00000000000E+00  0.90477643507E+02  0.90477643507E+02  0.00000000000E+00 0. -1.
         -3   -1    0    0    0  501 -0.00000000000E+00 -0.00000000000E+00 -0.16619594787E+03  0.16619594787E+03  0.00000000000E+00 0.  1.
         25    2    1    2    0    0  0.21959883014E+02 -0.12899921651E+02 -0.94143923750E+02  0.15861771278E+03  0.12509139054E+03 0.  0.
          5    1    3    3  502    0  0.10596039938E+02  0.19067247706E+02  0.25715345994E+02  0.33979220371E+02  0.41800000000E+01 0.  1.
         -5    1    3    3    0  502  0.11363843076E+02 -0.31967169356E+02 -0.11985926974E+03  0.12463849241E+03  0.41800000000E+01 0.  1.
        -11    1    1    2    0    0  0.19661886222E+02  0.56104815339E+00 -0.28178516106E+02  0.34364710311E+02  0.00000000000E+00 0.  1.
         11    1    1    2    0    0 -0.41621769236E+02  0.12338873497E+02  0.46604135489E+02  0.63691168290E+02  0.00000000000E+00 0. -1.
</event>
<event>
 7    1  0.2900135E-009  0.1252340E+03  0.7561462E-02  0.1234704E+00
         -1   -1    0    0    0  501 -0.00000000000E+00  0.00000000000E+00  0.16869714802E+03  0.16869714802E+03  0.00000000000E+00 0.  1.
          1   -1    0    0  501    0  0.00000000000E+00 -0.00000000000E+00 -0.17885661587E+03  0.17885661587E+03  0.00000000000E+00 0. -1.
         25    2    1    2    0    0  0.10244480990E+03  0.70218860904E+02  0.48578813222E+02  0.18284546043E+03  0.12508770444E+03 0.  0.
          5    1    3    3  502    0  0.77984158184E+02  0.53336089400E+02 -0.29606398688E+02  0.99097318851E+02  0.41800000000E+01 0. -1.
         -5    1    3    3    0  502  0.24460651714E+02  0.16882771504E+02  0.78185211910E+02  0.83748141575E+02  0.41800000000E+01 0. -1.
        -11    1    1    2    0    0 -0.61496938814E+02 -0.53997811896E+02  0.10642686595E+02  0.82528200943E+02  0.00000000000E+00 0.  1.
         11    1    1    2    0    0 -0.40947871084E+02 -0.16221049009E+02 -0.69380967663E+02  0.82180102526E+02  0.00000000000E+00 0. -1.
</event>
<event>
 7    1  0.2900135E-009  0.1770739E+03  0.7561462E-02  0.1170665E+00
          1   -1    0    0  501    0  0.00000000000E+00  0.00000000000E+00  0.33981216842E+03  0.33981216842E+03  0.00000000000E+00 0. -1.
         -1   -1    0    0    0  501 -0.00000000000E+00 -0.00000000000E+00 -0.12072048681E+03  0.12072048681E+03  0.00000000000E+00 0.  1.
         25    2    1    2    0    0  0.10360179081E+03 -0.95522899463E+02  0.22342117667E+03  0.29226755128E+03  0.12508134940E+03 0.  0.
          5    1    3    3  502    0 -0.20331111209E+02  0.10582505611E+02  0.15666176489E+02  0.28075701127E+02  0.41800000000E+01 0.  1.
         -5    1    3    3    0  502  0.12393290202E+03 -0.10610540507E+03  0.20775500018E+03  0.26419185015E+03  0.41800000000E+01 0.  1.
        -11    1    1    2    0    0 -0.91698448332E+02  0.11360658720E+03 -0.83910436390E+01  0.14623772323E+03  0.00000000000E+00 0.  1.
         11    1    1    2    0    0 -0.11903342482E+02 -0.18083687737E+02  0.40615485807E+01  0.22027380718E+02  0.00000000000E+00 0. -1.
</event>
<event>
 7    1  0.2900135E-009  0.7913006E+02  0.7561462E-02  0.1331538E+00
         -3   -1    0    0    0  501 -0.00000000000E+00  0.00000000000E+00  0.84399630212E+02  0.84399630212E+02  0.00000000000E+00 0.  1.
          3   -1    0    0  501    0  0.00000000000E+00 -0.00000000000E+00 -0.16710433627E+03  0.16710433627E+03  0.00000000000E+00 0. -1.
         25    2    1    2    0    0 -0.35850365253E+02  0.22154182004E+02 -0.78869251159E+02  0.15376639737E+03  0.12509072592E+03 0.  0.
          5    1    3    3  502    0  0.19037385487E+02  0.13736717027E+02 -0.93252024496E+02  0.96252438480E+02  0.41800000000E+01 0.  1.
         -5    1    3    3    0  502 -0.54887750740E+02  0.84174649772E+01  0.14382773337E+02  0.57513958886E+02  0.41800000000E+01 0.  1.
        -11    1    1    2    0    0  0.55342076731E+02 -0.11534011484E+02  0.24610457880E+02  0.61655928465E+02  0.00000000000E+00 0.  1.
         11    1    1    2    0    0 -0.19491711478E+02 -0.10620170520E+02 -0.28445912778E+02  0.36081640650E+02  0.00000000000E+00 0. -1.
</event>
<event>
 7    1  0.2900135E-009  0.1188611E+03  0.7561462E-02  0.1244988E+00
         -1   -1    0    0    0  501 -0.00000000000E+00  0.00000000000E+00  0.83945071489E+02  0.83945071489E+02  0.00000000000E+00 0.  1.
          1   -1    0    0  501    0  0.00000000000E+00 -0.00000000000E+00 -0.27767632375E+03  0.27767632375E+03  0.00000000000E+00 0. -1.
         25    2    1    2    0    0 -0.29263884864E+02 -0.52459615153E+02 -0.21117977336E+03  0.25268901676E+03  0.12508579590E+03 0.  0.
          5    1    3    3  502    0  0.38905643918E+02  0.13010643468E+02 -0.42043578427E+02  0.58890244176E+02  0.41800000000E+01 0.  1.
         -5    1    3    3    0  502 -0.68169528782E+02 -0.65470258621E+02 -0.16913619494E+03  0.19379877259E+03  0.41800000000E+01 0.  1.
        -11    1    1    2    0    0 -0.71731310913E+00 -0.21790529659E+02  0.18885972222E+02  0.28844785797E+02  0.00000000000E+00 0.  1.
         11    1    1    2    0    0  0.29981197973E+02  0.74250144812E+02 -0.14374511240E+01  0.80087592686E+02  0.00000000000E+00 0. -1.
</event>
<event>
 7    1  0.2900135E-009  0.8945497E+02  0.7561462E-02  0.1304177E+00
          1   -1    0    0  501    0  0.00000000000E+00  0.00000000000E+00  0.14318618893E+03  0.14318618893E+03  0.00000000000E+00 0. -1.
         -1   -1    0    0    0  501 -0.00000000000E+00 -0.00000000000E+00 -0.10212448127E+03  0.10212448127E+03  0.00000000000E+00 0.  1.
         25    2    1    2    0    0 -0.28852179663E+01 -0.81751919136E+01  0.66376550521E+02  0.14187986083E+03  0.12509552432E+03 0.  0.
          5    1    3    3  502    0 -0.19624207882E+02 -0.45280584504E+02  0.83850373518E+02  0.97384795564E+02  0.41800000000E+01 0. -1.
         -5    1    3    3    0  502  0.16738989916E+02  0.37105392590E+02 -0.17473822997E+02  0.44495065263E+02  0.41800000000E+01 0. -1.
        -11    1    1    2    0    0 -0.24522980169E+02 -0.31698798274E+02 -0.36008679334E+02  0.53877781652E+02  0.00000000000E+00 0.  1.
         11    1    1    2    0    0  0.27408198135E+02  0.39873990187E+02  0.10693836473E+02  0.49553027728E+02  0.00000000000E+00 0. -1.
</event>
<event>
 7    1  0.2900135E-009  0.3667523E+03  0.7561462E-02  0.1055942E+00
          2   -1    0    0  501    0  0.00000000000E+00  0.00000000000E+00  0.27373114347E+04  0.27373114347E+04  0.00000000000E+00 0. -1.
         -2   -1    0    0    0  501 -0.00000000000E+00 -0.00000000000E+00 -0.50680361934E+02  0.50680361934E+02  0.00000000000E+00 0.  1.
         25    2    1    2    0    0 -0.35318971038E+03  0.37835945523E+02  0.14736580328E+04  0.15210166927E+04  0.12509696869E+03 0.  0.
          5    1    3    3  502    0 -0.17776188733E+03 -0.41029897915E+02  0.64484188994E+03  0.67016511139E+03  0.41800000000E+01 0.  1.
         -5    1    3    3    0  502 -0.17542782305E+03  0.78865843438E+02  0.82881614288E+03  0.85085158133E+03  0.41800000000E+01 0.  1.
        -11    1    1    2    0    0  0.25891234047E+03 -0.49621045228E+02  0.99221621854E+03  0.10266405761E+04  0.00000000000E+00 0.  1.
         11    1    1    2    0    0  0.94277369913E+02  0.11785099705E+02  0.22075682139E+03  0.24033452778E+03  0.00000000000E+00 0. -1.
</event>
<event>
 7    1  0.3275592E-009  0.1507025E+03  0.7561462E-02  0.1199612E+00
         -1   -1    0    0    0  501 -0.00000000000E+00  0.00000000000E+00  0.41217481421E+02  0.41217481421E+02  0.00000000000E+00 0.  1.
          1   -1    0    0  501    0  0.00000000000E+00 -0.00000000000E+00 -0.68243988578E+03  0.68243988578E+03  0.00000000000E+00 0. -1.
         25    2    1    2    0    0 -0.10067718114E+03 -0.65851465702E+02 -0.42933901694E+03  0.46308908455E+03  0.12508876219E+03 0.  0.
          5    1    3    3  502    0 -0.90530943438E+02  0.13944582290E+02 -0.25667707785E+03  0.27256356651E+03  0.41800000000E+01 0.  1.
         -5    1    3    3    0  502 -0.10146237697E+02 -0.79796047992E+02 -0.17266193909E+03  0.19052551804E+03  0.41800000000E+01 0.  1.
        -11    1    1    2    0    0  0.54676305129E+02  0.62500941700E+02 -0.19413262394E+03  0.21114767755E+03  0.00000000000E+00 0. -1.
         11    1    1    2    0    0  0.46000876007E+02  0.33505240012E+01 -0.17750763477E+02  0.49420605100E+02  0.00000000000E+00 0.  1.
</event>
<event>
 7    1  0.2900135E-009  0.2204625E+03  0.7561462E-02  0.1133539E+00
          1   -1    0    0  501    0  0.00000000000E+00  0.00000000000E+00  0.34125155320E+03  0.34125155320E+03  0.00000000000E+00 0. -1.
         -1   -1    0    0    0  501 -0.00000000000E+00 -0.00000000000E+00 -0.18173605834E+03  0.18173605834E+03  0.00000000000E+00 0.  1.
         25    2    1    2    0    0  0.18639869982E+03 -0.85840568537E+02 -0.14261382648E+02  0.24075842243E+03  0.12509257546E+03 0.  0.
          5    1    3    3  502    0  0.31617351083E+02 -0.50603773145E+02 -0.50033809353E+02  0.77982390476E+02  0.41800000000E+01 0.  1.
         -5    1    3    3    0  502  0.15478134874E+03 -0.35236795393E+02  0.35772426705E+02  0.16277603195E+03  0.41800000000E+01 0.  1.
        -11    1    1    2    0    0 -0.14295809797E+03  0.21331229057E+02  0.10955544033E+03  0.18136822658E+03  0.00000000000E+00 0. -1.
         11    1    1    2    0    0 -0.43440601847E+02  0.64509339481E+02  0.64221437183E+02  0.10086096253E+03  0.00000000000E+00 0.  1.
</event>
<event>
 7    1  0.2900135E-009  0.1223146E+03  0.7561462E-02  0.1239327E+00
          1   -1    0    0  501    0  0.00000000000E+00  0.00000000000E+00  0.11474785660E+03  0.11474785660E+03  0.00000000000E+00 0. -1.
         -1   -1    0    0    0  501 -0.00000000000E+00 -0.00000000000E+00 -0.45827394953E+03  0.45827394953E+03  0.00000000000E+00 0.  1.
         25    2    1    2    0    0 -0.10742849764E+02 -0.79624064119E+02 -0.40880476345E+03  0.43499796039E+03  0.12508593252E+03 0.  0.
          5    1    3    3  502    0 -0.67251139410E+02 -0.54374592121E+02 -0.24366647287E+03  0.25859260318E+03  0.41800000000E+01 0.  1.
         -5    1    3    3    0  502  0.56508289646E+02 -0.25249471999E+02 -0.16513829058E+03  0.17640535721E+03  0.41800000000E+01 0.  1.
        -11    1    1    2    0    0 -0.11219375384E+02  0.71839473458E+02  0.44056761320E+01  0.72843629185E+02  0.00000000000E+00 0.  1.
         11    1    1    2    0    0  0.21962225148E+02  0.77845906614E+01  0.60872994386E+02  0.65180216559E+02  0.00000000000E+00 0. -1.
</event>
<event>
 7    1  0.2900135E-009  0.1584289E+03  0.7561462E-02  0.1190482E+00
         -1   -1    0    0    0  501 -0.00000000000E+00  0.00000000000E+00  0.75450056172E+03  0.75450056172E+03  0.00000000000E+00 0.  1.
          1   -1    0    0  501    0  0.00000000000E+00 -0.00000000000E+00 -0.45537166056E+02  0.45537166056E+02  0.00000000000E+00 0. -1.
         25    2    1    2    0    0  0.96473443773E+02 -0.10782998897E+03  0.29519846154E+03  0.35174345103E+03  0.12508753643E+03 0.  0.
          5    1    3    3  502    0  0.97636922729E+02 -0.85922178256E+02  0.30163020094E+03  0.32850241995E+03  0.41800000000E+01 0.  1.
         -5    1    3    3    0  502 -0.11634789563E+01 -0.21907810719E+02 -0.64317393990E+01  0.23241031076E+02  0.41800000000E+01 0.  1.
        -11    1    1    2    0    0 -0.10959198710E+03  0.10305961154E+03  0.40442491498E+03  0.43149878219E+03  0.00000000000E+00 0.  1.
         11    1    1    2    0    0  0.13118543331E+02  0.47703774307E+01  0.93400191398E+01  0.16795494559E+02  0.00000000000E+00 0. -1.
</event>
<event>
 7    1  0.2900135E-009  0.1101755E+03  0.7561462E-02  0.1260245E+00
          1   -1    0    0  501    0  0.00000000000E+00  0.00000000000E+00  0.46782903732E+03  0.46782903732E+03  0.00000000000E+00 0. -1.
         -1   -1    0    0    0  501 -0.00000000000E+00 -0.00000000000E+00 -0.39486420468E+02  0.39486420468E+02  0.00000000000E+00 0.  1.
         25    2    1    2    0    0  0.55802720054E+02 -0.57500805874E+02  0.15721665098E+03  0.21629521867E+03  0.12508501122E+03 0.  0.
          5    1    3    3  502    0 -0.21661138723E+02  0.58105500973E+01  0.96572416165E+02  0.99230395481E+02  0.41800000000E+01 0. -1.
         -5    1    3    3    0  502  0.77463858777E+02 -0.63311355971E+02  0.60644234811E+02  0.11706482319E+03  0.41800000000E+01 0. -1.
        -11    1    1    2    0    0 -0.14017798089E+02 -0.10554180950E+02  0.16211133935E+02  0.23889124350E+02  0.00000000000E+00 0.  1.
         11    1    1    2    0    0 -0.41784921965E+02  0.68054986824E+02  0.25491483194E+03  0.26713111477E+03  0.00000000000E+00 0. -1.
</event>
<event>
 7    1  0.2900135E-009  0.1088721E+03  0.7561462E-02  0.1262673E+00
          2   -1    0    0  501    0  0.00000000000E+00  0.00000000000E+00  0.32766865467E+02  0.32766865467E+02  0.00000000000E+00 0. -1.
         -2   -1    0    0    0  501 -0.00000000000E+00 -0.00000000000E+00 -0.51938856454E+03  0.51938856454E+03  0.00000000000E+00 0.  1.
         25    2    1    2    0    0  0.56496113699E+02 -0.23921760751E+02 -0.36824132728E+03  0.39371754862E+03  0.12509105272E+03 0.  0.
          5    1    3    3  502    0  0.44845761078E+02  0.43712335151E+02 -0.11174319174E+03  0.12816366034E+03  0.41800000000E+01 0. -1.
         -5    1    3    3    0  502  0.11650352621E+02 -0.67634095902E+02 -0.25649813554E+03  0.26555388827E+03  0.41800000000E+01 0. -1.
        -11    1    1    2    0    0 -0.19112773919E+02 -0.20590797752E+02 -0.17786722425E+01  0.28150359747E+02  0.00000000000E+00 0. -1.
         11    1    1    2    0    0 -0.37383339780E+02  0.44512558503E+02 -0.11660169955E+03  0.13028752164E+03  0.00000000000E+00 0.  1.
</event>
<event>
 7    1  0.2900135E-009  0.5924458E+02  0.7561462E-02  0.1401029E+00
         -2   -1    0    0    0  501 -0.00000000000E+00  0.00000000000E+00  0.53090953349E+02  0.53090953349E+02  0.00000000000E+00 0.  1.
          2   -1    0    0  501    0  0.00000000000E+00 -0.00000000000E+00 -0.19245992931E+03  0.19245992931E+03  0.00000000000E+00 0. -1.
         25    2    1    2    0    0  0.75699406573E+01  0.90052915613E+01 -0.62775312325E+02  0.14045214512E+03  0.12509063096E+03 0.  0.
          5    1    3    3  502    0  0.35319962012E+02  0.18679895148E+02 -0.91011487283E+02  0.99483674122E+02  0.41800000000E+01 0. -1.
         -5    1    3    3    0  502 -0.27750021355E+02 -0.96746035868E+01  0.28236174958E+02  0.40968470999E+02  0.41800000000E+01 0. -1.
        -11    1    1    2    0    0  0.18570020725E+01  0.18995821496E+02 -0.72859911257E+02  0.75318366681E+02  0.00000000000E+00 0. -1.
         11    1    1    2    0    0 -0.94269427298E+01 -0.28001113057E+02 -0.37337523781E+01  0.29780370859E+02  0.00000000000E+00 0.  1.
</event>
<event>
 7    1  0.2900135E-009  0.1132788E+03  0.7561462E-02  0.1254616E+00
         -2   -1    0    0    0  501 -0.00000000000E+00  0.00000000000E+00  0.29456845550E+02  0.29456845550E+02  0.00000000000E+00 0.  1.
          2   -1    0    0  501    0  0.00000000000E+00 -0.00000000000E+00 -0.74201361471E+03  0.74201361471E+03  0.00000000000E+00 0. -1.
         25    2    1    2    0    0 -0.72409282253E+02  0.53323141423E+02 -0.26917402493E+03  0.31014429357E+03  0.12509342738E+03 0.  0.
          5    1    3    3  502    0 -0.56055059404E+02  0.67071933263E+02 -0.76472055630E+02  0.11621644294E+03  0.41800000000E+01 0. -1.
         -5    1    3    3    0  502 -0.16354222849E+02 -0.13748791840E+02 -0.19270196930E+03  0.19392785064E+03  0.41800000000E+01 0. -1.
        -11    1    1    2    0    0  0.31765372434E+02 -0.67198511845E+02 -0.35933038543E+03  0.36693733086E+03  0.00000000000E+00 0. -1.
         11    1    1    2    0    0  0.40643909819E+02  0.13875370422E+02 -0.84052358797E+02  0.94388835828E+02  0.00000000000E+00 0.  1.
</event>
<event>
 7    1  0.2900135E-009  0.1107206E+03  0.7561462E-02  0.1259241E+00
          2   -1    0    0  501    0  0.00000000000E+00  0.00000000000E+00  0.13569677314E+04  0.13569677314E+04  0.00000000000E+00 0. -1.
         -2   -1    0    0    0  501 -0.00000000000E+00 -0.00000000000E+00 -0.19426127145E+02  0.19426127145E+02  0.00000000000E+00 0.  1.
         25    2    1    2    0    0 -0.30910530576E+02 -0.13354494971E+02  0.12102669428E+04  0.12171794731E+04  0.12508394541E+03 0.  0.
          5    1    3    3  502    0 -0.36796365337E+01 -0.66476775565E+02  0.50674370064E+03  0.51111579114E+03  0.41800000000E+01 0.  1.
         -5    1    3    3    0  502 -0.27230894042E+02  0.53122280593E+02  0.70352324219E+03  0.70606368196E+03  0.41800000000E+01 0.  1.
        -11    1    1    2    0    0  0.42660497276E+02 -0.28574562939E+02  0.78814467861E+02  0.94064573667E+02  0.00000000000E+00 0.  1.
         11    1    1    2    0    0 -0.11749966700E+02  0.41929057910E+02  0.48460193581E+02  0.65149811792E+02  0.00000000000E+00 0. -1.
</event>
<event>
 7    1  0.2900135E-009  0.8081131E+02  0.7561462E-02  0.1326765E+00
         -4   -1    0    0    0  501 -0.00000000000E+00  0.00000000000E+00  0.73145655087E+02  0.73145655087E+02  0.00000000000E+00 0.  1.
          4   -1    0    0  501    0  0.00000000000E+00 -0.00000000000E+00 -0.23128651569E+03  0.23128651569E+03  0.00000000000E+00 0. -1.
         25    2    1    2    0    0  0.13093646621E+02  0.13198109345E+01 -0.30030113431E+01  0.12580910262E+03  0.12508287949E+03 0.  0.
          5    1    3    3  502    0  0.34845266832E+02 -0.26935105497E+02  0.46809262726E+02  0.64407080400E+02  0.41800000000E+01 0.  1.
         -5    1    3    3    0  502 -0.21751620211E+02  0.28254916431E+02 -0.49812274069E+02  0.61402022216E+02  0.41800000000E+01 0.  1.
        -11    1    1    2    0    0  0.29970747398E+02  0.17253193530E+02 -0.10223272932E+03  0.10792334933E+03  0.00000000000E+00 0. -1.
         11    1    1    2    0    0 -0.43064394019E+02 -0.18573004465E+02 -0.52905119946E+02  0.70699718836E+02  0.00000000000E+00 0.  1.
</event>
<event>
 7    1  0.2900135E-009  0.1024818E+03  0.7561462E-02  0.1275162E+00
          2   -1    0    0  501    0  0.00000000000E+00  0.00000000000E+00  0.24173297968E+03  0.24173297968E+03  0.00000000000E+00 0. -1.
         -2   -1    0    0    0  501 -0.00000000000E+00 -0.00000000000E+00 -0.58704149026E+02  0.58704149026E+02  0.00000000000E+00 0.  1.
         25    2    1    2    0    0  0.22653347571E+02 -0.32644315652E+02  0.66556543647E+02  0.14715993474E+03  0.12508975733E+03 0.  0.
          5    1    3    3  502    0  0.67732446654E+02 -0.14933808376E+02  0.69733904896E+02  0.98442840544E+02  0.41800000000E+01 0. -1.
         -5    1    3    3    0  502 -0.45079099084E+02 -0.17710507275E+02 -0.31773612492E+01  0.48717094194E+02  0.41800000000E+01 0. -1.
        -11    1    1    2    0    0 -0.15850181233E+02  0.58251677188E+02  0.40188727212E+02  0.72523237209E+02  0.00000000000E+00 0.  1.
         11    1    1    2    0    0 -0.68031663375E+01 -0.25607361537E+02  0.76283559797E+02  0.80753956760E+02  0.00000000000E+00 0. -1.
</event>
<event>
 7    1  0.2900135E-009  0.1532881E+03  0.7561462E-02  0.1196490E+00
         -3   -1    0    0    0  501 -0.00000000000E+00  0.00000000000E+00  0.10023097037E+03  0.10023097037E+03  0.00000000000E+00 0.  1.
          3   -1    0    0  501    0  0.00000000000E+00 -0.00000000000E+00 -0.40048635568E+03  0.40048635568E+03  0.00000000000E+00 0. -1.
         25    2    1    2    0    0 -0.85382014624E+02  0.73344408742E+02 -0.47493269582E+00  0.16827732689E+03  0.12509013738E+03 0.  0.
          5    1    3    3  502    0 -0.10180252028E+03  0.99223011561E+01  0.42718452092E+01  0.10245938833E+03  0.41800000000E+01 0.  1.
         -5    1    3    3    0  502  0.16420505651E+02  0.63422107586E+02 -0.47467779050E+01  0.65817938565E+02  0.41800000000E+01 0.  1.
        -11    1    1    2    0    0  0.41410852173E+02 -0.83701274809E+02 -0.23986782017E+03  0.25740499847E+03  0.00000000000E+00 0.  1.
         11    1    1    2    0    0  0.43971162451E+02  0.10356866067E+02 -0.59912632441E+02  0.75035000687E+02  0.00000000000E+00 0. -1.
</event>
<event>
 7    1  0.2900135E-009  0.2621214E+03  0.7561462E-02  0.1105875E+00
          1   -1    0    0  501    0  0.00000000000E+00  0.00000000000E+00  0.11109359844E+03  0.11109359844E+03  0.00000000000E+00 0. -1.
         -1   -1    0    0    0  501 -0.00000000000E+00 -0.00000000000E+00 -0.92401272656E+03  0.92401272656E+03  0.00000000000E+00 0.  1.
         25    2    1    2    0    0  0.24303023077E+03  0.26299618198E+02 -0.12979774930E+03  0.30372802705E+03  0.12509154930E+03 0.  0.
          5    1    3    3  502    0  0.22897826285E+03 -0.68786871178E+01 -0.81193548559E+02  0.24308069837E+03  0.41800000000E+01 0. -1.
         -5    1    3    3    0  502  0.14051967918E+02  0.33178305315E+02 -0.48604200739E+02  0.60647328675E+02  0.41800000000E+01 0. -1.
        -11    1    1    2    0    0 -0.17615968472E+03 -0.57161021274E+02 -0.53090703643E+03  0.56228275645E+03  0.00000000000E+00 0.  1.
         11    1    1    2    0    0 -0.66870546045E+02  0.30861403076E+02 -0.15221434239E+03  0.16909554151E+03  0.00000000000E+00 0. -1.
</event>
<event>
 7    1  0.2900135E-009  0.9470160E+02  0.7561462E-02  0.1291850E+00
          2   -1    0    0  501    0  0.00000000000E+00  0.00000000000E+00  0.11844111859E+04  0.11844111859E+04  0.00000000000E+00 0. -1.
         -2   -1    0    0    0  501 -0.00000000000E+00 -0.00000000000E+00 -0.12314305034E+02  0.12314305034E+02  0.00000000000E+00 0.  1.
         25    2    1    2    0    0  0.95737538449E+01 -0.21109657890E+02  0.89426783014E+03  0.90327215774E+03  0.12509342311E+03 0.  0.
          5    1    3    3  502    0  0.37868695327E+02 -0.52588155012E+02  0.75158172079E+03  0.75438193746E+03  0.41800000000E+01 0. -1.
         -5    1    3    3    0  502 -0.28294941482E+02  0.31478497122E+02  0.14268610934E+03  0.14889022028E+03  0.41800000000E+01 0. -1.
        -11    1    1    2    0    0 -0.29342544066E+02 -0.20548236072E+02  0.53171799447E+02  0.64112831433E+02  0.00000000000E+00 0.  1.
         11    1    1    2    0    0  0.19768790221E+02  0.41657893962E+02  0.22465725132E+03  0.22934050180E+03  0.00000000000E+00 0. -1.
</event>
<event>
 7    1  0.2900135E-009  0.1078572E+03  0.7561462E-02  0.1264590E+00
         -2   -1    0    0    0  501 -0.00000000000E+00  0.00000000000E+00  0.61710165015E+02  0.61710165015E+02  0.00000000000E+00 0. -1.
          2   -1    0    0  501    0  0.00000000000E+00 -0.00000000000E+00 -0.26784362969E+03  0.26784362969E+03  0.00000000000E+00 0.  1.
         25    2    1    2    0    0  0.29166177439E+02  0.79306788616E+01 -0.36875688130E+02  0.13389361847E+03  0.12511643824E+03 0.  0.
          5    1    3    3  502    0  0.11717561249E+02  0.61240495549E+02 -0.45074264781E+02  0.77051030378E+02  0.41800000000E+01 0. -1.
         -5    1    3    3    0  502  0.17448616190E+02 -0.53309816688E+02  0.81985766508E+01  0.56842588095E+02  0.41800000000E+01 0. -1.
        -11    1    1    2    0    0  0.20256906840E+02 -0.35137224268E+02 -0.86056524174E+02  0.95135125778E+02  0.00000000000E+00 0.  1.
         11    1    1    2    0    0 -0.49423084279E+02  0.27206545406E+02 -0.83201252367E+02  0.10052505045E+03  0.00000000000E+00 0. -1.
</event>
<event>
 7    1  0.2900135E-009  0.1216789E+03  0.7561462E-02  0.1240353E+00
         -2   -1    0    0    0  501 -0.00000000000E+00  0.00000000000E+00  0.82800271977E+02  0.82800271977E+02  0.00000000000E+00 0.  1.
          2   -1    0    0  501    0  0.00000000000E+00 -0.00000000000E+00 -0.52681217270E+03  0.52681217270E+03  0.00000000000E+00 0. -1.
         25    2    1    2    0    0 -0.58907620927E+02 -0.20456862027E+02 -0.47502414655E+03  0.49515756378E+03  0.12507790437E+03 0.  0.
          5    1    3    3  502    0 -0.86568662063E+02 -0.48956226845E+02 -0.35289477915E+03  0.36666475553E+03  0.41800000000E+01 0. -1.
         -5    1    3    3    0  502  0.27661041136E+02  0.28499364817E+02 -0.12212936740E+03  0.12849280826E+03  0.41800000000E+01 0. -1.
        -11    1    1    2    0    0  0.27161744211E+02 -0.32366395667E+02  0.31699466634E+02  0.52822344722E+02  0.00000000000E+00 0.  1.
         11    1    1    2    0    0  0.31745876716E+02  0.52823257694E+02 -0.68722080639E+00  0.61632536167E+02  0.00000000000E+00 0. -1.
</event>
<event>
 7    1  0.2900135E-009  0.8879408E+02  0.7561462E-02  0.1305799E+00
          1   -1    0    0  501    0  0.00000000000E+00  0.00000000000E+00  0.37705899231E+03  0.37705899231E+03  0.00000000000E+00 0. -1.
         -1   -1    0    0    0  501 -0.00000000000E+00 -0.00000000000E+00 -0.80893619143E+02  0.80893619143E+02  0.00000000000E+00 0.  1.
         25    2    1    2    0    0 -0.45717667582E+02 -0.13410748710E+02  0.32465780674E+03  0.35117088232E+03  0.12509334037E+03 0.  0.
          5    1    3    3  502    0 -0.15396141094E+02  0.34824772210E+02  0.26795914058E+03  0.27068317152E+03  0.41800000000E+01 0. -1.
         -5    1    3    3    0  502 -0.30321526488E+02 -0.48235520920E+02  0.56698666157E+02  0.80487710807E+02  0.41800000000E+01 0. -1.
        -11    1    1    2    0    0 -0.17574656574E+02  0.52336545493E+01 -0.38062864928E+02  0.42249750060E+02  0.00000000000E+00 0. -1.
         11    1    1    2    0    0  0.63292324156E+02  0.81770941607E+01  0.95704313514E+01  0.64531979067E+02  0.00000000000E+00 0.  1.
</event>
<event>
 7    1  0.2900135E-009  0.1255500E+03  0.7561462E-02  0.1234212E+00
         -1   -1    0    0    0  501 -0.00000000000E+00  0.00000000000E+00  0.20338109383E+03  0.20338109383E+03  0.00000000000E+00 0.  1.
          1   -1    0    0  501    0  0.00000000000E+00 -0.00000000000E+00 -0.12336519554E+03  0.12336519554E+03  0.00000000000E+00 0. -1.
         25    2    1    2    0    0  0.11331082934E+03 -0.98087002261E+01  0.36067358713E+02  0.17286882338E+03  0.12508885276E+03 0.  0.
          5    1    3    3  502    0  0.92776962732E+02  0.19100851284E+01  0.80138585452E+02  0.12268202198E+03  0.41800000000E+01 0. -1.
         -5    1    3    3    0  502  0.20533866606E+02 -0.11718785354E+02 -0.44071226739E+02  0.50186801395E+02  0.41800000000E+01 0. -1.
        -11    1    1    2    0    0 -0.91189759011E+02 -0.23542356371E+02 -0.34720382923E+00  0.94180333629E+02  0.00000000000E+00 0. -1.
         11    1    1    2    0    0 -0.22121070327E+02  0.33351056597E+02  0.44295743408E+02  0.59697132365E+02  0.00000000000E+00 0.  1.
</event>
<event>
 7    1  0.2900135E-009  0.9774274E+02  0.7561462E-02  0.1285116E+00
          2   -1    0    0  501    0  0.00000000000E+00  0.00000000000E+00  0.12415614991E+03  0.12415614991E+03  0.00000000000E+00 0. -1.
         -2   -1    0    0    0  501 -0.00000000000E+00 -0.00000000000E+00 -0.10478470562E+03  0.10478470562E+03  0.00000000000E+00 0.  1.
         25    2    1    2    0    0  0.27531789944E+02  0.89175034992E+00  0.30206681026E+02  0.13159717570E+03  0.12508628381E+03 0.  0.
          5    1    3    3  502    0  0.37900782388E+02  0.44554772295E+02  0.54791144776E+02  0.80256706796E+02  0.41800000000E+01 0.  1.
         -5    1    3    3    0  502 -0.10368992444E+02 -0.43663021945E+02 -0.24584463750E+02  0.51340468906E+02  0.41800000000E+01 0.  1.
        -11    1    1    2    0    0 -0.32931962399E+02 -0.40271410292E+02 -0.21342880841E+02  0.56230055993E+02  0.00000000000E+00 0.  1.
         11    1    1    2    0    0  0.54001724557E+01  0.39379659942E+02  0.10507644103E+02  0.41113623829E+02  0.00000000000E+00 0. -1.
</event>
<event>
 7    1  0.2900135E-009  0.1168853E+03  0.7561462E-02  0.1248326E+00
          1   -1    0    0  501    0  0.00000000000E+00  0.00000000000E+00  0.10340665837E+04  0.10340665837E+04  0.00000000000E+00 0. -1.
         -1   -1    0    0    0  501 -0.00000000000E+00 -0.00000000000E+00 -0.15283816739E+02  0.15283816739E+02  0.00000000000E+00 0.  1.
         25    2    1    2    0    0 -0.99521625171E+01  0.56131946921E+02  0.67814309834E+03  0.69193620006E+03  0.12509117524E+03 0.  0.
          5    1    3    3  502    0 -0.16066812609E+02 -0.33834177698E+02  0.10151696156E+03  0.10828693334E+03  0.41800000000E+01 0.  1.
         -5    1    3    3    0  502  0.61146500919E+01  0.89966124619E+02  0.57662613678E+03  0.58364926672E+03  0.41800000000E+01 0.  1.
        -11    1    1    2    0    0  0.49060983584E+02 -0.21467619329E+02  0.20972145455E+03  0.21645075026E+03  0.00000000000E+00 0. -1.
         11    1    1    2    0    0 -0.39108821067E+02 -0.34664327591E+02  0.13091821403E+03  0.14096345008E+03  0.00000000000E+00 0.  1.
</event>
<event>
 7    1  0.2900135E-009  0.1107186E+03  0.7561462E-02  0.1259245E+00
         -1   -1    0    0    0  501 -0.00000000000E+00  0.00000000000E+00  0.25247670275E+02  0.25247670275E+02  0.00000000000E+00 0.  1.
          1   -1    0    0  501    0  0.00000000000E+00 -0.00000000000E+00 -0.10087284383E+04  0.10087284383E+04  0.00000000000E+00 0. -1.
         25    2    1    2    0    0  0.52798471152E+02 -0.60533036596E+00 -0.86220245086E+03  0.87282792429E+03  0.12508986441E+03 0.  0.
          5    1    3    3  502    0  0.35557982601E+02 -0.53751853804E+02 -0.25521214330E+03  0.26325717921E+03  0.41800000000E+01 0. -1.
         -5    1    3    3    0  502  0.17240488551E+02  0.53146523438E+02 -0.60699030756E+03  0.60957074509E+03  0.41800000000E+01 0. -1.
        -11    1    1    2    0    0  0.23244498611E+02 -0.73183136776E+01 -0.54248441513E+02  0.59470646855E+02  0.00000000000E+00 0. -1.
         11    1    1    2    0    0 -0.76042969763E+02  0.79236440436E+01 -0.67029875626E+02  0.10167753740E+03  0.00000000000E+00 0.  1.
</event>
<event>
 7    1  0.2900135E-009  0.1041139E+03  0.7561462E-02  0.1271875E+00
         -4   -1    0    0    0  501 -0.00000000000E+00  0.00000000000E+00  0.12368051670E+03  0.12368051670E+03  0.00000000000E+00 0.  1.
          4   -1    0    0  501    0  0.00000000000E+00 -0.00000000000E+00 -0.15031433551E+03  0.15031433551E+03  0.00000000000E+00 0. -1.
         25    2    1    2    0    0 -0.70155266121E+02 -0.37083356467E+02 -0.37612449670E+02  0.15284191464E+03  0.12509603435E+03 0.  0.
          5    1    3    3  502    0 -0.77856217428E+01  0.92732496865E+01 -0.68074881599E+02  0.69269552983E+02  0.41800000000E+01 0. -1.
         -5    1    3    3    0  502 -0.62369644379E+02 -0.46356606154E+02  0.30462431929E+02  0.83572361658E+02  0.41800000000E+01 0. -1.
        -11    1    1    2    0    0  0.11609777299E+02  0.55124252171E+02 -0.82714414593E+01  0.56937569759E+02  0.00000000000E+00 0.  1.
         11    1    1    2    0    0  0.58545488822E+02 -0.18040895703E+02  0.19250072313E+02  0.64215367812E+02  0.00000000000E+00 0. -1.
</event>
<event>
 7    1  0.2900135E-009  0.1174846E+03  0.7561462E-02  0.1247305E+00
          2   -1    0    0  501    0  0.00000000000E+00  0.00000000000E+00  0.32852749048E+03  0.32852749048E+03  0.00000000000E+00 0. -1.
         -2   -1    0    0    0  501 -0.00000000000E+00 -0.00000000000E+00 -0.59891358096E+02  0.59891358096E+02  0.00000000000E+00 0.  1.
         25    2    1    2    0    0 -0.36619230942E+02 -0.76029914423E+02  0.10976483277E+03  0.18659570073E+03  0.12509245004E+03 0.  0.
          5    1    3    3  502    0 -0.21907402245E+02  0.24182632323E+02  0.70658763931E+02  0.77941435062E+02  0.41800000000E+01 0. -1.
         -5    1    3    3    0  502 -0.14711828696E+02 -0.10021254675E+03  0.39106068836E+02  0.10865426567E+03  0.41800000000E+01 0. -1.
        -11    1    1    2    0    0  0.18700057761E+02  0.80158445154E+02  0.61547154701E+02  0.10277704385E+03  0.00000000000E+00 0.  1.
         11    1    1    2    0    0  0.17919173180E+02 -0.41285307315E+01  0.97324144915E+02  0.99046103996E+02  0.00000000000E+00 0. -1.
</event>
<event>
 7    1  0.2900135E-009  0.1702659E+03  0.7561462E-02  0.1177571E+00
          2   -1    0    0  501    0  0.00000000000E+00  0.00000000000E+00  0.45219078224E+03  0.45219078224E+03  0.00000000000E+00 0. -1.
         -2   -1    0    0    0  501 -0.00000000000E+00 -0.00000000000E+00 -0.87522030226E+02  0.87522030226E+02  0.00000000000E+00 0.  1.
         25    2    1    2    0    0  0.11513807369E+03  0.10257377033E+03  0.27522685340E+03  0.33937502106E+03  0.12508968667E+03 0.  0.
          5    1    3    3  502    0  0.12105323337E+03  0.46446652409E+02  0.13063963519E+03  0.18410693499E+03  0.41800000000E+01 0.  1.
         -5    1    3    3    0  502 -0.59151596795E+01  0.56127117919E+02  0.14458721821E+03  0.15526808607E+03  0.41800000000E+01 0.  1.
        -11    1    1    2    0    0 -0.90628033639E+02 -0.81801922855E+02  0.10820173241E+03  0.16313371804E+03  0.00000000000E+00 0. -1.
         11    1    1    2    0    0 -0.24510040053E+02 -0.20771847472E+02 -0.18759833802E+02  0.37204073367E+02  0.00000000000E+00 0.  1.
</event>
<event>
 7    1  0.2900135E-009  0.2604093E+03  0.7561462E-02  0.1106898E+00
          2   -1    0    0  501    0  0.00000000000E+00  0.00000000000E+00  0.59725966418E+03  0.59725966418E+03  0.00000000000E+00 0. -1.
         -2   -1    0    0    0  501 -0.00000000000E+00 -0.00000000000E+00 -0.12416703863E+03  0.12416703863E+03  0.00000000000E+00 0.  1.
         25    2    1    2    0    0  0.76142157082E+01  0.24801150083E+03  0.26986125260E+03  0.38735113344E+03  0.12509246220E+03 0.  0.
          5    1    3    3  502    0 -0.20561972604E+02  0.21132476740E+03  0.15341041395E+03  0.26197934946E+03  0.41800000000E+01 0.  1.
         -5    1    3    3    0  502  0.28176188312E+02  0.36686733430E+02  0.11645083864E+03  0.12537178398E+03  0.41800000000E+01 0.  1.
        -11    1    1    2    0    0  0.28036107683E+02 -0.20131855248E+03  0.13485471351E+03  0.24392822031E+03  0.00000000000E+00 0.  1.
         11    1    1    2    0    0 -0.35650323391E+02 -0.46692948349E+02  0.68376659449E+02  0.90147349051E+02  0.00000000000E+00 0. -1.
</event>
<event>
 7    1  0.2900135E-009  0.1668339E+03  0.7561462E-02  0.1181190E+00
         -2   -1    0    0    0  501 -0.00000000000E+00  0.00000000000E+00  0.21021368142E+03  0.21021368142E+03  0.00000000000E+00 0.  1.
          2   -1    0    0  501    0  0.00000000000E+00 -0.00000000000E+00 -0.22144396082E+03  0.22144396082E+03  0.00000000000E+00 0. -1.
         25    2    1    2    0    0  0.15573004646E+03  0.38458186966E+02 -0.10001441896E+03  0.22664456774E+03  0.12503598111E+03 0.  0.
          5    1    3    3  502    0  0.18921307860E+02  0.16180432863E+02 -0.83211463791E+02  0.86956554699E+02  0.41800000000E+01 0.  1.
         -5    1    3    3    0  502  0.13680873860E+03  0.22277754103E+02 -0.16802955165E+02  0.13968801304E+03  0.41800000000E+01 0.  1.
        -11    1    1    2    0    0 -0.83187496351E+01  0.11419668269E+02 -0.12887543342E+02  0.19123263118E+02  0.00000000000E+00 0. -1.
         11    1    1    2    0    0 -0.14741129682E+03 -0.49877855235E+02  0.10167168289E+03  0.18588981138E+03  0.00000000000E+00 0.  1.
</event>
<event>
 7    1  0.2900135E-009  0.9801559E+02  0.7561462E-02  0.1284525E+00
         -2   -1    0    0    0  501 -0.00000000000E+00  0.00000000000E+00  0.52979422557E+02  0.52979422557E+02  0.00000000000E+00 0.  1.
          2   -1    0    0  501    0  0.00000000000E+00 -0.00000000000E+00 -0.25450134655E+03  0.25450134655E+03  0.00000000000E+00 0. -1.
         25    2    1    2    0    0  0.20823200509E+02 -0.34267503274E+02 -0.99002841928E+02  0.16449048397E+03  0.12509072367E+03 0.  0.
          5    1    3    3  502    0 -0.20773001185E+02  0.19557090917E+02  0.14364024734E+02  0.32214825623E+02  0.41800000000E+01 0. -1.
         -5    1    3    3    0  502  0.41596201694E+02 -0.53824594191E+02 -0.11336686666E+03  0.13227565835E+03  0.41800000000E+01 0. -1.
        -11    1    1    2    0    0  0.34279973978E+02  0.26640482787E+02 -0.37012151701E+02  0.57050252520E+02  0.00000000000E+00 0.  1.
         11    1    1    2    0    0 -0.55103174487E+02  0.76270204869E+01 -0.65506930368E+02  0.85940032617E+02  0.00000000000E+00 0. -1.
</event>
<event>
 7    1  0.2900135E-009  0.9705359E+02  0.7561462E-02  0.1286617E+00
         -1   -1    0    0    0  501 -0.00000000000E+00  0.00000000000E+00  0.32574628761E+02  0.32574628761E+02  0.00000000000E+00 0.  1.
          1   -1    0    0  501    0  0.00000000000E+00 -0.00000000000E+00 -0.52729354244E+03  0.52729354244E+03  0.00000000000E+00 0. -1.
         25    2    1    2    0    0  0.23180650744E+02  0.33673516148E+02 -0.40216747360E+03  0.42315168884E+03  0.12508967460E+03 0.  0.
          5    1    3    3  502    0 -0.25869168788E+02  0.37161978715E+02 -0.34345934638E+03  0.34645637759E+03  0.41800000000E+01 0.  1.
         -5    1    3    3    0  502  0.49049819532E+02 -0.34884625664E+01 -0.58708127220E+02  0.76695311257E+02  0.41800000000E+01 0.  1.
        -11    1    1    2    0    0  0.20523322184E+02 -0.48877192355E+02 -0.38231232434E+02  0.65359114280E+02  0.00000000000E+00 0.  1.
         11    1    1    2    0    0 -0.43703972929E+02  0.15203676207E+02 -0.54320207645E+02  0.71357368075E+02  0.00000000000E+00 0. -1.
</event>
<event>
 7    1  0.2900135E-009  0.7807324E+02  0.7561462E-02  0.1334610E+00
          2   -1    0    0  501    0  0.00000000000E+00  0.00000000000E+00  0.31000458221E+03  0.31000458221E+03  0.00000000000E+00 0. -1.
         -2   -1    0    0    0  501 -0.00000000000E+00 -0.00000000000E+00 -0.47761275157E+02  0.47761275157E+02  0.00000000000E+00 0.  1.
         25    2    1    2    0    0 -0.65878904995E+01  0.52163693025E+02  0.17564886903E+03  0.22195590620E+03  0.12508975951E+03 0.  0.
          5    1    3    3  502    0  0.29203734281E+02  0.27088141887E+00  0.15145936918E+03  0.15430600891E+03  0.41800000000E+01 0.  1.
         -5    1    3    3    0  502 -0.35791624780E+02  0.51892811607E+02  0.24189499854E+02  0.67649897295E+02  0.41800000000E+01 0.  1.
        -11    1    1    2    0    0 -0.13401710284E+02 -0.97336300992E+01 -0.15983304109E+02  0.23017719341E+02  0.00000000000E+00 0.  1.
         11    1    1    2    0    0  0.19989600783E+02 -0.42430062926E+02  0.10257774213E+03  0.11279223182E+03  0.00000000000E+00 0. -1.
</event>
<event>
 7    1  0.2900135E-009  0.9637095E+02  0.7561462E-02  0.1288118E+00
         -1   -1    0    0    0  501 -0.00000000000E+00  0.00000000000E+00  0.25122167009E+03  0.25122167009E+03  0.00000000000E+00 0.  1.
          1   -1    0    0  501    0  0.00000000000E+00 -0.00000000000E+00 -0.61026472357E+02  0.61026472357E+02  0.00000000000E+00 0. -1.
         25    2    1    2    0    0  0.43856804628E+02  0.15161131755E+02  0.59651816797E+02  0.14614692441E+03  0.12508918834E+03 0.  0.
          5    1    3    3  502    0 -0.20008236677E+02  0.49467418320E+02  0.22301032832E+01  0.53570521473E+02  0.41800000000E+01 0.  1.
         -5    1    3    3    0  502  0.63865041305E+02 -0.34306286565E+02  0.57421713514E+02  0.92576402942E+02  0.41800000000E+01 0.  1.
        -11    1    1    2    0    0 -0.22019390543E+02 -0.32126548067E+02  0.70896390638E+01  0.39588276455E+02  0.00000000000E+00 0. -1.
         11    1    1    2    0    0 -0.21837414084E+02  0.16965416312E+02  0.12345374187E+03  0.12651294157E+03  0.00000000000E+00 0.  1.
</event>
<event>
 7    1  0.2900135E-009  0.1319082E+03  0.7561462E-02  0.1224651E+00
          2   -1    0    0  501    0  0.00000000000E+00  0.00000000000E+00  0.58988850473E+03  0.58988850473E+03  0.00000000000E+00 0. -1.
         -2   -1    0    0    0  501 -0.00000000000E+00 -0.00000000000E+00 -0.31544929280E+02  0.31544929280E+02  0.00000000000E+00 0.  1.
         25    2    1    2    0    0 -0.43516094451E+02  0.70727726657E+02  0.30826503222E+03  0.34288634787E+03  0.12509058987E+03 0.  0.
          5    1    3    3  502    0 -0.69999469798E+01 -0.31851775679E+02  0.31879342105E+02  0.45796285053E+02  0.41800000000E+01 0. -1.
         -5    1    3    3    0  502 -0.36516147471E+02  0.10257950234E+03  0.27638569011E+03  0.29709006282E+03  0.41800000000E+01 0. -1.
        -11    1    1    2    0    0  0.31643191084E+02  0.15286845143E+02  0.59156536080E+02  0.68807520936E+02  0.00000000000E+00 0. -1.
         11    1    1    2    0    0  0.11872903366E+02 -0.86014571801E+02  0.19092200715E+03  0.20973956520E+03  0.00000000000E+00 0.  1.
</event>
<event>
 7    1  0.2900135E-009  0.1176284E+03  0.7561462E-02  0.1247062E+00
         -3   -1    0    0    0  501 -0.00000000000E+00  0.00000000000E+00  0.38444597476E+02  0.38444597476E+02  0.00000000000E+00 0.  1.
          3   -1    0    0  501    0  0.00000000000E+00 -0.00000000000E+00 -0.51706054552E+03  0.51706054552E+03  0.00000000000E+00 0. -1.
         25    2    1    2    0    0 -0.48230549199E+02  0.35754137333E+02 -0.15363801609E+03  0.20701937578E+03  0.12509131764E+03 0.  0.
          5    1    3    3  502    0 -0.29026394216E+02 -0.42737461463E+02 -0.31957486907E+02  0.60891506328E+02  0.41800000000E+01 0. -1.
         -5    1    3    3    0  502 -0.19204154983E+02  0.78491598795E+02 -0.12168052918E+03  0.14612786946E+03  0.41800000000E+01 0. -1.
        -11    1    1    2    0    0 -0.18903264301E+02  0.98856919678E+01 -0.10647005635E+02  0.23841540133E+02  0.00000000000E+00 0.  1.
         11    1    1    2    0    0  0.67133813500E+02 -0.45639829300E+02 -0.31433092632E+03  0.32464422708E+03  0.00000000000E+00 0. -1.
</event>
<event>
 7    1  0.2900135E-009  0.8833022E+02  0.7561462E-02  0.1306946E+00
          2   -1    0    0  501    0  0.00000000000E+00  0.00000000000E+00  0.28281641815E+03  0.28281641815E+03  0.00000000000E+00 0. -1.
         -2   -1    0    0    0  501 -0.00000000000E+00 -0.00000000000E+00 -0.49067023820E+02  0.49067023820E+02  0.00000000000E+00 0.  1.
         25    2    1    2    0    0  0.89479130255E+01 -0.28191245992E+02  0.85581413585E+02  0.15442401325E+03  0.12509111087E+03 0.  0.
          5    1    3    3  502    0  0.56557600181E+02 -0.35803579355E+02  0.14803443629E+02  0.68682405142E+02  0.41800000000E+01 0.  1.
         -5    1    3    3    0  502 -0.47609687155E+02  0.76123333632E+01  0.70777969956E+02  0.85741608111E+02  0.41800000000E+01 0.  1.
        -11    1    1    2    0    0 -0.31068016884E+01 -0.16163496922E+02 -0.55450658403E+01  0.17368321872E+02  0.00000000000E+00 0.  1.
         11    1    1    2    0    0 -0.58411113371E+01  0.44354742914E+02  0.15371304658E+03  0.16009110684E+03  0.00000000000E+00 0. -1.
</event>
<event>
 7    1  0.2900135E-009  0.1885765E+03  0.7561462E-02  0.1159752E+00
          2   -1    0    0  501    0  0.00000000000E+00  0.00000000000E+00  0.60048959026E+03  0.60048959026E+03  0.00000000000E+00 0. -1.
         -2   -1    0    0    0  501 -0.00000000000E+00 -0.00000000000E+00 -0.80897397380E+02  0.80897397380E+02  0.00000000000E+00 0.  1.
         25    2    1    2    0    0  0.17497239245E+03 -0.47018537331E+02  0.17253413330E+03  0.27969140012E+03  0.12503268043E+03 0.  0.
          5    1    3    3  502    0  0.57868090959E+02  0.16559756038E+02  0.12384890130E+03  0.13776416162E+03  0.41800000000E+01 0.  1.
         -5    1    3    3    0  502  0.11710430149E+03 -0.63578293369E+02  0.48685231997E+02  0.14192723851E+03  0.41800000000E+01 0. -1.
        -11    1    1    2    0    0 -0.78261622461E+02  0.36066794355E+02  0.80496562467E+02  0.11792112523E+03  0.00000000000E+00 0.  1.
         11    1    1    2    0    0 -0.96710769991E+02  0.10951742976E+02  0.26656149711E+03  0.28377446229E+03  0.00000000000E+00 0. -1.
</event>
<event>
 7    1  0.2900135E-009  0.9847744E+02  0.7561462E-02  0.1283531E+00
         -4   -1    0    0    0  501 -0.00000000000E+00  0.00000000000E+00  0.77282135483E+02  0.77282135483E+02  0.00000000000E+00 0.  1.
          4   -1    0    0  501    0  0.00000000000E+00 -0.00000000000E+00 -0.26840288184E+03  0.26840288184E+03  0.00000000000E+00 0. -1.
         25    2    1    2    0    0 -0.18714238830E+02  0.12543342447E+02 -0.76973428695E+02  0.14859409933E+03  0.12509092476E+03 0.  0.
          5    1    3    3  502    0 -0.17895816070E+02 -0.43648877571E+01 -0.10980597725E+03  0.11141874850E+03  0.41800000000E+01 0. -1.
         -5    1    3    3    0  502 -0.81842275942E+00  0.16908230204E+02  0.32832548557E+02  0.37175350828E+02  0.41800000000E+01 0. -1.
        -11    1    1    2    0    0  0.45300769335E+02 -0.77876615552E+02 -0.61796424849E+02  0.10925074405E+03  0.00000000000E+00 0.  1.
         11    1    1    2    0    0 -0.26586530505E+02  0.65333273104E+02 -0.52350892808E+02  0.87840173933E+02  0.00000000000E+00 0. -1.
</event>
<event>
 7    1  0.2900135E-009  0.2947979E+03  0.7561462E-02  0.1087870E+00
         -2   -1    0    0    0  501 -0.00000000000E+00  0.00000000000E+00  0.28178611541E+03  0.28178611541E+03  0.00000000000E+00 0. -1.
          2   -1    0    0  501    0  0.00000000000E+00 -0.00000000000E+00 -0.69921634386E+03  0.69921634386E+03  0.00000000000E+00 0.  1.
         25    2    1    2    0    0  0.13848769184E+03  0.25685481932E+03 -0.55957218932E+03  0.64336762906E+03  0.12509049551E+03 0.  0.
          5    1    3    3  502    0  0.11781180075E+03  0.21471246188E+03 -0.34150868096E+03  0.42026981007E+03  0.41800000000E+01 0. -1.
         -5    1    3    3    0  502  0.20675891086E+02  0.42142357441E+02 -0.21806350835E+03  0.22309781899E+03  0.41800000000E+01 0. -1.
        -11    1    1    2    0    0 -0.11305107098E+03 -0.24422900373E+03  0.10059732954E+03  0.28731197960E+03  0.00000000000E+00 0.  1.
         11    1    1    2    0    0 -0.25436620857E+02 -0.12625815597E+02  0.41544631336E+02  0.50322850605E+02  0.00000000000E+00 0. -1.
</event>
<event>
 7    1  0.2900135E-009  0.9790578E+02  0.7561462E-02  0.1284762E+00
         -3   -1    0    0    0  501 -0.00000000000E+00  0.00000000000E+00  0.21458733292E+04  0.21458733292E+04  0.00000000000E+00 0.  1.
          3   -1    0    0  501    0  0.00000000000E+00 -0.00000000000E+00 -0.77608882258E+01  0.77608882258E+01  0.00000000000E+00 0. -1.
         25    2    1    2    0    0 -0.13605287715E+02  0.42242989361E+01  0.17907556730E+04  0.17951748897E+04  0.12507619937E+03 0.  0.
          5    1    3    3  502    0 -0.49200974070E+02 -0.33098487241E+02  0.13638207001E+04  0.13651156068E+04  0.41800000000E+01 0. -1.
         -5    1    3    3    0  502  0.35595686356E+02  0.37322786178E+02  0.42693497298E+03  0.43005928290E+03  0.41800000000E+01 0. -1.
        -11    1    1    2    0    0  0.48973238758E+02  0.23500704865E+00  0.25069371575E+03  0.25543252036E+03  0.00000000000E+00 0.  1.
         11    1    1    2    0    0 -0.35367951043E+02 -0.44593059847E+01  0.96663052186E+02  0.10302680733E+03  0.00000000000E+00 0. -1.
</event>
<event>
 7    1  0.2900135E-009  0.2059880E+03  0.7561462E-02  0.1144783E+00
          2   -1    0    0  501    0  0.00000000000E+00  0.00000000000E+00  0.42460184441E+03  0.42460184441E+03  0.00000000000E+00 0. -1.
         -2   -1    0    0    0  501 -0.00000000000E+00 -0.00000000000E+00 -0.11074965380E+03  0.11074965380E+03  0.00000000000E+00 0.  1.
         25    2    1    2    0    0 -0.14806385080E+03  0.11120013767E+03  0.19745634048E+03  0.29820321589E+03  0.12509107497E+03 0.  0.
          5    1    3    3  502    0  0.76187360092E+01  0.41090482191E+02  0.81750132923E+02  0.91907722733E+02  0.41800000000E+01 0.  1.
         -5    1    3    3    0  502 -0.15568258681E+03  0.70109655478E+02  0.11570620756E+03  0.20629549315E+03  0.41800000000E+01 0.  1.
        -11    1    1    2    0    0  0.25342076062E+02  0.94898130974E+01 -0.36372185196E+01  0.27303969131E+02  0.00000000000E+00 0.  1.
         11    1    1    2    0    0  0.12272177474E+03 -0.12068995077E+03  0.12003306865E+03  0.20984431320E+03  0.00000000000E+00 0. -1.
</event>
<event>
 7    1  0.2900135E-009  0.1308180E+03  0.7561462E-02  0.1226247E+00
         -2   -1    0    0    0  501 -0.00000000000E+00  0.00000000000E+00  0.26960119127E+02  0.26960119127E+02  0.00000000000E+00 0.  1.
          2   -1    0    0  501    0  0.00000000000E+00 -0.00000000000E+00 -0.91275536452E+03  0.91275536452E+03  0.00000000000E+00 0. -1.
         25    2    1    2    0    0  0.11476910258E+03  0.51554922519E+01 -0.47264240155E+03  0.50223167956E+03  0.12508914505E+03 0.  0.
          5    1    3    3  502    0  0.11246815085E+03  0.24982068796E+02 -0.21652193391E+03  0.24530065018E+03  0.41800000000E+01 0.  1.
         -5    1    3    3    0  502  0.23009517375E+01 -0.19826576544E+02 -0.25612046763E+03  0.25693102938E+03  0.41800000000E+01 0.  1.
        -11    1    1    2    0    0 -0.53533978762E+01 -0.15168310141E+02 -0.85269240690E+01  0.18205629224E+02  0.00000000000E+00 0.  1.
         11    1    1    2    0    0 -0.10941570471E+03  0.10012817889E+02 -0.40462591978E+03  0.41927817486E+03  0.00000000000E+00 0. -1.
</event>
<event>
 7    1  0.2900135E-009  0.6767116E+02  0.7561462E-02  0.1368196E+00
          4   -1    0    0  501    0  0.00000000000E+00  0.00000000000E+00  0.61956840445E+02  0.61956840445E+02  0.00000000000E+00 0. -1.
         -4   -1    0    0    0  501 -0.00000000000E+00 -0.00000000000E+00 -0.17404374559E+03  0.17404374559E+03  0.00000000000E+00 0.  1.
         25    2    1    2    0    0 -0.22692979741E+01 -0.18239830174E+02 -0.82654430247E+02  0.15105308386E+03  0.12508972054E+03 0.  0.
          5    1    3    3  502    0  0.17931317428E+02  0.15769693704E+02 -0.10339141714E+03  0.10619544680E+03  0.41800000000E+01 0. -1.
         -5    1    3    3    0  502 -0.20200615403E+02 -0.34009523878E+02  0.20736986889E+02  0.44857637056E+02  0.41800000000E+01 0. -1.
        -11    1    1    2    0    0 -0.26651477197E+02  0.29977221331E+02 -0.35009951044E+02  0.53241259448E+02  0.00000000000E+00 0.  1.
         11    1    1    2    0    0  0.28920775171E+02 -0.11737391157E+02  0.55774761487E+01  0.31706242727E+02  0.00000000000E+00 0. -1.
</event>
<event>
 7    1  0.2900135E-009  0.1195934E+03  0.7561462E-02  0.1243769E+00
          4   -1    0    0  501    0  0.00000000000E+00  0.00000000000E+00  0.23158528646E+03  0.23158528646E+03  0.00000000000E+00 0. -1.
         -4   -1    0    0    0  501 -0.00000000000E+00 -0.00000000000E+00 -0.64228728345E+02  0.64228728345E+02  0.00000000000E+00 0.  1.
         25    2    1    2    0    0 -0.18248834924E+02 -0.55862283523E+02  0.10186225561E+03  0.17168819017E+03  0.12508917151E+03 0.  0.
          5    1    3    3  502    0  0.37408663819E+02  0.17789305931E+02  0.52227551607E+02  0.66791145230E+02  0.41800000000E+01 0.  1.
         -5    1    3    3    0  502 -0.55657498743E+02 -0.73651589454E+02  0.49634704005E+02  0.10489704494E+03  0.41800000000E+01 0.  1.
        -11    1    1    2    0    0  0.39319777024E+02 -0.60139007742E+01  0.29346414986E+02  0.49431001813E+02  0.00000000000E+00 0.  1.
         11    1    1    2    0    0 -0.21070942100E+02  0.61876184297E+02  0.36147887512E+02  0.74694822817E+02  0.00000000000E+00 0. -1.
</event>
<event>
 7    1  0.2900135E-009  0.1004319E+03  0.7561462E-02  0.1279390E+00
         -1   -1    0    0    0  501 -0.00000000000E+00  0.00000000000E+00  0.22315309617E+03  0.22315309617E+03  0.00000000000E+00 0.  1.
          1   -1    0    0  501    0  0.00000000000E+00 -0.00000000000E+00 -0.10387367110E+03  0.10387367110E+03  0.00000000000E+00 0. -1.
         25    2    1    2    0    0  0.16187390806E+02 -0.58147835357E+02 -0.16570392796E+02  0.13987818166E+03  0.12509246744E+03 0.  0.
          5    1    3    3  502    0  0.34790760580E+02  0.97442056113E+01  0.36571363232E+02  0.51577936885E+02  0.41800000000E+01 0.  1.
         -5    1    3    3    0  502 -0.18603369774E+02 -0.67892040968E+02 -0.53141756028E+02  0.88300244776E+02  0.41800000000E+01 0.  1.
        -11    1    1    2    0    0  0.15520571028E+02  0.60230583949E+02  0.17508709848E+02  0.64615526682E+02  0.00000000000E+00 0.  1.
         11    1    1    2    0    0 -0.31707961834E+02 -0.20827485926E+01  0.11834110801E+03  0.12253305893E+03  0.00000000000E+00 0. -1.
</event>
<event>
 7    1  0.2900135E-009  0.8605390E+02  0.7561462E-02  0.1312699E+00
          2   -1    0    0  501    0  0.00000000000E+00  0.00000000000E+00  0.21593138466E+03  0.21593138466E+03  0.00000000000E+00 0. -1.
         -2   -1    0    0    0  501 -0.00000000000E+00 -0.00000000000E+00 -0.67731757133E+02  0.67731757133E+02  0.00000000000E+00 0.  1.
         25    2    1    2    0    0  0.47843087503E+02  0.12283274138E+02  0.10990643097E+03  0.17368828264E+03  0.12509338956E+03 0.  0.
          5    1    3    3  502    0  0.73298000354E+02  0.36285349269E+02  0.11158611594E+03  0.13841299468E+03  0.41800000000E+01 0. -1.
         -5    1    3    3    0  502 -0.25454912851E+02 -0.24002075131E+02 -0.16796849667E+01  0.35275287957E+02  0.41800000000E+01 0. -1.
        -11    1    1    2    0    0 -0.15567314425E+02 -0.16197873846E+02 -0.28142758328E+02  0.36010099164E+02  0.00000000000E+00 0.  1.
         11    1    1    2    0    0 -0.32275773078E+02  0.39145997080E+01  0.66435954886E+02  0.73964759989E+02  0.00000000000E+00 0. -1.
</event>
<event>
 7    1  0.2900135E-009  0.9390604E+02  0.7561462E-02  0.1293659E+00
         -1   -1    0    0    0  501 -0.00000000000E+00  0.00000000000E+00  0.61886351651E+02  0.61886351651E+02  0.00000000000E+00 0.  1.
          1   -1    0    0  501    0  0.00000000000E+00 -0.00000000000E+00 -0.25131758615E+03  0.25131758615E+03  0.00000000000E+00 0. -1.
         25    2    1    2    0    0  0.15920812283E+02  0.53320426826E+02 -0.14021050889E+03  0.19596768266E+03  0.12509118939E+03 0.  0.
          5    1    3    3  502    0  0.96888390351E+00 -0.24979038704E+02  0.88778327673E+01  0.26854784029E+02  0.41800000000E+01 0.  1.
         -5    1    3    3    0  502  0.14951928379E+02  0.78299465530E+02 -0.14908834166E+03  0.16911289863E+03  0.41800000000E+01 0.  1.
        -11    1    1    2    0    0  0.22409204019E+02 -0.92687667819E+01  0.16492647539E+02  0.29327289088E+02  0.00000000000E+00 0.  1.
         11    1    1    2    0    0 -0.38330016302E+02 -0.44051660044E+02 -0.65713373144E+02  0.87908966051E+02  0.00000000000E+00 0. -1.
</event>
<event>
 7    1  0.2900135E-009  0.1029449E+03  0.7561462E-02  0.1274222E+00
          2   -1    0    0  501    0  0.00000000000E+00  0.00000000000E+00  0.43698007324E+03  0.43698007324E+03  0.00000000000E+00 0. -1.
         -2   -1    0    0    0  501 -0.00000000000E+00 -0.00000000000E+00 -0.59679146834E+02  0.59679146834E+02  0.00000000000E+00 0.  1.
         25    2    1    2    0    0 -0.11396015809E+02 -0.19011168502E+02  0.38437590399E+03  0.40482639510E+03  0.12509308894E+03 0.  0.
          5    1    3    3  502    0 -0.41396896804E+02 -0.60558259643E+02  0.26151396194E+03  0.27163952320E+03  0.41800000000E+01 0.  1.
         -5    1    3    3    0  502  0.30000880995E+02  0.41547091141E+02  0.12286194205E+03  0.13318687190E+03  0.41800000000E+01 0.  1.
        -11    1    1    2    0    0 -0.29995166723E+02  0.25163808786E+02  0.17953967601E+02  0.43072871415E+02  0.00000000000E+00 0. -1.
         11    1    1    2    0    0  0.41391182532E+02 -0.61526402843E+01 -0.25028945183E+02  0.48759953556E+02  0.00000000000E+00 0.  1.
</event>
<event>
 7    1  0.2900135E-009  0.3341395E+03  0.7561462E-02  0.1069320E+00
         -1   -1    0    0    0  501 -0.00000000000E+00  0.00000000000E+00  0.84698087395E+02  0.84698087395E+02  0.00000000000E+00 0.  1.
          1   -1    0    0  501    0  0.00000000000E+00 -0.00000000000E+00 -0.15298213428E+04  0.15298213428E+04  0.00000000000E+00 0. -1.
         25    2    1    2    0    0 -0.18711725822E+03  0.26903386242E+03 -0.96044236005E+03  0.10224913994E+04  0.12508815874E+03 0.  0.
          5    1    3    3  502    0 -0.86955937153E+02  0.18348998507E+03 -0.42447368874E+03  0.47055849207E+03  0.41800000000E+01 0.  1.
         -5    1    3    3    0  502 -0.10016132107E+03  0.85543877349E+02 -0.53596867131E+03  0.55193290735E+03  0.41800000000E+01 0.  1.
        -11    1    1    2    0    0  0.13646571837E+03 -0.14348480880E+03 -0.22918436271E+03  0.30287993455E+03  0.00000000000E+00 0. -1.
         11    1    1    2    0    0  0.50651539853E+02 -0.12554905361E+03 -0.25549653264E+03  0.28914809621E+03  0.00000000000E+00 0.  1.
</event>
<event>
 7    1  0.2900135E-009  0.9737301E+02  0.7561462E-02  0.1285919E+00
         -2   -1    0    0    0  501 -0.00000000000E+00  0.00000000000E+00  0.17065377456E+03  0.17065377456E+03  0.00000000000E+00 0.  1.
          2   -1    0    0  501    0  0.00000000000E+00 -0.00000000000E+00 -0.12426103470E+03  0.12426103470E+03  0.00000000000E+00 0. -1.
         25    2    1    2    0    0  0.33781982972E+02  0.65876719872E+02 -0.40052899116E+02  0.15077460294E+03  0.12509109309E+03 0.  0.
          5    1    3    3  502    0 -0.29340773295E+01  0.43393901182E+02 -0.80475237461E+02  0.91571697123E+02  0.41800000000E+01 0. -1.
         -5    1    3    3    0  502  0.36716060301E+02  0.22482818690E+02  0.40422338345E+02  0.59202905820E+02  0.41800000000E+01 0. -1.
        -11    1    1    2    0    0  0.12079180323E+02 -0.60416642958E+02  0.23220313868E+02  0.65842693746E+02  0.00000000000E+00 0.  1.
         11    1    1    2    0    0 -0.45861163295E+02 -0.54600769136E+01  0.63225325113E+02  0.78297512568E+02  0.00000000000E+00 0. -1.
</event>
<event>
 7    1  0.2900135E-009  0.2138132E+03  0.7561462E-02  0.1138581E+00
          1   -1    0    0  501    0  0.00000000000E+00  0.00000000000E+00  0.68634580156E+03  0.68634580156E+03  0.00000000000E+00 0.  1.
         -1   -1    0    0    0  501 -0.00000000000E+00 -0.00000000000E+00 -0.78455191922E+02  0.78455191922E+02  0.00000000000E+00 0. -1.
         25    2    1    2    0    0 -0.40235696934E+02 -0.18693120418E+03  0.19275651517E+03  0.29893933640E+03  0.12508983291E+03 0.  0.
          5    1    3    3  502    0 -0.81471218586E+02 -0.93515711678E+02  0.12612016802E+03  0.17693647722E+03  0.41800000000E+01 0. -1.
         -5    1    3    3    0  502  0.41235521652E+02 -0.93415492506E+02  0.66636347148E+02  0.12200285918E+03  0.41800000000E+01 0. -1.
        -11    1    1    2    0    0  0.47584750350E+02  0.72851611839E+02  0.11159724646E+03  0.14151187664E+03  0.00000000000E+00 0.  1.
         11    1    1    2    0    0 -0.73490534162E+01  0.11407959234E+03  0.30353684801E+03  0.32434978045E+03  0.00000000000E+00 0. -1.
</event>
<event>
 7    1  0.2900135E-009  0.7841224E+02  0.7561462E-02  0.1333619E+00
          2   -1    0    0  501    0  0.00000000000E+00  0.00000000000E+00  0.33526893449E+03  0.33526893449E+03  0.00000000000E+00 0. -1.
         -2   -1    0    0    0  501 -0.00000000000E+00 -0.00000000000E+00 -0.53120081924E+02  0.53120081924E+02  0.00000000000E+00 0.  1.
         25    2    1    2    0    0  0.11559645555E+02  0.27813717096E+01  0.26090229843E+03  0.28958355183E+03  0.12508901923E+03 0.  0.
          5    1    3    3  502    0  0.15736380007E+02 -0.31371827576E+02  0.25108336791E+03  0.25355897788E+03  0.41800000000E+01 0.  1.
         -5    1    3    3    0  502 -0.41767344521E+01  0.34153199286E+02  0.98189305191E+01  0.36024573955E+02  0.41800000000E+01 0.  1.
        -11    1    1    2    0    0 -0.18328539465E+02  0.39739296282E+02  0.32254480784E+02  0.54364497225E+02  0.00000000000E+00 0. -1.
         11    1    1    2    0    0  0.67688939099E+01 -0.42520667991E+02 -0.11007926641E+02  0.44440967363E+02  0.00000000000E+00 0.  1.
</event>
<event>
 7    1  0.2900135E-009  0.1177193E+03  0.7561462E-02  0.1246908E+00
         -2   -1    0    0    0  501 -0.00000000000E+00  0.00000000000E+00  0.34111196035E+02  0.34111196035E+02  0.00000000000E+00 0.  1.
          2   -1    0    0  501    0  0.00000000000E+00 -0.00000000000E+00 -0.53467459808E+03  0.53467459808E+03  0.00000000000E+00 0. -1.
         25    2    1    2    0    0 -0.66093525199E+02 -0.46928149499E+02 -0.28743753074E+03  0.32378645640E+03  0.12508688972E+03 0.  0.
          5    1    3    3  502    0 -0.78224066324E+02 -0.80533383846E+02 -0.23079084142E+03  0.25668368735E+03  0.41800000000E+01 0.  1.
         -5    1    3    3    0  502  0.12130541125E+02  0.33605234347E+02 -0.56646689314E+02  0.67102769046E+02  0.41800000000E+01 0.  1.
        -11    1    1    2    0    0  0.39107962357E+02  0.82681119775E+01 -0.17261107369E+02  0.43540099024E+02  0.00000000000E+00 0.  1.
         11    1    1    2    0    0  0.26985562842E+02  0.38660037522E+02 -0.19586476394E+03  0.20145923870E+03  0.00000000000E+00 0. -1.
</event>
<event>
 7    1  0.2900135E-009  0.1186521E+03  0.7561462E-02  0.1245337E+00
         -1   -1    0    0    0  501 -0.00000000000E+00  0.00000000000E+00  0.79205035706E+02  0.79205035706E+02  0.00000000000E+00 0.  1.
          1   -1    0    0  501    0  0.00000000000E+00 -0.00000000000E+00 -0.26912959395E+03  0.26912959395E+03  0.00000000000E+00 0. -1.
         25    2    1    2    0    0 -0.68298789673E+02 -0.66838510503E+02 -0.99798524863E+02  0.18636725931E+03  0.12506357831E+03 0.  0.
          5    1    3    3  502    0 -0.96251171994E+02 -0.53492637767E+02 -0.10774466007E+03  0.15411727541E+03  0.41800000000E+01 0. -1.
         -5    1    3    3    0  502  0.27952382320E+02 -0.13345872736E+02  0.79461352112E+01  0.32249983896E+02  0.41800000000E+01 0. -1.
        -11    1    1    2    0    0  0.46154986903E+02  0.40158672532E+02  0.43455041047E+01  0.61334209064E+02  0.00000000000E+00 0.  1.
         11    1    1    2    0    0  0.22143802770E+02  0.26679837971E+02 -0.94471537482E+02  0.10063316128E+03  0.00000000000E+00 0. -1.
</event>
<event>
 7    1  0.2900135E-009  0.2788309E+03  0.7561462E-02  0.1096329E+00
         -1   -1    0    0    0  501 -0.00000000000E+00  0.00000000000E+00  0.68560658580E+02  0.68560658580E+02  0.00000000000E+00 0.  1.
          1   -1    0    0  501    0  0.00000000000E+00 -0.00000000000E+00 -0.14509264273E+04  0.14509264273E+04  0.00000000000E+00 0. -1.
         25    2    1    2    0    0 -0.26067602796E+02 -0.27015127210E+03 -0.98567886058E+03  0.10299861488E+04  0.12508965078E+03 0.  0.
          5    1    3    3  502    0 -0.31299464579E+02 -0.13114158166E+03 -0.69169136312E+03  0.70472135283E+03  0.41800000000E+01 0. -1.
         -5    1    3    3    0  502  0.52318617833E+01 -0.13900969044E+03 -0.29398749746E+03  0.32526479594E+03  0.41800000000E+01 0. -1.
        -11    1    1    2    0    0  0.50286389261E+02  0.23851853503E+03 -0.36341098888E+03  0.43759268657E+03  0.00000000000E+00 0.  1.
         11    1    1    2    0    0 -0.24218786466E+02  0.31632737069E+02 -0.33275919283E+02  0.51908250562E+02  0.00000000000E+00 0. -1.
</event>
<event>
 7    1  0.2900135E-009  0.8448233E+02  0.7561462E-02  0.1316792E+00
          2   -1    0    0  501    0  0.00000000000E+00  0.00000000000E+00  0.90022407056E+03  0.90022407056E+03  0.00000000000E+00 0.  1.
         -2   -1    0    0    0  501 -0.00000000000E+00 -0.00000000000E+00 -0.21385098364E+02  0.21385098364E+02  0.00000000000E+00 0. -1.
         25    2    1    2    0    0 -0.32992973670E+01  0.34055878104E+01  0.77450506182E+03  0.78455701894E+03  0.12509652992E+03 0.  0.
          5    1    3    3  502    0 -0.39824692477E+02 -0.37687068611E+02  0.57338465354E+03  0.57601541176E+03  0.41800000000E+01 0. -1.
         -5    1    3    3    0  502  0.36525395110E+02  0.41092656421E+02  0.20112040828E+03  0.20854160718E+03  0.41800000000E+01 0. -1.
        -11    1    1    2    0    0  0.24445216717E+02 -0.20297310679E+02  0.10528113349E+03  0.10997120764E+03  0.00000000000E+00 0.  1.
         11    1    1    2    0    0 -0.21145919350E+02  0.16891722869E+02 -0.94722310892E+00  0.27080942344E+02  0.00000000000E+00 0. -1.
</event>
<event>
 7    1  0.2900135E-009  0.1080448E+03  0.7561462E-02  0.1264234E+00
         -2   -1    0    0    0  501 -0.00000000000E+00  0.00000000000E+00  0.22675901784E+02  0.22675901784E+02  0.00000000000E+00 0.  1.
          2   -1    0    0  501    0  0.00000000000E+00 -0.00000000000E+00 -0.11588271171E+04  0.11588271171E+04  0.00000000000E+00 0. -1.
         25    2    1    2    0    0 -0.48655364588E+02  0.60927021638E+02 -0.95186870138E+03  0.96321488082E+03  0.12509770379E+03 0.  0.
          5    1    3    3  502    0 -0.21746514203E+02 -0.20124782247E+02 -0.61284321656E+03  0.61357330305E+03  0.41800000000E+01 0. -1.
         -5    1    3    3    0  502 -0.26908850385E+02  0.81051803885E+02 -0.33902548483E+03  0.34964157777E+03  0.41800000000E+01 0. -1.
        -11    1    1    2    0    0 -0.51848568185E+01 -0.43883765464E+02 -0.13914350020E+03  0.14599171641E+03  0.00000000000E+00 0. -1.
         11    1    1    2    0    0  0.53840221406E+02 -0.17043256174E+02 -0.45139013708E+02  0.72296421631E+02  0.00000000000E+00 0.  1.
</event>
<event>
 7    1  0.2928317E-009  0.8113788E+02  0.7561462E-02  0.1325853E+00
          1   -1    0    0  501    0  0.00000000000E+00  0.00000000000E+00  0.66892541891E+02  0.66892541891E+02  0.00000000000E+00 0. -1.
         -1   -1    0    0    0  501 -0.00000000000E+00 -0.00000000000E+00 -0.20730749940E+03  0.20730749940E+03  0.00000000000E+00 0.  1.
         25    2    1    2    0    0 -0.14779883460E+02  0.32220999013E+02 -0.11280355866E+03  0.17212669573E+03  0.12508524615E+03 0.  0.
          5    1    3    3  502    0  0.40594894046E+02  0.53215659396E+02 -0.39623060687E+02  0.77892946830E+02  0.41800000000E+01 0. -1.
         -5    1    3    3    0  502 -0.55374777507E+02 -0.20994660383E+02 -0.73180497972E+02  0.94233748901E+02  0.41800000000E+01 0. -1.
        -11    1    1    2    0    0  0.75447204852E+01 -0.22472291850E+02 -0.61588251241E+02  0.65992722319E+02  0.00000000000E+00 0.  1.
         11    1    1    2    0    0  0.72351629752E+01 -0.97487071628E+01  0.33976852394E+02  0.36080623238E+02  0.00000000000E+00 0. -1.
</event>
<event>
 7    1  0.2900135E-009  0.1003561E+03  0.7561462E-02  0.1279549E+00
         -1   -1    0    0    0  501 -0.00000000000E+00  0.00000000000E+00  0.22835993199E+03  0.22835993199E+03  0.00000000000E+00 0.  1.
          1   -1    0    0  501    0  0.00000000000E+00 -0.00000000000E+00 -0.62003631050E+02  0.62003631050E+02  0.00000000000E+00 0. -1.
         25    2    1    2    0    0 -0.33999998888E+02  0.37250318558E+02  0.10960967646E+03  0.17379855165E+03  0.12509224286E+03 0.  0.
          5    1    3    3  502    0 -0.42694217819E+02 -0.19228421848E+02  0.10650396065E+03  0.11641775842E+03  0.41800000000E+01 0. -1.
         -5    1    3    3    0  502  0.86942189310E+01  0.56478740406E+02  0.31057158142E+01  0.57380793228E+02  0.41800000000E+01 0. -1.
        -11    1    1    2    0    0  0.13501524677E+02 -0.62465946317E+02  0.54499606452E+02  0.83991027624E+02  0.00000000000E+00 0.  1.
         11    1    1    2    0    0  0.20498474211E+02  0.25215627759E+02  0.22470180205E+01  0.32573983763E+02  0.00000000000E+00 0. -1.
</event>
<event>
 7    1  0.2900135E-009  0.1039131E+03  0.7561462E-02  0.1272276E+00
         -1   -1    0    0    0  501 -0.00000000000E+00  0.00000000000E+00  0.13772687300E+02  0.13772687300E+02  0.00000000000E+00 0.  1.
          1   -1    0    0  501    0  0.00000000000E+00 -0.00000000000E+00 -0.91161948449E+03  0.91161948449E+03  0.00000000000E+00 0. -1.
         25    2    1    2    0    0 -0.34220638404E+02 -0.39976558072E+02 -0.60229527149E+03  0.61739462525E+03  0.12508937585E+03 0.  0.
          5    1    3    3  502    0 -0.80459660901E+02 -0.28564472308E+02 -0.32754676167E+03  0.33851741402E+03  0.41800000000E+01 0. -1.
         -5    1    3    3    0  502  0.46239022497E+02 -0.11412085764E+02 -0.27474850981E+03  0.27887721124E+03  0.41800000000E+01 0. -1.
        -11    1    1    2    0    0  0.37776308309E+02  0.35586081972E+01 -0.22833990487E+03  0.23147100319E+03  0.00000000000E+00 0.  1.
         11    1    1    2    0    0 -0.35556699053E+01  0.36417949874E+02 -0.67211620841E+02  0.76526543353E+02  0.00000000000E+00 0. -1.
</event>
<event>
 7    1  0.2900135E-009  0.1305189E+03  0.7561462E-02  0.1226688E+00
         -4   -1    0    0    0  501 -0.00000000000E+00  0.00000000000E+00  0.65795734281E+02  0.65795734281E+02  0.00000000000E+00 0.  1.
          4   -1    0    0  501    0  0.00000000000E+00 -0.00000000000E+00 -0.39778212849E+03  0.39778212849E+03  0.00000000000E+00 0. -1.
         25    2    1    2    0    0  0.10042194416E+03 -0.56759460272E+01 -0.27155261412E+03  0.31544344984E+03  0.12508782746E+03 0.  0.
          5    1    3    3  502    0  0.19449728512E+01 -0.34749841669E+02 -0.15990136799E+03  0.16369866921E+03  0.41800000000E+01 0.  1.
         -5    1    3    3    0  502  0.98476971312E+02  0.29073895642E+02 -0.11165124612E+03  0.15174478062E+03  0.41800000000E+01 0.  1.
        -11    1    1    2    0    0 -0.13238713211E+01  0.22640934805E+02 -0.39334640969E+02  0.45404609285E+02  0.00000000000E+00 0.  1.
         11    1    1    2    0    0 -0.99098072842E+02 -0.16964988778E+02 -0.21099139119E+02  0.10272980364E+03  0.00000000000E+00 0. -1.
</event>
<event>
 7    1  0.2900135E-009  0.1224008E+03  0.7561462E-02  0.1239188E+00
          2   -1    0    0  501    0  0.00000000000E+00  0.00000000000E+00  0.28422640161E+03  0.28422640161E+03  0.00000000000E+00 0.  1.
         -2   -1    0    0    0  501 -0.00000000000E+00 -0.00000000000E+00 -0.60421045361E+02  0.60421045361E+02  0.00000000000E+00 0. -1.
         25    2    1    2    0    0  0.59607967852E+01 -0.22494410023E+02  0.59027842452E+02  0.14026274342E+03  0.12509125240E+03 0.  0.
          5    1    3    3  502    0 -0.32552653144E+02 -0.61168803502E+02  0.17601011760E+02  0.71614005359E+02  0.41800000000E+01 0. -1.
         -5    1    3    3    0  502  0.38513449929E+02  0.38674393479E+02  0.41426830692E+02  0.68648738063E+02  0.41800000000E+01 0. -1.
        -11    1    1    2    0    0  0.21795086793E+02  0.65739446467E+02  0.10135179169E+03  0.12275539218E+03  0.00000000000E+00 0. -1.
         11    1    1    2    0    0 -0.27755883578E+02 -0.43245036444E+02  0.63425722109E+02  0.81629311374E+02  0.00000000000E+00 0.  1.
</event>
<event>
 7    1  0.2900135E-009  0.2293236E+03  0.7561462E-02  0.1127117E+00
          2   -1    0    0  501    0  0.00000000000E+00  0.00000000000E+00  0.13010973103E+04  0.13010973103E+04  0.00000000000E+00 0. -1.
         -2   -1    0    0    0  501 -0.00000000000E+00 -0.00000000000E+00 -0.44319104516E+02  0.44319104516E+02  0.00000000000E+00 0.  1.
         25    2    1    2    0    0 -0.99041018632E+02  0.18714110126E+03  0.74642306779E+03  0.78589185609E+03  0.12509075983E+03 0.  0.
          5    1    3    3  502    0 -0.42755782736E+02  0.17000927460E+03  0.43648245886E+03  0.47038879632E+03  0.41800000000E+01 0.  1.
         -5    1    3    3    0  502 -0.56285235895E+02  0.17131826654E+02  0.30994060893E+03  0.31550305977E+03  0.41800000000E+01 0.  1.
        -11    1    1    2    0    0  0.97828269265E+02 -0.11019055592E+03  0.38732086778E+03  0.41440292410E+03  0.00000000000E+00 0.  1.
         11    1    1    2    0    0  0.12127493667E+01 -0.76950545341E+02  0.12303427021E+03  0.14512163462E+03  0.00000000000E+00 0. -1.
</event>
<event>
 7    1  0.2900135E-009  0.9868530E+02  0.7561462E-02  0.1283085E+00
         -1   -1    0    0    0  501 -0.00000000000E+00  0.00000000000E+00  0.15986281339E+02  0.15986281339E+02  0.00000000000E+00 0.  1.
          1   -1    0    0  501    0  0.00000000000E+00 -0.00000000000E+00 -0.11696797685E+04  0.11696797685E+04  0.00000000000E+00 0. -1.
         25    2    1    2    0    0 -0.78945573667E+01  0.25885997107E+02 -0.98812027826E+03  0.99637421397E+03  0.12508989195E+03 0.  0.
          5    1    3    3  502    0 -0.26209741699E+01  0.69813966627E+02 -0.36359082973E+03  0.37026561183E+03  0.41800000000E+01 0. -1.
         -5    1    3    3    0  502 -0.52735831967E+01 -0.43927969520E+02 -0.62452944853E+03  0.62610860214E+03  0.41800000000E+01 0. -1.
        -11    1    1    2    0    0 -0.30148121841E+02  0.88567703477E+01 -0.10585992377E+03  0.11042497495E+03  0.00000000000E+00 0. -1.
         11    1    1    2    0    0  0.38042679207E+02 -0.34742767454E+02 -0.59713285148E+02  0.78866860942E+02  0.00000000000E+00 0.  1.
</event>
<event>
 7    1  0.2900135E-009  0.1153600E+03  0.7561462E-02  0.1250954E+00
         -2   -1    0    0    0  501 -0.00000000000E+00  0.00000000000E+00  0.26888232809E+02  0.26888232809E+02  0.00000000000E+00 0.  1.
          2   -1    0    0  501    0  0.00000000000E+00 -0.00000000000E+00 -0.67449769755E+03  0.67449769755E+03  0.00000000000E+00 0. -1.
         25    2    1    2    0    0  0.67071268728E+02 -0.35598123910E+02 -0.28293229978E+03  0.31853843776E+03  0.12510103340E+03 0.  0.
          5    1    3    3  502    0  0.29080864232E+02 -0.66355076369E+02 -0.24777442227E+03  0.25818274450E+03  0.41800000000E+01 0.  1.
         -5    1    3    3    0  502  0.37990404495E+02  0.30756952459E+02 -0.35157877508E+02  0.60355693262E+02  0.41800000000E+01 0.  1.
        -11    1    1    2    0    0 -0.43425654253E+02  0.60683052544E+02 -0.17790656676E+03  0.19292217811E+03  0.00000000000E+00 0.  1.
         11    1    1    2    0    0 -0.23645614474E+02 -0.25084928633E+02 -0.18677059821E+03  0.18992531449E+03  0.00000000000E+00 0. -1.
</event>
<event>
 7    1  0.2900135E-009  0.1242366E+03  0.7561462E-02  0.1236267E+00
          1   -1    0    0  501    0  0.00000000000E+00  0.00000000000E+00  0.96627966398E+02  0.96627966398E+02  0.00000000000E+00 0. -1.
         -1   -1    0    0    0  501 -0.00000000000E+00 -0.00000000000E+00 -0.22703285184E+03  0.22703285184E+03  0.00000000000E+00 0.  1.
         25    2    1    2    0    0 -0.71447856765E+02  0.26450604750E+01  0.57328152880E+01  0.14420146473E+03  0.12509758062E+03 0.  0.
          5    1    3    3  502    0 -0.45636837552E+02 -0.53015044560E+02  0.32360864855E+02  0.77188171799E+02  0.41800000000E+01 0. -1.
         -5    1    3    3    0  502 -0.25811019213E+02  0.55660105035E+02 -0.26628049567E+02  0.67013292928E+02  0.41800000000E+01 0. -1.
        -11    1    1    2    0    0 -0.22666224790E+02 -0.23304924243E+01 -0.25004858076E+02  0.33829452680E+02  0.00000000000E+00 0.  1.
         11    1    1    2    0    0  0.94114081555E+02 -0.31456805071E+00 -0.11113284266E+03  0.14562990084E+03  0.00000000000E+00 0. -1.
</event>
<event>
 7    1  0.2900135E-009  0.1894788E+03  0.7561462E-02  0.1158932E+00
         -2   -1    0    0    0  501 -0.00000000000E+00  0.00000000000E+00  0.14595127367E+03  0.14595127367E+03  0.00000000000E+00 0.  1.
          2   -1    0    0  501    0  0.00000000000E+00 -0.00000000000E+00 -0.30369265884E+03  0.30369265884E+03  0.00000000000E+00 0. -1.
         25    2    1    2    0    0  0.61054244427E+02  0.15062549628E+03  0.18334199468E+01  0.20510147507E+03  0.12509033837E+03 0.  0.
          5    1    3    3  502    0  0.97705210591E+02  0.12873496826E+03  0.74568688636E+01  0.16183966610E+03  0.41800000000E+01 0. -1.
         -5    1    3    3    0  502 -0.36650966164E+02  0.21890528022E+02 -0.56234489167E+01  0.43261808972E+02  0.41800000000E+01 0. -1.
        -11    1    1    2    0    0 -0.62863317684E+02 -0.71325047807E+02 -0.12735160691E+03  0.15892605493E+03  0.00000000000E+00 0.  1.
         11    1    1    2    0    0  0.18090732563E+01 -0.79300448474E+02 -0.32223198211E+02  0.85616402501E+02  0.00000000000E+00 0. -1.
</event>
<event>
 7    1  0.2900135E-009  0.1504450E+03  0.7561462E-02  0.1199927E+00
          1   -1    0    0  501    0  0.00000000000E+00  0.00000000000E+00  0.62213220691E+03  0.62213220691E+03  0.00000000000E+00 0. -1.
         -1   -1    0    0    0  501 -0.00000000000E+00 -0.00000000000E+00 -0.47386060024E+02  0.47386060024E+02  0.00000000000E+00 0.  1.
         25    2    1    2    0    0 -0.54946606774E+02 -0.10390846080E+03  0.29184212826E+03  0.33857824358E+03  0.12508917370E+03 0.  0.
          5    1    3    3  502    0 -0.72712426187E+02 -0.64276526220E+02  0.91184657513E+02  0.13323168884E+03  0.41800000000E+01 0. -1.
         -5    1    3    3    0  502  0.17765819413E+02 -0.39631934584E+02  0.20065747074E+03  0.20534655474E+03  0.41800000000E+01 0. -1.
        -11    1    1    2    0    0 -0.22141856073E+02 -0.85833073851E+01  0.10007200061E+03  0.10285105864E+03  0.00000000000E+00 0. -1.
         11    1    1    2    0    0  0.77088462848E+02  0.11249176819E+03  0.18283201802E+03  0.22808896472E+03  0.00000000000E+00 0.  1.
</event>
<event>
 7    1  0.2900135E-009  0.3041736E+03  0.7561462E-02  0.1083173E+00
         -2   -1    0    0    0  501 -0.00000000000E+00  0.00000000000E+00  0.11260241015E+03  0.11260241015E+03  0.00000000000E+00 0.  1.
          2   -1    0    0  501    0  0.00000000000E+00 -0.00000000000E+00 -0.10840095234E+04  0.10840095234E+04  0.00000000000E+00 0. -1.
         25    2    1    2    0    0  0.15977223468E+03 -0.25852349612E+03 -0.26440136255E+03  0.42180085230E+03  0.12508522481E+03 0.  0.
          5    1    3    3  502    0  0.81263479325E+02 -0.14105713697E+03 -0.21986150808E+03  0.27360084813E+03  0.41800000000E+01 0. -1.
         -5    1    3    3    0  502  0.78508755358E+02 -0.11746635916E+03 -0.44539854462E+02  0.14820000417E+03  0.41800000000E+01 0. -1.
        -11    1    1    2    0    0 -0.10933070924E+03  0.18737188780E+03 -0.39278952136E+03  0.44871487206E+03  0.00000000000E+00 0.  1.
         11    1    1    2    0    0 -0.50441525445E+02  0.71151608327E+02 -0.31421622937E+03  0.32609620921E+03  0.00000000000E+00 0. -1.
</event>
<event>
 7    1  0.2900135E-009  0.8777681E+02  0.7561462E-02  0.1308327E+00
          4   -1    0    0  501    0  0.00000000000E+00  0.00000000000E+00  0.19032268160E+03  0.19032268160E+03  0.00000000000E+00 0. -1.
         -4   -1    0    0    0  501 -0.00000000000E+00 -0.00000000000E+00 -0.80401108553E+02  0.80401108553E+02  0.00000000000E+00 0.  1.
         25    2    1    2    0    0  0.42756548597E+02 -0.41295380934E+02  0.56628821741E+02  0.14962650236E+03  0.12509130994E+03 0.  0.
          5    1    3    3  502    0  0.57870235733E+02 -0.35949386281E+02 -0.20080994926E+02  0.71148023971E+02  0.41800000000E+01 0.  1.
         -5    1    3    3    0  502 -0.15113687135E+02 -0.53459946526E+01  0.76709816667E+02  0.78478478392E+02  0.41800000000E+01 0.  1.
        -11    1    1    2    0    0 -0.27951151148E+02 -0.15552546378E+02 -0.11171931167E+02  0.33881567192E+02  0.00000000000E+00 0.  1.
         11    1    1    2    0    0 -0.14805397449E+02  0.56847927312E+02  0.64464682478E+02  0.87215720603E+02  0.00000000000E+00 0. -1.
</event>
<event>
 7    1  0.2900135E-009  0.2250526E+03  0.7561462E-02  0.1130171E+00
          2   -1    0    0  501    0  0.00000000000E+00  0.00000000000E+00  0.19733117756E+04  0.19733117756E+04  0.00000000000E+00 0. -1.
         -2   -1    0    0    0  501 -0.00000000000E+00 -0.00000000000E+00 -0.32097912840E+02  0.32097912840E+02  0.00000000000E+00 0.  1.
         25    2    1    2    0    0  0.43130402776E+02 -0.22002943928E+03  0.11248034439E+04  0.11537354496E+04  0.12509801938E+03 0.  0.
          5    1    3    3  502    0  0.12856513392E+02 -0.12662045048E+03  0.89189990591E+03  0.90094447275E+03  0.41800000000E+01 0. -1.
         -5    1    3    3    0  502  0.30273889385E+02 -0.93408988796E+02  0.23290353798E+03  0.25279097684E+03  0.41800000000E+01 0. -1.
        -11    1    1    2    0    0 -0.35943647692E+02  0.19999385776E+03  0.79821166396E+03  0.82366944185E+03  0.00000000000E+00 0. -1.
         11    1    1    2    0    0 -0.71867550846E+01  0.20035581515E+02  0.18198754922E+02  0.28004797018E+02  0.00000000000E+00 0.  1.
</event>
<event>
 7    1  0.2900135E-009  0.3299998E+03  0.7561462E-02  0.1071137E+00
          2   -1    0    0  501    0  0.00000000000E+00  0.00000000000E+00  0.18418747396E+03  0.18418747396E+03  0.00000000000E+00 0. -1.
         -2   -1    0    0    0  501 -0.00000000000E+00 -0.00000000000E+00 -0.65596954134E+03  0.65596954134E+03  0.00000000000E+00 0.  1.
         25    2    1    2    0    0  0.64506165910E+02 -0.32307685013E+03 -0.24449314824E+03  0.42891013138E+03  0.12508918712E+03 0.  0.
          5    1    3    3  502    0  0.17713791143E+02 -0.13242897084E+03 -0.17588783804E+03  0.22091902292E+03  0.41800000000E+01 0.  1.
         -5    1    3    3    0  502  0.46792374767E+02 -0.19064787929E+03 -0.68605310197E+02  0.20799110846E+03  0.41800000000E+01 0.  1.
        -11    1    1    2    0    0 -0.33854638470E+02  0.21448127046E+03 -0.19987899684E+03  0.29512703248E+03  0.00000000000E+00 0. -1.
         11    1    1    2    0    0 -0.30651527440E+02  0.10859557967E+03 -0.27409922293E+02  0.11611985144E+03  0.00000000000E+00 0.  1.
</event>
<event>
 7    1  0.2900135E-009  0.1128954E+03  0.7561462E-02  0.1255300E+00
         -2   -1    0    0    0  501 -0.00000000000E+00  0.00000000000E+00  0.73744100725E+02  0.73744100725E+02  0.00000000000E+00 0.  1.
          2   -1    0    0  501    0  0.00000000000E+00 -0.00000000000E+00 -0.23733594625E+03  0.23733594625E+03  0.00000000000E+00 0. -1.
         25    2    1    2    0    0 -0.70561686009E+02 -0.30112642824E+02 -0.87814219158E+02  0.17101316879E+03  0.12509374094E+03 0.  0.
          5    1    3    3  502    0  0.25853152977E+02 -0.33673460538E+02 -0.34780215217E+01  0.42800192724E+02  0.41800000000E+01 0.  1.
         -5    1    3    3    0  502 -0.96414838986E+02  0.35608177141E+01 -0.84336197637E+02  0.12821297606E+03  0.41800000000E+01 0.  1.
        -11    1    1    2    0    0  0.27343080274E+02  0.33462158257E+02  0.96438365653E+01  0.44275994148E+02  0.00000000000E+00 0.  1.
         11    1    1    2    0    0  0.43218605736E+02 -0.33495154330E+01 -0.85421462932E+02  0.95790884038E+02  0.00000000000E+00 0. -1.
</event>
<event>
 7    1  0.2900135E-009  0.1043112E+03  0.7561462E-02  0.1271483E+00
         -2   -1    0    0    0  501 -0.00000000000E+00  0.00000000000E+00  0.93700685521E+02  0.93700685521E+02  0.00000000000E+00 0.  1.
          2   -1    0    0  501    0  0.00000000000E+00 -0.00000000000E+00 -0.19119781290E+03  0.19119781290E+03  0.00000000000E+00 0. -1.
         25    2    1    2    0    0  0.51716597075E+02 -0.43060670242E+02 -0.38640030926E+01  0.14209743802E+03  0.12509166094E+03 0.  0.
          5    1    3    3  502    0 -0.52437538701E+01  0.17451633846E+02 -0.45399297911E+02  0.49098117371E+02  0.41800000000E+01 0. -1.
         -5    1    3    3    0  502  0.56960350945E+02 -0.60512304088E+02  0.41535294818E+02  0.92999320651E+02  0.41800000000E+01 0. -1.
        -11    1    1    2    0    0  0.20625848266E+02  0.24511968212E+02 -0.19138645253E+02  0.37316885513E+02  0.00000000000E+00 0.  1.
         11    1    1    2    0    0 -0.72342445341E+02  0.18548702030E+02 -0.74494479030E+02  0.10548417488E+03  0.00000000000E+00 0. -1.
</event>
<event>
 7    1  0.2900135E-009  0.1085922E+03  0.7561462E-02  0.1263199E+00
         -2   -1    0    0    0  501 -0.00000000000E+00  0.00000000000E+00  0.24346048583E+02  0.24346048583E+02  0.00000000000E+00 0.  1.
          2   -1    0    0  501    0  0.00000000000E+00 -0.00000000000E+00 -0.95053666744E+03  0.95053666744E+03  0.00000000000E+00 0. -1.
         25    2    1    2    0    0  0.14916049574E+02 -0.10345154655E+03 -0.46441558475E+03  0.49219262594E+03  0.12508810755E+03 0.  0.
          5    1    3    3  502    0 -0.11862869470E+02 -0.17700953072E+02 -0.32850544142E+03  0.32922233955E+03  0.41800000000E+01 0.  1.
         -5    1    3    3    0  502  0.26778919044E+02 -0.85750593482E+02 -0.13591014333E+03  0.16297028640E+03  0.41800000000E+01 0.  1.
        -11    1    1    2    0    0 -0.60430074999E+01  0.83306340873E+02 -0.45007780563E+03  0.45776248808E+03  0.00000000000E+00 0. -1.
         11    1    1    2    0    0 -0.88730420745E+01  0.20145205681E+02 -0.11697228466E+02  0.24927601998E+02  0.00000000000E+00 0.  1.
</event>
<event>
 7    1  0.2900135E-009  0.1118857E+03  0.7561462E-02  0.1257117E+00
          2   -1    0    0  501    0  0.00000000000E+00  0.00000000000E+00  0.44843954852E+03  0.44843954852E+03  0.00000000000E+00 0. -1.
         -2   -1    0    0    0  501 -0.00000000000E+00 -0.00000000000E+00 -0.34074122234E+02  0.34074122234E+02  0.00000000000E+00 0.  1.
         25    2    1    2    0    0 -0.33190092741E+02  0.10882838642E+02  0.32713572186E+03  0.35197423275E+03  0.12509221227E+03 0.  0.
          5    1    3    3  502    0 -0.53995663887E+02  0.57046260137E+02  0.18487985343E+03  0.20091749580E+03  0.41800000000E+01 0.  1.
         -5    1    3    3    0  502  0.20805571146E+02 -0.46163421496E+02  0.14225586844E+03  0.15105673696E+03  0.41800000000E+01 0.  1.
        -11    1    1    2    0    0  0.71590569780E+01  0.38136276934E+02  0.51691140868E+02  0.64634369800E+02  0.00000000000E+00 0. -1.
         11    1    1    2    0    0  0.26031035763E+02 -0.49019115576E+02  0.35538563549E+02  0.65905068195E+02  0.00000000000E+00 0.  1.
</event>
<event>
 7    1  0.2900135E-009  0.9192095E+02  0.7561462E-02  0.1298265E+00
          2   -1    0    0  501    0  0.00000000000E+00  0.00000000000E+00  0.40464317644E+02  0.40464317644E+02  0.00000000000E+00 0. -1.
         -2   -1    0    0    0  501 -0.00000000000E+00 -0.00000000000E+00 -0.35810371775E+03  0.35810371775E+03  0.00000000000E+00 0.  1.
         25    2    1    2    0    0 -0.34739678068E+02 -0.30240063388E+02 -0.22104304952E+03  0.25812505915E+03  0.12508880746E+03 0.  0.
          5    1    3    3  502    0 -0.61298632869E+02  0.44652000428E+01 -0.20032085446E+03  0.20957904841E+03  0.41800000000E+01 0. -1.
         -5    1    3    3    0  502  0.26558954801E+02 -0.34705263430E+02 -0.20722195063E+02  0.48546010733E+02  0.41800000000E+01 0. -1.
        -11    1    1    2    0    0 -0.91293230428E+01 -0.13559716995E+02 -0.71864823842E+02  0.73700497760E+02  0.00000000000E+00 0.  1.
         11    1    1    2    0    0  0.43869001110E+02  0.43799780382E+02 -0.24731526746E+02  0.66742478491E+02  0.00000000000E+00 0. -1.
</event>
<event>
 7    1  0.2900135E-009  0.1146990E+03  0.7561462E-02  0.1252107E+00
         -1   -1    0    0    0  501 -0.00000000000E+00  0.00000000000E+00  0.58574969221E+03  0.58574969221E+03  0.00000000000E+00 0.  1.
          1   -1    0    0  501    0  0.00000000000E+00 -0.00000000000E+00 -0.30773342034E+02  0.30773342034E+02  0.00000000000E+00 0. -1.
         25    2    1    2    0    0 -0.62687768172E+02  0.34518245060E+02  0.23064708831E+03  0.27196908226E+03  0.12509131399E+03 0.  0.
          5    1    3    3  502    0 -0.41237923490E+02  0.65888115085E+02  0.21834753627E+03  0.23180795724E+03  0.41800000000E+01 0.  1.
         -5    1    3    3    0  502 -0.21449844682E+02 -0.31369870025E+02  0.12299552038E+02  0.40161125017E+02  0.41800000000E+01 0.  1.
        -11    1    1    2    0    0 -0.17755321905E+02  0.11010099451E+02  0.95550722797E+02  0.97808048610E+02  0.00000000000E+00 0.  1.
         11    1    1    2    0    0  0.80443090077E+02 -0.45528344511E+02  0.22877853907E+03  0.24674590338E+03  0.00000000000E+00 0. -1.
</event>
<event>
 7    1  0.2900135E-009  0.1212080E+03  0.7561462E-02  0.1241117E+00
         -1   -1    0    0    0  501 -0.00000000000E+00  0.00000000000E+00  0.41464596210E+02  0.41464596210E+02  0.00000000000E+00 0. -1.
          1   -1    0    0  501    0  0.00000000000E+00 -0.00000000000E+00 -0.70373643120E+03  0.70373643120E+03  0.00000000000E+00 0.  1.
         25    2    1    2    0    0 -0.20333073072E+02  0.77862639164E+02 -0.57999442025E+03  0.59876116036E+03  0.12508147421E+03 0.  0.
          5    1    3    3  502    0 -0.60009798252E+02  0.87215314783E+02 -0.37329959152E+03  0.38804348268E+03  0.41800000000E+01 0. -1.
         -5    1    3    3    0  502  0.39676725180E+02 -0.93526756188E+01 -0.20669482873E+03  0.21071767768E+03  0.41800000000E+01 0. -1.
        -11    1    1    2    0    0  0.37693648777E+02 -0.49208069433E+02 -0.92556197298E+02  0.11139521944E+03  0.00000000000E+00 0.  1.
         11    1    1    2    0    0 -0.17360575705E+02 -0.28654569731E+02  0.10278782563E+02  0.35044647612E+02  0.00000000000E+00 0. -1.
</event>
<event>
 7    1  0.2900135E-009  0.1490564E+03  0.7561462E-02  0.1201637E+00
         -1   -1    0    0    0  501 -0.00000000000E+00  0.00000000000E+00  0.27134939821E+03  0.27134939821E+03  0.00000000000E+00 0.  1.
          1   -1    0    0  501    0  0.00000000000E+00 -0.00000000000E+00 -0.10751781132E+03  0.10751781132E+03  0.00000000000E+00 0. -1.
         25    2    1    2    0    0 -0.84358202141E+02  0.66544474887E+02  0.17022088961E+03  0.23699573671E+03  0.12508938626E+03 0.  0.
          5    1    3    3  502    0 -0.29674748413E+02  0.91638079444E+02  0.66867799835E+02  0.11733244799E+03  0.41800000000E+01 0.  1.
         -5    1    3    3    0  502 -0.54683453728E+02 -0.25093604557E+02  0.10335308977E+03  0.11966328872E+03  0.41800000000E+01 0.  1.
        -11    1    1    2    0    0  0.56135626975E+02  0.12453028023E+02  0.22210760527E+01  0.57543198570E+02  0.00000000000E+00 0.  1.
         11    1    1    2    0    0  0.28222575166E+02 -0.78997502910E+02 -0.86103787666E+01  0.84328274247E+02  0.00000000000E+00 0. -1.
</event>
<event>
 7    1  0.2900135E-009  0.1653254E+03  0.7561462E-02  0.1182812E+00
          1   -1    0    0  501    0  0.00000000000E+00  0.00000000000E+00  0.13047512363E+04  0.13047512363E+04  0.00000000000E+00 0. -1.
         -1   -1    0    0    0  501 -0.00000000000E+00 -0.00000000000E+00 -0.29054435074E+02  0.29054435074E+02  0.00000000000E+00 0.  1.
         25    2    1    2    0    0  0.14706730762E+03 -0.66228247545E+02  0.68783214180E+03  0.71747821506E+03  0.12508780937E+03 0.  0.
          5    1    3    3  502    0  0.19204158392E+02 -0.30599115252E+02  0.38616874134E+03  0.38787739654E+03  0.41800000000E+01 0.  1.
         -5    1    3    3    0  502  0.12786314922E+03 -0.35629132293E+02  0.30166340045E+03  0.32960081852E+03  0.41800000000E+01 0.  1.
        -11    1    1    2    0    0 -0.65078151600E+02  0.25033568970E+02  0.41306505009E+03  0.41890879794E+03  0.00000000000E+00 0. -1.
         11    1    1    2    0    0 -0.81989156017E+02  0.41194678575E+02  0.17479960935E+03  0.19741865838E+03  0.00000000000E+00 0.  1.
</event>
<event>
 7    1  0.2900135E-009  0.1321365E+03  0.7561462E-02  0.1224320E+00
         -1   -1    0    0    0  501 -0.00000000000E+00  0.00000000000E+00  0.72868114029E+02  0.72868114029E+02  0.00000000000E+00 0.  1.
          1   -1    0    0  501    0  0.00000000000E+00 -0.00000000000E+00 -0.30947220339E+03  0.30947220339E+03  0.00000000000E+00 0. -1.
         25    2    1    2    0    0 -0.71596619588E+01 -0.88250198257E+02 -0.58588748560E+02  0.16407456851E+03  0.12509382207E+03 0.  0.
          5    1    3    3  502    0  0.55175708608E+02 -0.27428295771E+02 -0.55263491275E+01  0.62005509142E+02  0.41800000000E+01 0.  1.
         -5    1    3    3    0  502 -0.62335370567E+02 -0.60821902486E+02 -0.53062399433E+02  0.10206905936E+03  0.41800000000E+01 0.  1.
        -11    1    1    2    0    0  0.37898000068E+02  0.69927823088E+02 -0.75424857130E+02  0.10961326527E+03  0.00000000000E+00 0.  1.
         11    1    1    2    0    0 -0.30738338109E+02  0.18322375169E+02 -0.10259048367E+03  0.10865248364E+03  0.00000000000E+00 0. -1.
</event>
<event>
 7    1  0.2900135E-009  0.9613362E+02  0.7561462E-02  0.1288643E+00
         -1   -1    0    0    0  501 -0.00000000000E+00  0.00000000000E+00  0.15389483719E+03  0.15389483719E+03  0.00000000000E+00 0.  1.
          1   -1    0    0  501    0  0.00000000000E+00 -0.00000000000E+00 -0.12763270115E+03  0.12763270115E+03  0.00000000000E+00 0. -1.
         25    2    1    2    0    0  0.73741267137E+02 -0.39703297987E+01 -0.33461395866E+02  0.14906374381E+03  0.12508715645E+03 0.  0.
          5    1    3    3  502    0 -0.11141221597E+02  0.36206073538E+01 -0.58765147151E+02  0.60067050335E+02  0.41800000000E+01 0. -1.
         -5    1    3    3    0  502  0.84882488734E+02 -0.75909371525E+01  0.25303751285E+02  0.88996693475E+02  0.41800000000E+01 0. -1.
        -11    1    1    2    0    0 -0.28052014931E+02 -0.27297195103E+02  0.66011893154E+02  0.76743875586E+02  0.00000000000E+00 0.  1.
         11    1    1    2    0    0 -0.45689252205E+02  0.31267524902E+02 -0.62883612507E+01  0.55719918950E+02  0.00000000000E+00 0. -1.
</event>
<event>
 7    1  0.2900135E-009  0.2640343E+03  0.7561462E-02  0.1104743E+00
         -2   -1    0    0    0  501 -0.00000000000E+00  0.00000000000E+00  0.58540867330E+03  0.58540867330E+03  0.00000000000E+00 0.  1.
          2   -1    0    0  501    0  0.00000000000E+00 -0.00000000000E+00 -0.20754246062E+03  0.20754246062E+03  0.00000000000E+00 0. -1.
         25    2    1    2    0    0 -0.23982684347E+03  0.92226745622E+02 -0.44439592003E+02  0.28921258493E+03  0.12508538878E+03 0.  0.
          5    1    3    3  502    0 -0.97087134773E+02 -0.37865972289E+01  0.29929495245E+02  0.10175213581E+03  0.41800000000E+01 0. -1.
         -5    1    3    3    0  502 -0.14273970870E+03  0.96013342851E+02 -0.74369087249E+02  0.18746044912E+03  0.41800000000E+01 0. -1.
        -11    1    1    2    0    0  0.17356791531E+03 -0.51844656467E+02  0.36432538138E+03  0.40687427191E+03  0.00000000000E+00 0.  1.
         11    1    1    2    0    0  0.66258928166E+02 -0.40382089155E+02  0.57980423312E+02  0.96864277077E+02  0.00000000000E+00 0. -1.
</event>
<event>
 7    1  0.2900135E-009  0.1128644E+03  0.7561462E-02  0.1255356E+00
         -1   -1    0    0    0  501 -0.00000000000E+00  0.00000000000E+00  0.22200192906E+02  0.22200192906E+02  0.00000000000E+00 0.  1.
          1   -1    0    0  501    0  0.00000000000E+00 -0.00000000000E+00 -0.67178814646E+03  0.67178814646E+03  0.00000000000E+00 0. -1.
         25    2    1    2    0    0  0.41055998115E+02  0.38640863498E+02 -0.36522062430E+03  0.39013360355E+03  0.12505763829E+03 0.  0.
          5    1    3    3  502    0  0.58422264568E+02 -0.16598187404E+02 -0.88682700857E+02  0.10756744235E+03  0.41800000000E+01 0.  1.
         -5    1    3    3    0  502 -0.17366266453E+02  0.55239050902E+02 -0.27653792344E+03  0.28256616120E+03  0.41800000000E+01 0.  1.
        -11    1    1    2    0    0  0.72538575842E+01 -0.55239414058E+02 -0.13755551711E+03  0.14841001180E+03  0.00000000000E+00 0. -1.
         11    1    1    2    0    0 -0.48309855699E+02  0.16598550560E+02 -0.14681181214E+03  0.15544472401E+03  0.00000000000E+00 0.  1.
</event>
<event>
 7    1  0.4609766E-009  0.1319163E+03  0.7561462E-02  0.1224640E+00
         -1   -1    0    0    0  501 -0.00000000000E+00  0.00000000000E+00  0.34385184993E+02  0.34385184993E+02  0.00000000000E+00 0.  1.
          1   -1    0    0  501    0  0.00000000000E+00 -0.00000000000E+00 -0.61814298981E+03  0.61814298981E+03  0.00000000000E+00 0. -1.
         25    2    1    2    0    0  0.26766504969E+02  0.89648343222E+02 -0.25991015450E+03  0.30323869720E+03  0.12508855997E+03 0.  0.
          5    1    3    3  502    0 -0.16310203677E+02 -0.20947678803E+02 -0.14349188359E+02  0.30466368307E+02  0.41800000000E+01 0. -1.
         -5    1    3    3    0  502  0.43076708646E+02  0.11059602203E+03 -0.24556096614E+03  0.27277232889E+03  0.41800000000E+01 0. -1.
        -11    1    1    2    0    0  0.16963094232E+02 -0.66671930933E+02 -0.25774407891E+03  0.26676750768E+03  0.00000000000E+00 0. -1.
         11    1    1    2    0    0 -0.43729599201E+02 -0.22976412289E+02 -0.66103571411E+02  0.82521969930E+02  0.00000000000E+00 0.  1.
</event>
<event>
 7    1  0.2900135E-009  0.1169617E+03  0.7561462E-02  0.1248195E+00
         -1   -1    0    0    0  501 -0.00000000000E+00  0.00000000000E+00  0.26148440818E+03  0.26148440818E+03  0.00000000000E+00 0.  1.
          1   -1    0    0  501    0  0.00000000000E+00 -0.00000000000E+00 -0.70490211471E+02  0.70490211471E+02  0.00000000000E+00 0. -1.
         25    2    1    2    0    0 -0.62284174495E+02  0.15665233252E+02  0.17424428355E+03  0.22390935173E+03  0.12509839933E+03 0.  0.
          5    1    3    3  502    0 -0.73029053435E+02 -0.33764360077E+02  0.65241547958E+02  0.10366873510E+03  0.41800000000E+01 0. -1.
         -5    1    3    3    0  502  0.10744878940E+02  0.49429593330E+02  0.10900273559E+03  0.12024061663E+03  0.41800000000E+01 0. -1.
        -11    1    1    2    0    0  0.57444073301E+02 -0.44937093498E+02 -0.20139710499E+01  0.72960400279E+02  0.00000000000E+00 0. -1.
         11    1    1    2    0    0  0.48401011938E+01  0.29271860245E+02  0.18763884203E+02  0.35104867642E+02  0.00000000000E+00 0.  1.
</event>
<event>
 7    1  0.2900135E-009  0.1102400E+03  0.7561462E-02  0.1260126E+00
          3   -1    0    0  501    0  0.00000000000E+00  0.00000000000E+00  0.11229014910E+03  0.11229014910E+03  0.00000000000E+00 0.  1.
         -3   -1    0    0    0  501 -0.00000000000E+00 -0.00000000000E+00 -0.16374950727E+03  0.16374950727E+03  0.00000000000E+00 0. -1.
         25    2    1    2    0    0  0.45332349858E+02  0.12438117571E+02  0.38500010352E+02  0.13906690145E+03  0.12509046154E+03 0.  0.
          5    1    3    3  502    0 -0.38051303029E+02  0.48951733605E+01 -0.12952503845E+02  0.40707544021E+02  0.41800000000E+01 0. -1.
         -5    1    3    3    0  502  0.83383652886E+02  0.75429442102E+01  0.51452514197E+02  0.98359357426E+02  0.41800000000E+01 0. -1.
        -11    1    1    2    0    0 -0.69617738165E+02 -0.20327773337E+02 -0.83568093686E+02  0.11065023325E+03  0.00000000000E+00 0. -1.
         11    1    1    2    0    0  0.24285388307E+02  0.78896557663E+01 -0.63912748409E+01  0.26322521677E+02  0.00000000000E+00 0.  1.
</event>
<event>
 7    1  0.2900135E-009  0.1473844E+03  0.7561462E-02  0.1203724E+00
          1   -1    0    0  501    0  0.00000000000E+00  0.00000000000E+00  0.10105411025E+04  0.10105411025E+04  0.00000000000E+00 0. -1.
         -1   -1    0    0    0  501 -0.00000000000E+00 -0.00000000000E+00 -0.22572086862E+02  0.22572086862E+02  0.00000000000E+00 0.  1.
         25    2    1    2    0    0 -0.73744543336E+02  0.72534714869E+02  0.51351663669E+03  0.53856008192E+03  0.12509229852E+03 0.  0.
          5    1    3    3  502    0 -0.16337183269E+02 -0.35122453962E+02  0.97328848653E+02  0.10483733834E+03  0.41800000000E+01 0.  1.
         -5    1    3    3    0  502 -0.57407360067E+02  0.10765716883E+03  0.41618778804E+03  0.43372274359E+03  0.41800000000E+01 0.  1.
        -11    1    1    2    0    0  0.84061992581E+02 -0.28899558008E+02  0.37610280680E+03  0.38646464824E+03  0.00000000000E+00 0. -1.
         11    1    1    2    0    0 -0.10317449245E+02 -0.43635156861E+02  0.98349572176E+02  0.10808845924E+03  0.00000000000E+00 0.  1.
</event>
<event>
 7    1  0.3250408E-009  0.1262353E+03  0.7561462E-02  0.1233151E+00
          2   -1    0    0  501    0  0.00000000000E+00  0.00000000000E+00  0.74151664993E+03  0.74151664993E+03  0.00000000000E+00 0. -1.
         -2   -1    0    0    0  501 -0.00000000000E+00 -0.00000000000E+00 -0.26319299318E+02  0.26319299318E+02  0.00000000000E+00 0.  1.
         25    2    1    2    0    0 -0.25486496160E+02 -0.73473147477E+02  0.27928733478E+03  0.31575580415E+03  0.12510974223E+03 0.  0.
          5    1    3    3  502    0 -0.71007967691E+02 -0.23300507915E+02  0.18509150462E+03  0.19965315581E+03  0.41800000000E+01 0.  1.
         -5    1    3    3    0  502  0.45521471531E+02 -0.50172639563E+02  0.94195830161E+02  0.11610264834E+03  0.41800000000E+01 0.  1.
        -11    1    1    2    0    0  0.35593272843E+02  0.12514430376E-01  0.67792076691E+02  0.76567923377E+02  0.00000000000E+00 0.  1.
         11    1    1    2    0    0 -0.10106776682E+02  0.73460633047E+02  0.36811793914E+03  0.37551222172E+03  0.00000000000E+00 0. -1.
</event>
<event>
 7    1  0.2900135E-009  0.7589165E+02  0.7561462E-02  0.1341132E+00
          1   -1    0    0  501    0  0.00000000000E+00  0.00000000000E+00  0.10162727575E+03  0.10162727575E+03  0.00000000000E+00 0. -1.
         -1   -1    0    0    0  501 -0.00000000000E+00 -0.00000000000E+00 -0.12683919564E+03  0.12683919564E+03  0.00000000000E+00 0.  1.
         25    2    1    2    0    0 -0.27147216605E+02  0.40554058583E+02 -0.11521869522E+02  0.13476793100E+03  0.12509212090E+03 0.  0.
          5    1    3    3  502    0  0.66778772300E+01  0.26507410051E+01 -0.62280343909E+02  0.62832587958E+02  0.41800000000E+01 0.  1.
         -5    1    3    3    0  502 -0.33825093835E+02  0.37903317578E+02  0.50758474386E+02  0.71935343041E+02  0.41800000000E+01 0.  1.
        -11    1    1    2    0    0  0.45044339537E+02  0.32672918087E+01 -0.97228570656E+01  0.46197420595E+02  0.00000000000E+00 0.  1.
         11    1    1    2    0    0 -0.17897122933E+02 -0.43821350392E+02 -0.39671933063E+01  0.47501119799E+02  0.00000000000E+00 0. -1.
</event>
<event>
 7    1  0.2900135E-009  0.1071696E+03  0.7561462E-02  0.1265903E+00
         -2   -1    0    0    0  501 -0.00000000000E+00  0.00000000000E+00  0.28084375908E+02  0.28084375908E+02  0.00000000000E+00 0.  1.
          2   -1    0    0  501    0  0.00000000000E+00 -0.00000000000E+00 -0.54169839531E+03  0.54169839531E+03  0.00000000000E+00 0. -1.
         25    2    1    2    0    0 -0.12562211946E+02  0.52830598057E+02 -0.24233084724E+03  0.27806630295E+03  0.12509095912E+03 0.  0.
          5    1    3    3  502    0 -0.41456029127E+02 -0.96421788384E+01 -0.18033656090E+03  0.18533839743E+03  0.41800000000E+01 0. -1.
         -5    1    3    3    0  502  0.28893817181E+02  0.62472776895E+02 -0.61994286340E+02  0.92727905525E+02  0.41800000000E+01 0. -1.
        -11    1    1    2    0    0  0.47125241644E+02 -0.48762105901E+02 -0.13519494786E+03  0.15124881917E+03  0.00000000000E+00 0. -1.
         11    1    1    2    0    0 -0.34563029697E+02 -0.40684921565E+01 -0.13608822430E+03  0.14046764910E+03  0.00000000000E+00 0.  1.
</event>
<event>
 7    1  0.2900135E-009  0.1041618E+03  0.7561462E-02  0.1271780E+00
         -2   -1    0    0    0  501 -0.00000000000E+00  0.00000000000E+00  0.96517300997E+02  0.96517300997E+02  0.00000000000E+00 0. -1.
          2   -1    0    0  501    0  0.00000000000E+00 -0.00000000000E+00 -0.13151507256E+03  0.13151507256E+03  0.00000000000E+00 0.  1.
         25    2    1    2    0    0 -0.27357794142E+02 -0.12240506156E+02 -0.49862097405E+02  0.13796017847E+03  0.12509397745E+03 0.  0.
          5    1    3    3  502    0 -0.18940570015E+01 -0.64115337193E+02 -0.46107982959E+01  0.64444517037E+02  0.41800000000E+01 0.  1.
         -5    1    3    3    0  502 -0.25463737140E+02  0.51874831036E+02 -0.45251299109E+02  0.73515661428E+02  0.41800000000E+01 0.  1.
        -11    1    1    2    0    0  0.53919881337E+02  0.21396270492E+02 -0.57689498064E+00  0.58012815844E+02  0.00000000000E+00 0. -1.
         11    1    1    2    0    0 -0.26562087195E+02 -0.91557643354E+01  0.15441220828E+02  0.32059379242E+02  0.00000000000E+00 0.  1.
</event>
<event>
 7    1  0.2900135E-009  0.1143919E+03  0.7561462E-02  0.1252646E+00
         -1   -1    0    0    0  501 -0.00000000000E+00  0.00000000000E+00  0.32881345008E+03  0.32881345008E+03  0.00000000000E+00 0.  1.
          1   -1    0    0  501    0  0.00000000000E+00 -0.00000000000E+00 -0.48223631116E+02  0.48223631116E+02  0.00000000000E+00 0. -1.
         25    2    1    2    0    0 -0.58737838959E+02 -0.22437157436E+00  0.12690026779E+03  0.18762013865E+03  0.12508978532E+03 0.  0.
          5    1    3    3  502    0 -0.63934534280E+02 -0.52180912048E+02  0.57495214943E+02  0.10066600418E+03  0.41800000000E+01 0. -1.
         -5    1    3    3    0  502  0.51966953217E+01  0.51956540474E+02  0.69405052847E+02  0.86954134467E+02  0.41800000000E+01 0. -1.
        -11    1    1    2    0    0  0.55489136831E+02 -0.30198094714E+02  0.14412298749E+03  0.15736074719E+03  0.00000000000E+00 0.  1.
         11    1    1    2    0    0  0.32487021274E+01  0.30422466288E+02  0.95665636784E+01  0.32056195364E+02  0.00000000000E+00 0. -1.
</event>
<event>
 7    1  0.2900135E-009  0.7882376E+02  0.7561462E-02  0.1332423E+00
         -3   -1    0    0    0  501 -0.00000000000E+00  0.00000000000E+00  0.38907961937E+03  0.38907961937E+03  0.00000000000E+00 0.  1.
          3   -1    0    0  501    0  0.00000000000E+00 -0.00000000000E+00 -0.32987613476E+02  0.32987613476E+02  0.00000000000E+00 0. -1.
         25    2    1    2    0    0 -0.23329400925E+02 -0.18493605631E+02  0.23415227858E+03  0.26712678859E+03  0.12507260781E+03 0.  0.
          5    1    3    3  502    0  0.90361301483E+01 -0.56844605203E+02  0.19494220483E+03  0.20330493455E+03  0.41800000000E+01 0.  1.
         -5    1    3    3    0  502 -0.32365531074E+02  0.38350999573E+02  0.39210073747E+02  0.63821854040E+02  0.41800000000E+01 0.  1.
        -11    1    1    2    0    0  0.28392077701E+02 -0.20084318220E+01  0.12943827581E+03  0.13253079310E+03  0.00000000000E+00 0.  1.
         11    1    1    2    0    0 -0.50626767754E+01  0.20502037453E+02 -0.74985484868E+01  0.22409651163E+02  0.00000000000E+00 0. -1.
</event>
<event>
 7    1  0.2900135E-009  0.1705050E+03  0.7561462E-02  0.1177322E+00
         -1   -1    0    0    0  501 -0.00000000000E+00  0.00000000000E+00  0.73675152002E+03  0.73675152002E+03  0.00000000000E+00 0.  1.
          1   -1    0    0  501    0  0.00000000000E+00 -0.00000000000E+00 -0.75221174619E+02  0.75221174619E+02  0.00000000000E+00 0. -1.
         25    2    1    2    0    0 -0.12274944221E+03 -0.56825195967E+02  0.61174753843E+03  0.63888983225E+03  0.12509451835E+03 0.  0.
          5    1    3    3  502    0 -0.14508577747E+03 -0.48391833929E+02  0.57391081763E+03  0.59395517626E+03  0.41800000000E+01 0.  1.
         -5    1    3    3    0  502  0.22336335260E+02 -0.84333620387E+01  0.37836720799E+02  0.44934655990E+02  0.41800000000E+01 0.  1.
        -11    1    1    2    0    0  0.41876398323E+02 -0.24961538205E+02  0.27339013688E+02  0.55893942386E+02  0.00000000000E+00 0. -1.
         11    1    1    2    0    0  0.80873043885E+02  0.81786734172E+02  0.22443793282E+02  0.11718892000E+03  0.00000000000E+00 0.  1.
</event>
<event>
 7    1  0.2900135E-009  0.1586646E+03  0.7561462E-02  0.1190213E+00
         -3   -1    0    0    0  501 -0.00000000000E+00  0.00000000000E+00  0.12213196087E+03  0.12213196087E+03  0.00000000000E+00 0.  1.
          3   -1    0    0  501    0  0.00000000000E+00 -0.00000000000E+00 -0.27689192489E+03  0.27689192489E+03  0.00000000000E+00 0. -1.
         25    2    1    2    0    0  0.10531654778E+02  0.13196856603E+03 -0.12767126141E+02  0.18258420341E+03  0.12508946259E+03 0.  0.
          5    1    3    3  502    0 -0.45111783748E+02  0.11109255393E+03 -0.22927695336E+02  0.12214655208E+03  0.41800000000E+01 0. -1.
         -5    1    3    3    0  502  0.55643438526E+02  0.20876012108E+02  0.10160569194E+02  0.60437651335E+02  0.41800000000E+01 0. -1.
        -11    1    1    2    0    0  0.10965865746E+02 -0.13593991338E+02  0.11874448447E+02  0.21119880160E+02  0.00000000000E+00 0.  1.
         11    1    1    2    0    0 -0.21497520524E+02 -0.11837457470E+03 -0.15386728633E+03  0.19531980219E+03  0.00000000000E+00 0. -1.
</event>
<event>
 7    1  0.2900135E-009  0.1091880E+03  0.7561462E-02  0.1262081E+00
         -2   -1    0    0    0  501 -0.00000000000E+00  0.00000000000E+00  0.20130216356E+03  0.20130216356E+03  0.00000000000E+00 0.  1.
          2   -1    0    0  501    0  0.00000000000E+00 -0.00000000000E+00 -0.11497701623E+03  0.11497701623E+03  0.00000000000E+00 0. -1.
         25    2    1    2    0    0  0.24157210537E+00 -0.50100265960E+02 -0.50998930064E+02  0.14408124537E+03  0.12509364250E+03 0.  0.
          5    1    3    3  502    0  0.41530676805E+02  0.90465022508E+01 -0.57398035650E+02  0.71544693831E+02  0.41800000000E+01 0. -1.
         -5    1    3    3    0  502 -0.41289104700E+02 -0.59146768211E+02  0.63991055859E+01  0.72536551538E+02  0.41800000000E+01 0. -1.
        -11    1    1    2    0    0 -0.15736481758E+02  0.73600451211E+02  0.10704235430E+03  0.13085384553E+03  0.00000000000E+00 0.  1.
         11    1    1    2    0    0  0.15494909652E+02 -0.23500185251E+02  0.30281723098E+02  0.41344088885E+02  0.00000000000E+00 0. -1.
</event>
<event>
 7    1  0.2900135E-009  0.1396527E+03  0.7561462E-02  0.1213797E+00
          1   -1    0    0  501    0  0.00000000000E+00  0.00000000000E+00  0.17976582016E+03  0.17976582016E+03  0.00000000000E+00 0. -1.
         -1   -1    0    0    0  501 -0.00000000000E+00 -0.00000000000E+00 -0.14660153899E+03  0.14660153899E+03  0.00000000000E+00 0.  1.
         25    2    1    2    0    0 -0.11477148972E+03  0.17015492894E+02  0.51898363303E+02  0.17833322857E+03  0.12508908204E+03 0.  0.
          5    1    3    3  502    0 -0.53065429153E+02 -0.23883160069E+02 -0.31856619968E+02  0.66473015140E+02  0.41800000000E+01 0. -1.
         -5    1    3    3    0  502 -0.61706060567E+02  0.40898652963E+02  0.83754983271E+02  0.11186021343E+03  0.41800000000E+01 0. -1.
        -11    1    1    2    0    0  0.45393404339E+02 -0.52075217153E+02 -0.10255652357E+02  0.69839586226E+02  0.00000000000E+00 0. -1.
         11    1    1    2    0    0  0.69378085381E+02  0.35059724258E+02 -0.84784297704E+01  0.78194544359E+02  0.00000000000E+00 0.  1.
</event>
<event>
 7    1  0.2900135E-009  0.1157445E+03  0.7561462E-02  0.1250287E+00
          2   -1    0    0  501    0  0.00000000000E+00  0.00000000000E+00  0.13057871458E+04  0.13057871458E+04  0.00000000000E+00 0. -1.
         -2   -1    0    0    0  501 -0.00000000000E+00 -0.00000000000E+00 -0.11772739578E+02  0.11772739578E+02  0.00000000000E+00 0.  1.
         25    2    1    2    0    0 -0.28563217088E+02  0.29324367274E+02  0.95657814103E+03  0.96559059745E+03  0.12509071149E+03 0.  0.
          5    1    3    3  502    0 -0.67798886032E+01  0.77850293939E+02  0.57366033219E+03  0.57897347459E+03  0.41800000000E+01 0. -1.
         -5    1    3    3    0  502 -0.21783328485E+02 -0.48525926665E+02  0.38291780885E+03  0.38661712286E+03  0.41800000000E+01 0. -1.
        -11    1    1    2    0    0 -0.22987069700E+02  0.18540178155E+02  0.89465280527E+02  0.94213480984E+02  0.00000000000E+00 0.  1.
         11    1    1    2    0    0  0.51550286789E+02 -0.47864545429E+02  0.24797098469E+03  0.25775580697E+03  0.00000000000E+00 0. -1.
</event>
<event>
 6    1  0.2900135E-009  0.9912239E+02  0.7561462E-02  0.1282152E+00
          2   -1    0    0  501    0  0.00000000000E+00  0.00000000000E+00  0.65103803658E+02  0.65103803658E+02  0.00000000000E+00 0. -1.
         -2   -1    0    0    0  501 -0.00000000000E+00 -0.00000000000E+00 -0.24840291615E+03  0.24840291615E+03  0.00000000000E+00 0.  1.
          5    1    1    2  502    0 -0.31201816629E+02 -0.57438429757E+00 -0.54430064868E+02  0.62880741407E+02  0.41800000000E+01 0. -1.
         -5    1    1    2    0  502  0.69933238108E+02 -0.26961874044E+01  0.19127322467E+02  0.72672237365E+02  0.41800000000E+01 0. -1.
        -11    1    1    2    0    0 -0.67573557341E+02  0.49762098176E+01 -0.85425118117E+02  0.10903393564E+03  0.00000000000E+00 0. -1.
         11    1    1    2    0    0  0.28842135862E+02 -0.17056381155E+01 -0.62571251974E+02  0.68919805397E+02  0.00000000000E+00 0.  1.
</event>
<event>
 7    1  0.2900135E-009  0.1054311E+03  0.7561462E-02  0.1269273E+00
         -1   -1    0    0    0  501 -0.00000000000E+00  0.00000000000E+00  0.51064413724E+02  0.51064413724E+02  0.00000000000E+00 0.  1.
          1   -1    0    0  501    0  0.00000000000E+00 -0.00000000000E+00 -0.33017823410E+03  0.33017823410E+03  0.00000000000E+00 0. -1.
         25    2    1    2    0    0  0.49065036742E+02  0.60007384880E+02 -0.17860661072E+03  0.23142077401E+03  0.12508792579E+03 0.  0.
          5    1    3    3  502    0  0.67831741024E+02  0.37458513449E+01 -0.36179408276E+02  0.77081764872E+02  0.41800000000E+01 0.  1.
         -5    1    3    3    0  502 -0.18766704282E+02  0.56261533535E+02 -0.14242720244E+03  0.15433900914E+03  0.41800000000E+01 0.  1.
        -11    1    1    2    0    0 -0.12038260910E+01 -0.22508683375E+02  0.92370914424E+01  0.24360087907E+02  0.00000000000E+00 0.  1.
         11    1    1    2    0    0 -0.47861210651E+02 -0.37498701506E+02 -0.10974430110E+03  0.12546178590E+03  0.00000000000E+00 0. -1.
</event>
<event>
 7    1  0.2900135E-009  0.9667891E+02  0.7561462E-02  0.1287439E+00
         -1   -1    0    0    0  501 -0.00000000000E+00  0.00000000000E+00  0.28326762380E+02  0.28326762380E+02  0.00000000000E+00 0.  1.
          1   -1    0    0  501    0  0.00000000000E+00 -0.00000000000E+00 -0.52732012197E+03  0.52732012197E+03  0.00000000000E+00 0. -1.
         25    2    1    2    0    0  0.41242840172E+02  0.45306789946E+01 -0.36809751386E+03  0.39097926105E+03  0.12508998338E+03 0.  0.
          5    1    3    3  502    0  0.46300024794E+02  0.59591713887E+02 -0.23272838806E+03  0.24469335845E+03  0.41800000000E+01 0. -1.
         -5    1    3    3    0  502 -0.50571846218E+01 -0.55061034892E+02 -0.13536912580E+03  0.14628590260E+03  0.41800000000E+01 0. -1.
        -11    1    1    2    0    0 -0.22790321146E+01  0.17445171234E+02  0.75716153968E+01  0.19153520472E+02  0.00000000000E+00 0.  1.
         11    1    1    2    0    0 -0.38963808057E+02 -0.21975850228E+02 -0.13846746113E+03  0.14551410283E+03  0.00000000000E+00 0. -1.
</event>
<event>
 7    1  0.3348440E-009  0.2744712E+03  0.7561462E-02  0.1098748E+00
          1   -1    0    0  501    0  0.00000000000E+00  0.00000000000E+00  0.12182118795E+04  0.12182118795E+04  0.00000000000E+00 0. -1.
         -1   -1    0    0    0  501 -0.00000000000E+00 -0.00000000000E+00 -0.67218783459E+02  0.67218783459E+02  0.00000000000E+00 0.  1.
         25    2    1    2    0    0  0.25917091548E+03 -0.42432310759E+02  0.65960596333E+03  0.72090043126E+03  0.12508933009E+03 0.  0.
          5    1    3    3  502    0  0.20212754855E+03 -0.80197492587E+02  0.55219729571E+03  0.59348673910E+03  0.41800000000E+01 0.  1.
         -5    1    3    3    0  502  0.57043366934E+02  0.37765181828E+02  0.10740866762E+03  0.12741369216E+03  0.41800000000E+01 0.  1.
        -11    1    1    2    0    0 -0.13295169971E+03  0.27967914663E+02  0.34450562941E+03  0.37032754071E+03  0.00000000000E+00 0. -1.
         11    1    1    2    0    0 -0.12621921576E+03  0.14464396096E+02  0.14688150334E+03  0.19420269104E+03  0.00000000000E+00 0.  1.
</event>
<event>
 7    1  0.2900135E-009  0.2548374E+03  0.7561462E-02  0.1110285E+00
          2   -1    0    0  501    0  0.00000000000E+00  0.00000000000E+00  0.17366004021E+04  0.17366004021E+04  0.00000000000E+00 0. -1.
         -2   -1    0    0    0  501 -0.00000000000E+00 -0.00000000000E+00 -0.75536335547E+02  0.75536335547E+02  0.00000000000E+00 0.  1.
         25    2    1    2    0    0  0.11186535454E+03 -0.20525865110E+03  0.20711341422E+03  0.33643665412E+03  0.12509470208E+03 0.  0.
          5    1    3    3  502    0  0.41754691965E+02 -0.16680353915E+01  0.68406476082E+02  0.80269265682E+02  0.41800000000E+01 0.  1.
         -5    1    3    3    0  502  0.70110662574E+02 -0.20359061571E+03  0.13870693814E+03  0.25616738844E+03  0.41800000000E+01 0.  1.
        -11    1    1    2    0    0 -0.48559675461E+02  0.17599435461E+03  0.10321496584E+04  0.10481722054E+04  0.00000000000E+00 0. -1.
         11    1    1    2    0    0 -0.63305679078E+02  0.29264296496E+02  0.42180099400E+03  0.42752787815E+03  0.00000000000E+00 0.  1.
</event>
<event>
 7    1  0.2900135E-009  0.1400952E+03  0.7561462E-02  0.1213201E+00
          2   -1    0    0  501    0  0.00000000000E+00  0.00000000000E+00  0.64827023669E+02  0.64827023669E+02  0.00000000000E+00 0.  1.
         -2   -1    0    0    0  501 -0.00000000000E+00 -0.00000000000E+00 -0.30958408059E+03  0.30958408059E+03  0.00000000000E+00 0. -1.
         25    2    1    2    0    0  0.61190344597E+02 -0.55617101375E+02 -0.13477206538E+03  0.20161784295E+03  0.12509486302E+03 0.  0.
          5    1    3    3  502    0  0.73690856222E+02 -0.87989714877E+02 -0.99396114856E+02  0.15188677448E+03  0.41800000000E+01 0.  1.
         -5    1    3    3    0  502 -0.12500511626E+02  0.32372613502E+02 -0.35375950520E+02  0.49731068469E+02  0.41800000000E+01 0.  1.
        -11    1    1    2    0    0 -0.86353831169E+02  0.59583817764E+02 -0.72720721812E+02  0.12765390271E+03  0.00000000000E+00 0.  1.
         11    1    1    2    0    0  0.25163486573E+02 -0.39667163892E+01 -0.37264269734E+02  0.45139358593E+02  0.00000000000E+00 0. -1.
</event>
<event>
 7    1  0.2900135E-009  0.8324774E+02  0.7561462E-02  0.1320080E+00
          2   -1    0    0  501    0  0.00000000000E+00  0.00000000000E+00  0.30117236584E+03  0.30117236584E+03  0.00000000000E+00 0. -1.
         -2   -1    0    0    0  501 -0.00000000000E+00 -0.00000000000E+00 -0.51002085474E+02  0.51002085474E+02  0.00000000000E+00 0.  1.
         25    2    1    2    0    0 -0.26193262024E+02  0.51051656905E+02  0.15763988280E+03  0.20926094753E+03  0.12508977921E+03 0.  0.
          5    1    3    3  502    0 -0.26467895647E+02  0.51852696037E+02  0.72558164697E+01  0.58816416577E+02  0.41800000000E+01 0.  1.
         -5    1    3    3    0  502  0.27463362263E+00 -0.80103913200E+00  0.15038406633E+03  0.15044453095E+03  0.41800000000E+01 0.  1.
        -11    1    1    2    0    0 -0.30596230226E+02 -0.55543094614E+01  0.95126837265E+01  0.32518776258E+02  0.00000000000E+00 0.  1.
         11    1    1    2    0    0  0.56789492250E+02 -0.45497347444E+02  0.83017713840E+02  0.11039472753E+03  0.00000000000E+00 0. -1.
</event>
<event>
 7    1  0.2900135E-009  0.1386521E+03  0.7561462E-02  0.1215154E+00
         -2   -1    0    0    0  501 -0.00000000000E+00  0.00000000000E+00  0.25391510951E+02  0.25391510951E+02  0.00000000000E+00 0.  1.
          2   -1    0    0  501    0  0.00000000000E+00 -0.00000000000E+00 -0.90787334100E+03  0.90787334100E+03  0.00000000000E+00 0. -1.
         25    2    1    2    0    0 -0.84092618320E+02 -0.30808472343E+02 -0.31044670037E+03  0.34647840310E+03  0.12509756042E+03 0.  0.
          5    1    3    3  502    0 -0.64483895129E+02  0.42664548857E+02 -0.16654065279E+03  0.18366191192E+03  0.41800000000E+01 0.  1.
         -5    1    3    3    0  502 -0.19608723191E+02 -0.73473021200E+02 -0.14390604758E+03  0.16281649118E+03  0.41800000000E+01 0.  1.
        -11    1    1    2    0    0  0.78339921848E+02 -0.13100084372E+02 -0.45019975733E+03  0.45715268463E+03  0.00000000000E+00 0. -1.
         11    1    1    2    0    0  0.57526964719E+01  0.43908556715E+02 -0.12183537235E+03  0.12963376422E+03  0.00000000000E+00 0.  1.
</event>
<event>
 7    1  0.2900135E-009  0.1820099E+03  0.7561462E-02  0.1165872E+00
          2   -1    0    0  501    0  0.00000000000E+00  0.00000000000E+00  0.83311546601E+03  0.83311546601E+03  0.00000000000E+00 0.  1.
         -2   -1    0    0    0  501 -0.00000000000E+00 -0.00000000000E+00 -0.68875664603E+02  0.68875664603E+02  0.00000000000E+00 0. -1.
         25    2    1    2    0    0 -0.10350793747E+03 -0.13747798799E+03  0.15851488453E+03  0.26530899123E+03  0.12509117439E+03 0.  0.
          5    1    3    3  502    0 -0.87179936515E+02 -0.74098725233E+02  0.16342890655E+03  0.19954308384E+03  0.41800000000E+01 0. -1.
         -5    1    3    3    0  502 -0.16328000950E+02 -0.63379262754E+02 -0.49140220212E+01  0.65765907389E+02  0.41800000000E+01 0. -1.
        -11    1    1    2    0    0  0.55554663423E+02  0.23555882466E+02  0.31572718893E+03  0.32144184241E+03  0.00000000000E+00 0.  1.
         11    1    1    2    0    0  0.47953274042E+02  0.11392210552E+03  0.28999772795E+03  0.31524029697E+03  0.00000000000E+00 0. -1.
</event>
<event>
 7    1  0.2900135E-009  0.1125567E+03  0.7561462E-02  0.1255907E+00
          1   -1    0    0  501    0  0.00000000000E+00  0.00000000000E+00  0.20629132542E+03  0.20629132542E+03  0.00000000000E+00 0. -1.
         -1   -1    0    0    0  501 -0.00000000000E+00 -0.00000000000E+00 -0.96740940622E+02  0.96740940622E+02  0.00000000000E+00 0.  1.
         25    2    1    2    0    0  0.87489560071E+02 -0.22589354672E+01  0.87403993114E+02  0.17591554694E+03  0.12508915114E+03 0.  0.
          5    1    3    3  502    0  0.30888192750E+02 -0.52946056999E+02  0.19202015226E+01  0.61469707799E+02  0.41800000000E+01 0.  1.
         -5    1    3    3    0  502  0.56601367321E+02  0.50687121531E+02  0.85483791591E+02  0.11444583914E+03  0.41800000000E+01 0.  1.
        -11    1    1    2    0    0 -0.23934123229E+02  0.20707574265E+01 -0.34459933464E+02  0.42007348231E+02  0.00000000000E+00 0.  1.
         11    1    1    2    0    0 -0.63555436842E+02  0.18817804070E+00  0.56606325145E+02  0.85109370868E+02  0.00000000000E+00 0. -1.
</event>
<event>
 7    1  0.2900135E-009  0.1466836E+03  0.7561462E-02  0.1204608E+00
          2   -1    0    0  501    0  0.00000000000E+00  0.00000000000E+00  0.41432930996E+03  0.41432930996E+03  0.00000000000E+00 0. -1.
         -2   -1    0    0    0  501 -0.00000000000E+00 -0.00000000000E+00 -0.91826965632E+02  0.91826965632E+02  0.00000000000E+00 0.  1.
         25    2    1    2    0    0  0.71430882643E+02  0.11675925716E+03  0.28084900696E+03  0.33654292196E+03  0.12509947434E+03 0.  0.
          5    1    3    3  502    0  0.47664785919E+02  0.12261865947E+03  0.13481970920E+03  0.18841733958E+03  0.41800000000E+01 0.  1.
         -5    1    3    3    0  502  0.23766096724E+02 -0.58594023046E+01  0.14602929777E+03  0.14812558238E+03  0.41800000000E+01 0.  1.
        -11    1    1    2    0    0 -0.50581892694E+02 -0.79922953301E+02 -0.18186247485E+02  0.96316903659E+02  0.00000000000E+00 0.  1.
         11    1    1    2    0    0 -0.20848989949E+02 -0.36836303860E+02  0.59839584845E+02  0.73296449971E+02  0.00000000000E+00 0. -1.
</event>
<event>
 7    1  0.2900135E-009  0.9940648E+02  0.7561462E-02  0.1281549E+00
          1   -1    0    0  501    0  0.00000000000E+00  0.00000000000E+00  0.29022878044E+03  0.29022878044E+03  0.00000000000E+00 0. -1.
         -1   -1    0    0    0  501 -0.00000000000E+00 -0.00000000000E+00 -0.56287845895E+02  0.56287845895E+02  0.00000000000E+00 0.  1.
         25    2    1    2    0    0 -0.49688379154E+02 -0.37656790177E+02  0.16359333095E+03  0.21513560220E+03  0.12503431742E+03 0.  0.
          5    1    3    3  502    0 -0.21865398501E+01  0.15736490104E+02  0.13820752010E+03  0.13918049105E+03  0.41800000000E+01 0.  1.
         -5    1    3    3    0  502 -0.47501839304E+02 -0.53393280281E+02  0.25385810851E+02  0.75955111145E+02  0.41800000000E+01 0.  1.
        -11    1    1    2    0    0 -0.11298755790E+02 -0.22472438391E+02  0.19010156563E+02  0.31528692047E+02  0.00000000000E+00 0. -1.
         11    1    1    2    0    0  0.60987134944E+02  0.60129228567E+02  0.51337447033E+02  0.99852332094E+02  0.00000000000E+00 0.  1.
</event>
<event>
 7    1  0.2900135E-009  0.9237957E+02  0.7561462E-02  0.1297189E+00
         -1   -1    0    0    0  501 -0.00000000000E+00  0.00000000000E+00  0.33638035582E+03  0.33638035582E+03  0.00000000000E+00 0.  1.
          1   -1    0    0  501    0  0.00000000000E+00 -0.00000000000E+00 -0.64803900373E+02  0.64803900373E+02  0.00000000000E+00 0. -1.
         25    2    1    2    0    0 -0.11823862045E+02 -0.33306376070E+02  0.20688775455E+02  0.13162131669E+03  0.12508807768E+03 0.  0.
          5    1    3    3  502    0  0.15422138691E+02 -0.55609930313E+02  0.56751787033E+02  0.81046557254E+02  0.41800000000E+01 0.  1.
         -5    1    3    3    0  502 -0.27246000736E+02  0.22303554243E+02 -0.36063011578E+02  0.50574759437E+02  0.41800000000E+01 0.  1.
        -11    1    1    2    0    0  0.32129903662E+02  0.53753603441E+02  0.21266810377E+03  0.22169687177E+03  0.00000000000E+00 0.  1.
         11    1    1    2    0    0 -0.20306041617E+02 -0.20447227371E+02  0.38219576221E+02  0.47866067729E+02  0.00000000000E+00 0. -1.
</event>
<event>
 7    1  0.2900135E-009  0.1307138E+03  0.7561462E-02  0.1226400E+00
          1   -1    0    0  501    0  0.00000000000E+00  0.00000000000E+00  0.22649907374E+03  0.22649907374E+03  0.00000000000E+00 0. -1.
         -1   -1    0    0    0  501 -0.00000000000E+00 -0.00000000000E+00 -0.11778693569E+03  0.11778693569E+03  0.00000000000E+00 0.  1.
         25    2    1    2    0    0 -0.64558179701E+02  0.93363948159E+02  0.10542140090E+03  0.19911177624E+03  0.12508893752E+03 0.  0.
          5    1    3    3  502    0 -0.70293155554E+02  0.90885695576E+02  0.12991888756E+03  0.17348696528E+03  0.41800000000E+01 0.  1.
         -5    1    3    3    0  502  0.57349758533E+01  0.24782525833E+01 -0.24497486665E+02  0.25624810961E+02  0.41800000000E+01 0.  1.
        -11    1    1    2    0    0  0.11476616476E+02  0.14635331034E+02  0.15509063243E+02  0.24216454796E+02  0.00000000000E+00 0. -1.
         11    1    1    2    0    0  0.53081563225E+02 -0.10799927919E+03 -0.12218326081E+02  0.12095777839E+03  0.00000000000E+00 0.  1.
</event>
<event>
 7    1  0.2900135E-009  0.1357459E+03  0.7561462E-02  0.1219171E+00
          2   -1    0    0  501    0  0.00000000000E+00  0.00000000000E+00  0.22340326343E+03  0.22340326343E+03  0.00000000000E+00 0. -1.
         -2   -1    0    0    0  501 -0.00000000000E+00 -0.00000000000E+00 -0.11954013091E+03  0.11954013091E+03  0.00000000000E+00 0.  1.
         25    2    1    2    0    0 -0.11075721158E+03  0.30981645363E+02  0.12599032671E+02  0.17039534683E+03  0.12509522904E+03 0.  0.
          5    1    3    3  502    0 -0.91227388168E+02 -0.27737709456E+01 -0.44100895937E+02  0.10145191757E+03  0.41800000000E+01 0.  1.
         -5    1    3    3    0  502 -0.19529823415E+02  0.33755416308E+02  0.56699928608E+02  0.68943429252E+02  0.41800000000E+01 0.  1.
        -11    1    1    2    0    0  0.78288677249E+02 -0.58990262838E+02  0.40408250279E+02  0.10602733037E+03  0.00000000000E+00 0.  1.
         11    1    1    2    0    0  0.32468534334E+02  0.28008617475E+02  0.50855849570E+02  0.66520717149E+02  0.00000000000E+00 0. -1.
</event>
<event>
 7    1  0.2900135E-009  0.7461846E+02  0.7561462E-02  0.1345057E+00
          1   -1    0    0  501    0  0.00000000000E+00  0.00000000000E+00  0.11894704540E+03  0.11894704540E+03  0.00000000000E+00 0. -1.
         -1   -1    0    0    0  501 -0.00000000000E+00 -0.00000000000E+00 -0.11226075638E+03  0.11226075638E+03  0.00000000000E+00 0.  1.
         25    2    1    2    0    0  0.16826735932E+02  0.87002368614E+01  0.33236332546E+02  0.13081085316E+03  0.12509193555E+03 0.  0.
          5    1    3    3  502    0  0.21238688669E+02 -0.30332741194E+02  0.68420780063E+02  0.77910414125E+02  0.41800000000E+01 0.  1.
         -5    1    3    3    0  502 -0.44119527365E+01  0.39032978055E+02 -0.35184447518E+02  0.52900439033E+02  0.41800000000E+01 0.  1.
        -11    1    1    2    0    0  0.43119155086E+00 -0.38248189842E+02 -0.46949738733E+02  0.60558962338E+02  0.00000000000E+00 0.  1.
         11    1    1    2    0    0 -0.17257927483E+02  0.29547952980E+02  0.20399695213E+02  0.39837986284E+02  0.00000000000E+00 0. -1.
</event>
<event>
 7    1  0.2900135E-009  0.9919422E+02  0.7561462E-02  0.1282000E+00
          1   -1    0    0  501    0  0.00000000000E+00  0.00000000000E+00  0.30548023415E+03  0.30548023415E+03  0.00000000000E+00 0. -1.
         -1   -1    0    0    0  501 -0.00000000000E+00 -0.00000000000E+00 -0.48458989441E+02  0.48458989441E+02  0.00000000000E+00 0.  1.
         25    2    1    2    0    0 -0.19840925916E+02 -0.31289015272E+02  0.15354181370E+03  0.20148297338E+03  0.12509050799E+03 0.  0.
          5    1    3    3  502    0 -0.13427512675E+02  0.31432697804E+02  0.12929724980E+03  0.13380419946E+03  0.41800000000E+01 0. -1.
         -5    1    3    3    0  502 -0.64134132411E+01 -0.62721713075E+02  0.24244563908E+02  0.67678773922E+02  0.41800000000E+01 0. -1.
        -11    1    1    2    0    0 -0.29996735788E+02  0.40179344951E+02  0.84762093613E+02  0.98482467639E+02  0.00000000000E+00 0. -1.
         11    1    1    2    0    0  0.49837661704E+02 -0.88903296793E+01  0.18717337389E+02  0.53973782570E+02  0.00000000000E+00 0.  1.
</event>
<event>
 7    1  0.2900135E-009  0.1059134E+03  0.7561462E-02  0.1268330E+00
         -1   -1    0    0    0  501 -0.00000000000E+00  0.00000000000E+00  0.34620437268E+03  0.34620437268E+03  0.00000000000E+00 0.  1.
          1   -1    0    0  501    0  0.00000000000E+00 -0.00000000000E+00 -0.59105088213E+02  0.59105088213E+02  0.00000000000E+00 0. -1.
         25    2    1    2    0    0 -0.65580855968E+02 -0.44363810407E+01  0.24949528851E+03  0.28673299208E+03  0.12508948642E+03 0.  0.
          5    1    3    3  502    0  0.24959106857E+01 -0.27260451618E+02  0.64677059826E+00  0.27699323182E+02  0.41800000000E+01 0.  1.
         -5    1    3    3    0  502 -0.68076766653E+02  0.22824070577E+02  0.24884851792E+03  0.25903366890E+03  0.41800000000E+01 0.  1.
        -11    1    1    2    0    0  0.21372879141E+02  0.46508623299E+02  0.13276499561E+02  0.52878326794E+02  0.00000000000E+00 0. -1.
         11    1    1    2    0    0  0.44207976827E+02 -0.42072242258E+02  0.24327496393E+02  0.65698142017E+02  0.00000000000E+00 0.  1.
</event>
<event>
 7    1  0.2900135E-009  0.9977716E+02  0.7561462E-02  0.1280765E+00
         -2   -1    0    0    0  501 -0.00000000000E+00  0.00000000000E+00  0.38284737489E+02  0.38284737489E+02  0.00000000000E+00 0.  1.
          2   -1    0    0  501    0  0.00000000000E+00 -0.00000000000E+00 -0.39014065226E+03  0.39014065226E+03  0.00000000000E+00 0. -1.
         25    2    1    2    0    0  0.45914918374E+02 -0.27916972244E+02 -0.23630948500E+03  0.27272413216E+03  0.12509493392E+03 0.  0.
          5    1    3    3  502    0  0.35104735491E+02 -0.63866791738E+02 -0.21961130324E+03  0.23142581198E+03  0.41800000000E+01 0.  1.
         -5    1    3    3    0  502  0.10810182883E+02  0.35949819494E+02 -0.16698181762E+02  0.41298320181E+02  0.41800000000E+01 0.  1.
        -11    1    1    2    0    0 -0.16411265142E+02  0.49551234980E+02 -0.24665220030E+02  0.57732379049E+02  0.00000000000E+00 0.  1.
         11    1    1    2    0    0 -0.29503653232E+02 -0.21634262735E+02 -0.90881209739E+02  0.97968878537E+02  0.00000000000E+00 0. -1.
</event>
<event>
 7    1  0.2900135E-009  0.2636460E+03  0.7561462E-02  0.1104972E+00
          2   -1    0    0  501    0  0.00000000000E+00  0.00000000000E+00  0.11213415583E+04  0.11213415583E+04  0.00000000000E+00 0. -1.
         -2   -1    0    0    0  501 -0.00000000000E+00 -0.00000000000E+00 -0.71134237377E+02  0.71134237377E+02  0.00000000000E+00 0.  1.
         25    2    1    2    0    0 -0.21072506120E+03 -0.13459124978E+03  0.61828201666E+03  0.67855735159E+03  0.12509025278E+03 0.  0.
          5    1    3    3  502    0 -0.43234877778E+02 -0.35595376582E+02  0.41493480782E+02  0.69824543235E+02  0.41800000000E+01 0.  1.
         -5    1    3    3    0  502 -0.16749018342E+03 -0.98995873195E+02  0.57678853587E+03  0.60873280836E+03  0.41800000000E+01 0.  1.
        -11    1    1    2    0    0  0.20943366648E+03  0.83568729748E+02  0.32662182226E+03  0.39689798188E+03  0.00000000000E+00 0. -1.
         11    1    1    2    0    0  0.12913947174E+01  0.51022520029E+02  0.10530348198E+03  0.11702046218E+03  0.00000000000E+00 0.  1.
</event>
<event>
 7    1  0.2900135E-009  0.1865576E+03  0.7561462E-02  0.1161603E+00
         -2   -1    0    0    0  501 -0.00000000000E+00  0.00000000000E+00  0.68822788288E+02  0.68822788288E+02  0.00000000000E+00 0.  1.
          2   -1    0    0  501    0  0.00000000000E+00 -0.00000000000E+00 -0.67803857903E+03  0.67803857903E+03  0.00000000000E+00 0. -1.
         25    2    1    2    0    0 -0.94476045358E+02  0.13834254293E+03 -0.46044416622E+03  0.50568864726E+03  0.12509114851E+03 0.  0.
          5    1    3    3  502    0 -0.34535617958E+02  0.13762845293E+03 -0.37715204125E+03  0.40298316911E+03  0.41800000000E+01 0. -1.
         -5    1    3    3    0  502 -0.59940427400E+02  0.71408999691E+00 -0.83292124965E+02  0.10270547815E+03  0.41800000000E+01 0. -1.
        -11    1    1    2    0    0  0.54630094816E+02 -0.10783750270E+03 -0.14785392847E+03  0.19098208925E+03  0.00000000000E+00 0. -1.
         11    1    1    2    0    0  0.39845950542E+02 -0.30505040228E+02 -0.91769604257E+00  0.50190630798E+02  0.00000000000E+00 0.  1.
</event>
<event>
 7    1  0.3202755E-009  0.1209098E+03  0.7561462E-02  0.1241604E+00
          2   -1    0    0  501    0  0.00000000000E+00  0.00000000000E+00  0.29249780905E+03  0.29249780905E+03  0.00000000000E+00 0. -1.
         -2   -1    0    0    0  501 -0.00000000000E+00 -0.00000000000E+00 -0.71215556687E+02  0.71215556687E+02  0.00000000000E+00 0.  1.
         25    2    1    2    0    0  0.74176683880E+02  0.59775071719E+01  0.46396419205E+02  0.15276404124E+03  0.12508522517E+03 0.  0.
          5    1    3    3  502    0  0.43732154546E+02  0.57096201171E+02 -0.74289203190E+01  0.72423330401E+02  0.41800000000E+01 0. -1.
         -5    1    3    3    0  502  0.30444529334E+02 -0.51118693999E+02  0.53825339524E+02  0.80340710834E+02  0.41800000000E+01 0. -1.
        -11    1    1    2    0    0 -0.48234469586E+02  0.36412718060E+02  0.57252648306E+02  0.83248518490E+02  0.00000000000E+00 0.  1.
         11    1    1    2    0    0 -0.25942214294E+02 -0.42390225232E+02  0.11763318486E+03  0.12770080602E+03  0.00000000000E+00 0. -1.
</event>
<event>
 7    1  0.2900135E-009  0.1446526E+03  0.7561462E-02  0.1207202E+00
          3   -1    0    0  501    0  0.00000000000E+00  0.00000000000E+00  0.58223336456E+02  0.58223336456E+02  0.00000000000E+00 0. -1.
         -3   -1    0    0    0  501 -0.00000000000E+00 -0.00000000000E+00 -0.37103971955E+03  0.37103971955E+03  0.00000000000E+00 0.  1.
         25    2    1    2    0    0 -0.61619350659E+02  0.73477706691E+02 -0.13619491643E+03  0.20830793885E+03  0.12508886590E+03 0.  0.
          5    1    3    3  502    0  0.38068447255E+02  0.24284899839E+02 -0.29035708373E+02  0.53847077891E+02  0.41800000000E+01 0.  1.
         -5    1    3    3    0  502 -0.99687797915E+02  0.49192806852E+02 -0.10715920805E+03  0.15446086096E+03  0.41800000000E+01 0.  1.
        -11    1    1    2    0    0  0.31001616156E+02  0.18275269571E+02 -0.50592845051E+02  0.62086404732E+02  0.00000000000E+00 0.  1.
         11    1    1    2    0    0  0.30617734503E+02 -0.91752976262E+02 -0.12602862162E+03  0.15886871242E+03  0.00000000000E+00 0. -1.
</event>
<event>
 7    1  0.2900135E-009  0.1087348E+03  0.7561462E-02  0.1262931E+00
          4   -1    0    0  501    0  0.00000000000E+00  0.00000000000E+00  0.62677511537E+02  0.62677511537E+02  0.00000000000E+00 0. -1.
         -4   -1    0    0    0  501 -0.00000000000E+00 -0.00000000000E+00 -0.56431281824E+03  0.56431281824E+03  0.00000000000E+00 0.  1.
         25    2    1    2    0    0 -0.56515888553E+02  0.25685209368E+02 -0.49766580340E+03  0.51688703081E+03  0.12508866899E+03 0.  0.
          5    1    3    3  502    0 -0.86838652957E+02  0.50074997924E+02 -0.34598880052E+03  0.36024183482E+03  0.41800000000E+01 0.  1.
         -5    1    3    3    0  502  0.30322764405E+02 -0.24389788557E+02 -0.15167700288E+03  0.15664519600E+03  0.41800000000E+01 0.  1.
        -11    1    1    2    0    0  0.51607893136E+02 -0.38430217495E+02  0.31829940471E+02  0.71787194965E+02  0.00000000000E+00 0. -1.
         11    1    1    2    0    0  0.49079954170E+01  0.12745008127E+02 -0.35799443779E+02  0.38316104004E+02  0.00000000000E+00 0.  1.
</event>
<event>
 7    1  0.2900135E-009  0.1098007E+03  0.7561462E-02  0.1260939E+00
          1   -1    0    0  501    0  0.00000000000E+00  0.00000000000E+00  0.63869088351E+03  0.63869088351E+03  0.00000000000E+00 0. -1.
         -1   -1    0    0    0  501 -0.00000000000E+00 -0.00000000000E+00 -0.74420735617E+02  0.74420735617E+02  0.00000000000E+00 0.  1.
         25    2    1    2    0    0  0.25254004932E+02  0.84238550726E+02  0.19288229293E+02  0.15411972182E+03  0.12508778785E+03 0.  0.
          5    1    3    3  502    0 -0.77991266633E+01  0.35772786429E+02 -0.50715274609E+02  0.62689952180E+02  0.41800000000E+01 0. -1.
         -5    1    3    3    0  502  0.33053131595E+02  0.48465764296E+02  0.70003503902E+02  0.91429769636E+02  0.41800000000E+01 0. -1.
        -11    1    1    2    0    0  0.17251929580E+00  0.18296463331E+02  0.65298516988E+02  0.67813617026E+02  0.00000000000E+00 0.  1.
         11    1    1    2    0    0 -0.25426524228E+02 -0.10253501406E+03  0.47968340161E+03  0.49117828028E+03  0.00000000000E+00 0. -1.
</event>
<event>
 7    1  0.2900135E-009  0.1094589E+03  0.7561462E-02  0.1261575E+00
          1   -1    0    0  501    0  0.00000000000E+00  0.00000000000E+00  0.21820521781E+03  0.21820521781E+03  0.00000000000E+00 0. -1.
         -1   -1    0    0    0  501 -0.00000000000E+00 -0.00000000000E+00 -0.73331157660E+02  0.73331157660E+02  0.00000000000E+00 0.  1.
         25    2    1    2    0    0  0.65228232487E+02  0.22724237826E+01  0.44856761903E+02  0.14805426986E+03  0.12509217207E+03 0.  0.
          5    1    3    3  502    0  0.38170883045E+02 -0.51673090596E+02  0.57423590400E+02  0.86267408322E+02  0.41800000000E+01 0.  1.
         -5    1    3    3    0  502  0.27057349442E+02  0.53945514379E+02 -0.12566828497E+02  0.61786861540E+02  0.41800000000E+01 0.  1.
        -11    1    1    2    0    0 -0.31546163856E+02  0.32736789908E+02  0.19552510996E+02  0.49488974062E+02  0.00000000000E+00 0.  1.
         11    1    1    2    0    0 -0.33682068631E+02 -0.35009213691E+02  0.80464787250E+02  0.93993131545E+02  0.00000000000E+00 0. -1.
</event>
<event>
 7    1  0.2900135E-009  0.1089389E+03  0.7561462E-02  0.1262548E+00
          1   -1    0    0  501    0  0.00000000000E+00  0.00000000000E+00  0.54139642032E+02  0.54139642032E+02  0.00000000000E+00 0. -1.
         -1   -1    0    0    0  501 -0.00000000000E+00 -0.00000000000E+00 -0.22486736628E+03  0.22486736628E+03  0.00000000000E+00 0.  1.
         25    2    1    2    0    0 -0.41255308503E+01  0.83717022512E+01 -0.77455484379E+02  0.14741597533E+03  0.12508002366E+03 0.  0.
          5    1    3    3  502    0  0.57522904865E+02 -0.14392827221E+02 -0.40158205104E+02  0.71736963253E+02  0.41800000000E+01 0. -1.
         -5    1    3    3    0  502 -0.61648435716E+02  0.22764529472E+02 -0.37297279275E+02  0.75679012081E+02  0.41800000000E+01 0. -1.
        -11    1    1    2    0    0 -0.36635106469E+02 -0.29164981524E+02 -0.51904802083E+02  0.69905905706E+02  0.00000000000E+00 0.  1.
         11    1    1    2    0    0  0.40760637319E+02  0.20793279273E+02 -0.41367437788E+02  0.61685127273E+02  0.00000000000E+00 0. -1.
</event>
<event>
 7    1  0.2900135E-009  0.1265157E+03  0.7561462E-02  0.1232719E+00
         -1   -1    0    0    0  501 -0.00000000000E+00  0.00000000000E+00  0.34164905020E+03  0.34164905020E+03  0.00000000000E+00 0.  1.
          1   -1    0    0  501    0  0.00000000000E+00 -0.00000000000E+00 -0.62595189434E+02  0.62595189434E+02  0.00000000000E+00 0. -1.
         25    2    1    2    0    0  0.93949624883E+02 -0.16408698502E+02  0.13872660002E+03  0.20973237135E+03  0.12508725210E+03 0.  0.
          5    1    3    3  502    0 -0.30557714153E+02 -0.10203551306E+02  0.31408206757E+02  0.45186659593E+02  0.41800000000E+01 0. -1.
         -5    1    3    3    0  502  0.12450733904E+03 -0.62051471965E+01  0.10731839327E+03  0.16454571176E+03  0.41800000000E+01 0. -1.
        -11    1    1    2    0    0 -0.21872889500E+02  0.78100880380E+01 -0.11728421871E+02  0.26018774949E+02  0.00000000000E+00 0. -1.
         11    1    1    2    0    0 -0.72076735382E+02  0.85986104644E+01  0.15205568261E+03  0.16849309333E+03  0.00000000000E+00 0.  1.
</event>
<event>
 7    1  0.2900135E-009  0.8976032E+02  0.7561462E-02  0.1303433E+00
          2   -1    0    0  501    0  0.00000000000E+00  0.00000000000E+00  0.40414179446E+02  0.40414179446E+02  0.00000000000E+00 0. -1.
         -2   -1    0    0    0  501 -0.00000000000E+00 -0.00000000000E+00 -0.31819415577E+03  0.31819415577E+03  0.00000000000E+00 0.  1.
         25    2    1    2    0    0  0.23232389288E+02 -0.46105037228E+01 -0.19502511664E+03  0.23290881529E+03  0.12510283556E+03 0.  0.
          5    1    3    3  502    0 -0.27977992546E+02  0.12597626121E+02 -0.17074760920E+03  0.17353295566E+03  0.41800000000E+01 0.  1.
         -5    1    3    3    0  502  0.51210381834E+02 -0.17208129844E+02 -0.24277507439E+02  0.59375859638E+02  0.41800000000E+01 0.  1.
        -11    1    1    2    0    0  0.34743579045E+02  0.99677641306E+01 -0.27335226083E+02  0.45317625618E+02  0.00000000000E+00 0.  1.
         11    1    1    2    0    0 -0.57975968333E+02 -0.53572604078E+01 -0.55419633597E+02  0.80381894300E+02  0.00000000000E+00 0. -1.
</event>
<event>
 7    1  0.2900135E-009  0.1225919E+03  0.7561462E-02  0.1238881E+00
          1   -1    0    0  501    0  0.00000000000E+00  0.00000000000E+00  0.81938367946E+03  0.81938367946E+03  0.00000000000E+00 0. -1.
         -1   -1    0    0    0  501 -0.00000000000E+00 -0.00000000000E+00 -0.28083273913E+02  0.28083273913E+02  0.00000000000E+00 0.  1.
         25    2    1    2    0    0  0.55395612780E+02  0.70987397829E+02  0.26990972981E+03  0.31081727438E+03  0.12509289047E+03 0.  0.
          5    1    3    3  502    0 -0.12362557187E+02  0.42852658047E+02  0.21357554281E+03  0.21822274861E+03  0.41800000000E+01 0.  1.
         -5    1    3    3    0  502  0.67758169967E+02  0.28134739781E+02  0.56334186996E+02  0.92594525779E+02  0.41800000000E+01 0.  1.
        -11    1    1    2    0    0 -0.17518604074E+01 -0.73191951366E+02  0.31398836115E+03  0.32241095158E+03  0.00000000000E+00 0.  1.
         11    1    1    2    0    0 -0.53643752373E+02  0.22045535373E+01  0.20740231458E+03  0.21423872740E+03  0.00000000000E+00 0. -1.
</event>
<event>
 7    1  0.2900135E-009  0.9739470E+02  0.7561462E-02  0.1285872E+00
          2   -1    0    0  501    0  0.00000000000E+00  0.00000000000E+00  0.32899668890E+03  0.32899668890E+03  0.00000000000E+00 0. -1.
         -2   -1    0    0    0  501 -0.00000000000E+00 -0.00000000000E+00 -0.48736571030E+02  0.48736571030E+02  0.00000000000E+00 0.  1.
         25    2    1    2    0    0 -0.33400977351E+02 -0.51388644144E+02  0.20908422079E+03  0.25123904291E+03  0.12509367396E+03 0.  0.
          5    1    3    3  502    0 -0.14682767337E+02 -0.84022380053E+02  0.19113787351E+03  0.20934780414E+03  0.41800000000E+01 0.  1.
         -5    1    3    3    0  502 -0.18718210014E+02  0.32633735909E+02  0.17946347280E+02  0.41891238776E+02  0.41800000000E+01 0.  1.
        -11    1    1    2    0    0 -0.77534634984E+01  0.13663164438E+02 -0.16352792567E+02  0.22676244914E+02  0.00000000000E+00 0.  1.
         11    1    1    2    0    0  0.41154440849E+02  0.37725479706E+02  0.87528689645E+02  0.10381797210E+03  0.00000000000E+00 0. -1.
</event>
<event>
 7    1  0.2900135E-009  0.1528691E+03  0.7561462E-02  0.1196991E+00
         -1   -1    0    0    0  501 -0.00000000000E+00  0.00000000000E+00  0.15639374804E+03  0.15639374804E+03  0.00000000000E+00 0.  1.
          1   -1    0    0  501    0  0.00000000000E+00 -0.00000000000E+00 -0.19921962657E+03  0.19921962657E+03  0.00000000000E+00 0. -1.
         25    2    1    2    0    0 -0.60933498138E+01 -0.11949433579E+03 -0.93329971117E+02  0.19665717203E+03  0.12509010595E+03 0.  0.
          5    1    3    3  502    0 -0.18532170532E+00 -0.13707192757E+03 -0.44367804072E+02  0.14413438906E+03  0.41800000000E+01 0.  1.
         -5    1    3    3    0  502 -0.59080281085E+01  0.17577591785E+02 -0.48962167045E+02  0.52522782969E+02  0.41800000000E+01 0.  1.
        -11    1    1    2    0    0 -0.28115382266E+02  0.31114672323E+01  0.17414818284E+02  0.33217944611E+02  0.00000000000E+00 0.  1.
         11    1    1    2    0    0  0.34208732080E+02  0.11638286855E+03  0.33089274295E+02  0.12573825797E+03  0.00000000000E+00 0. -1.
</event>
<event>
 7    1  0.2900135E-009  0.1159681E+03  0.7561462E-02  0.1249901E+00
          2   -1    0    0  501    0  0.00000000000E+00  0.00000000000E+00  0.68989498746E+03  0.68989498746E+03  0.00000000000E+00 0. -1.
         -2   -1    0    0    0  501 -0.00000000000E+00 -0.00000000000E+00 -0.23171337041E+02  0.23171337041E+02  0.00000000000E+00 0.  1.
         25    2    1    2    0    0  0.19511126616E+02  0.34173145255E+02  0.50810509063E+03  0.52475380789E+03  0.12508911963E+03 0.  0.
          5    1    3    3  502    0 -0.44825081706E+02  0.47221252415E+02  0.26380834771E+03  0.27175623517E+03  0.41800000000E+01 0. -1.
         -5    1    3    3    0  502  0.64336208323E+02 -0.13048107160E+02  0.24429674292E+03  0.25299757272E+03  0.41800000000E+01 0. -1.
        -11    1    1    2    0    0 -0.36795696316E+02 -0.59674830225E+02  0.10054924968E+03  0.12257716036E+03  0.00000000000E+00 0. -1.
         11    1    1    2    0    0  0.17284569699E+02  0.25501684970E+02  0.58069310112E+02  0.65735356261E+02  0.00000000000E+00 0.  1.
</event>
<event>
 7    1  0.2900135E-009  0.1841647E+03  0.7561462E-02  0.1163832E+00
         -2   -1    0    0    0  501 -0.00000000000E+00  0.00000000000E+00  0.76098798288E+02  0.76098798288E+02  0.00000000000E+00 0.  1.
          2   -1    0    0  501    0  0.00000000000E+00 -0.00000000000E+00 -0.77908557955E+03  0.77908557955E+03  0.00000000000E+00 0. -1.
         25    2    1    2    0    0 -0.15384565083E+03  0.14868880003E+02 -0.63129626400E+03  0.66187018611E+03  0.12509037711E+03 0.  0.
          5    1    3    3  502    0 -0.22286800096E+02  0.47992865132E+02 -0.96674004718E+02  0.11028758838E+03  0.41800000000E+01 0.  1.
         -5    1    3    3    0  502 -0.13155885073E+03 -0.33123985129E+02 -0.53462225929E+03  0.55158259773E+03  0.41800000000E+01 0.  1.
        -11    1    1    2    0    0  0.93340312477E+02 -0.53643210619E+02 -0.42030564879E+02  0.11557065528E+03  0.00000000000E+00 0. -1.
         11    1    1    2    0    0  0.60505338352E+02  0.38774330615E+02 -0.29659952380E+02  0.77743536445E+02  0.00000000000E+00 0.  1.
</event>
<event>
 7    1  0.2900135E-009  0.1588579E+03  0.7561462E-02  0.1189992E+00
         -2   -1    0    0    0  501 -0.00000000000E+00  0.00000000000E+00  0.15778228629E+03  0.15778228629E+03  0.00000000000E+00 0.  1.
          2   -1    0    0  501    0  0.00000000000E+00 -0.00000000000E+00 -0.22851095564E+03  0.22851095564E+03  0.00000000000E+00 0. -1.
         25    2    1    2    0    0  0.47784038351E+01 -0.12671947294E+03  0.54776289976E+02  0.18635506550E+03  0.12508841085E+03 0.  0.
          5    1    3    3  502    0 -0.43422058165E+02 -0.12073882551E+03  0.48363729548E+02  0.13718550162E+03  0.41800000000E+01 0.  1.
         -5    1    3    3    0  502  0.48200462000E+02 -0.59806474374E+01  0.64125604272E+01  0.49169563879E+02  0.41800000000E+01 0.  1.
        -11    1    1    2    0    0 -0.22921052690E+02  0.11845514773E+03 -0.13213156530E+03  0.17892944763E+03  0.00000000000E+00 0. -1.
         11    1    1    2    0    0  0.18142648855E+02  0.82643252130E+01  0.66266059770E+01  0.21008728793E+02  0.00000000000E+00 0.  1.
</event>
<event>
 7    1  0.2900135E-009  0.1748132E+03  0.7561462E-02  0.1172919E+00
          1   -1    0    0  501    0  0.00000000000E+00  0.00000000000E+00  0.77268407325E+03  0.77268407325E+03  0.00000000000E+00 0. -1.
         -1   -1    0    0    0  501 -0.00000000000E+00 -0.00000000000E+00 -0.46507188166E+02  0.46507188166E+02  0.00000000000E+00 0.  1.
         25    2    1    2    0    0 -0.75226642314E+02  0.13183798995E+03  0.45392849710E+03  0.49471175899E+03  0.12509332793E+03 0.  0.
          5    1    3    3  502    0 -0.69705576916E+02  0.53710075215E+01  0.16095082620E+03  0.17552878974E+03  0.41800000000E+01 0.  1.
         -5    1    3    3    0  502 -0.55210653983E+01  0.12646698242E+03  0.29297767090E+03  0.31918296924E+03  0.41800000000E+01 0.  1.
        -11    1    1    2    0    0  0.31508926918E+02 -0.74020135854E+02  0.60470745285E+02  0.10064046911E+03  0.00000000000E+00 0.  1.
         11    1    1    2    0    0  0.43717715396E+02 -0.57817854091E+02  0.21177764269E+03  0.22383903332E+03  0.00000000000E+00 0. -1.
</event>
<event>
 7    1  0.2900135E-009  0.1438123E+03  0.7561462E-02  0.1208289E+00
         -2   -1    0    0    0  501 -0.00000000000E+00  0.00000000000E+00  0.29961584583E+02  0.29961584583E+02  0.00000000000E+00 0.  1.
          2   -1    0    0  501    0  0.00000000000E+00 -0.00000000000E+00 -0.75217019160E+03  0.75217019160E+03  0.00000000000E+00 0. -1.
         25    2    1    2    0    0 -0.96946155575E+02 -0.40248066226E+02 -0.39436071870E+03  0.42682912930E+03  0.12507703724E+03 0.  0.
          5    1    3    3  502    0 -0.42483480409E+02  0.41821099240E+02 -0.10110405279E+03  0.11744510352E+03  0.41800000000E+01 0. -1.
         -5    1    3    3    0  502 -0.54462675166E+02 -0.82069165466E+02 -0.29325666591E+03  0.30938402578E+03  0.41800000000E+01 0. -1.
        -11    1    1    2    0    0  0.61852443322E+02  0.62334116999E+02 -0.16112496191E+03  0.18350073634E+03  0.00000000000E+00 0.  1.
         11    1    1    2    0    0  0.35093712253E+02 -0.22086050772E+02 -0.16672292640E+03  0.17180191054E+03  0.00000000000E+00 0. -1.
</event>
<event>
 7    1  0.2900135E-009  0.9479220E+02  0.7561462E-02  0.1291645E+00
         -1   -1    0    0    0  501 -0.00000000000E+00  0.00000000000E+00  0.17394186582E+03  0.17394186582E+03  0.00000000000E+00 0.  1.
          1   -1    0    0  501    0  0.00000000000E+00 -0.00000000000E+00 -0.69458414540E+02  0.69458414540E+02  0.00000000000E+00 0. -1.
         25    2    1    2    0    0  0.49590941624E+01 -0.70949696946E+01  0.45857408803E+02  0.13351219453E+03  0.12509065887E+03 0.  0.
          5    1    3    3  502    0 -0.47307167762E+02  0.34276522647E+02  0.22916258527E+02  0.62892570558E+02  0.41800000000E+01 0. -1.
         -5    1    3    3    0  502  0.52266261925E+02 -0.41371492342E+02  0.22941150276E+02  0.70619623973E+02  0.41800000000E+01 0. -1.
        -11    1    1    2    0    0  0.97033893210E+01 -0.26149420391E+02  0.67024042334E+02  0.72595937916E+02  0.00000000000E+00 0.  1.
         11    1    1    2    0    0 -0.14662483483E+02  0.33244390085E+02 -0.83979998608E+01  0.37292147909E+02  0.00000000000E+00 0. -1.
</event>
<event>
 7    1  0.2900135E-009  0.8237310E+02  0.7561462E-02  0.1322449E+00
          4   -1    0    0  501    0  0.00000000000E+00  0.00000000000E+00  0.70282876676E+02  0.70282876676E+02  0.00000000000E+00 0. -1.
         -4   -1    0    0    0  501 -0.00000000000E+00 -0.00000000000E+00 -0.21435263182E+03  0.21435263182E+03  0.00000000000E+00 0.  1.
         25    2    1    2    0    0 -0.20988669051E+02 -0.28576665660E+01 -0.48612349187E+02  0.13586448432E+03  0.12508919666E+03 0.  0.
          5    1    3    3  502    0 -0.47282146090E+02  0.48812804878E+01 -0.80518123428E+02  0.93595239401E+02  0.41800000000E+01 0.  1.
         -5    1    3    3    0  502  0.26293477039E+02 -0.77389470538E+01  0.31905774241E+02  0.42269244921E+02  0.41800000000E+01 0.  1.
        -11    1    1    2    0    0  0.24825661235E+02 -0.39564545208E+02 -0.28004257139E+01  0.46792190347E+02  0.00000000000E+00 0. -1.
         11    1    1    2    0    0 -0.38369921840E+01  0.42422211774E+02 -0.92656980239E+02  0.10197883382E+03  0.00000000000E+00 0.  1.
</event>
<event>
 7    1  0.2900135E-009  0.1580850E+03  0.7561462E-02  0.1190876E+00
         -2   -1    0    0    0  501 -0.00000000000E+00  0.00000000000E+00  0.22372186947E+03  0.22372186947E+03  0.00000000000E+00 0.  1.
          2   -1    0    0  501    0  0.00000000000E+00 -0.00000000000E+00 -0.16310018546E+03  0.16310018546E+03  0.00000000000E+00 0. -1.
         25    2    1    2    0    0  0.13240252866E+03 -0.43207307282E+02  0.10340826444E+03  0.21386359718E+03  0.12508824103E+03 0.  0.
          5    1    3    3  502    0  0.79844066876E+02  0.30532393122E+02  0.86435782888E+02  0.12163847668E+03  0.41800000000E+01 0.  1.
         -5    1    3    3    0  502  0.52558461789E+02 -0.73739700403E+02  0.16972481556E+02  0.92225120501E+02  0.41800000000E+01 0.  1.
        -11    1    1    2    0    0 -0.90651700433E+02  0.22857592197E+02 -0.72077031087E+02  0.11804786624E+03  0.00000000000E+00 0. -1.
         11    1    1    2    0    0 -0.41750828232E+02  0.20349715085E+02  0.29290450652E+02  0.54910591524E+02  0.00000000000E+00 0.  1.
</event>
<event>
 7    1  0.2900135E-009  0.7563902E+02  0.7561462E-02  0.1341904E+00
         -1   -1    0    0    0  501 -0.00000000000E+00  0.00000000000E+00  0.11714983721E+03  0.11714983721E+03  0.00000000000E+00 0.  1.
          1   -1    0    0  501    0  0.00000000000E+00 -0.00000000000E+00 -0.12465130594E+03  0.12465130594E+03  0.00000000000E+00 0. -1.
         25    2    1    2    0    0  0.34391492712E+01 -0.52881719770E+02 -0.90861103192E+01  0.13615491333E+03  0.12508916416E+03 0.  0.
          5    1    3    3  502    0 -0.12408427515E+01 -0.47485391240E+02 -0.64451705057E+02  0.80174165145E+02  0.41800000000E+01 0. -1.
         -5    1    3    3    0  502  0.46799920228E+01 -0.53963285303E+01  0.55365594737E+02  0.55980748187E+02  0.41800000000E+01 0. -1.
        -11    1    1    2    0    0  0.35030770503E+02  0.75019717238E+01 -0.21558577072E+02  0.41811561883E+02  0.00000000000E+00 0. -1.
         11    1    1    2    0    0 -0.38469919774E+02  0.45379748047E+02  0.23143218661E+02  0.63834667933E+02  0.00000000000E+00 0.  1.
</event>
<event>
 7    1  0.2900135E-009  0.8394075E+02  0.7561462E-02  0.1318226E+00
          2   -1    0    0  501    0  0.00000000000E+00  0.00000000000E+00  0.29599381508E+03  0.29599381508E+03  0.00000000000E+00 0.  1.
         -2   -1    0    0    0  501 -0.00000000000E+00 -0.00000000000E+00 -0.41256522601E+02  0.41256522601E+02  0.00000000000E+00 0. -1.
         25    2    1    2    0    0  0.47680170585E+01 -0.13400294184E+02  0.12406074376E+03  0.17675046750E+03  0.12508939902E+03 0.  0.
          5    1    3    3  502    0  0.42585200448E+02 -0.16417005416E+02 -0.11564627735E+01  0.45845688676E+02  0.41800000000E+01 0.  1.
         -5    1    3    3    0  502 -0.37817183390E+02  0.30167112320E+01  0.12521720653E+03  0.13090477882E+03  0.41800000000E+01 0.  1.
        -11    1    1    2    0    0 -0.43286280577E+02  0.58805695563E+00  0.32101797140E+02  0.53894093153E+02  0.00000000000E+00 0.  1.
         11    1    1    2    0    0  0.38518263519E+02  0.12812237228E+02  0.98574751578E+02  0.10660577703E+03  0.00000000000E+00 0. -1.
</event>
<event>
 7    1  0.2900135E-009  0.2169925E+03  0.7561462E-02  0.1136145E+00
          2   -1    0    0  501    0  0.00000000000E+00  0.00000000000E+00  0.14191285631E+03  0.14191285631E+03  0.00000000000E+00 0.  1.
         -2   -1    0    0    0  501 -0.00000000000E+00 -0.00000000000E+00 -0.35674930133E+03  0.35674930133E+03  0.00000000000E+00 0. -1.
         25    2    1    2    0    0  0.90105553177E+02 -0.17421338351E+03 -0.94112688961E+02  0.25095226674E+03  0.12510207133E+03 0.  0.
          5    1    3    3  502    0  0.33578675605E+02  0.10851720019E+02 -0.31609882926E+02  0.47559903084E+02  0.41800000000E+01 0. -1.
         -5    1    3    3    0  502  0.56526877571E+02 -0.18506510353E+03 -0.62502806035E+02  0.20339236366E+03  0.41800000000E+01 0. -1.
        -11    1    1    2    0    0 -0.11777200047E+02  0.86517802788E+02 -0.91650997066E+02  0.12658569391E+03  0.00000000000E+00 0.  1.
         11    1    1    2    0    0 -0.78328353130E+02  0.87695580718E+02 -0.29072758994E+02  0.12112419699E+03  0.00000000000E+00 0. -1.
</event>
<event>
 7    1  0.2900135E-009  0.1021655E+03  0.7561462E-02  0.1275807E+00
          1   -1    0    0  501    0  0.00000000000E+00  0.00000000000E+00  0.27577957856E+03  0.27577957856E+03  0.00000000000E+00 0. -1.
         -1   -1    0    0    0  501 -0.00000000000E+00 -0.00000000000E+00 -0.97920049859E+02  0.97920049859E+02  0.00000000000E+00 0.  1.
         25    2    1    2    0    0  0.58047045300E+02  0.11696870040E+02 -0.27540605717E+02  0.14110964039E+03  0.12508864621E+03 0.  0.
          5    1    3    3  502    0 -0.11277734036E+02 -0.18647901305E+02  0.35945150096E+02  0.42242842275E+02  0.41800000000E+01 0.  1.
         -5    1    3    3    0  502  0.69324779336E+02  0.30344771345E+02 -0.63485755813E+02  0.98866798113E+02  0.41800000000E+01 0.  1.
        -11    1    1    2    0    0 -0.62434113198E+02 -0.42312943993E+02  0.16731207091E+03  0.18352583685E+03  0.00000000000E+00 0. -1.
         11    1    1    2    0    0  0.43870678977E+01  0.30616073953E+02  0.38088063510E+02  0.49064151180E+02  0.00000000000E+00 0.  1.
</event>
<event>
 7    1  0.2900135E-009  0.1430253E+03  0.7561462E-02  0.1209315E+00
         -1   -1    0    0    0  501 -0.00000000000E+00  0.00000000000E+00  0.28957639659E+03  0.28957639659E+03  0.00000000000E+00 0.  1.
          1   -1    0    0  501    0  0.00000000000E+00 -0.00000000000E+00 -0.82965038362E+02  0.82965038362E+02  0.00000000000E+00 0. -1.
         25    2    1    2    0    0  0.84781269345E+02 -0.69428318483E+02  0.13202838818E+03  0.21233853908E+03  0.12509198556E+03 0.  0.
          5    1    3    3  502    0  0.73455550663E+02  0.13013327891E+02  0.95776337086E+02  0.12147281083E+03  0.41800000000E+01 0. -1.
         -5    1    3    3    0  502  0.11325718682E+02 -0.82441646374E+02  0.36252051094E+02  0.90865728243E+02  0.41800000000E+01 0. -1.
        -11    1    1    2    0    0 -0.95556517391E+02  0.67680983800E+02  0.85325996130E+02  0.14488716023E+03  0.00000000000E+00 0.  1.
         11    1    1    2    0    0  0.10775248046E+02  0.17473346832E+01 -0.10743026083E+02  0.15315735646E+02  0.00000000000E+00 0. -1.
</event>
<event>
 7    1  0.2900135E-009  0.9870394E+02  0.7561462E-02  0.1283045E+00
          1   -1    0    0  501    0  0.00000000000E+00  0.00000000000E+00  0.72690246657E+02  0.72690246657E+02  0.00000000000E+00 0. -1.
         -1   -1    0    0    0  501 -0.00000000000E+00 -0.00000000000E+00 -0.19439829443E+03  0.19439829443E+03  0.00000000000E+00 0.  1.
         25    2    1    2    0    0 -0.61686481885E+02  0.17259104039E+02 -0.61339472590E+02  0.15334296141E+03  0.12509370167E+03 0.  0.
          5    1    3    3  502    0  0.18479840823E+02 -0.33420748358E+02  0.31955452867E+01  0.38550419548E+02  0.41800000000E+01 0.  1.
         -5    1    3    3    0  502 -0.80166322708E+02  0.50679852398E+02 -0.64535017877E+02  0.11479254187E+03  0.41800000000E+01 0.  1.
        -11    1    1    2    0    0  0.48466506887E+02 -0.13491190151E+02  0.15364750032E+01  0.50332646036E+02  0.00000000000E+00 0. -1.
         11    1    1    2    0    0  0.13219974998E+02 -0.37679138881E+01 -0.61905050184E+02  0.63412933636E+02  0.00000000000E+00 0.  1.
</event>
<event>
 7    1  0.2900135E-009  0.1406843E+03  0.7561462E-02  0.1212411E+00
         -1   -1    0    0    0  501 -0.00000000000E+00  0.00000000000E+00  0.51313655725E+02  0.51313655725E+02  0.00000000000E+00 0.  1.
          1   -1    0    0  501    0  0.00000000000E+00 -0.00000000000E+00 -0.53227518782E+03  0.53227518782E+03  0.00000000000E+00 0. -1.
         25    2    1    2    0    0 -0.84258032114E+02  0.62814549767E+02 -0.13763425922E+03  0.21362679553E+03  0.12509250505E+03 0.  0.
          5    1    3    3  502    0  0.21911160259E+02  0.16377560769E+02  0.67105198106E+01  0.28475022682E+02  0.41800000000E+01 0.  1.
         -5    1    3    3    0  502 -0.10616919237E+03  0.46436988999E+02 -0.14434477903E+03  0.18515177285E+03  0.41800000000E+01 0.  1.
        -11    1    1    2    0    0  0.62226651324E+02 -0.85742033618E+02 -0.26972038629E+03  0.28978084693E+03  0.00000000000E+00 0.  1.
         11    1    1    2    0    0  0.22031380790E+02  0.22927483850E+02 -0.73606886583E+02  0.80181201086E+02  0.00000000000E+00 0. -1.
</event>
<event>
 7    1  0.2900135E-009  0.1204042E+03  0.7561462E-02  0.1242432E+00
          1   -1    0    0  501    0  0.00000000000E+00  0.00000000000E+00  0.12452115054E+03  0.12452115054E+03  0.00000000000E+00 0. -1.
         -1   -1    0    0    0  501 -0.00000000000E+00 -0.00000000000E+00 -0.14331502858E+03  0.14331502858E+03  0.00000000000E+00 0.  1.
         25    2    1    2    0    0 -0.52713292635E+02 -0.54739173072E+02  0.51149301646E+01  0.14645764859E+03  0.12509441247E+03 0.  0.
          5    1    3    3  502    0  0.15446440607E+02 -0.64812034553E+02 -0.24815438520E+02  0.71221280101E+02  0.41800000000E+01 0.  1.
         -5    1    3    3    0  502 -0.68159733243E+02  0.10072861481E+02  0.29930368684E+02  0.75236368491E+02  0.41800000000E+01 0.  1.
        -11    1    1    2    0    0  0.70963066844E+02  0.39298640257E+02  0.79963184532E+01  0.81511232911E+02  0.00000000000E+00 0.  1.
         11    1    1    2    0    0 -0.18249774209E+02  0.15440532816E+02 -0.31905126656E+02  0.39867297616E+02  0.00000000000E+00 0. -1.
</event>
<event>
 7    1  0.2900135E-009  0.1820165E+03  0.7561462E-02  0.1165866E+00
         -2   -1    0    0    0  501 -0.00000000000E+00  0.00000000000E+00  0.23767615154E+02  0.23767615154E+02  0.00000000000E+00 0.  1.
          2   -1    0    0  501    0  0.00000000000E+00 -0.00000000000E+00 -0.17469076285E+04  0.17469076285E+04  0.00000000000E+00 0. -1.
         25    2    1    2    0    0 -0.16753453710E+03  0.57828401537E+01 -0.10544395709E+04  0.10749879883E+04  0.12512035770E+03 0.  0.
          5    1    3    3  502    0 -0.10570519308E+03  0.53041772089E+02 -0.44040741197E+03  0.45602979985E+03  0.41800000000E+01 0.  1.
         -5    1    3    3    0  502 -0.61829344011E+02 -0.47258931936E+02 -0.61403215898E+03  0.61895818848E+03  0.41800000000E+01 0.  1.
        -11    1    1    2    0    0  0.81917468635E+02 -0.60523880270E+01 -0.16021641949E+03  0.18004556130E+03  0.00000000000E+00 0.  1.
         11    1    1    2    0    0  0.85617068461E+02  0.26954787332E+00 -0.50848402291E+03  0.51564169403E+03  0.00000000000E+00 0. -1.
</event>
<event>
 7    1  0.2900135E-009  0.6512776E+02  0.7561462E-02  0.1377492E+00
         -2   -1    0    0    0  501 -0.00000000000E+00  0.00000000000E+00  0.17109170950E+03  0.17109170950E+03  0.00000000000E+00 0. -1.
          2   -1    0    0  501    0  0.00000000000E+00 -0.00000000000E+00 -0.66186604253E+02  0.66186604253E+02  0.00000000000E+00 0.  1.
         25    2    1    2    0    0 -0.17356357212E+01 -0.15090768840E+02  0.85429529520E+02  0.15223941628E+03  0.12509153297E+03 0.  0.
          5    1    3    3  502    0  0.14460029071E+02 -0.24530541407E+02  0.11413139659E+03  0.11770423947E+03  0.41800000000E+01 0. -1.
         -5    1    3    3    0  502 -0.16195664792E+02  0.94397725668E+01 -0.28701867068E+02  0.34535176811E+02  0.41800000000E+01 0. -1.
        -11    1    1    2    0    0 -0.38928209835E+02  0.14676282758E+02  0.14559088607E+02  0.44076817689E+02  0.00000000000E+00 0. -1.
         11    1    1    2    0    0  0.40663845556E+02  0.41448608174E+00  0.49164871163E+01  0.40962079777E+02  0.00000000000E+00 0.  1.
</event>
<event>
 7    1  0.2900135E-009  0.9526383E+02  0.7561462E-02  0.1290583E+00
         -2   -1    0    0    0  501 -0.00000000000E+00  0.00000000000E+00  0.40250081172E+02  0.40250081172E+02  0.00000000000E+00 0.  1.
          2   -1    0    0  501    0  0.00000000000E+00 -0.00000000000E+00 -0.35965313893E+03  0.35965313893E+03  0.00000000000E+00 0. -1.
         25    2    1    2    0    0 -0.10845099623E+02  0.46288800756E+02 -0.22468870543E+03  0.26152515420E+03  0.12510045032E+03 0.  0.
          5    1    3    3  502    0  0.52807330232E+02  0.15575559906E+02 -0.14376153805E+03  0.15400020914E+03  0.41800000000E+01 0. -1.
         -5    1    3    3    0  502 -0.63652429855E+02  0.30713240850E+02 -0.80927167380E+02  0.10752494506E+03  0.41800000000E+01 0. -1.
        -11    1    1    2    0    0  0.23438569907E+02 -0.46329375925E+02 -0.10814725813E+03  0.11996502437E+03  0.00000000000E+00 0. -1.
         11    1    1    2    0    0 -0.12593470284E+02  0.40575169031E-01  0.13432905799E+02  0.18413041529E+02  0.00000000000E+00 0.  1.
</event>
<event>
 7    1  0.2900135E-009  0.1398259E+03  0.7561462E-02  0.1213563E+00
          1   -1    0    0  501    0  0.00000000000E+00  0.00000000000E+00  0.11183692529E+03  0.11183692529E+03  0.00000000000E+00 0. -1.
         -1   -1    0    0    0  501 -0.00000000000E+00 -0.00000000000E+00 -0.21553973431E+03  0.21553973431E+03  0.00000000000E+00 0.  1.
         25    2    1    2    0    0  0.21881371717E+01  0.11297607386E+03 -0.46482278100E+02  0.17486710676E+03  0.12509804810E+03 0.  0.
          5    1    3    3  502    0  0.53602776679E+02  0.88374899298E+02 -0.54883307112E+02  0.11710264853E+03  0.41800000000E+01 0. -1.
         -5    1    3    3    0  502 -0.51414639507E+02  0.24601174563E+02  0.84010290122E+01  0.57764458225E+02  0.41800000000E+01 0. -1.
        -11    1    1    2    0    0 -0.16956792962E+02 -0.27452737251E+02  0.18618541655E+02  0.37253666981E+02  0.00000000000E+00 0.  1.
         11    1    1    2    0    0  0.14768655791E+02 -0.85523336609E+02 -0.75839072569E+02  0.11525588587E+03  0.00000000000E+00 0. -1.
</event>
<event>
 7    1  0.2900135E-009  0.1349076E+03  0.7561462E-02  0.1220350E+00
         -2   -1    0    0    0  501 -0.00000000000E+00  0.00000000000E+00  0.48254976814E+03  0.48254976814E+03  0.00000000000E+00 0.  1.
          2   -1    0    0  501    0  0.00000000000E+00 -0.00000000000E+00 -0.44520612017E+02  0.44520612017E+02  0.00000000000E+00 0. -1.
         25    2    1    2    0    0 -0.24042987395E+02  0.96458591109E+02  0.22805845426E+03  0.27846079971E+03  0.12508970133E+03 0.  0.
          5    1    3    3  502    0 -0.56836595242E+02 -0.40627573713E+00  0.71868955009E+02  0.91723403299E+02  0.41800000000E+01 0.  1.
         -5    1    3    3    0  502  0.32793607847E+02  0.96864866846E+02  0.15618949925E+03  0.18673739642E+03  0.41800000000E+01 0.  1.
        -11    1    1    2    0    0 -0.14250848576E+02 -0.16396887606E+02  0.12103011043E+03  0.12296435353E+03  0.00000000000E+00 0.  1.
         11    1    1    2    0    0  0.38293835971E+02 -0.80061703503E+02  0.88940591438E+02  0.12564522691E+03  0.00000000000E+00 0. -1.
</event>
<event>
 7    1  0.3282823E-009  0.1216425E+03  0.7561462E-02  0.1240412E+00
          1   -1    0    0  501    0  0.00000000000E+00  0.00000000000E+00  0.27569587624E+03  0.27569587624E+03  0.00000000000E+00 0. -1.
         -1   -1    0    0    0  501 -0.00000000000E+00 -0.00000000000E+00 -0.77444111138E+02  0.77444111138E+02  0.00000000000E+00 0.  1.
         25    2    1    2    0    0 -0.11066300457E+02 -0.87386966527E+02  0.15653919542E+03  0.21888491772E+03  0.12508853895E+03 0.  0.
          5    1    3    3  502    0  0.52503471798E+02 -0.56986442402E+02  0.10892238683E+03  0.13373715984E+03  0.41800000000E+01 0.  1.
         -5    1    3    3    0  502 -0.63569772256E+02 -0.30400524125E+02  0.47616808592E+02  0.85147757882E+02  0.41800000000E+01 0.  1.
        -11    1    1    2    0    0 -0.13059298268E+02  0.36893237407E+02  0.63178456424E+02  0.74318056983E+02  0.00000000000E+00 0. -1.
         11    1    1    2    0    0  0.24125598725E+02  0.50493729120E+02 -0.21465886748E+02  0.59937012673E+02  0.00000000000E+00 0.  1.
</event>
<event>
 6    1  0.2900135E-009  0.2117140E+03  0.7561462E-02  0.1140216E+00
         -1   -1    0    0    0  501 -0.00000000000E+00  0.00000000000E+00  0.16366013679E+03  0.16366013679E+03  0.00000000000E+00 0.  1.
          1   -1    0    0  501    0  0.00000000000E+00 -0.00000000000E+00 -0.46748771121E+03  0.46748771121E+03  0.00000000000E+00 0. -1.
          5    1    1    2  502    0 -0.15256342828E+03 -0.13226992345E+03  0.43855989159E+02  0.20666821836E+03  0.41800000000E+01 0.  1.
         -5    1    1    2    0  502 -0.11385156121E+02  0.38818345989E+01 -0.34087650918E+02  0.36388607625E+02  0.41800000000E+01 0.  1.
        -11    1    1    2    0    0  0.11537138582E+03  0.81819221481E+02 -0.12832320960E+03  0.19097588275E+03  0.00000000000E+00 0.  1.
         11    1    1    2    0    0  0.48577198582E+02  0.46568867369E+02 -0.18527270306E+03  0.19711513927E+03  0.00000000000E+00 0. -1.
</event>
<event>
 7    1  0.3037794E-009  0.1260434E+03  0.7561462E-02  0.1233448E+00
          3   -1    0    0  501    0  0.00000000000E+00  0.00000000000E+00  0.65905935384E+02  0.65905935384E+02  0.00000000000E+00 0. -1.
         -3   -1    0    0    0  501 -0.00000000000E+00 -0.00000000000E+00 -0.32716613317E+03  0.32716613317E+03  0.00000000000E+00 0.  1.
         25    2    1    2    0    0 -0.97725313582E+02 -0.26679387605E+01 -0.15821372433E+03  0.22413494473E+03  0.12509011180E+03 0.  0.
          5    1    3    3  502    0 -0.77643351289E+02 -0.55598851632E+02 -0.67115929434E+02  0.11679787107E+03  0.41800000000E+01 0.  1.
         -5    1    3    3    0  502 -0.20081962294E+02  0.52930912871E+02 -0.91097794896E+02  0.10733707366E+03  0.41800000000E+01 0.  1.
        -11    1    1    2    0    0  0.55066822814E+02 -0.82923124428E+01  0.12716701666E+01  0.55702195338E+02  0.00000000000E+00 0. -1.
         11    1    1    2    0    0  0.42658490768E+02  0.10960251203E+02 -0.10431814363E+03  0.11323492849E+03  0.00000000000E+00 0.  1.
</event>
<event>
 7    1  0.2900135E-009  0.1303923E+03  0.7561462E-02  0.1226875E+00
          2   -1    0    0  501    0  0.00000000000E+00  0.00000000000E+00  0.18363687190E+03  0.18363687190E+03  0.00000000000E+00 0. -1.
         -2   -1    0    0    0  501 -0.00000000000E+00 -0.00000000000E+00 -0.13001914620E+03  0.13001914620E+03  0.00000000000E+00 0.  1.
         25    2    1    2    0    0 -0.10139419961E+03  0.37947407887E+02  0.47818468166E+02  0.17220539532E+03  0.12508917939E+03 0.  0.
          5    1    3    3  502    0  0.91355405074E+01  0.15566748399E+02  0.56072114653E+02  0.59053672178E+02  0.41800000000E+01 0.  1.
         -5    1    3    3    0  502 -0.11052974012E+03  0.22380659488E+02 -0.82536464872E+01  0.11315172314E+03  0.41800000000E+01 0.  1.
        -11    1    1    2    0    0  0.99105950337E+02 -0.54224340634E+02 -0.16054622480E+02  0.11410529967E+03  0.00000000000E+00 0.  1.
         11    1    1    2    0    0  0.22882492736E+01  0.16276932747E+02  0.21853880018E+02  0.27345323114E+02  0.00000000000E+00 0. -1.
</event>
<event>
 7    1  0.2948851E-009  0.1278516E+03  0.7561462E-02  0.1230679E+00
          2   -1    0    0  501    0  0.00000000000E+00  0.00000000000E+00  0.10064221525E+04  0.10064221525E+04  0.00000000000E+00 0. -1.
         -2   -1    0    0    0  501 -0.00000000000E+00 -0.00000000000E+00 -0.21128262352E+02  0.21128262352E+02  0.00000000000E+00 0.  1.
         25    2    1    2    0    0 -0.49231202180E+02 -0.66458174016E+02  0.71310720796E+03  0.72870465722E+03  0.12509271464E+03 0.  0.
          5    1    3    3  502    0 -0.20858855485E+02  0.36602672912E+02  0.17296168049E+03  0.17806757940E+03  0.41800000000E+01 0. -1.
         -5    1    3    3    0  502 -0.28372346696E+02 -0.10306084693E+03  0.54014552747E+03  0.55063707782E+03  0.41800000000E+01 0. -1.
        -11    1    1    2    0    0  0.33766599091E+00  0.56490524897E+02  0.66800334891E+02  0.87484731027E+02  0.00000000000E+00 0.  1.
         11    1    1    2    0    0  0.48893536190E+02  0.99676491194E+01  0.20538634734E+03  0.21136102664E+03  0.00000000000E+00 0. -1.
</event>
<event>
 7    1  0.2900135E-009  0.6698351E+02  0.7561462E-02  0.1370662E+00
         -2   -1    0    0    0  501 -0.00000000000E+00  0.00000000000E+00  0.33605313548E+02  0.33605313548E+02  0.00000000000E+00 0.  1.
          2   -1    0    0  501    0  0.00000000000E+00 -0.00000000000E+00 -0.35164946865E+03  0.35164946865E+03  0.00000000000E+00 0. -1.
         25    2    1    2    0    0 -0.16355476132E+02 -0.20369521464E+02 -0.19279418761E+03  0.23130079174E+03  0.12509211997E+03 0.  0.
          5    1    3    3  502    0  0.16145109722E+02  0.18712301805E+02 -0.17574739250E+03  0.17752586622E+03  0.41800000000E+01 0.  1.
         -5    1    3    3    0  502 -0.32500585855E+02 -0.39081823268E+02 -0.17046795109E+02  0.53774925517E+02  0.41800000000E+01 0.  1.
        -11    1    1    2    0    0  0.35143015621E+02  0.10501757244E+02 -0.11790620752E+02  0.38527096827E+02  0.00000000000E+00 0.  1.
         11    1    1    2    0    0 -0.18787539489E+02  0.98677642195E+01 -0.11345934674E+03  0.11542689363E+03  0.00000000000E+00 0. -1.
</event>
<event>
 7    1  0.2900135E-009  0.2203215E+03  0.7561462E-02  0.1133644E+00
          2   -1    0    0  501    0  0.00000000000E+00  0.00000000000E+00  0.28100286059E+03  0.28100286059E+03  0.00000000000E+00 0. -1.
         -2   -1    0    0    0  501 -0.00000000000E+00 -0.00000000000E+00 -0.18274131347E+03  0.18274131347E+03  0.00000000000E+00 0.  1.
         25    2    1    2    0    0  0.25550709551E+02  0.19120727956E+03  0.99743122617E+02  0.25061824043E+03  0.12509096455E+03 0.  0.
          5    1    3    3  502    0 -0.50010923107E+02  0.80782597730E+02  0.52683097940E+02  0.10871937148E+03  0.41800000000E+01 0. -1.
         -5    1    3    3    0  502  0.75561632658E+02  0.11042468183E+03  0.47060024677E+02  0.14189886895E+03  0.41800000000E+01 0. -1.
        -11    1    1    2    0    0 -0.19014764123E+02 -0.19989721887E+03 -0.70219088011E+01  0.20092228988E+03  0.00000000000E+00 0.  1.
         11    1    1    2    0    0 -0.65359454271E+01  0.86899393044E+01  0.55403333070E+01  0.12203643755E+02  0.00000000000E+00 0. -1.
</event>
<event>
 7    1  0.2900135E-009  0.1197699E+03  0.7561462E-02  0.1243477E+00
          4   -1    0    0  501    0  0.00000000000E+00  0.00000000000E+00  0.11586684891E+03  0.11586684891E+03  0.00000000000E+00 0. -1.
         -4   -1    0    0    0  501 -0.00000000000E+00 -0.00000000000E+00 -0.20613290972E+03  0.20613290972E+03  0.00000000000E+00 0.  1.
         25    2    1    2    0    0 -0.31370397536E+02 -0.74293795344E+02  0.28440541609E+02  0.15152443881E+03  0.12508845383E+03 0.  0.
          5    1    3    3  502    0 -0.72298466714E+02 -0.64966417503E+02 -0.54065924411E+01  0.97439249455E+02  0.41800000000E+01 0. -1.
         -5    1    3    3    0  502  0.40928069178E+02 -0.93273778410E+01  0.33847134050E+02  0.54085189354E+02  0.41800000000E+01 0. -1.
        -11    1    1    2    0    0  0.24873176424E+02 -0.60996918817E+00 -0.84109088543E+02  0.87711947552E+02  0.00000000000E+00 0.  1.
         11    1    1    2    0    0  0.64972211120E+01  0.74903764532E+02 -0.34597513871E+02  0.82763372269E+02  0.00000000000E+00 0. -1.
</event>
<event>
 7    1  0.2900135E-009  0.1099063E+03  0.7561462E-02  0.1260743E+00
          1   -1    0    0  501    0  0.00000000000E+00  0.00000000000E+00  0.33327502607E+03  0.33327502607E+03  0.00000000000E+00 0. -1.
         -1   -1    0    0    0  501 -0.00000000000E+00 -0.00000000000E+00 -0.37622477283E+02  0.37622477283E+02  0.00000000000E+00 0.  1.
         25    2    1    2    0    0  0.13245543587E+02  0.21208592204E+02  0.19319571901E+03  0.23150938060E+03  0.12508700433E+03 0.  0.
          5    1    3    3  502    0  0.56169059349E+02  0.49793956621E+02  0.10284883486E+03  0.12739606185E+03  0.41800000000E+01 0. -1.
         -5    1    3    3    0  502 -0.42923515762E+02 -0.28585364417E+02  0.90346884150E+02  0.10411331874E+03  0.41800000000E+01 0. -1.
        -11    1    1    2    0    0  0.12016416891E+02  0.31897253069E+02  0.50433514077E+02  0.60871737041E+02  0.00000000000E+00 0.  1.
         11    1    1    2    0    0 -0.25261960478E+02 -0.53105845273E+02  0.52023315706E+02  0.78516385719E+02  0.00000000000E+00 0. -1.
</event>
<event>
 7    1  0.2900135E-009  0.8715330E+02  0.7561462E-02  0.1309896E+00
         -2   -1    0    0    0  501 -0.00000000000E+00  0.00000000000E+00  0.77363846411E+01  0.77363846411E+01  0.00000000000E+00 0.  1.
          2   -1    0    0  501    0  0.00000000000E+00 -0.00000000000E+00 -0.27751492402E+04  0.27751492402E+04  0.00000000000E+00 0. -1.
         25    2    1    2    0    0 -0.10060080656E+02 -0.62235717153E+02 -0.22117150072E+04  0.22161464735E+04  0.12508968378E+03 0.  0.
          5    1    3    3  502    0 -0.55010928392E+01 -0.31342403604E+02 -0.20952300763E+04  0.20954758776E+04  0.41800000000E+01 0.  1.
         -5    1    3    3    0  502 -0.45589878168E+01 -0.30893313548E+02 -0.11648493090E+03  0.12067059592E+03  0.41800000000E+01 0.  1.
        -11    1    1    2    0    0  0.46848390019E+02  0.11859286832E+02 -0.27257867535E+03  0.27682945759E+03  0.00000000000E+00 0. -1.
         11    1    1    2    0    0 -0.36788309363E+02  0.50376430321E+02 -0.28311917294E+03  0.28990969374E+03  0.00000000000E+00 0.  1.
</event>
<event>
 7    1  0.2900135E-009  0.8934467E+02  0.7561462E-02  0.1304446E+00
          2   -1    0    0  501    0  0.00000000000E+00  0.00000000000E+00  0.52527651940E+03  0.52527651940E+03  0.00000000000E+00 0. -1.
         -2   -1    0    0    0  501 -0.00000000000E+00 -0.00000000000E+00 -0.27151341982E+02  0.27151341982E+02  0.00000000000E+00 0.  1.
         25    2    1    2    0    0 -0.19346328817E+00 -0.24739282428E+02  0.37279750626E+03  0.39400103442E+03  0.12508702940E+03 0.  0.
          5    1    3    3  502    0  0.49696360742E+02 -0.45990608669E+02  0.26104567305E+03  0.26971685185E+03  0.41800000000E+01 0.  1.
         -5    1    3    3    0  502 -0.49889824031E+02  0.21251326241E+02  0.11175183322E+03  0.12428418257E+03  0.41800000000E+01 0.  1.
        -11    1    1    2    0    0  0.23944160001E+02  0.22063660646E+02  0.18012681387E+01  0.32609392606E+02  0.00000000000E+00 0.  1.
         11    1    1    2    0    0 -0.23750696713E+02  0.26756217828E+01  0.12352640301E+03  0.12581743436E+03  0.00000000000E+00 0. -1.
</event>
<event>
 7    1  0.2900135E-009  0.9882788E+02  0.7561462E-02  0.1282780E+00
         -1   -1    0    0    0  501 -0.00000000000E+00  0.00000000000E+00  0.81700251763E+02  0.81700251763E+02  0.00000000000E+00 0.  1.
          1   -1    0    0  501    0  0.00000000000E+00 -0.00000000000E+00 -0.21166506947E+03  0.21166506947E+03  0.00000000000E+00 0. -1.
         25    2    1    2    0    0 -0.83767024838E+01 -0.71988843257E+02 -0.77197076322E+02  0.16388781068E+03  0.12508902110E+03 0.  0.
          5    1    3    3  502    0 -0.25346394391E+02 -0.67809131608E+02 -0.10689964605E+03  0.12917246132E+03  0.41800000000E+01 0.  1.
         -5    1    3    3    0  502  0.16969691907E+02 -0.41797116490E+01  0.29702569726E+02  0.34715349361E+02  0.41800000000E+01 0.  1.
        -11    1    1    2    0    0  0.30508334480E+02 -0.13802804817E+01  0.81184583221E+01  0.31600205893E+02  0.00000000000E+00 0.  1.
         11    1    1    2    0    0 -0.22131631996E+02  0.73369123739E+02 -0.60886199707E+02  0.97877304661E+02  0.00000000000E+00 0. -1.
</event>
<event>
 7    1  0.2900135E-009  0.1138481E+03  0.7561462E-02  0.1253605E+00
         -2   -1    0    0    0  501 -0.00000000000E+00  0.00000000000E+00  0.19176499318E+02  0.19176499318E+02  0.00000000000E+00 0. -1.
          2   -1    0    0  501    0  0.00000000000E+00 -0.00000000000E+00 -0.10229435806E+04  0.10229435806E+04  0.00000000000E+00 0.  1.
         25    2    1    2    0    0 -0.44608062074E+02 -0.30474039234E+02 -0.80756756235E+03  0.81898225436E+03  0.12509204179E+03 0.  0.
          5    1    3    3  502    0  0.42609846141E+02 -0.21016573575E+01 -0.20236986272E+03  0.20685997604E+03  0.41800000000E+01 0.  1.
         -5    1    3    3    0  502 -0.87217908215E+02 -0.28372381876E+02 -0.60519769963E+03  0.61212227831E+03  0.41800000000E+01 0.  1.
        -11    1    1    2    0    0  0.64759306866E+02  0.12372357895E+02 -0.17971834654E+03  0.19143021483E+03  0.00000000000E+00 0.  1.
         11    1    1    2    0    0 -0.20151244792E+02  0.18101681339E+02 -0.16481172350E+02  0.31707610695E+02  0.00000000000E+00 0. -1.
</event>
<event>
 7    1  0.2900135E-009  0.1703216E+03  0.7561462E-02  0.1177513E+00
         -2   -1    0    0    0  501 -0.00000000000E+00  0.00000000000E+00  0.61010930543E+03  0.61010930543E+03  0.00000000000E+00 0.  1.
          2   -1    0    0  501    0  0.00000000000E+00 -0.00000000000E+00 -0.58502683269E+02  0.58502683269E+02  0.00000000000E+00 0. -1.
         25    2    1    2    0    0 -0.15408487512E+03  0.14171554886E+02  0.26774696441E+03  0.33358524509E+03  0.12509075539E+03 0.  0.
          5    1    3    3  502    0 -0.11337445774E+03 -0.16143941132E+02  0.81812602971E+02  0.14080187821E+03  0.41800000000E+01 0. -1.
         -5    1    3    3    0  502 -0.40710417379E+02  0.30315496018E+02  0.18593436144E+03  0.19278336688E+03  0.41800000000E+01 0. -1.
        -11    1    1    2    0    0  0.19889881579E+02  0.28097154470E+02  0.34644595507E+02  0.48839589232E+02  0.00000000000E+00 0. -1.
         11    1    1    2    0    0  0.13419499354E+03 -0.42268709356E+02  0.24921506224E+03  0.28618715438E+03  0.00000000000E+00 0.  1.
</event>
<event>
 7    1  0.2900135E-009  0.3311335E+03  0.7561462E-02  0.1070636E+00
          1   -1    0    0  501    0  0.00000000000E+00  0.00000000000E+00  0.14119992409E+04  0.14119992409E+04  0.00000000000E+00 0. -1.
         -1   -1    0    0    0  501 -0.00000000000E+00 -0.00000000000E+00 -0.81991683261E+02  0.81991683261E+02  0.00000000000E+00 0.  1.
         25    2    1    2    0    0 -0.13083993768E+02  0.31677476599E+03  0.54823030298E+03  0.64553981946E+03  0.12509096749E+03 0.  0.
          5    1    3    3  502    0 -0.50197752948E+02  0.26001734835E+03  0.48561530733E+03  0.55314422618E+03  0.41800000000E+01 0.  1.
         -5    1    3    3    0  502  0.37113759180E+02  0.56757417644E+02  0.62614995644E+02  0.92395593280E+02  0.41800000000E+01 0.  1.
        -11    1    1    2    0    0 -0.32900967094E+02 -0.58337965272E+02  0.17155765900E+03  0.18416791846E+03  0.00000000000E+00 0.  1.
         11    1    1    2    0    0  0.45984960862E+02 -0.25843680072E+03  0.61021959568E+03  0.66428318625E+03  0.00000000000E+00 0. -1.
</event>
<event>
 7    1  0.2900135E-009  0.1250836E+03  0.7561462E-02  0.1234939E+00
          2   -1    0    0  501    0  0.00000000000E+00  0.00000000000E+00  0.12236468811E+04  0.12236468811E+04  0.00000000000E+00 0. -1.
         -2   -1    0    0    0  501 -0.00000000000E+00 -0.00000000000E+00 -0.32771122563E+02  0.32771122563E+02  0.00000000000E+00 0.  1.
         25    2    1    2    0    0  0.23342673697E+02 -0.52103277018E+02  0.10958412242E+04  0.11044345435E+04  0.12509212764E+03 0.  0.
          5    1    3    3  502    0  0.69301692692E+02 -0.83586882964E+01  0.44054908703E+03  0.44606452758E+03  0.41800000000E+01 0.  1.
         -5    1    3    3    0  502 -0.45959018995E+02 -0.43744588722E+02  0.65529213715E+03  0.65837001593E+03  0.41800000000E+01 0.  1.
        -11    1    1    2    0    0 -0.63266550447E+02  0.40329426422E+02  0.73863155722E+02  0.10528477959E+03  0.00000000000E+00 0.  1.
         11    1    1    2    0    0  0.39923876749E+02  0.11773850596E+02  0.21171378636E+02  0.46698680558E+02  0.00000000000E+00 0. -1.
</event>
<event>
 7    1  0.3689273E-009  0.2909435E+03  0.7561462E-02  0.1089858E+00
          1   -1    0    0  501    0  0.00000000000E+00  0.00000000000E+00  0.15010206478E+04  0.15010206478E+04  0.00000000000E+00 0. -1.
         -1   -1    0    0    0  501 -0.00000000000E+00 -0.00000000000E+00 -0.73721517375E+02  0.73721517375E+02  0.00000000000E+00 0.  1.
         25    2    1    2    0    0  0.27853555089E+03 -0.45546550961E+02  0.39904363717E+03  0.50452047132E+03  0.12509412535E+03 0.  0.
          5    1    3    3  502    0  0.25125202102E+03 -0.10692037562E+02  0.38101670512E+03  0.45654474010E+03  0.41800000000E+01 0.  1.
         -5    1    3    3    0  502  0.27283529866E+02 -0.34854513400E+02  0.18026932053E+02  0.47975731214E+02  0.41800000000E+01 0.  1.
        -11    1    1    2    0    0 -0.18592665956E+03  0.83530032116E+01  0.79534506850E+03  0.81683062712E+03  0.00000000000E+00 0.  1.
         11    1    1    2    0    0 -0.92608891326E+02  0.37193547750E+02  0.23291042471E+03  0.25339106670E+03  0.00000000000E+00 0. -1.
</event>
<event>
 7    1  0.2900135E-009  0.3637814E+03  0.7561462E-02  0.1057097E+00
          2   -1    0    0  501    0  0.00000000000E+00  0.00000000000E+00  0.60569002123E+03  0.60569002123E+03  0.00000000000E+00 0. -1.
         -2   -1    0    0    0  501 -0.00000000000E+00 -0.00000000000E+00 -0.22497784818E+03  0.22497784818E+03  0.00000000000E+00 0.  1.
         25    2    1    2    0    0  0.34127703077E+03  0.82477573520E+02  0.16156237161E+03  0.40622849584E+03  0.12508648627E+03 0.  0.
          5    1    3    3  502    0  0.25221591658E+03  0.66845887600E+01  0.84495982103E+02  0.26611011949E+03  0.41800000000E+01 0. -1.
         -5    1    3    3    0  502  0.89061114192E+02  0.75792984760E+02  0.77066389506E+02  0.14011837635E+03  0.41800000000E+01 0. -1.
        -11    1    1    2    0    0 -0.13578075028E+03  0.25637814995E+01  0.48836365027E+02  0.14431900662E+03  0.00000000000E+00 0.  1.
         11    1    1    2    0    0 -0.20549628048E+03 -0.85041355019E+02  0.17031343642E+03  0.28012036695E+03  0.00000000000E+00 0. -1.
</event>
<event>
 7    1  0.2900135E-009  0.1130384E+03  0.7561462E-02  0.1255044E+00
          1   -1    0    0  501    0  0.00000000000E+00  0.00000000000E+00  0.14295200881E+03  0.14295200881E+03  0.00000000000E+00 0. -1.
         -1   -1    0    0    0  501 -0.00000000000E+00 -0.00000000000E+00 -0.16540582223E+03  0.16540582223E+03  0.00000000000E+00 0.  1.
         25    2    1    2    0    0  0.14798351595E+02  0.28099310270E+02 -0.11405008166E+03  0.17223228341E+03  0.12509186974E+03 0.  0.
          5    1    3    3  502    0 -0.37871475327E+02 -0.31134720082E+02 -0.36518598892E+02  0.61275606101E+02  0.41800000000E+01 0. -1.
         -5    1    3    3    0  502  0.52669826922E+02  0.59234030352E+02 -0.77531482765E+02  0.11095667731E+03  0.41800000000E+01 0. -1.
        -11    1    1    2    0    0  0.81916409708E+01 -0.58674716318E+02  0.71691036125E+02  0.93002311678E+02  0.00000000000E+00 0.  1.
         11    1    1    2    0    0 -0.22989992566E+02  0.30575406048E+02  0.19905232116E+02  0.43123235950E+02  0.00000000000E+00 0. -1.
</event>
<event>
 7    1  0.2900135E-009  0.7336826E+02  0.7561462E-02  0.1349000E+00
          2   -1    0    0  501    0  0.00000000000E+00  0.00000000000E+00  0.91122329853E+02  0.91122329853E+02  0.00000000000E+00 0. -1.
         -2   -1    0    0    0  501 -0.00000000000E+00 -0.00000000000E+00 -0.15107483557E+03  0.15107483557E+03  0.00000000000E+00 0.  1.
         25    2    1    2    0    0  0.85739980699E+01 -0.75055135997E+01  0.10655003812E+02  0.12605834558E+03  0.12508929294E+03 0.  0.
          5    1    3    3  502    0  0.28442233289E+02 -0.46831204089E+02 -0.32831346496E+02  0.64011655373E+02  0.41800000000E+01 0.  1.
         -5    1    3    3    0  502 -0.19868235219E+02  0.39325690489E+02  0.43486350308E+02  0.62046690212E+02  0.41800000000E+01 0.  1.
        -11    1    1    2    0    0  0.19160349971E+02  0.21391367451E+01 -0.83059309471E+02  0.85267483878E+02  0.00000000000E+00 0.  1.
         11    1    1    2    0    0 -0.27734348041E+02  0.53663768546E+01  0.12451799946E+02  0.30871335956E+02  0.00000000000E+00 0. -1.
</event>
<event>
 7    1  0.2900135E-009  0.8850772E+02  0.7561462E-02  0.1306506E+00
          1   -1    0    0  501    0  0.00000000000E+00  0.00000000000E+00  0.59622809974E+03  0.59622809974E+03  0.00000000000E+00 0. -1.
         -1   -1    0    0    0  501 -0.00000000000E+00 -0.00000000000E+00 -0.28648458164E+02  0.28648458164E+02  0.00000000000E+00 0.  1.
         25    2    1    2    0    0 -0.28717234549E+02  0.34970966617E+02  0.44908119005E+03  0.46837352747E+03  0.12510874435E+03 0.  0.
          5    1    3    3  502    0  0.19546584535E+02  0.34803863997E+02  0.38959322037E+03  0.39165511318E+03  0.41800000000E+01 0. -1.
         -5    1    3    3    0  502 -0.48263819085E+02  0.16710262006E+00  0.59487969678E+02  0.76718414298E+02  0.41800000000E+01 0. -1.
        -11    1    1    2    0    0 -0.10719545952E+02 -0.46202953057E+02  0.23290034072E+02  0.52839826113E+02  0.00000000000E+00 0.  1.
         11    1    1    2    0    0  0.39436780501E+02  0.11231986440E+02  0.95208417454E+02  0.10366320432E+03  0.00000000000E+00 0. -1.
</event>
<event>
 7    1  0.2900135E-009  0.1205983E+03  0.7561462E-02  0.1242113E+00
         -1   -1    0    0    0  501 -0.00000000000E+00  0.00000000000E+00  0.48140199233E+03  0.48140199233E+03  0.00000000000E+00 0.  1.
          1   -1    0    0  501    0  0.00000000000E+00 -0.00000000000E+00 -0.35969284319E+02  0.35969284319E+02  0.00000000000E+00 0. -1.
         25    2    1    2    0    0 -0.50559984956E+02  0.42502363991E+02  0.31747837618E+03  0.34756669006E+03  0.12508925484E+03 0.  0.
          5    1    3    3  502    0 -0.92060225347E+01  0.80420351558E+02  0.22684347591E+03  0.24088922507E+03  0.41800000000E+01 0. -1.
         -5    1    3    3    0  502 -0.41353962421E+02 -0.37917987566E+02  0.90634900272E+02  0.10667746499E+03  0.41800000000E+01 0. -1.
        -11    1    1    2    0    0  0.72154767651E+02 -0.25974958554E+02  0.11823287485E+03  0.14092558909E+03  0.00000000000E+00 0.  1.
         11    1    1    2    0    0 -0.21594782695E+02 -0.16527405438E+02  0.97214569830E+01  0.28878997490E+02  0.00000000000E+00 0. -1.
</event>
<event>
 7    1  0.2900135E-009  0.1126127E+03  0.7561462E-02  0.1255807E+00
          1   -1    0    0  501    0  0.00000000000E+00  0.00000000000E+00  0.48644087894E+03  0.48644087894E+03  0.00000000000E+00 0. -1.
         -1   -1    0    0    0  501 -0.00000000000E+00 -0.00000000000E+00 -0.34941316042E+02  0.34941316042E+02  0.00000000000E+00 0.  1.
         25    2    1    2    0    0 -0.43389422056E+02 -0.84369841184E+01  0.35997719868E+03  0.38364728447E+03  0.12509128933E+03 0.  0.
          5    1    3    3  502    0  0.18108821601E+02  0.39984592084E+02  0.65808793025E+02  0.79214687169E+02  0.41800000000E+01 0. -1.
         -5    1    3    3    0  502 -0.61498243657E+02 -0.48421576203E+02  0.29416840565E+03  0.30443259730E+03  0.41800000000E+01 0. -1.
        -11    1    1    2    0    0  0.40671383716E+02 -0.38338980773E+02  0.53849219293E+02  0.77612997098E+02  0.00000000000E+00 0.  1.
         11    1    1    2    0    0  0.27180383400E+01  0.46775964892E+02  0.37673144931E+02  0.60121913418E+02  0.00000000000E+00 0. -1.
</event>
<event>
 7    1  0.2900135E-009  0.9413521E+02  0.7561462E-02  0.1293136E+00
          2   -1    0    0  501    0  0.00000000000E+00  0.00000000000E+00  0.49164751210E+03  0.49164751210E+03  0.00000000000E+00 0. -1.
         -2   -1    0    0    0  501 -0.00000000000E+00 -0.00000000000E+00 -0.37484718684E+02  0.37484718684E+02  0.00000000000E+00 0.  1.
         25    2    1    2    0    0 -0.38589075627E+02 -0.38213247262E+02  0.13517926328E+03  0.19201818526E+03  0.12509269053E+03 0.  0.
          5    1    3    3  502    0  0.11080179775E+02  0.62666847330E+01 -0.19425098483E+02  0.23597639129E+02  0.41800000000E+01 0.  1.
         -5    1    3    3    0  502 -0.49669255402E+02 -0.44479931995E+02  0.15460436176E+03  0.16842054613E+03  0.41800000000E+01 0.  1.
        -11    1    1    2    0    0  0.69812894433E+02  0.24855826547E+02  0.23882621425E+03  0.25005921889E+03  0.00000000000E+00 0. -1.
         11    1    1    2    0    0 -0.31223818806E+02  0.13357420716E+02  0.80157315890E+02  0.87054826631E+02  0.00000000000E+00 0.  1.
</event>
<event>
 7    1  0.2900135E-009  0.1164715E+03  0.7561462E-02  0.1249034E+00
         -1   -1    0    0    0  501 -0.00000000000E+00  0.00000000000E+00  0.24734785459E+03  0.24734785459E+03  0.00000000000E+00 0.  1.
          1   -1    0    0  501    0  0.00000000000E+00 -0.00000000000E+00 -0.59132543960E+02  0.59132543960E+02  0.00000000000E+00 0. -1.
         25    2    1    2    0    0  0.33404726482E+02 -0.57897049613E+02  0.12693219702E+03  0.19033397775E+03  0.12508915356E+03 0.  0.
          5    1    3    3  502    0 -0.30418474468E+02  0.21347830636E+02  0.51302751902E+02  0.63485889886E+02  0.41800000000E+01 0.  1.
         -5    1    3    3    0  502  0.63823200950E+02 -0.79244880249E+02  0.75629445116E+02  0.12684808786E+03  0.41800000000E+01 0.  1.
        -11    1    1    2    0    0  0.20019304598E+02  0.19252384472E+02  0.26308412735E+01  0.27898892276E+02  0.00000000000E+00 0. -1.
         11    1    1    2    0    0 -0.53424031080E+02  0.38644665141E+02  0.58652272337E+02  0.88247528527E+02  0.00000000000E+00 0.  1.
</event>
<event>
 7    1  0.2900135E-009  0.1248295E+03  0.7561462E-02  0.1235336E+00
          1   -1    0    0  501    0  0.00000000000E+00  0.00000000000E+00  0.11409193810E+04  0.11409193810E+04  0.00000000000E+00 0. -1.
         -1   -1    0    0    0  501 -0.00000000000E+00 -0.00000000000E+00 -0.18598674084E+02  0.18598674084E+02  0.00000000000E+00 0.  1.
         25    2    1    2    0    0  0.52487003212E+00  0.90391293156E+02  0.74031049470E+03  0.75622624059E+03  0.12509051531E+03 0.  0.
          5    1    3    3  502    0  0.46464148282E+02  0.89686021494E+02  0.38993947192E+03  0.40283093685E+03  0.41800000000E+01 0. -1.
         -5    1    3    3    0  502 -0.45939278250E+02  0.70527166126E+00  0.35037102278E+03  0.35339530373E+03  0.41800000000E+01 0. -1.
        -11    1    1    2    0    0 -0.14172754636E+02 -0.87292406651E+02  0.37872895792E+03  0.38891702817E+03  0.00000000000E+00 0. -1.
         11    1    1    2    0    0  0.13647884604E+02 -0.30988865051E+01  0.32812542738E+01  0.14374786306E+02  0.00000000000E+00 0.  1.
</event>
<event>
 7    1  0.2900135E-009  0.1744557E+03  0.7561462E-02  0.1173279E+00
          2   -1    0    0  501    0  0.00000000000E+00  0.00000000000E+00  0.52550782903E+02  0.52550782903E+02  0.00000000000E+00 0. -1.
         -2   -1    0    0    0  501 -0.00000000000E+00 -0.00000000000E+00 -0.72849013826E+03  0.72849013826E+03  0.00000000000E+00 0.  1.
         25    2    1    2    0    0 -0.58301226188E+02 -0.14304449830E+03 -0.27827355682E+03  0.34197112179E+03  0.12508922512E+03 0.  0.
          5    1    3    3  502    0  0.31436853648E+02 -0.11812162970E+02 -0.86185155977E+02  0.92591341237E+02  0.41800000000E+01 0.  1.
         -5    1    3    3    0  502 -0.89738079836E+02 -0.13123233533E+03 -0.19208840084E+03  0.24937978055E+03  0.41800000000E+01 0.  1.
        -11    1    1    2    0    0  0.56002913031E+02  0.11516461264E+03 -0.38937473924E+03  0.40989254913E+03  0.00000000000E+00 0.  1.
         11    1    1    2    0    0  0.22983131576E+01  0.27879885660E+02 -0.82910592971E+01  0.29177250248E+02  0.00000000000E+00 0. -1.
</event>
<event>
 7    1  0.2900135E-009  0.1134943E+03  0.7561462E-02  0.1254232E+00
          1   -1    0    0  501    0  0.00000000000E+00  0.00000000000E+00  0.46409249200E+02  0.46409249200E+02  0.00000000000E+00 0. -1.
         -1   -1    0    0    0  501 -0.00000000000E+00 -0.00000000000E+00 -0.32621974717E+03  0.32621974717E+03  0.00000000000E+00 0.  1.
         25    2    1    2    0    0 -0.32064777458E+02  0.49129631088E+02 -0.16601810474E+03  0.21599147143E+03  0.12509370097E+03 0.  0.
          5    1    3    3  502    0  0.42118824331E+02  0.15672721689E+02 -0.21297287566E+02  0.49906677167E+02  0.41800000000E+01 0.  1.
         -5    1    3    3    0  502 -0.74183601789E+02  0.33456909399E+02 -0.14472081718E+03  0.16608479426E+03  0.41800000000E+01 0.  1.
        -11    1    1    2    0    0  0.52688889505E+02 -0.65989942165E+01 -0.88029743488E+02  0.10280516300E+03  0.00000000000E+00 0.  1.
         11    1    1    2    0    0 -0.20624112047E+02 -0.42530636872E+02 -0.25762649745E+02  0.53832361942E+02  0.00000000000E+00 0. -1.
</event>
<event>
 7    1  0.2900135E-009  0.1147700E+03  0.7561462E-02  0.1251983E+00
          3   -1    0    0  501    0  0.00000000000E+00  0.00000000000E+00  0.10156318448E+03  0.10156318448E+03  0.00000000000E+00 0. -1.
         -3   -1    0    0    0  501 -0.00000000000E+00 -0.00000000000E+00 -0.16650643258E+03  0.16650643258E+03  0.00000000000E+00 0.  1.
         25    2    1    2    0    0 -0.38189671029E+02 -0.71959023649E+02 -0.33025587562E+02  0.15288490804E+03  0.12508618475E+03 0.  0.
          5    1    3    3  502    0 -0.69470501362E+02 -0.52248213758E+00 -0.45074696158E+01  0.69743911773E+02  0.41800000000E+01 0. -1.
         -5    1    3    3    0  502  0.31280830333E+02 -0.71436541511E+02 -0.28518117946E+02  0.83140996269E+02  0.41800000000E+01 0. -1.
        -11    1    1    2    0    0  0.30771619203E+02  0.50464743513E+02 -0.56451990609E+02  0.81733775943E+02  0.00000000000E+00 0.  1.
         11    1    1    2    0    0  0.74180518265E+01  0.21494280136E+02  0.24534330073E+02  0.33450933075E+02  0.00000000000E+00 0. -1.
</event>
<event>
 7    1  0.2900135E-009  0.1399340E+03  0.7561462E-02  0.1213418E+00
          3   -1    0    0  501    0  0.00000000000E+00  0.00000000000E+00  0.11630774199E+03  0.11630774199E+03  0.00000000000E+00 0. -1.
         -3   -1    0    0    0  501 -0.00000000000E+00 -0.00000000000E+00 -0.19963374648E+03  0.19963374648E+03  0.00000000000E+00 0.  1.
         25    2    1    2    0    0  0.81692017139E+02  0.56283564118E+02 -0.28080471402E+01  0.15967842797E+03  0.12509152639E+03 0.  0.
          5    1    3    3  502    0  0.77526211669E+02 -0.19939191717E+02 -0.16949344950E+02  0.81930687512E+02  0.41800000000E+01 0. -1.
         -5    1    3    3    0  502  0.41658054701E+01  0.76222755835E+02  0.14141297810E+02  0.77747740456E+02  0.41800000000E+01 0. -1.
        -11    1    1    2    0    0 -0.62443700844E+00 -0.40702705950E+02  0.34021689122E+00  0.40708917215E+02  0.00000000000E+00 0. -1.
         11    1    1    2    0    0 -0.81067580130E+02 -0.15580858167E+02 -0.80858174238E+02  0.11555414329E+03  0.00000000000E+00 0.  1.
</event>
<event>
 7    1  0.2900135E-009  0.9800344E+02  0.7561462E-02  0.1284551E+00
         -3   -1    0    0    0  501 -0.00000000000E+00  0.00000000000E+00  0.44994779971E+03  0.44994779971E+03  0.00000000000E+00 0.  1.
          3   -1    0    0  501    0  0.00000000000E+00 -0.00000000000E+00 -0.46820651386E+02  0.46820651386E+02  0.00000000000E+00 0. -1.
         25    2    1    2    0    0  0.28258071936E+02 -0.69226370771E+02  0.11482457087E+03  0.18554252075E+03  0.12510210187E+03 0.  0.
          5    1    3    3  502    0 -0.60535228941E+01 -0.23926041217E+02 -0.24493865971E+02  0.35021742646E+02  0.41800000000E+01 0. -1.
         -5    1    3    3    0  502  0.34311594830E+02 -0.45300329554E+02  0.13931843684E+03  0.15052077810E+03  0.41800000000E+01 0. -1.
        -11    1    1    2    0    0 -0.44262634344E+01  0.85193082859E+02  0.24365298853E+03  0.25815544154E+03  0.00000000000E+00 0. -1.
         11    1    1    2    0    0 -0.23831808502E+02 -0.15966712088E+02  0.44649588922E+02  0.53070488808E+02  0.00000000000E+00 0.  1.
</event>
<event>
 7    1  0.2900135E-009  0.1922022E+03  0.7561462E-02  0.1156490E+00
          1   -1    0    0  501    0  0.00000000000E+00  0.00000000000E+00  0.26046627151E+03  0.26046627151E+03  0.00000000000E+00 0. -1.
         -1   -1    0    0    0  501 -0.00000000000E+00 -0.00000000000E+00 -0.16468979562E+03  0.16468979562E+03  0.00000000000E+00 0.  1.
         25    2    1    2    0    0 -0.83152089309E+02  0.15275266982E+03  0.80154666465E+02  0.22873673386E+03  0.12509226502E+03 0.  0.
          5    1    3    3  502    0 -0.24341836318E+02  0.14936092193E+03  0.76365132182E+02  0.16955918085E+03  0.41800000000E+01 0. -1.
         -5    1    3    3    0  502 -0.58810252991E+02  0.33917478809E+01  0.37895342827E+01  0.59177553014E+02  0.41800000000E+01 0. -1.
        -11    1    1    2    0    0  0.57471807865E+02 -0.10914771781E+03 -0.31456496921E+02  0.12730178396E+03  0.00000000000E+00 0.  1.
         11    1    1    2    0    0  0.25680281444E+02 -0.43604952010E+02  0.47078306346E+02  0.69117549314E+02  0.00000000000E+00 0. -1.
</event>
<event>
 7    1  0.2900135E-009  0.1413203E+03  0.7561462E-02  0.1211563E+00
          2   -1    0    0  501    0  0.00000000000E+00  0.00000000000E+00  0.69585812603E+03  0.69585812603E+03  0.00000000000E+00 0. -1.
         -2   -1    0    0    0  501 -0.00000000000E+00 -0.00000000000E+00 -0.34687156218E+02  0.34687156218E+02  0.00000000000E+00 0.  1.
         25    2    1    2    0    0  0.79839689270E+01 -0.10758161963E+03  0.41359838136E+03  0.44535587589E+03  0.12506273019E+03 0.  0.
          5    1    3    3  502    0 -0.28155303195E+02 -0.10064420481E+03  0.38387219823E+03  0.39786594983E+03  0.41800000000E+01 0. -1.
         -5    1    3    3    0  502  0.36139272122E+02 -0.69374148252E+01  0.29726183134E+02  0.47489926065E+02  0.41800000000E+01 0. -1.
        -11    1    1    2    0    0  0.41505780246E+02  0.44819569247E+02  0.11984958646E+03  0.13451931815E+03  0.00000000000E+00 0. -1.
         11    1    1    2    0    0 -0.49489749173E+02  0.62762050388E+02  0.12772300199E+03  0.15067008821E+03  0.00000000000E+00 0.  1.
</event>
<event>
 7    1  0.2900135E-009  0.1133716E+03  0.7561462E-02  0.1254451E+00
          3   -1    0    0  501    0  0.00000000000E+00  0.00000000000E+00  0.32221098544E+03  0.32221098544E+03  0.00000000000E+00 0. -1.
         -3   -1    0    0    0  501 -0.00000000000E+00 -0.00000000000E+00 -0.47299037454E+02  0.47299037454E+02  0.00000000000E+00 0.  1.
         25    2    1    2    0    0  0.48492933193E+02  0.34268669523E+02  0.14974889742E+03  0.20395649168E+03  0.12509041506E+03 0.  0.
          5    1    3    3  502    0 -0.26946763222E+02 -0.14113671604E+02  0.92659058674E+02  0.97614022193E+02  0.41800000000E+01 0. -1.
         -5    1    3    3    0  502  0.75439696415E+02  0.48382341127E+02  0.57089838743E+02  0.10634246948E+03  0.41800000000E+01 0. -1.
        -11    1    1    2    0    0 -0.32988992085E+01 -0.56052340528E+02  0.49999925753E+02  0.75184707155E+02  0.00000000000E+00 0.  1.
         11    1    1    2    0    0 -0.45194033985E+02  0.21783671005E+02  0.75163124815E+02  0.90368824062E+02  0.00000000000E+00 0. -1.
</event>
<event>
 7    1  0.3393590E-009  0.1340819E+03  0.7561462E-02  0.1221522E+00
          2   -1    0    0  501    0  0.00000000000E+00  0.00000000000E+00  0.11148617531E+04  0.11148617531E+04  0.00000000000E+00 0. -1.
         -2   -1    0    0    0  501 -0.00000000000E+00 -0.00000000000E+00 -0.22801595025E+02  0.22801595025E+02  0.00000000000E+00 0.  1.
         25    2    1    2    0    0 -0.46185074296E+02 -0.10623012269E+03  0.56124020232E+03  0.58656293574E+03  0.12509041860E+03 0.  0.
          5    1    3    3  502    0 -0.23792433126E+00 -0.46241898754E+02  0.44777243074E+03  0.45017329101E+03  0.41800000000E+01 0. -1.
         -5    1    3    3    0  502 -0.45947149965E+02 -0.59988223938E+02  0.11346777158E+03  0.13638964472E+03  0.41800000000E+01 0. -1.
        -11    1    1    2    0    0 -0.25562687189E+02  0.44897966795E+02  0.14594114806E+03  0.15481633343E+03  0.00000000000E+00 0.  1.
         11    1    1    2    0    0  0.71747761486E+02  0.61332155898E+02  0.38487880770E+03  0.39628407896E+03  0.00000000000E+00 0. -1.
</event>
<event>
 7    1  0.2900135E-009  0.1168422E+03  0.7561462E-02  0.1248399E+00
          1   -1    0    0  501    0  0.00000000000E+00  0.00000000000E+00  0.18034000303E+03  0.18034000303E+03  0.00000000000E+00 0. -1.
         -1   -1    0    0    0  501 -0.00000000000E+00 -0.00000000000E+00 -0.78655591347E+02  0.78655591347E+02  0.00000000000E+00 0.  1.
         25    2    1    2    0    0 -0.40100661689E+02  0.98603865947E+01  0.80566294453E+02  0.15441202562E+03  0.12508739170E+03 0.  0.
          5    1    3    3  502    0 -0.59930341332E+01 -0.56395327473E+02  0.39320062077E+02  0.69136742045E+02  0.41800000000E+01 0. -1.
         -5    1    3    3    0  502 -0.34107627556E+02  0.66255714067E+02  0.41246232376E+02  0.85275283578E+02  0.41800000000E+01 0. -1.
        -11    1    1    2    0    0  0.64756032781E+02 -0.29015297992E+02  0.17998132612E+02  0.73206311727E+02  0.00000000000E+00 0.  1.
         11    1    1    2    0    0 -0.24655371092E+02  0.19154911398E+02  0.31199846138E+01  0.31377257023E+02  0.00000000000E+00 0. -1.
</event>
<event>
 7    1  0.2900135E-009  0.1214493E+03  0.7561462E-02  0.1240725E+00
         -2   -1    0    0    0  501 -0.00000000000E+00  0.00000000000E+00  0.26588180814E+02  0.26588180814E+02  0.00000000000E+00 0. -1.
          2   -1    0    0  501    0  0.00000000000E+00 -0.00000000000E+00 -0.90509220719E+03  0.90509220719E+03  0.00000000000E+00 0.  1.
         25    2    1    2    0    0 -0.65442116593E+02 -0.61516423918E+02 -0.65515654604E+03  0.67300903631E+03  0.12507646501E+03 0.  0.
          5    1    3    3  502    0  0.35729690942E+01 -0.46239890290E+02 -0.73169901150E+02  0.86730619717E+02  0.41800000000E+01 0.  1.
         -5    1    3    3    0  502 -0.69015085687E+02 -0.15276533627E+02 -0.58198664489E+03  0.58627841659E+03  0.41800000000E+01 0.  1.
        -11    1    1    2    0    0  0.59074810166E+02 -0.44580115946E+01 -0.14115837828E+03  0.15308623328E+03  0.00000000000E+00 0.  1.
         11    1    1    2    0    0  0.63673064271E+01  0.65974435512E+02 -0.82189102058E+02  0.10558511841E+03  0.00000000000E+00 0. -1.
</event>
<event>
 7    1  0.3022529E-009  0.1128201E+03  0.7561462E-02  0.1255435E+00
         -2   -1    0    0    0  501 -0.00000000000E+00  0.00000000000E+00  0.17198680253E+03  0.17198680253E+03  0.00000000000E+00 0. -1.
          2   -1    0    0  501    0  0.00000000000E+00 -0.00000000000E+00 -0.97735955070E+02  0.97735955070E+02  0.00000000000E+00 0.  1.
         25    2    1    2    0    0 -0.23345028903E+02  0.54002270218E+02  0.82083329342E+02  0.16076711951E+03  0.12508860139E+03 0.  0.
          5    1    3    3  502    0  0.42097096554E+02  0.29627248406E+02 -0.16264622707E+01  0.51672595889E+02  0.41800000000E+01 0. -1.
         -5    1    3    3    0  502 -0.65442125457E+02  0.24375021812E+02  0.83709791613E+02  0.10909452362E+03  0.41800000000E+01 0. -1.
        -11    1    1    2    0    0  0.28090546026E+02  0.17025859128E+02  0.12142134129E+02  0.35019852602E+02  0.00000000000E+00 0.  1.
         11    1    1    2    0    0 -0.47455171226E+01 -0.71028129346E+02 -0.19974616008E+02  0.73935785488E+02  0.00000000000E+00 0. -1.
</event>
<event>
 7    1  0.2900135E-009  0.1811665E+03  0.7561462E-02  0.1166679E+00
          1   -1    0    0  501    0  0.00000000000E+00  0.00000000000E+00  0.62830115472E+03  0.62830115472E+03  0.00000000000E+00 0. -1.
         -1   -1    0    0    0  501 -0.00000000000E+00 -0.00000000000E+00 -0.69979834619E+02  0.69979834619E+02  0.00000000000E+00 0.  1.
         25    2    1    2    0    0  0.15554074454E+03  0.85347778857E+02  0.25025594503E+03  0.33128967136E+03  0.12509053426E+03 0.  0.
          5    1    3    3  502    0  0.67237152431E+01 -0.61640334584E+01  0.10092987604E+03  0.10142739242E+03  0.41800000000E+01 0.  1.
         -5    1    3    3    0  502  0.14881702930E+03  0.91511812315E+02  0.14932606898E+03  0.22986227894E+03  0.41800000000E+01 0.  1.
        -11    1    1    2    0    0 -0.12462220812E+03 -0.71412139729E+02  0.29927337271E+03  0.33195623216E+03  0.00000000000E+00 0. -1.
         11    1    1    2    0    0 -0.30918536422E+02 -0.13935639128E+02  0.87920023638E+01  0.35035085813E+02  0.00000000000E+00 0.  1.
</event>
<event>
 7    1  0.2900135E-009  0.1129416E+03  0.7561462E-02  0.1255217E+00
         -2   -1    0    0    0  501 -0.00000000000E+00  0.00000000000E+00  0.81039972090E+02  0.81039972090E+02  0.00000000000E+00 0.  1.
          2   -1    0    0  501    0  0.00000000000E+00 -0.00000000000E+00 -0.22830125086E+03  0.22830125086E+03  0.00000000000E+00 0. -1.
         25    2    1    2    0    0  0.69162884214E+02  0.36147737670E+02 -0.11577820095E+03  0.18746240405E+03  0.12508955842E+03 0.  0.
          5    1    3    3  502    0 -0.12593075914E+02  0.49988504461E+02 -0.83834917754E+02  0.98504832237E+02  0.41800000000E+01 0.  1.
         -5    1    3    3    0  502  0.81755960128E+02 -0.13840766791E+02 -0.31943283193E+02  0.88957571814E+02  0.41800000000E+01 0.  1.
        -11    1    1    2    0    0 -0.58421191764E+01 -0.26440933254E+02  0.24714921262E+02  0.36661705372E+02  0.00000000000E+00 0.  1.
         11    1    1    2    0    0 -0.63320765038E+02 -0.97068044163E+01 -0.56197999089E+02  0.85217113531E+02  0.00000000000E+00 0. -1.
</event>
<event>
 7    1  0.2900135E-009  0.9356526E+02  0.7561462E-02  0.1294441E+00
          2   -1    0    0  501    0  0.00000000000E+00  0.00000000000E+00  0.77381762772E+02  0.77381762772E+02  0.00000000000E+00 0. -1.
         -2   -1    0    0    0  501 -0.00000000000E+00 -0.00000000000E+00 -0.20647256352E+03  0.20647256352E+03  0.00000000000E+00 0.  1.
         25    2    1    2    0    0 -0.41915045562E+01 -0.42742642695E+02 -0.12688086297E+03  0.18327408297E+03  0.12508450697E+03 0.  0.
          5    1    3    3  502    0  0.14064322354E+02 -0.76311777818E+02 -0.38138321220E+02  0.86563829297E+02  0.41800000000E+01 0. -1.
         -5    1    3    3    0  502 -0.18255826910E+02  0.33569135123E+02 -0.88742541750E+02  0.96710253672E+02  0.41800000000E+01 0. -1.
        -11    1    1    2    0    0  0.29943181357E+02  0.16390646446E+02 -0.36692800126E+02  0.50115955362E+02  0.00000000000E+00 0.  1.
         11    1    1    2    0    0 -0.25751676801E+02  0.26351996249E+02  0.34482862345E+02  0.50464287965E+02  0.00000000000E+00 0. -1.
</event>
<event>
 7    1  0.2900135E-009  0.1316812E+03  0.7561462E-02  0.1224982E+00
         -4   -1    0    0    0  501 -0.00000000000E+00  0.00000000000E+00  0.30778695098E+03  0.30778695098E+03  0.00000000000E+00 0.  1.
          4   -1    0    0  501    0  0.00000000000E+00 -0.00000000000E+00 -0.62843472102E+02  0.62843472102E+02  0.00000000000E+00 0. -1.
         25    2    1    2    0    0  0.77412655306E+02  0.14513282827E+02  0.18073077886E+03  0.23348267575E+03  0.12508873199E+03 0.  0.
          5    1    3    3  502    0 -0.13134936891E+02 -0.35995349376E+02  0.80312597299E+02  0.89082980579E+02  0.41800000000E+01 0. -1.
         -5    1    3    3    0  502  0.90547592198E+02  0.50508632202E+02  0.10041818156E+03  0.14439969518E+03  0.41800000000E+01 0. -1.
        -11    1    1    2    0    0 -0.21879739915E+02 -0.50391808921E+02  0.32371187674E+02  0.63764811742E+02  0.00000000000E+00 0.  1.
         11    1    1    2    0    0 -0.55532915391E+02  0.35878526095E+02  0.31841512351E+02  0.73382935587E+02  0.00000000000E+00 0. -1.
</event>
<event>
 7    1  0.2900135E-009  0.1361671E+03  0.7561462E-02  0.1218581E+00
         -1   -1    0    0    0  501 -0.00000000000E+00  0.00000000000E+00  0.28840575113E+02  0.28840575113E+02  0.00000000000E+00 0.  1.
          1   -1    0    0  501    0  0.00000000000E+00 -0.00000000000E+00 -0.76444606298E+03  0.76444606298E+03  0.00000000000E+00 0. -1.
         25    2    1    2    0    0 -0.65502708230E+02  0.62575270030E+02 -0.50932022919E+03  0.53222208778E+03  0.12508791172E+03 0.  0.
          5    1    3    3  502    0 -0.92954276157E+02  0.78813755443E+02 -0.38807415616E+03  0.40678142605E+03  0.41800000000E+01 0. -1.
         -5    1    3    3    0  502  0.27451567927E+02 -0.16238485413E+02 -0.12124607303E+03  0.12544066173E+03  0.41800000000E+01 0. -1.
        -11    1    1    2    0    0 -0.16568876598E+02 -0.19325189786E+02 -0.10680750880E+03  0.10979906452E+03  0.00000000000E+00 0. -1.
         11    1    1    2    0    0  0.82071584828E+02 -0.43250080244E+02 -0.11947774987E+03  0.15126548579E+03  0.00000000000E+00 0.  1.
</event>
<event>
 7    1  0.2900135E-009  0.1029577E+03  0.7561462E-02  0.1274196E+00
         -1   -1    0    0    0  501 -0.00000000000E+00  0.00000000000E+00  0.18370774380E+02  0.18370774380E+02  0.00000000000E+00 0.  1.
          1   -1    0    0  501    0  0.00000000000E+00 -0.00000000000E+00 -0.86957728691E+03  0.86957728691E+03  0.00000000000E+00 0. -1.
         25    2    1    2    0    0 -0.18281485324E+02  0.23103555135E+02 -0.66476692628E+03  0.67707521494E+03  0.12509114059E+03 0.  0.
          5    1    3    3  502    0  0.38000086239E+02  0.52439733509E+02 -0.33097985623E+03  0.33728188483E+03  0.41800000000E+01 0.  1.
         -5    1    3    3    0  502 -0.56281571564E+02 -0.29336178374E+02 -0.33378707005E+03  0.33979333012E+03  0.41800000000E+01 0.  1.
        -11    1    1    2    0    0 -0.16385805095E+02 -0.36687709140E+02 -0.30217801171E+02  0.50275223701E+02  0.00000000000E+00 0.  1.
         11    1    1    2    0    0  0.34667290419E+02  0.13584154005E+02 -0.15622178508E+03  0.16059762265E+03  0.00000000000E+00 0. -1.
</event>
<event>
 7    1  0.3205679E-009  0.1812423E+03  0.7561462E-02  0.1166606E+00
         -1   -1    0    0    0  501 -0.00000000000E+00  0.00000000000E+00  0.23998175113E+02  0.23998175113E+02  0.00000000000E+00 0.  1.
          1   -1    0    0  501    0  0.00000000000E+00 -0.00000000000E+00 -0.18424377815E+04  0.18424377815E+04  0.00000000000E+00 0. -1.
         25    2    1    2    0    0 -0.12281857126E+03  0.12853543312E+03 -0.10760573660E+04  0.10977942778E+04  0.12508821842E+03 0.  0.
          5    1    3    3  502    0 -0.49384526899E+02  0.42041715408E+02 -0.74458030074E+03  0.74741128837E+03  0.41800000000E+01 0. -1.
         -5    1    3    3    0  502 -0.73434044359E+02  0.86493717717E+02 -0.33147706530E+03  0.35038298944E+03  0.41800000000E+01 0. -1.
        -11    1    1    2    0    0  0.51917273638E+02 -0.88300552157E+02 -0.26055499192E+03  0.27996659555E+03  0.00000000000E+00 0.  1.
         11    1    1    2    0    0  0.70901297620E+02 -0.40234880968E+02 -0.48182724847E+03  0.48867508328E+03  0.00000000000E+00 0. -1.
</event>
<event>
 7    1  0.2900135E-009  0.2141597E+03  0.7561462E-02  0.1138314E+00
          2   -1    0    0  501    0  0.00000000000E+00  0.00000000000E+00  0.57007442020E+03  0.57007442020E+03  0.00000000000E+00 0. -1.
         -2   -1    0    0    0  501 -0.00000000000E+00 -0.00000000000E+00 -0.90783769420E+02  0.90783769420E+02  0.00000000000E+00 0.  1.
         25    2    1    2    0    0  0.12199574099E+03  0.15885489563E+03  0.24181357632E+03  0.33799416697E+03  0.12509361506E+03 0.  0.
          5    1    3    3  502    0  0.52054037999E+02  0.14475267329E+03  0.11384222531E+03  0.19141704198E+03  0.41800000000E+01 0. -1.
         -5    1    3    3    0  502  0.69941702994E+02  0.14102222340E+02  0.12797135101E+03  0.14657712500E+03  0.41800000000E+01 0. -1.
        -11    1    1    2    0    0 -0.39156580561E+02 -0.77633792304E+02  0.44441698270E+02  0.97648901960E+02  0.00000000000E+00 0.  1.
         11    1    1    2    0    0 -0.82839160432E+02 -0.81221103322E+02  0.19303537619E+03  0.22521512069E+03  0.00000000000E+00 0. -1.
</event>
<event>
 7    1  0.2900135E-009  0.1133610E+03  0.7561462E-02  0.1254469E+00
          1   -1    0    0  501    0  0.00000000000E+00  0.00000000000E+00  0.65414595450E+02  0.65414595450E+02  0.00000000000E+00 0. -1.
         -1   -1    0    0    0  501 -0.00000000000E+00 -0.00000000000E+00 -0.20949504144E+03  0.20949504144E+03  0.00000000000E+00 0.  1.
         25    2    1    2    0    0  0.52385349756E+02  0.20174727889E+01 -0.75398362535E+02  0.15517901892E+03  0.12508924724E+03 0.  0.
          5    1    3    3  502    0 -0.13761930351E+02 -0.45282132593E+02 -0.52045710027E+02  0.70470494474E+02  0.41800000000E+01 0. -1.
         -5    1    3    3    0  502  0.66147280107E+02  0.47299605382E+02 -0.23352652508E+02  0.84708524447E+02  0.41800000000E+01 0. -1.
        -11    1    1    2    0    0  0.16250439485E+02  0.19939143649E+02 -0.14124145799E+02  0.29345148278E+02  0.00000000000E+00 0. -1.
         11    1    1    2    0    0 -0.68635789241E+02 -0.21956616438E+02 -0.54557937661E+02  0.90385469695E+02  0.00000000000E+00 0.  1.
</event>
<event>
 7    1  0.2900135E-009  0.5037498E+03  0.7561462E-02  0.1012805E+00
          1   -1    0    0  501    0  0.00000000000E+00  0.00000000000E+00  0.11879749432E+04  0.11879749432E+04  0.00000000000E+00 0. -1.
         -1   -1    0    0    0  501 -0.00000000000E+00 -0.00000000000E+00 -0.22018877623E+03  0.22018877623E+03  0.00000000000E+00 0.  1.
         25    2    1    2    0    0  0.38973693787E+03  0.31207088850E+03  0.47116822983E+03  0.69780379338E+03  0.12509001978E+03 0.  0.
          5    1    3    3  502    0  0.32352500977E+03  0.26652511314E+03  0.32302017334E+03  0.52921032932E+03  0.41800000000E+01 0. -1.
         -5    1    3    3    0  502  0.66211928108E+02  0.45545775360E+02  0.14814805650E+03  0.16859346405E+03  0.41800000000E+01 0. -1.
        -11    1    1    2    0    0 -0.79178985137E+02 -0.11639039212E+03  0.13190803083E+03  0.19291387628E+03  0.00000000000E+00 0. -1.
         11    1    1    2    0    0 -0.31055795274E+03 -0.19568049638E+03  0.36470990635E+03  0.51744604981E+03  0.00000000000E+00 0.  1.
</event>
<event>
 7    1  0.2900135E-009  0.7988487E+02  0.7561462E-02  0.1329378E+00
         -4   -1    0    0    0  501 -0.00000000000E+00  0.00000000000E+00  0.26729584294E+03  0.26729584294E+03  0.00000000000E+00 0.  1.
          4   -1    0    0  501    0  0.00000000000E+00 -0.00000000000E+00 -0.66766728272E+02  0.66766728272E+02  0.00000000000E+00 0. -1.
         25    2    1    2    0    0  0.53299622021E+02 -0.19738907475E+02  0.44739815128E+02  0.14451531240E+03  0.12511015260E+03 0.  0.
          5    1    3    3  502    0  0.19749773642E+02  0.20035528391E+00 -0.43490672649E+02  0.47947937480E+02  0.41800000000E+01 0.  1.
         -5    1    3    3    0  502  0.33549848380E+02 -0.19939262759E+02  0.88230487777E+02  0.96567374921E+02  0.41800000000E+01 0.  1.
        -11    1    1    2    0    0 -0.17212680971E+02  0.50223316826E+02  0.11678481811E+03  0.12828621002E+03  0.00000000000E+00 0.  1.
         11    1    1    2    0    0 -0.36086941050E+02 -0.30484409351E+02  0.39004481428E+02  0.61261048793E+02  0.00000000000E+00 0. -1.
</event>
<event>
 7    1  0.2900135E-009  0.9238949E+02  0.7561462E-02  0.1297166E+00
         -1   -1    0    0    0  501 -0.00000000000E+00  0.00000000000E+00  0.22186302995E+02  0.22186302995E+02  0.00000000000E+00 0.  1.
          1   -1    0    0  501    0  0.00000000000E+00 -0.00000000000E+00 -0.69617409741E+03  0.69617409741E+03  0.00000000000E+00 0. -1.
         25    2    1    2    0    0  0.24612876127E+02 -0.41188263952E+02 -0.48554623867E+03  0.50369164522E+03  0.12509139385E+03 0.  0.
          5    1    3    3  502    0 -0.32778611206E+02  0.28306421947E+02 -0.14411265908E+03  0.15053777527E+03  0.41800000000E+01 0.  1.
         -5    1    3    3    0  502  0.57391487332E+02 -0.69494685900E+02 -0.34143357959E+03  0.35315386995E+03  0.41800000000E+01 0.  1.
        -11    1    1    2    0    0 -0.12799949818E+02  0.64154114952E+01  0.69080697311E+01  0.15897095565E+02  0.00000000000E+00 0.  1.
         11    1    1    2    0    0 -0.11812926308E+02  0.34772852457E+02 -0.19534962548E+03  0.19877165963E+03  0.00000000000E+00 0. -1.
</event>
<event>
 7    1  0.2900135E-009  0.9508363E+02  0.7561462E-02  0.1290988E+00
         -2   -1    0    0    0  501 -0.00000000000E+00  0.00000000000E+00  0.29871789005E+03  0.29871789005E+03  0.00000000000E+00 0.  1.
          2   -1    0    0  501    0  0.00000000000E+00 -0.00000000000E+00 -0.37039891986E+02  0.37039891986E+02  0.00000000000E+00 0. -1.
         25    2    1    2    0    0  0.14514148630E+02 -0.83143423109E+01  0.16641083671E+03  0.20885521974E+03  0.12509255549E+03 0.  0.
          5    1    3    3  502    0  0.34403538229E+02  0.51207194514E+02  0.98445658544E+02  0.11625317328E+03  0.41800000000E+01 0.  1.
         -5    1    3    3    0  502 -0.19889389598E+02 -0.59521536825E+02  0.67965178170E+02  0.92602046458E+02  0.41800000000E+01 0.  1.
        -11    1    1    2    0    0  0.21674443373E+02  0.17778786045E+02  0.40636068307E+01  0.28326306311E+02  0.00000000000E+00 0. -1.
         11    1    1    2    0    0 -0.36188592003E+02 -0.94644437339E+01  0.91203554517E+02  0.98576255979E+02  0.00000000000E+00 0.  1.
</event>
<event>
 7    1  0.2900135E-009  0.9279120E+02  0.7561462E-02  0.1296230E+00
          2   -1    0    0  501    0  0.00000000000E+00  0.00000000000E+00  0.66797495858E+03  0.66797495858E+03  0.00000000000E+00 0. -1.
         -2   -1    0    0    0  501 -0.00000000000E+00 -0.00000000000E+00 -0.18912837780E+02  0.18912837780E+02  0.00000000000E+00 0.  1.
         25    2    1    2    0    0  0.14662106344E+02 -0.35033410588E+02  0.45010418486E+03  0.46870377282E+03  0.12508849749E+03 0.  0.
          5    1    3    3  502    0  0.55020124523E+02 -0.34718178592E+02  0.39460663211E+03  0.39995553819E+03  0.41800000000E+01 0. -1.
         -5    1    3    3    0  502 -0.40358018178E+02 -0.31523199646E+00  0.55497552753E+02  0.68748234625E+02  0.41800000000E+01 0. -1.
        -11    1    1    2    0    0  0.12526508927E+02 -0.16993918040E+02  0.10716892358E+03  0.10922858993E+03  0.00000000000E+00 0. -1.
         11    1    1    2    0    0 -0.27188615271E+02  0.52027328628E+02  0.91789012357E+02  0.10895543361E+03  0.00000000000E+00 0.  1.
</event>
<event>
 7    1  0.2900135E-009  0.1180483E+03  0.7561462E-02  0.1246352E+00
          1   -1    0    0  501    0  0.00000000000E+00  0.00000000000E+00  0.52038390219E+03  0.52038390219E+03  0.00000000000E+00 0. -1.
         -1   -1    0    0    0  501 -0.00000000000E+00 -0.00000000000E+00 -0.47511098353E+02  0.47511098353E+02  0.00000000000E+00 0.  1.
         25    2    1    2    0    0  0.39592572448E+01 -0.10106262741E+03  0.34989028875E+03  0.38509733381E+03  0.12508961577E+03 0.  0.
          5    1    3    3  502    0  0.29306104059E+02 -0.52614976571E+02  0.44954197659E+02  0.75269753433E+02  0.41800000000E+01 0.  1.
         -5    1    3    3    0  502 -0.25346846814E+02 -0.48447650841E+02  0.30493609109E+03  0.30982758038E+03  0.41800000000E+01 0.  1.
        -11    1    1    2    0    0 -0.27037919650E+02  0.13280732361E+02  0.73471304582E+02  0.79406923804E+02  0.00000000000E+00 0. -1.
         11    1    1    2    0    0  0.23078662405E+02  0.87781895052E+02  0.49511210511E+02  0.10339074293E+03  0.00000000000E+00 0.  1.
</event>
<event>
 7    1  0.2900135E-009  0.1044180E+03  0.7561462E-02  0.1271271E+00
          3   -1    0    0  501    0  0.00000000000E+00  0.00000000000E+00  0.13552757575E+02  0.13552757575E+02  0.00000000000E+00 0. -1.
         -3   -1    0    0    0  501 -0.00000000000E+00 -0.00000000000E+00 -0.22368166487E+04  0.22368166487E+04  0.00000000000E+00 0.  1.
         25    2    1    2    0    0  0.61794802158E+02  0.57727357593E+02 -0.18715275793E+04  0.18776085160E+04  0.12508882480E+03 0.  0.
          5    1    3    3  502    0  0.57177885786E+02  0.29527211360E+02 -0.17892130843E+04  0.17903748491E+04  0.41800000000E+01 0.  1.
         -5    1    3    3    0  502  0.46169163716E+01  0.28200146233E+02 -0.82314494990E+02  0.87233666951E+02  0.41800000000E+01 0.  1.
        -11    1    1    2    0    0 -0.80120144759E+02 -0.54401611331E+02 -0.33105540599E+03  0.34492963738E+03  0.00000000000E+00 0.  1.
         11    1    1    2    0    0  0.18325342601E+02 -0.33257462613E+01 -0.20680905929E+02  0.27831252930E+02  0.00000000000E+00 0. -1.
</event>
<event>
 7    1  0.2900135E-009  0.1130319E+03  0.7561462E-02  0.1255056E+00
         -2   -1    0    0    0  501 -0.00000000000E+00  0.00000000000E+00  0.15519270021E+03  0.15519270021E+03  0.00000000000E+00 0.  1.
          2   -1    0    0  501    0  0.00000000000E+00 -0.00000000000E+00 -0.11103925852E+03  0.11103925852E+03  0.00000000000E+00 0. -1.
         25    2    1    2    0    0  0.71555110461E+02  0.13844181379E+02  0.13169449785E+02  0.14537191924E+03  0.12509102808E+03 0.  0.
          5    1    3    3  502    0  0.95893560260E+02  0.16946092112E+02 -0.24241392530E+02  0.10043835148E+03  0.41800000000E+01 0.  1.
         -5    1    3    3    0  502 -0.24338449798E+02 -0.31019107327E+01  0.37410842315E+02  0.44933567758E+02  0.41800000000E+01 0.  1.
        -11    1    1    2    0    0 -0.16054028583E+02 -0.39443609348E+02 -0.14157019781E+02  0.44877069436E+02  0.00000000000E+00 0. -1.
         11    1    1    2    0    0 -0.55501081879E+02  0.25599427969E+02  0.45141011686E+02  0.75982970053E+02  0.00000000000E+00 0.  1.
</event>
<event>
 7    1  0.2900135E-009  0.1265550E+03  0.7561462E-02  0.1232659E+00
          2   -1    0    0  501    0  0.00000000000E+00  0.00000000000E+00  0.48668962804E+02  0.48668962804E+02  0.00000000000E+00 0. -1.
         -2   -1    0    0    0  501 -0.00000000000E+00 -0.00000000000E+00 -0.54573159048E+03  0.54573159048E+03  0.00000000000E+00 0.  1.
         25    2    1    2    0    0 -0.91491663855E+02  0.39986890391E+01 -0.12213777196E+03  0.19735805533E+03  0.12508338257E+03 0.  0.
          5    1    3    3  502    0 -0.11073154724E+03  0.25126715133E+01 -0.13432830609E+03  0.17415325231E+03  0.41800000000E+01 0.  1.
         -5    1    3    3    0  502  0.19239883383E+02  0.14860175258E+01  0.12190534133E+02  0.23204803018E+02  0.41800000000E+01 0.  1.
        -11    1    1    2    0    0  0.77459586034E+02 -0.37607123298E+02 -0.19050532644E+03  0.20906114559E+03  0.00000000000E+00 0. -1.
         11    1    1    2    0    0  0.14032077821E+02  0.33608434259E+02 -0.18441952928E+03  0.18798135238E+03  0.00000000000E+00 0.  1.
</event>
<event>
 7    1  0.2900135E-009  0.8741339E+02  0.7561462E-02  0.1309239E+00
         -1   -1    0    0    0  501 -0.00000000000E+00  0.00000000000E+00  0.97321021201E+02  0.97321021201E+02  0.00000000000E+00 0.  1.
          1   -1    0    0  501    0  0.00000000000E+00 -0.00000000000E+00 -0.13162935169E+03  0.13162935169E+03  0.00000000000E+00 0. -1.
         25    2    1    2    0    0 -0.16884379198E+02  0.23193152838E+02 -0.35458818880E+02  0.13315071037E+03  0.12509508079E+03 0.  0.
          5    1    3    3  502    0  0.39719974992E+02  0.51043369121E+02 -0.13342800388E+02  0.66171025885E+02  0.41800000000E+01 0.  1.
         -5    1    3    3    0  502 -0.56604354190E+02 -0.27850216283E+02 -0.22116018493E+02  0.66979684489E+02  0.41800000000E+01 0.  1.
        -11    1    1    2    0    0  0.23616821696E+02 -0.10415813805E+01 -0.41219264364E+02  0.47517017094E+02  0.00000000000E+00 0. -1.
         11    1    1    2    0    0 -0.67324424977E+01 -0.22151571458E+02  0.42369752758E+02  0.48282645420E+02  0.00000000000E+00 0.  1.
</event>
<event>
 7    1  0.3031005E-009  0.2609043E+03  0.7561462E-02  0.1106601E+00
          2   -1    0    0  501    0  0.00000000000E+00  0.00000000000E+00  0.49497381100E+03  0.49497381100E+03  0.00000000000E+00 0. -1.
         -2   -1    0    0    0  501 -0.00000000000E+00 -0.00000000000E+00 -0.18845338348E+03  0.18845338348E+03  0.00000000000E+00 0.  1.
         25    2    1    2    0    0  0.24987038391E+03  0.10710342941E+02  0.27648347509E+01  0.27965147008E+03  0.12508948879E+03 0.  0.
          5    1    3    3  502    0  0.19623437138E+03 -0.37009683424E+02 -0.27514264400E+02  0.20162378908E+03  0.41800000000E+01 0. -1.
         -5    1    3    3    0  502  0.53636012525E+02  0.47720026365E+02  0.30279099151E+02  0.78027680994E+02  0.41800000000E+01 0. -1.
        -11    1    1    2    0    0 -0.10989211948E+03 -0.73884251465E+01  0.20407690429E+03  0.23190137907E+03  0.00000000000E+00 0. -1.
         11    1    1    2    0    0 -0.13997826442E+03 -0.33219177950E+01  0.99678688476E+02  0.17187434534E+03  0.00000000000E+00 0.  1.
</event>
<event>
 7    1  0.2900135E-009  0.1064735E+03  0.7561462E-02  0.1267243E+00
         -1   -1    0    0    0  501 -0.00000000000E+00  0.00000000000E+00  0.94368602484E+01  0.94368602484E+01  0.00000000000E+00 0.  1.
          1   -1    0    0  501    0  0.00000000000E+00 -0.00000000000E+00 -0.17946265412E+04  0.17946265412E+04  0.00000000000E+00 0. -1.
         25    2    1    2    0    0  0.18100091949E+01  0.90040565921E+01 -0.14665011140E+04  0.14718549231E+04  0.12508816119E+03 0.  0.
          5    1    3    3  502    0  0.34861996250E+02  0.54425526687E+02 -0.58968973935E+03  0.59323600518E+03  0.41800000000E+01 0.  1.
         -5    1    3    3    0  502 -0.33051987056E+02 -0.45421470095E+02 -0.87681137467E+03  0.87861891793E+03  0.41800000000E+01 0.  1.
        -11    1    1    2    0    0  0.44285384494E+02 -0.11272819748E+02 -0.12481423929E+03  0.13291676371E+03  0.00000000000E+00 0.  1.
         11    1    1    2    0    0 -0.46095393689E+02  0.22687631555E+01 -0.19387432768E+03  0.19929171467E+03  0.00000000000E+00 0. -1.
</event>
<event>
 7    1  0.2900135E-009  0.1695209E+03  0.7561462E-02  0.1178348E+00
         -1   -1    0    0    0  501 -0.00000000000E+00  0.00000000000E+00  0.17551667515E+03  0.17551667515E+03  0.00000000000E+00 0.  1.
          1   -1    0    0  501    0  0.00000000000E+00 -0.00000000000E+00 -0.23543097565E+03  0.23543097565E+03  0.00000000000E+00 0. -1.
         25    2    1    2    0    0  0.14800734557E+03 -0.80655682914E+02 -0.65779739828E+02  0.21996761409E+03  0.12508902250E+03 0.  0.
          5    1    3    3  502    0  0.11750132838E+03 -0.53419085209E+02 -0.10247785815E+03  0.16486159239E+03  0.41800000000E+01 0.  1.
         -5    1    3    3    0  502  0.30506017187E+02 -0.27236597705E+02  0.36698118320E+02  0.55106021699E+02  0.41800000000E+01 0.  1.
        -11    1    1    2    0    0 -0.96403609553E+02  0.47668102075E+02  0.46828141052E+02  0.11729782046E+03  0.00000000000E+00 0.  1.
         11    1    1    2    0    0 -0.51603736014E+02  0.32987580839E+02 -0.40962701722E+02  0.73682216257E+02  0.00000000000E+00 0. -1.
</event>
<event>
 7    1  0.2900135E-009  0.1191550E+03  0.7561462E-02  0.1244498E+00
          1   -1    0    0  501    0  0.00000000000E+00  0.00000000000E+00  0.11438369698E+03  0.11438369698E+03  0.00000000000E+00 0. -1.
         -1   -1    0    0    0  501 -0.00000000000E+00 -0.00000000000E+00 -0.24534437424E+03  0.24534437424E+03  0.00000000000E+00 0.  1.
         25    2    1    2    0    0 -0.70594041640E+02  0.41006274325E+02  0.34321539550E+02  0.15326665087E+03  0.12509062692E+03 0.  0.
          5    1    3    3  502    0  0.15672168920E+02  0.20148714806E+02  0.56108939059E+02  0.61784083948E+02  0.41800000000E+01 0. -1.
         -5    1    3    3    0  502 -0.86266210560E+02  0.20857559519E+02 -0.21787399509E+02  0.91482566923E+02  0.41800000000E+01 0. -1.
        -11    1    1    2    0    0  0.20734990963E+02  0.30220491925E+02 -0.44720843190E+02  0.57820167745E+02  0.00000000000E+00 0.  1.
         11    1    1    2    0    0  0.49859050677E+02 -0.71226766250E+02 -0.12056137362E+03  0.14864125260E+03  0.00000000000E+00 0. -1.
</event>
<event>
 7    1  0.2900135E-009  0.9899042E+02  0.7561462E-02  0.1282433E+00
          2   -1    0    0  501    0  0.00000000000E+00  0.00000000000E+00  0.28180301074E+03  0.28180301074E+03  0.00000000000E+00 0. -1.
         -2   -1    0    0    0  501 -0.00000000000E+00 -0.00000000000E+00 -0.80475250183E+02  0.80475250183E+02  0.00000000000E+00 0.  1.
         25    2    1    2    0    0  0.52019506975E+02 -0.72187380086E+01 -0.13289506730E+01  0.13567074646E+03  0.12508655424E+03 0.  0.
          5    1    3    3  502    0  0.37645778007E+02  0.36187494719E+02  0.46010591121E+02  0.69722207876E+02  0.41800000000E+01 0. -1.
         -5    1    3    3    0  502  0.14373728968E+02 -0.43406232728E+02 -0.47339541794E+02  0.65948538584E+02  0.41800000000E+01 0. -1.
        -11    1    1    2    0    0 -0.18015145042E+02 -0.38614840340E+02  0.66580109721E+02  0.79047848521E+02  0.00000000000E+00 0. -1.
         11    1    1    2    0    0 -0.34004361933E+02  0.45833578349E+02  0.13607660151E+03  0.14755966595E+03  0.00000000000E+00 0.  1.
</event>
<event>
 7    1  0.2900135E-009  0.1858910E+03  0.7561462E-02  0.1162220E+00
         -1   -1    0    0    0  501 -0.00000000000E+00  0.00000000000E+00  0.22003166232E+04  0.22003166232E+04  0.00000000000E+00 0.  1.
          1   -1    0    0  501    0  0.00000000000E+00 -0.00000000000E+00 -0.16786608435E+02  0.16786608435E+02  0.00000000000E+00 0. -1.
         25    2    1    2    0    0  0.14355007155E+03  0.64355053234E+02  0.12511871982E+04  0.12672273268E+04  0.12508995560E+03 0.  0.
          5    1    3    3  502    0  0.15731923976E+03  0.34107911764E+02  0.11329769922E+04  0.11443631548E+04  0.41800000000E+01 0.  1.
         -5    1    3    3    0  502 -0.13769168216E+02  0.30247141470E+02  0.11821020594E+03  0.12286417195E+03  0.41800000000E+01 0.  1.
        -11    1    1    2    0    0 -0.61023299555E+01 -0.36511990533E+02  0.12217793116E+03  0.12766287928E+03  0.00000000000E+00 0. -1.
         11    1    1    2    0    0 -0.13744774159E+03 -0.27843062701E+02  0.81016488546E+03  0.82221302559E+03  0.00000000000E+00 0.  1.
</event>
<event>
 7    1  0.2900135E-009  0.1483545E+03  0.7561462E-02  0.1202510E+00
         -2   -1    0    0    0  501 -0.00000000000E+00  0.00000000000E+00  0.52988515957E+02  0.52988515957E+02  0.00000000000E+00 0.  1.
          2   -1    0    0  501    0  0.00000000000E+00 -0.00000000000E+00 -0.63291848291E+03  0.63291848291E+03  0.00000000000E+00 0. -1.
         25    2    1    2    0    0  0.97282231784E+02 -0.10610104797E+03 -0.34263594483E+03  0.39213095499E+03  0.12508409238E+03 0.  0.
          5    1    3    3  502    0  0.95119276814E+02 -0.95120441828E+02 -0.15987952285E+03  0.20898447192E+03  0.41800000000E+01 0.  1.
         -5    1    3    3    0  502  0.21629549703E+01 -0.10980606139E+02 -0.18275642198E+03  0.18314648307E+03  0.41800000000E+01 0.  1.
        -11    1    1    2    0    0 -0.27027502648E+02  0.56749611507E+01 -0.10550310575E+01  0.27637007327E+02  0.00000000000E+00 0.  1.
         11    1    1    2    0    0 -0.70254729136E+02  0.10042608682E+03 -0.23623899107E+03  0.26613903656E+03  0.00000000000E+00 0. -1.
</event>
<event>
 7    1  0.2900135E-009  0.7852133E+02  0.7561462E-02  0.1333301E+00
          1   -1    0    0  501    0  0.00000000000E+00  0.00000000000E+00  0.76365692810E+02  0.76365692810E+02  0.00000000000E+00 0. -1.
         -1   -1    0    0    0  501 -0.00000000000E+00 -0.00000000000E+00 -0.21584622550E+03  0.21584622550E+03  0.00000000000E+00 0.  1.
         25    2    1    2    0    0  0.47947820320E+01  0.43907705235E+02 -0.18688262990E+02  0.13395514480E+03  0.12507538979E+03 0.  0.
          5    1    3    3  502    0 -0.29204551752E+02  0.75115129592E+01 -0.61191010050E+02  0.68345744424E+02  0.41800000000E+01 0. -1.
         -5    1    3    3    0  502  0.33999333783E+02  0.36396192276E+02  0.42502747060E+02  0.65609400375E+02  0.41800000000E+01 0. -1.
        -11    1    1    2    0    0 -0.13320941085E+02  0.13273293860E+02 -0.91564171209E+02  0.93475265447E+02  0.00000000000E+00 0.  1.
         11    1    1    2    0    0  0.85261590527E+01 -0.57180999095E+02 -0.29228098490E+02  0.64781508063E+02  0.00000000000E+00 0. -1.
</event>
<event>
 7    1  0.2900135E-009  0.1022860E+03  0.7561462E-02  0.1275561E+00
         -2   -1    0    0    0  501 -0.00000000000E+00  0.00000000000E+00  0.86922244768E+02  0.86922244768E+02  0.00000000000E+00 0.  1.
          2   -1    0    0  501    0  0.00000000000E+00 -0.00000000000E+00 -0.17217472208E+03  0.17217472208E+03  0.00000000000E+00 0. -1.
         25    2    1    2    0    0  0.17043898926E+02  0.46034980910E+02 -0.14358633866E+02  0.13514402881E+03  0.12509206289E+03 0.  0.
          5    1    3    3  502    0  0.37476876076E+01 -0.28729091063E+02 -0.44559827757E+02  0.53314692960E+02  0.41800000000E+01 0. -1.
         -5    1    3    3    0  502  0.13296211318E+02  0.74764071973E+02  0.30201193892E+02  0.81829335852E+02  0.41800000000E+01 0. -1.
        -11    1    1    2    0    0 -0.44841983636E+02 -0.54133152061E+02 -0.61820857367E+02  0.93611003916E+02  0.00000000000E+00 0. -1.
         11    1    1    2    0    0  0.27798084710E+02  0.80981711509E+01 -0.90729860748E+01  0.30341934116E+02  0.00000000000E+00 0.  1.
</event>
<event>
 7    1  0.2900135E-009  0.2966460E+03  0.7561462E-02  0.1086929E+00
         -2   -1    0    0    0  501 -0.00000000000E+00  0.00000000000E+00  0.63321702933E+02  0.63321702933E+02  0.00000000000E+00 0.  1.
          2   -1    0    0  501    0  0.00000000000E+00 -0.00000000000E+00 -0.14486015188E+04  0.14486015188E+04  0.00000000000E+00 0. -1.
         25    2    1    2    0    0  0.36158398101E+02  0.27613108695E+03 -0.59039203147E+03  0.66465618201E+03  0.12509709239E+03 0.  0.
          5    1    3    3  502    0  0.76993654927E+02  0.14178866714E+03 -0.36470842715E+03  0.39882547344E+03  0.41800000000E+01 0. -1.
         -5    1    3    3    0  502 -0.40835256826E+02  0.13434241981E+03 -0.22568360432E+03  0.26583070857E+03  0.41800000000E+01 0. -1.
        -11    1    1    2    0    0 -0.64632141919E+02 -0.19579954603E+03 -0.60375752270E+03  0.63799523682E+03  0.00000000000E+00 0. -1.
         11    1    1    2    0    0  0.28473743818E+02 -0.80331540921E+02 -0.19113026169E+03  0.20927180290E+03  0.00000000000E+00 0.  1.
</event>
<event>
 7    1  0.2900135E-009  0.1223508E+03  0.7561462E-02  0.1239269E+00
         -1   -1    0    0    0  501 -0.00000000000E+00  0.00000000000E+00  0.47274524804E+02  0.47274524804E+02  0.00000000000E+00 0. -1.
          1   -1    0    0  501    0  0.00000000000E+00 -0.00000000000E+00 -0.41075163205E+03  0.41075163205E+03  0.00000000000E+00 0.  1.
         25    2    1    2    0    0 -0.83061575735E+02  0.27629510148E+02 -0.19452923805E+03  0.24730306068E+03  0.12511820080E+03 0.  0.
          5    1    3    3  502    0 -0.22663159235E+02 -0.35347635960E+02 -0.10336687081E+02  0.43444144073E+02  0.41800000000E+01 0. -1.
         -5    1    3    3    0  502 -0.60398416500E+02  0.62977146108E+02 -0.18419255097E+03  0.20385891661E+03  0.41800000000E+01 0. -1.
        -11    1    1    2    0    0  0.20338181252E+02 -0.45574230718E+02 -0.11742939786E+03  0.12759434001E+03  0.00000000000E+00 0.  1.
         11    1    1    2    0    0  0.62723394484E+02  0.17944720570E+02 -0.51518471339E+02  0.83128756162E+02  0.00000000000E+00 0. -1.
</event>
<event>
 7    1  0.2900135E-009  0.1092607E+03  0.7561462E-02  0.1261945E+00
          2   -1    0    0  501    0  0.00000000000E+00  0.00000000000E+00  0.92089727173E+03  0.92089727173E+03  0.00000000000E+00 0. -1.
         -2   -1    0    0    0  501 -0.00000000000E+00 -0.00000000000E+00 -0.14122733933E+02  0.14122733933E+02  0.00000000000E+00 0.  1.
         25    2    1    2    0    0 -0.15550913821E+02  0.41623807154E+02  0.66479057382E+03  0.67791459880E+03  0.12508926406E+03 0.  0.
          5    1    3    3  502    0  0.46252738943E+02 -0.14545018895E+02  0.27244462589E+03  0.27675696921E+03  0.41800000000E+01 0. -1.
         -5    1    3    3    0  502 -0.61803652764E+02  0.56168826050E+02  0.39234594794E+03  0.40115762959E+03  0.41800000000E+01 0. -1.
        -11    1    1    2    0    0  0.32740180404E+02  0.80142647051E+01  0.11012990104E+03  0.11517266583E+03  0.00000000000E+00 0.  1.
         11    1    1    2    0    0 -0.17189266583E+02 -0.49638071859E+02  0.13185406293E+03  0.14193274103E+03  0.00000000000E+00 0. -1.
</event>
<event>
 7    1  0.2900135E-009  0.9953209E+02  0.7561462E-02  0.1281283E+00
          2   -1    0    0  501    0  0.00000000000E+00  0.00000000000E+00  0.30354007307E+03  0.30354007307E+03  0.00000000000E+00 0. -1.
         -2   -1    0    0    0  501 -0.00000000000E+00 -0.00000000000E+00 -0.10055994025E+03  0.10055994025E+03  0.00000000000E+00 0.  1.
         25    2    1    2    0    0 -0.23653328319E+01  0.89401649921E+02  0.23057165371E+03  0.27714317202E+03  0.12508717159E+03 0.  0.
          5    1    3    3  502    0 -0.25886521472E+01  0.84298954955E+02  0.24614632705E+03  0.26022778799E+03  0.41800000000E+01 0.  1.
         -5    1    3    3    0  502  0.22331931530E+00  0.51026949655E+01 -0.15574673333E+02  0.16915384029E+02  0.41800000000E+01 0.  1.
        -11    1    1    2    0    0  0.23695343021E+02 -0.98512182459E+01 -0.35954546727E+02  0.44172901332E+02  0.00000000000E+00 0.  1.
         11    1    1    2    0    0 -0.21330010189E+02 -0.79550431675E+02  0.83630258305E+01  0.82783939961E+02  0.00000000000E+00 0. -1.
</event>
<event>
 7    1  0.2900135E-009  0.1014737E+03  0.7561462E-02  0.1277227E+00
          2   -1    0    0  501    0  0.00000000000E+00  0.00000000000E+00  0.26383465528E+03  0.26383465528E+03  0.00000000000E+00 0. -1.
         -2   -1    0    0    0  501 -0.00000000000E+00 -0.00000000000E+00 -0.49727668351E+02  0.49727668351E+02  0.00000000000E+00 0.  1.
         25    2    1    2    0    0 -0.41487518046E+01 -0.46537040360E+01  0.17566196359E+03  0.21573965812E+03  0.12509038943E+03 0.  0.
          5    1    3    3  502    0 -0.32575026606E+02  0.46739394583E+02  0.46026706408E+02  0.73359617415E+02  0.41800000000E+01 0.  1.
         -5    1    3    3    0  502  0.28426274802E+02 -0.51393098619E+02  0.12963525718E+03  0.14238004070E+03  0.41800000000E+01 0.  1.
        -11    1    1    2    0    0 -0.14251597280E+02 -0.37949272425E+02  0.30525385483E+02  0.50744994447E+02  0.00000000000E+00 0. -1.
         11    1    1    2    0    0  0.18400349084E+02  0.42602976461E+02  0.79196378574E+01  0.47077671072E+02  0.00000000000E+00 0.  1.
</event>
<event>
 7    1  0.2900135E-009  0.1068181E+03  0.7561462E-02  0.1266578E+00
         -2   -1    0    0    0  501 -0.00000000000E+00  0.00000000000E+00  0.49158166689E+02  0.49158166689E+02  0.00000000000E+00 0.  1.
          2   -1    0    0  501    0  0.00000000000E+00 -0.00000000000E+00 -0.24041770141E+03  0.24041770141E+03  0.00000000000E+00 0. -1.
         25    2    1    2    0    0  0.52064328701E+01  0.39446936169E+02 -0.98302398953E+02  0.16399264712E+03  0.12508820469E+03 0.  0.
          5    1    3    3  502    0  0.28432323402E+02 -0.39505903153E+02 -0.35770899962E+02  0.60548683570E+02  0.41800000000E+01 0.  1.
         -5    1    3    3    0  502 -0.23225890532E+02  0.78952839322E+02 -0.62531498992E+02  0.10344396355E+03  0.41800000000E+01 0.  1.
        -11    1    1    2    0    0 -0.38741636411E+02 -0.19711696578E+02 -0.62692964386E+02  0.76288093155E+02  0.00000000000E+00 0. -1.
         11    1    1    2    0    0  0.33535203541E+02 -0.19735239591E+02 -0.30264171386E+02  0.49295127832E+02  0.00000000000E+00 0.  1.
</event>
<event>
 7    1  0.2900135E-009  0.9055431E+02  0.7561462E-02  0.1301515E+00
         -2   -1    0    0    0  501 -0.00000000000E+00  0.00000000000E+00  0.22476460267E+02  0.22476460267E+02  0.00000000000E+00 0.  1.
          2   -1    0    0  501    0  0.00000000000E+00 -0.00000000000E+00 -0.69408422508E+03  0.69408422508E+03  0.00000000000E+00 0. -1.
         25    2    1    2    0    0 -0.63439430314E+01  0.36616387170E+02 -0.51474592684E+03  0.53102937199E+03  0.12509124386E+03 0.  0.
          5    1    3    3  502    0  0.17916756011E+02 -0.28142219930E+02 -0.35898288397E+03  0.36055398773E+03  0.41800000000E+01 0. -1.
         -5    1    3    3    0  502 -0.24260699042E+02  0.64758607100E+02 -0.15576304288E+03  0.17047538426E+03  0.41800000000E+01 0. -1.
        -11    1    1    2    0    0  0.37659458700E+02 -0.17602530018E+02 -0.24631719560E+02  0.48319825135E+02  0.00000000000E+00 0.  1.
         11    1    1    2    0    0 -0.31315515668E+02 -0.19013857152E+02 -0.13223011841E+03  0.13721148822E+03  0.00000000000E+00 0. -1.
</event>
<event>
 7    1  0.2900135E-009  0.1144059E+03  0.7561462E-02  0.1252622E+00
         -2   -1    0    0    0  501 -0.00000000000E+00  0.00000000000E+00  0.99479486725E+02  0.99479486725E+02  0.00000000000E+00 0.  1.
          2   -1    0    0  501    0  0.00000000000E+00 -0.00000000000E+00 -0.14635681577E+03  0.14635681577E+03  0.00000000000E+00 0. -1.
         25    2    1    2    0    0 -0.47504034465E+02 -0.15597205023E+02 -0.14067059594E+02  0.13544567123E+03  0.12509093331E+03 0.  0.
          5    1    3    3  502    0  0.34448842723E+02  0.15091697459E+02 -0.27545066238E+02  0.46804755861E+02  0.41800000000E+01 0.  1.
         -5    1    3    3    0  502 -0.81952877188E+02 -0.30688902482E+02  0.13478006644E+02  0.88640915372E+02  0.41800000000E+01 0.  1.
        -11    1    1    2    0    0 -0.82317506854E+01  0.41207990875E+02 -0.24084594305E+02  0.48434780005E+02  0.00000000000E+00 0. -1.
         11    1    1    2    0    0  0.55735785150E+02 -0.25610785852E+02 -0.87256751475E+01  0.61955851258E+02  0.00000000000E+00 0.  1.
</event>
<event>
 7    1  0.3730289E-009  0.9526748E+02  0.7561462E-02  0.1290575E+00
          2   -1    0    0  501    0  0.00000000000E+00  0.00000000000E+00  0.30696650925E+03  0.30696650925E+03  0.00000000000E+00 0.  1.
         -2   -1    0    0    0  501 -0.00000000000E+00 -0.00000000000E+00 -0.59260049681E+02  0.59260049681E+02  0.00000000000E+00 0. -1.
         25    2    1    2    0    0  0.40406764231E+02  0.12818141304E+02  0.44744461355E+02  0.13945040728E+03  0.12508931979E+03 0.  0.
          5    1    3    3  502    0  0.43636804847E+02  0.52258549221E+02 -0.12886206330E+02  0.69416521214E+02  0.41800000000E+01 0. -1.
         -5    1    3    3    0  502 -0.32300406154E+01 -0.39440407917E+02  0.57630667685E+02  0.70033886061E+02  0.41800000000E+01 0. -1.
        -11    1    1    2    0    0 -0.29635422995E+02 -0.42013203072E+02  0.18232735736E+03  0.18943767516E+03  0.00000000000E+00 0.  1.
         11    1    1    2    0    0 -0.10771341236E+02  0.29195061768E+02  0.20634640850E+02  0.37338476491E+02  0.00000000000E+00 0. -1.
</event>
<event>
 7    1  0.2900135E-009  0.1162847E+03  0.7561462E-02  0.1249355E+00
         -2   -1    0    0    0  501 -0.00000000000E+00  0.00000000000E+00  0.60878916738E+02  0.60878916738E+02  0.00000000000E+00 0.  1.
          2   -1    0    0  501    0  0.00000000000E+00 -0.00000000000E+00 -0.24636572178E+03  0.24636572178E+03  0.00000000000E+00 0. -1.
         25    2    1    2    0    0 -0.73151741726E+01 -0.55379378718E+02 -0.13089023613E+03  0.18947386515E+03  0.12509078424E+03 0.  0.
          5    1    3    3  502    0 -0.44191813506E+02  0.22604048344E+02 -0.58060389902E+02  0.76500592534E+02  0.41800000000E+01 0.  1.
         -5    1    3    3    0  502  0.36876639333E+02 -0.77983427062E+02 -0.72829846226E+02  0.11297327262E+03  0.41800000000E+01 0.  1.
        -11    1    1    2    0    0  0.27397109721E+02 -0.90913620903E+01  0.29946580135E+01  0.29021069283E+02  0.00000000000E+00 0.  1.
         11    1    1    2    0    0 -0.20081935548E+02  0.64470740809E+02 -0.57591226928E+02  0.88749704083E+02  0.00000000000E+00 0. -1.
</event>
<event>
 7    1  0.2900135E-009  0.1637550E+03  0.7561462E-02  0.1184521E+00
         -1   -1    0    0    0  501 -0.00000000000E+00  0.00000000000E+00  0.31691078668E+02  0.31691078668E+02  0.00000000000E+00 0.  1.
          1   -1    0    0  501    0  0.00000000000E+00 -0.00000000000E+00 -0.10251283041E+04  0.10251283041E+04  0.00000000000E+00 0. -1.
         25    2    1    2    0    0  0.10328152559E+03  0.72431232890E+02 -0.32438253663E+03  0.36984414394E+03  0.12508918301E+03 0.  0.
          5    1    3    3  502    0 -0.25323175136E+02  0.20572324435E+02 -0.30477337523E+02  0.44842214866E+02  0.41800000000E+01 0. -1.
         -5    1    3    3    0  502  0.12860470073E+03  0.51858908455E+02 -0.29390519911E+03  0.32500192907E+03  0.41800000000E+01 0. -1.
        -11    1    1    2    0    0 -0.11407531341E+03 -0.38684329302E+02 -0.51671890337E+03  0.53057334984E+03  0.00000000000E+00 0.  1.
         11    1    1    2    0    0  0.10793787817E+02 -0.33746903589E+02 -0.15233578547E+03  0.15640188903E+03  0.00000000000E+00 0. -1.
</event>
<event>
 7    1  0.2900135E-009  0.2261364E+03  0.7561462E-02  0.1129389E+00
         -2   -1    0    0    0  501 -0.00000000000E+00  0.00000000000E+00  0.88051483566E+03  0.88051483566E+03  0.00000000000E+00 0.  1.
          2   -1    0    0  501    0  0.00000000000E+00 -0.00000000000E+00 -0.68131893486E+02  0.68131893486E+02  0.00000000000E+00 0. -1.
         25    2    1    2    0    0  0.21617509946E+03  0.33236134181E+02  0.36737848769E+03  0.44547853137E+03  0.12509138440E+03 0.  0.
          5    1    3    3  502    0  0.94103371450E+02  0.51983716520E+02  0.84559884027E+02  0.13684150572E+03  0.41800000000E+01 0.  1.
         -5    1    3    3    0  502  0.12207172801E+03 -0.18747582339E+02  0.28281860366E+03  0.30863702565E+03  0.41800000000E+01 0.  1.
        -11    1    1    2    0    0 -0.13141147645E+03 -0.36163716068E+02  0.18573380360E+03  0.23037759505E+03  0.00000000000E+00 0. -1.
         11    1    1    2    0    0 -0.84763623010E+02  0.29275818866E+01  0.25927065089E+03  0.27279060272E+03  0.00000000000E+00 0.  1.
</event>
<event>
 7    1  0.2900135E-009  0.8751972E+02  0.7561462E-02  0.1308972E+00
         -3   -1    0    0    0  501 -0.00000000000E+00  0.00000000000E+00  0.88863466320E+03  0.88863466320E+03  0.00000000000E+00 0.  1.
          3   -1    0    0  501    0  0.00000000000E+00 -0.00000000000E+00 -0.21084360072E+02  0.21084360072E+02  0.00000000000E+00 0. -1.
         25    2    1    2    0    0  0.20776089226E+02  0.56679918333E+02  0.66103596929E+03  0.67546992212E+03  0.12508718547E+03 0.  0.
          5    1    3    3  502    0  0.27851832490E+01 -0.73613126684E+01  0.51349743446E+03  0.51357475967E+03  0.41800000000E+01 0.  1.
         -5    1    3    3    0  502  0.17990905977E+02  0.64041231001E+02  0.14753853483E+03  0.16189516245E+03  0.41800000000E+01 0.  1.
        -11    1    1    2    0    0  0.24409690367E+02 -0.47445578861E+02  0.16035092570E+03  0.16899507481E+03  0.00000000000E+00 0.  1.
         11    1    1    2    0    0 -0.45185779593E+02 -0.92343394724E+01  0.46163408143E+02  0.65254026345E+02  0.00000000000E+00 0. -1.
</event>
<event>
 7    1  0.2900135E-009  0.1472872E+03  0.7561462E-02  0.1203847E+00
         -2   -1    0    0    0  501 -0.00000000000E+00  0.00000000000E+00  0.39641306583E+03  0.39641306583E+03  0.00000000000E+00 0.  1.
          2   -1    0    0  501    0  0.00000000000E+00 -0.00000000000E+00 -0.60716317569E+02  0.60716317569E+02  0.00000000000E+00 0. -1.
         25    2    1    2    0    0 -0.34871695802E+02 -0.97113485214E+02  0.19883871311E+03  0.25657597451E+03  0.12508929885E+03 0.  0.
          5    1    3    3  502    0  0.26510769784E+02  0.67165017473E+01  0.89658695136E+02  0.93830092847E+02  0.41800000000E+01 0. -1.
         -5    1    3    3    0  502 -0.61382465586E+02 -0.10382998696E+03  0.10918001797E+03  0.16274588166E+03  0.41800000000E+01 0. -1.
        -11    1    1    2    0    0  0.54589073436E+01  0.11276770674E+03  0.11154656223E+03  0.15871039946E+03  0.00000000000E+00 0. -1.
         11    1    1    2    0    0  0.29412788458E+02 -0.15654221523E+02  0.25311472928E+02  0.41843009430E+02  0.00000000000E+00 0.  1.
</event>
<event>
 7    1  0.2900135E-009  0.7016584E+02  0.7561462E-02  0.1359530E+00
         -2   -1    0    0    0  501 -0.00000000000E+00  0.00000000000E+00  0.55752513847E+02  0.55752513847E+02  0.00000000000E+00 0. -1.
          2   -1    0    0  501    0  0.00000000000E+00 -0.00000000000E+00 -0.24711121690E+03  0.24711121690E+03  0.00000000000E+00 0.  1.
         25    2    1    2    0    0 -0.29484994500E+02  0.68063308929E+01 -0.63847204985E+02  0.14366834435E+03  0.12509371105E+03 0.  0.
          5    1    3    3  502    0 -0.36134816200E+02 -0.53880973100E+01  0.30768558141E+02  0.47947190789E+02  0.41800000000E+01 0.  1.
         -5    1    3    3    0  502  0.66498217007E+01  0.12194428203E+02 -0.94615763126E+02  0.95721153564E+02  0.41800000000E+01 0.  1.
        -11    1    1    2    0    0  0.52371697740E+02 -0.26650109570E+02 -0.10861847419E+03  0.12349492297E+03  0.00000000000E+00 0.  1.
         11    1    1    2    0    0 -0.22886703240E+02  0.19843778677E+02 -0.18893023880E+02  0.35700463425E+02  0.00000000000E+00 0. -1.
</event>
<event>
 7    1  0.2900135E-009  0.1384967E+03  0.7561462E-02  0.1215366E+00
         -1   -1    0    0    0  501 -0.00000000000E+00  0.00000000000E+00  0.41487304615E+02  0.41487304615E+02  0.00000000000E+00 0.  1.
          1   -1    0    0  501    0  0.00000000000E+00 -0.00000000000E+00 -0.56149342845E+03  0.56149342845E+03  0.00000000000E+00 0. -1.
         25    2    1    2    0    0 -0.97519149050E+02  0.20611589560E+02 -0.22301857804E+03  0.27444262149E+03  0.12508654718E+03 0.  0.
          5    1    3    3  502    0 -0.90195296948E+02  0.52903533858E+02 -0.21645982667E+03  0.24042941677E+03  0.41800000000E+01 0. -1.
         -5    1    3    3    0  502 -0.73238521022E+01 -0.32291944298E+02 -0.65587513727E+01  0.34013204726E+02  0.41800000000E+01 0. -1.
        -11    1    1    2    0    0  0.21640270573E+02  0.37566773586E+02 -0.11617571875E+03  0.12400145731E+03  0.00000000000E+00 0.  1.
         11    1    1    2    0    0  0.75878878477E+02 -0.58178363146E+02 -0.18081182704E+03  0.20453665426E+03  0.00000000000E+00 0. -1.
</event>
<event>
 7    1  0.2900135E-009  0.1049616E+03  0.7561462E-02  0.1270195E+00
          1   -1    0    0  501    0  0.00000000000E+00  0.00000000000E+00  0.17203569704E+03  0.17203569704E+03  0.00000000000E+00 0. -1.
         -1   -1    0    0    0  501 -0.00000000000E+00 -0.00000000000E+00 -0.94365092033E+02  0.94365092033E+02  0.00000000000E+00 0.  1.
         25    2    1    2    0    0 -0.10238547836E+02 -0.23142667390E+02 -0.20211358569E+02  0.12921231779E+03  0.12508762184E+03 0.  0.
          5    1    3    3  502    0 -0.16596091241E+02  0.44488988532E+02  0.18245995977E+02  0.51040073612E+02  0.41800000000E+01 0.  1.
         -5    1    3    3    0  502  0.63575434054E+01 -0.67631655922E+02 -0.38457354546E+02  0.78172244177E+02  0.41800000000E+01 0.  1.
        -11    1    1    2    0    0 -0.75378029357E+01  0.56178922520E+02  0.45115234428E+02  0.72444973505E+02  0.00000000000E+00 0.  1.
         11    1    1    2    0    0  0.17776350771E+02 -0.33036255131E+02  0.52766729148E+02  0.64743497780E+02  0.00000000000E+00 0. -1.
</event>
<event>
 7    1  0.2900135E-009  0.1266676E+03  0.7561462E-02  0.1232486E+00
          2   -1    0    0  501    0  0.00000000000E+00  0.00000000000E+00  0.21057817468E+03  0.21057817468E+03  0.00000000000E+00 0. -1.
         -2   -1    0    0    0  501 -0.00000000000E+00 -0.00000000000E+00 -0.10170019044E+03  0.10170019044E+03  0.00000000000E+00 0.  1.
         25    2    1    2    0    0 -0.44969335744E+02 -0.67024754378E+02  0.12005230202E+03  0.19124422346E+03  0.12508892409E+03 0.  0.
          5    1    3    3  502    0  0.39739709063E+02 -0.23146361214E+02  0.13386167475E+02  0.48079729549E+02  0.41800000000E+01 0. -1.
         -5    1    3    3    0  502 -0.84709044807E+02 -0.43878393164E+02  0.10666613455E+03  0.14316449391E+03  0.41800000000E+01 0. -1.
        -11    1    1    2    0    0 -0.22020033854E+02  0.12714431754E+02  0.16678106051E+02  0.30408845543E+02  0.00000000000E+00 0. -1.
         11    1    1    2    0    0  0.66989369598E+02  0.54310322624E+02 -0.27852423837E+02  0.90625296117E+02  0.00000000000E+00 0.  1.
</event>
<event>
 6    1  0.2900135E-009  0.9037951E+02  0.7561462E-02  0.1301935E+00
          1   -1    0    0  501    0  0.00000000000E+00  0.00000000000E+00  0.13625011151E+03  0.13625011151E+03  0.00000000000E+00 0.  1.
         -1   -1    0    0    0  501 -0.00000000000E+00 -0.00000000000E+00 -0.12460139778E+03  0.12460139778E+03  0.00000000000E+00 0. -1.
          5    1    1    2  502    0  0.25049286958E+02 -0.57486458243E+01 -0.25050678198E+02  0.36132016054E+02  0.41800000000E+01 0.  1.
         -5    1    1    2    0  502 -0.85591059473E+02  0.30244529212E+01  0.67017037824E+02  0.10882891406E+03  0.41800000000E+01 0.  1.
        -11    1    1    2    0    0  0.80178582776E+01 -0.11994179684E+02 -0.54387743463E+02  0.56268757199E+02  0.00000000000E+00 0. -1.
         11    1    1    2    0    0  0.52523914237E+02  0.14718372587E+02  0.24070097573E+02  0.59621821975E+02  0.00000000000E+00 0.  1.
</event>
<event>
 7    1  0.2900135E-009  0.1305511E+03  0.7561462E-02  0.1226640E+00
          2   -1    0    0  501    0  0.00000000000E+00  0.00000000000E+00  0.53473437815E+03  0.53473437815E+03  0.00000000000E+00 0. -1.
         -2   -1    0    0    0  501 -0.00000000000E+00 -0.00000000000E+00 -0.66486471856E+02  0.66486471856E+02  0.00000000000E+00 0.  1.
         25    2    1    2    0    0  0.53643137218E+02  0.94204301688E+02  0.71123906158E+02  0.18016261993E+03  0.12509165825E+03 0.  0.
          5    1    3    3  502    0 -0.21907013738E+02  0.22563619156E+02 -0.23443694016E+02  0.39447602582E+02  0.41800000000E+01 0. -1.
         -5    1    3    3    0  502  0.75550150956E+02  0.71640682532E+02  0.94567600174E+02  0.14071501734E+03  0.41800000000E+01 0. -1.
        -11    1    1    2    0    0 -0.50795903610E+02 -0.26278033705E+02  0.91026138258E+02  0.10750124057E+03  0.00000000000E+00 0.  1.
         11    1    1    2    0    0 -0.28472336078E+01 -0.67926267983E+02  0.30609786187E+03  0.31355698950E+03  0.00000000000E+00 0. -1.
</event>
<event>
 7    1  0.2900135E-009  0.2046545E+03  0.7561462E-02  0.1145870E+00
         -2   -1    0    0    0  501 -0.00000000000E+00  0.00000000000E+00  0.10283473924E+04  0.10283473924E+04  0.00000000000E+00 0.  1.
          2   -1    0    0  501    0  0.00000000000E+00 -0.00000000000E+00 -0.69668962643E+02  0.69668962643E+02  0.00000000000E+00 0. -1.
         25    2    1    2    0    0  0.10656832064E+03  0.17131057957E+03  0.77741219498E+03  0.81284779538E+03  0.12509075073E+03 0.  0.
          5    1    3    3  502    0  0.52432391264E+01  0.14566216874E+02  0.30805205468E+01  0.16328754925E+02  0.41800000000E+01 0.  1.
         -5    1    3    3    0  502  0.10132508151E+03  0.15674436269E+03  0.77433167443E+03  0.79651904046E+03  0.41800000000E+01 0.  1.
        -11    1    1    2    0    0 -0.69701360383E+02 -0.70044560603E+02  0.37945089950E+02  0.10585060208E+03  0.00000000000E+00 0. -1.
         11    1    1    2    0    0 -0.36866960254E+02 -0.10126601897E+03  0.14332114481E+03  0.17931795757E+03  0.00000000000E+00 0.  1.
</event>
<event>
 7    1  0.2900135E-009  0.1231672E+03  0.7561462E-02  0.1237962E+00
         -1   -1    0    0    0  501 -0.00000000000E+00  0.00000000000E+00  0.24102749143E+02  0.24102749143E+02  0.00000000000E+00 0.  1.
          1   -1    0    0  501    0  0.00000000000E+00 -0.00000000000E+00 -0.75175753802E+03  0.75175753802E+03  0.00000000000E+00 0. -1.
         25    2    1    2    0    0  0.67146016183E+02 -0.45226317444E+02 -0.39893210814E+03  0.42585034063E+03  0.12509068085E+03 0.  0.
          5    1    3    3  502    0 -0.15936383194E+02 -0.45423152855E+02 -0.60939208121E+02  0.77770756785E+02  0.41800000000E+01 0.  1.
         -5    1    3    3    0  502  0.83082399378E+02  0.19683541027E+00 -0.33799290001E+03  0.34807958385E+03  0.41800000000E+01 0.  1.
        -11    1    1    2    0    0  0.67732492301E+01  0.40168714721E+02 -0.71081132656E+02  0.81926369181E+02  0.00000000000E+00 0.  1.
         11    1    1    2    0    0 -0.73919265413E+02  0.50576027233E+01 -0.25764154808E+03  0.26808357735E+03  0.00000000000E+00 0. -1.
</event>
<event>
 7    1  0.2900135E-009  0.1061417E+03  0.7561462E-02  0.1267886E+00
          1   -1    0    0  501    0  0.00000000000E+00  0.00000000000E+00  0.51778872255E+03  0.51778872255E+03  0.00000000000E+00 0. -1.
         -1   -1    0    0    0  501 -0.00000000000E+00 -0.00000000000E+00 -0.26559803810E+02  0.26559803810E+02  0.00000000000E+00 0.  1.
         25    2    1    2    0    0 -0.14043426205E+02 -0.99029782081E+01  0.39454116557E+03  0.41425374426E+03  0.12509255177E+03 0.  0.
          5    1    3    3  502    0 -0.43990217729E+01  0.57613104162E+02  0.18305555790E+03  0.19200372612E+03  0.41800000000E+01 0. -1.
         -5    1    3    3    0  502 -0.96444044323E+01 -0.67516082370E+02  0.21148560767E+03  0.22225001815E+03  0.41800000000E+01 0. -1.
        -11    1    1    2    0    0 -0.33749036326E+02 -0.85101018880E+01  0.29590586202E+02  0.45683936770E+02  0.00000000000E+00 0.  1.
         11    1    1    2    0    0  0.47792462531E+02  0.18413080096E+02  0.67097166963E+02  0.84410845321E+02  0.00000000000E+00 0. -1.
</event>
<event>
 7    1  0.2900135E-009  0.7934315E+02  0.7561462E-02  0.1330926E+00
         -2   -1    0    0    0  501 -0.00000000000E+00  0.00000000000E+00  0.23244465194E+02  0.23244465194E+02  0.00000000000E+00 0.  1.
          2   -1    0    0  501    0  0.00000000000E+00 -0.00000000000E+00 -0.67223041474E+03  0.67223041474E+03  0.00000000000E+00 0. -1.
         25    2    1    2    0    0 -0.73184568777E+02  0.12556858247E+02 -0.44620070155E+03  0.46930831797E+03  0.12506628425E+03 0.  0.
          5    1    3    3  502    0 -0.70143097124E+02  0.13691833749E+02 -0.45415029715E+03  0.45975807246E+03  0.41800000000E+01 0. -1.
         -5    1    3    3    0  502 -0.30414716522E+01 -0.11349755022E+01  0.79495956003E+01  0.95502455157E+01  0.41800000000E+01 0. -1.
        -11    1    1    2    0    0  0.37477114307E+02  0.10962386588E+02 -0.33136535497E+02  0.51212674224E+02  0.00000000000E+00 0.  1.
         11    1    1    2    0    0  0.35707454470E+02 -0.23519244835E+02 -0.16964871250E+03  0.17495388774E+03  0.00000000000E+00 0. -1.
</event>
<event>
 7    1  0.2900135E-009  0.9825381E+02  0.7561462E-02  0.1284011E+00
         -1   -1    0    0    0  501 -0.00000000000E+00  0.00000000000E+00  0.21031344629E+03  0.21031344629E+03  0.00000000000E+00 0.  1.
          1   -1    0    0  501    0  0.00000000000E+00 -0.00000000000E+00 -0.81337817730E+02  0.81337817730E+02  0.00000000000E+00 0. -1.
         25    2    1    2    0    0  0.50049748333E+02  0.52634506488E+02  0.80095679203E+02  0.16534610842E+03  0.12509456088E+03 0.  0.
          5    1    3    3  502    0 -0.21405421688E+02  0.29353161958E+02 -0.18757797798E+02  0.41098997224E+02  0.41800000000E+01 0.  1.
         -5    1    3    3    0  502  0.71455170021E+02  0.23281344530E+02  0.98853477001E+02  0.12424711120E+03  0.41800000000E+01 0.  1.
        -11    1    1    2    0    0 -0.16280391330E+02 -0.47874870208E+02 -0.15974758556E+02  0.53030625588E+02  0.00000000000E+00 0. -1.
         11    1    1    2    0    0 -0.33769357002E+02 -0.47596362801E+01  0.64854707918E+02  0.73274530015E+02  0.00000000000E+00 0.  1.
</event>
<event>
 7    1  0.2900135E-009  0.1013013E+03  0.7561462E-02  0.1277583E+00
         -1   -1    0    0    0  501 -0.00000000000E+00  0.00000000000E+00  0.34631727916E+03  0.34631727916E+03  0.00000000000E+00 0.  1.
          1   -1    0    0  501    0  0.00000000000E+00 -0.00000000000E+00 -0.38448295317E+02  0.38448295317E+02  0.00000000000E+00 0. -1.
         25    2    1    2    0    0 -0.12877444839E+02  0.21623423785E+02  0.12385257912E+03  0.17781583952E+03  0.12508241438E+03 0.  0.
          5    1    3    3  502    0 -0.58354396318E+01  0.73033863766E+02  0.88108884672E+02  0.11466754367E+03  0.41800000000E+01 0. -1.
         -5    1    3    3    0  502 -0.70420052077E+01 -0.51410439981E+02  0.35743694447E+02  0.63148295853E+02  0.41800000000E+01 0. -1.
        -11    1    1    2    0    0  0.35806587948E+02 -0.35446850428E+02  0.16878918892E+03  0.17614874749E+03  0.00000000000E+00 0.  1.
         11    1    1    2    0    0 -0.22929143109E+02  0.13823426643E+02  0.15227215802E+02  0.30800987467E+02  0.00000000000E+00 0. -1.
</event>
<event>
 7    1  0.2900135E-009  0.1285798E+03  0.7561462E-02  0.1229578E+00
         -1   -1    0    0    0  501 -0.00000000000E+00  0.00000000000E+00  0.73385247764E+02  0.73385247764E+02  0.00000000000E+00 0.  1.
          1   -1    0    0  501    0  0.00000000000E+00 -0.00000000000E+00 -0.24529938619E+03  0.24529938619E+03  0.00000000000E+00 0. -1.
         25    2    1    2    0    0 -0.92582748671E+02  0.25504723306E+02 -0.82684150906E+02  0.17806210872E+03  0.12508952590E+03 0.  0.
          5    1    3    3  502    0 -0.37748938393E+02  0.68970742202E+02 -0.14089769741E+02  0.79987121720E+02  0.41800000000E+01 0.  1.
         -5    1    3    3    0  502 -0.54833810278E+02 -0.43466018896E+02 -0.68594381165E+02  0.98074987004E+02  0.41800000000E+01 0.  1.
        -11    1    1    2    0    0  0.24140856382E+02  0.15360365999E+02 -0.28750518975E+02  0.40562471964E+02  0.00000000000E+00 0.  1.
         11    1    1    2    0    0  0.68441892289E+02 -0.40865089305E+02 -0.60479468544E+02  0.10006005326E+03  0.00000000000E+00 0. -1.
</event>
<event>
 7    1  0.2900135E-009  0.1686255E+03  0.7561462E-02  0.1179289E+00
          1   -1    0    0  501    0  0.00000000000E+00  0.00000000000E+00  0.46747140902E+03  0.46747140902E+03  0.00000000000E+00 0. -1.
         -1   -1    0    0    0  501 -0.00000000000E+00 -0.00000000000E+00 -0.10349289551E+03  0.10349289551E+03  0.00000000000E+00 0.  1.
         25    2    1    2    0    0 -0.12690891799E+03  0.62272927623E+02  0.36941967099E+03  0.41485178395E+03  0.12508924156E+03 0.  0.
          5    1    3    3  502    0 -0.13535099595E+03  0.83974065203E+02  0.34879156121E+03  0.38346389830E+03  0.41800000000E+01 0. -1.
         -5    1    3    3    0  502  0.84420779540E+01 -0.21701137580E+02  0.20628109778E+02  0.31387885649E+02  0.41800000000E+01 0. -1.
        -11    1    1    2    0    0  0.58511150954E+01 -0.27763851096E+02 -0.10175579249E+02  0.30143148286E+02  0.00000000000E+00 0.  1.
         11    1    1    2    0    0  0.12105780290E+03 -0.34509076526E+02  0.47344217682E+01  0.12596937229E+03  0.00000000000E+00 0. -1.
</event>
<event>
 7    1  0.2900135E-009  0.9571539E+02  0.7561462E-02  0.1289573E+00
         -1   -1    0    0    0  501 -0.00000000000E+00  0.00000000000E+00  0.10420568604E+03  0.10420568604E+03  0.00000000000E+00 0.  1.
          1   -1    0    0  501    0  0.00000000000E+00 -0.00000000000E+00 -0.18965957005E+03  0.18965957005E+03  0.00000000000E+00 0. -1.
         25    2    1    2    0    0 -0.45736553484E+02 -0.23341862550E+02 -0.12285307550E+03  0.18269457241E+03  0.12509098192E+03 0.  0.
          5    1    3    3  502    0 -0.27808741427E+02 -0.55979741256E+02 -0.13022047721E+03  0.14450571828E+03  0.41800000000E+01 0. -1.
         -5    1    3    3    0  502 -0.17927812057E+02  0.32637878706E+02  0.73674017159E+01  0.38188854129E+02  0.41800000000E+01 0. -1.
        -11    1    1    2    0    0 -0.23623251657E+01 -0.23828035852E+02  0.36673446360E+02  0.43798373722E+02  0.00000000000E+00 0.  1.
         11    1    1    2    0    0  0.48098878650E+02  0.47169898402E+02  0.72574512539E+00  0.67372309954E+02  0.00000000000E+00 0. -1.
</event>
<event>
 7    1  0.2900135E-009  0.1467179E+03  0.7561462E-02  0.1204565E+00
          1   -1    0    0  501    0  0.00000000000E+00  0.00000000000E+00  0.99854878032E+02  0.99854878032E+02  0.00000000000E+00 0. -1.
         -1   -1    0    0    0  501 -0.00000000000E+00 -0.00000000000E+00 -0.33383598438E+03  0.33383598438E+03  0.00000000000E+00 0.  1.
         25    2    1    2    0    0 -0.11632802654E+03  0.62169282619E+02 -0.19733988142E+03  0.26830648222E+03  0.12509240643E+03 0.  0.
          5    1    3    3  502    0 -0.64442691397E+02  0.10390604801E+02 -0.18186912906E+03  0.19327358239E+03  0.41800000000E+01 0.  1.
         -5    1    3    3    0  502 -0.51885335142E+02  0.51778677818E+02 -0.15470752354E+02  0.75032899836E+02  0.41800000000E+01 0.  1.
        -11    1    1    2    0    0  0.11161814416E+03 -0.21505629483E+02 -0.52391723629E+01  0.11379170063E+03  0.00000000000E+00 0. -1.
         11    1    1    2    0    0  0.47098823763E+01 -0.40663653136E+02 -0.31402052571E+02  0.51592679559E+02  0.00000000000E+00 0.  1.
</event>
<event>
 7    1  0.2900135E-009  0.1004176E+03  0.7561462E-02  0.1279420E+00
          2   -1    0    0  501    0  0.00000000000E+00  0.00000000000E+00  0.42831160790E+03  0.42831160790E+03  0.00000000000E+00 0. -1.
         -2   -1    0    0    0  501 -0.00000000000E+00 -0.00000000000E+00 -0.44556995711E+02  0.44556995711E+02  0.00000000000E+00 0.  1.
         25    2    1    2    0    0  0.51227533969E+02  0.51982417216E+01  0.32626367873E+03  0.35319509963E+03  0.12509000116E+03 0.  0.
          5    1    3    3  502    0 -0.14437709276E+02 -0.27241855163E+02  0.17214111556E+02  0.35557898680E+02  0.41800000000E+01 0.  1.
         -5    1    3    3    0  502  0.65665243245E+02  0.32440096884E+02  0.30904956717E+03  0.31763720095E+03  0.41800000000E+01 0.  1.
        -11    1    1    2    0    0 -0.40842223267E+02  0.35650660857E+02  0.55340664846E+02  0.77470291122E+02  0.00000000000E+00 0. -1.
         11    1    1    2    0    0 -0.10385310702E+02 -0.40848902579E+02  0.21502686079E+01  0.42203212856E+02  0.00000000000E+00 0.  1.
</event>
<event>
 7    1  0.2900135E-009  0.1137761E+03  0.7561462E-02  0.1253733E+00
         -2   -1    0    0    0  501 -0.00000000000E+00  0.00000000000E+00  0.71523275013E+02  0.71523275013E+02  0.00000000000E+00 0.  1.
          2   -1    0    0  501    0  0.00000000000E+00 -0.00000000000E+00 -0.19213007867E+03  0.19213007867E+03  0.00000000000E+00 0. -1.
         25    2    1    2    0    0 -0.43102432470E+01 -0.46111951908E+02 -0.69791941833E+02  0.15053395351E+03  0.12507863810E+03 0.  0.
          5    1    3    3  502    0  0.56144571130E+02 -0.12482278829E+02 -0.54953865350E+02  0.79658143771E+02  0.41800000000E+01 0.  1.
         -5    1    3    3    0  502 -0.60454814378E+02 -0.33629673080E+02 -0.14838076483E+02  0.70875809742E+02  0.41800000000E+01 0.  1.
        -11    1    1    2    0    0  0.12053459960E+02  0.72286210753E+02 -0.31991807982E+02  0.79962853501E+02  0.00000000000E+00 0. -1.
         11    1    1    2    0    0 -0.77432167125E+01 -0.26174258845E+02 -0.18823053845E+02  0.33156546672E+02  0.00000000000E+00 0.  1.
</event>
<event>
 7    1  0.2900135E-009  0.1034037E+03  0.7561462E-02  0.1273297E+00
          2   -1    0    0  501    0  0.00000000000E+00  0.00000000000E+00  0.51423519765E+03  0.51423519765E+03  0.00000000000E+00 0. -1.
         -2   -1    0    0    0  501 -0.00000000000E+00 -0.00000000000E+00 -0.29441226913E+02  0.29441226913E+02  0.00000000000E+00 0.  1.
         25    2    1    2    0    0 -0.19478063991E+02  0.15643844202E+02  0.39256130249E+03  0.41276823398E+03  0.12509641854E+03 0.  0.
          5    1    3    3  502    0  0.22227634380E+02 -0.46995857661E+02  0.15536717923E+03  0.16388749540E+03  0.41800000000E+01 0. -1.
         -5    1    3    3    0  502 -0.41705698372E+02  0.62639701863E+02  0.23719412326E+03  0.24888073858E+03  0.41800000000E+01 0. -1.
        -11    1    1    2    0    0  0.36118813142E+02  0.19028001782E+02  0.13015405091E+02  0.42848970633E+02  0.00000000000E+00 0.  1.
         11    1    1    2    0    0 -0.16640749151E+02 -0.34671845983E+02  0.79217263154E+02  0.88059219947E+02  0.00000000000E+00 0. -1.
</event>
<event>
 7    1  0.2900135E-009  0.1583489E+03  0.7561462E-02  0.1190573E+00
          2   -1    0    0  501    0  0.00000000000E+00  0.00000000000E+00  0.10409242660E+04  0.10409242660E+04  0.00000000000E+00 0. -1.
         -2   -1    0    0    0  501 -0.00000000000E+00 -0.00000000000E+00 -0.26720901157E+02  0.26720901157E+02  0.00000000000E+00 0.  1.
         25    2    1    2    0    0  0.25358001969E+02 -0.12298188383E+03  0.56789371992E+03  0.59490797232E+03  0.12507856086E+03 0.  0.
          5    1    3    3  502    0  0.65797184801E+02 -0.84704713955E+02  0.24882163734E+03  0.27098678511E+03  0.41800000000E+01 0. -1.
         -5    1    3    3    0  502 -0.40439182833E+02 -0.38277169875E+02  0.31907208258E+03  0.32392118721E+03  0.41800000000E+01 0. -1.
        -11    1    1    2    0    0 -0.40627980540E+02  0.13254075067E+02  0.90566975133E+02  0.10014329879E+03  0.00000000000E+00 0.  1.
         11    1    1    2    0    0  0.15269978571E+02  0.10972780876E+03  0.35574266982E+03  0.37259389608E+03  0.00000000000E+00 0. -1.
</event>
<event>
 7    1  0.2900135E-009  0.1022790E+03  0.7561462E-02  0.1275575E+00
         -1   -1    0    0    0  501 -0.00000000000E+00  0.00000000000E+00  0.12716907738E+03  0.12716907738E+03  0.00000000000E+00 0.  1.
          1   -1    0    0  501    0  0.00000000000E+00 -0.00000000000E+00 -0.14408980459E+03  0.14408980459E+03  0.00000000000E+00 0. -1.
         25    2    1    2    0    0 -0.16800041854E+02 -0.62532409577E+02  0.38581568304E+02  0.14604498201E+03  0.12509218882E+03 0.  0.
          5    1    3    3  502    0 -0.42032538535E+02 -0.30348971085E+02  0.74901964397E+02  0.91189752780E+02  0.41800000000E+01 0.  1.
         -5    1    3    3    0  502  0.25232496682E+02 -0.32183438492E+02 -0.36320396093E+02  0.54855229234E+02  0.41800000000E+01 0.  1.
        -11    1    1    2    0    0  0.69674130542E+01 -0.23670868176E+02 -0.18740445230E+02  0.30984820998E+02  0.00000000000E+00 0. -1.
         11    1    1    2    0    0  0.98326287996E+01  0.86203277753E+02 -0.36761850285E+02  0.94229078955E+02  0.00000000000E+00 0.  1.
</event>
<event>
 7    1  0.2900135E-009  0.1178579E+03  0.7561462E-02  0.1246673E+00
         -2   -1    0    0    0  501 -0.00000000000E+00  0.00000000000E+00  0.25570082039E+02  0.25570082039E+02  0.00000000000E+00 0.  1.
          2   -1    0    0  501    0  0.00000000000E+00 -0.00000000000E+00 -0.59152287748E+03  0.59152287748E+03  0.00000000000E+00 0. -1.
         25    2    1    2    0    0 -0.43111639141E+02  0.39433386144E+02 -0.31068003185E+03  0.33997538208E+03  0.12509025886E+03 0.  0.
          5    1    3    3  502    0 -0.11768183781E+02  0.78346853255E+02 -0.24381896298E+03  0.25640179148E+03  0.41800000000E+01 0.  1.
         -5    1    3    3    0  502 -0.31343455360E+02 -0.38913467111E+02 -0.66861068871E+02  0.83573590608E+02  0.41800000000E+01 0.  1.
        -11    1    1    2    0    0 -0.26081954218E+02  0.99333451228E+00 -0.85233929893E+02  0.89140775486E+02  0.00000000000E+00 0. -1.
         11    1    1    2    0    0  0.69193593359E+02 -0.40426720656E+02 -0.17003883370E+03  0.18797680195E+03  0.00000000000E+00 0.  1.
</event>
<event>
 7    1  0.2900135E-009  0.1965552E+03  0.7561462E-02  0.1152678E+00
          3   -1    0    0  501    0  0.00000000000E+00  0.00000000000E+00  0.68380066948E+03  0.68380066948E+03  0.00000000000E+00 0. -1.
         -3   -1    0    0    0  501 -0.00000000000E+00 -0.00000000000E+00 -0.64487571464E+02  0.64487571464E+02  0.00000000000E+00 0.  1.
         25    2    1    2    0    0 -0.14066870890E+03  0.11162911391E+03  0.29724857977E+03  0.36912426226E+03  0.12508900064E+03 0.  0.
          5    1    3    3  502    0 -0.55113318484E+02 -0.17079007260E+02  0.12456482595E+03  0.13734277785E+03  0.41800000000E+01 0. -1.
         -5    1    3    3    0  502 -0.85555390420E+02  0.12870812117E+03  0.17268375382E+03  0.23178148441E+03  0.41800000000E+01 0. -1.
        -11    1    1    2    0    0  0.76080242891E+02 -0.47813470556E+02  0.78827768760E+02  0.11953304335E+03  0.00000000000E+00 0.  1.
         11    1    1    2    0    0  0.64588466012E+02 -0.63815643354E+02  0.24323674949E+03  0.25963093533E+03  0.00000000000E+00 0. -1.
</event>
<event>
 7    1  0.6480807E-009  0.2616384E+03  0.7561462E-02  0.1106163E+00
         -1   -1    0    0    0  501 -0.00000000000E+00  0.00000000000E+00  0.19714357449E+03  0.19714357449E+03  0.00000000000E+00 0.  1.
          1   -1    0    0  501    0  0.00000000000E+00 -0.00000000000E+00 -0.38612631450E+03  0.38612631450E+03  0.00000000000E+00 0. -1.
         25    2    1    2    0    0  0.86804639995E+02  0.23405691016E+03 -0.14182650438E+03  0.31317726867E+03  0.12509021363E+03 0.  0.
          5    1    3    3  502    0  0.85430571627E+02  0.93721715958E+02 -0.22389242290E+02  0.12884445343E+03  0.41800000000E+01 0.  1.
         -5    1    3    3    0  502  0.13740683686E+01  0.14033519420E+03 -0.11943726209E+03  0.18433281523E+03  0.41800000000E+01 0.  1.
        -11    1    1    2    0    0 -0.63277562580E+02 -0.89972712902E+02 -0.56773960083E+02  0.12378376928E+03  0.00000000000E+00 0. -1.
         11    1    1    2    0    0 -0.23527077415E+02 -0.14408419726E+03  0.96177244536E+01  0.14630885105E+03  0.00000000000E+00 0.  1.
</event>
<event>
 7    1  0.2900135E-009  0.9698584E+02  0.7561462E-02  0.1286765E+00
         -1   -1    0    0    0  501 -0.00000000000E+00  0.00000000000E+00  0.86226108977E+02  0.86226108977E+02  0.00000000000E+00 0.  1.
          1   -1    0    0  501    0  0.00000000000E+00 -0.00000000000E+00 -0.34331136564E+03  0.34331136564E+03  0.00000000000E+00 0. -1.
         25    2    1    2    0    0 -0.76371625849E+01  0.77331517605E+02 -0.27227612750E+03  0.30954823433E+03  0.12508928772E+03 0.  0.
          5    1    3    3  502    0 -0.31700751039E+02  0.10055506113E+02 -0.62939982496E+01  0.34104803673E+02  0.41800000000E+01 0. -1.
         -5    1    3    3    0  502  0.24063588454E+02  0.67276011493E+02 -0.26598212925E+03  0.27544343065E+03  0.41800000000E+01 0. -1.
        -11    1    1    2    0    0 -0.17792213408E+02 -0.24852109688E+02  0.45076268870E+02  0.54461548171E+02  0.00000000000E+00 0.  1.
         11    1    1    2    0    0  0.25429375992E+02 -0.52479407918E+02 -0.29885398039E+02  0.65527692121E+02  0.00000000000E+00 0. -1.
</event>
<event>
 7    1  0.2900135E-009  0.1512075E+03  0.7561462E-02  0.1198997E+00
         -2   -1    0    0    0  501 -0.00000000000E+00  0.00000000000E+00  0.11573701082E+03  0.11573701082E+03  0.00000000000E+00 0.  1.
          2   -1    0    0  501    0  0.00000000000E+00 -0.00000000000E+00 -0.25795734103E+03  0.25795734103E+03  0.00000000000E+00 0. -1.
         25    2    1    2    0    0  0.38285758391E+02 -0.11402660400E+03 -0.81302374492E+01  0.17372936482E+03  0.12509166929E+03 0.  0.
          5    1    3    3  502    0 -0.39611083033E+02 -0.27883270533E+02  0.22456150377E+02  0.53556192587E+02  0.41800000000E+01 0.  1.
         -5    1    3    3    0  502  0.77896841423E+02 -0.86143333472E+02 -0.30586387826E+02  0.12017317224E+03  0.41800000000E+01 0.  1.
        -11    1    1    2    0    0  0.14181777358E+02  0.26012574515E+01  0.39691395178E+01  0.14954712230E+02  0.00000000000E+00 0.  1.
         11    1    1    2    0    0 -0.52467535749E+02  0.11142534655E+03 -0.13805923228E+03  0.18501027480E+03  0.00000000000E+00 0. -1.
</event>
<event>
 7    1  0.2900135E-009  0.1164833E+03  0.7561462E-02  0.1249014E+00
         -2   -1    0    0    0  501 -0.00000000000E+00  0.00000000000E+00  0.18737328963E+02  0.18737328963E+02  0.00000000000E+00 0.  1.
          2   -1    0    0  501    0  0.00000000000E+00 -0.00000000000E+00 -0.15977236373E+04  0.15977236373E+04  0.00000000000E+00 0. -1.
         25    2    1    2    0    0  0.35650961550E+02  0.65394007314E+02 -0.13627736372E+04  0.13705283109E+04  0.12509395488E+03 0.  0.
          5    1    3    3  502    0 -0.36723273336E+02 -0.12030215782E+02 -0.31078935247E+03  0.31321050254E+03  0.41800000000E+01 0.  1.
         -5    1    3    3    0  502  0.72374234886E+02  0.77424223096E+02 -0.10519842848E+04  0.10573178084E+04  0.41800000000E+01 0.  1.
        -11    1    1    2    0    0 -0.47229282557E+02 -0.54724602693E+02 -0.21838596398E+03  0.23003872834E+03  0.00000000000E+00 0. -1.
         11    1    1    2    0    0  0.11578321007E+02 -0.10669404621E+02  0.21732928841E+01  0.15893926962E+02  0.00000000000E+00 0.  1.
</event>
<event>
 7    1  0.2900135E-009  0.7566203E+02  0.7561462E-02  0.1341833E+00
          2   -1    0    0  501    0  0.00000000000E+00  0.00000000000E+00  0.59319168084E+03  0.59319168084E+03  0.00000000000E+00 0. -1.
         -2   -1    0    0    0  501 -0.00000000000E+00 -0.00000000000E+00 -0.24195677298E+02  0.24195677298E+02  0.00000000000E+00 0.  1.
         25    2    1    2    0    0  0.19703744241E+02  0.68941502603E+01  0.21009302847E+03  0.24540323681E+03  0.12509157118E+03 0.  0.
          5    1    3    3  502    0  0.92290954126E+01  0.30648249974E+02 -0.13729392306E+01  0.32308648854E+02  0.41800000000E+01 0.  1.
         -5    1    3    3    0  502  0.10474648828E+02 -0.23754099714E+02  0.21146596770E+03  0.21309458795E+03  0.41800000000E+01 0.  1.
        -11    1    1    2    0    0 -0.71703319003E+01  0.41829367371E+02  0.22444741036E+03  0.22842449442E+03  0.00000000000E+00 0. -1.
         11    1    1    2    0    0 -0.12533412340E+02 -0.48723517632E+02  0.13445556471E+03  0.14355962691E+03  0.00000000000E+00 0.  1.
</event>
<event>
 7    1  0.2900135E-009  0.9815240E+02  0.7561462E-02  0.1284230E+00
         -2   -1    0    0    0  501 -0.00000000000E+00  0.00000000000E+00  0.12348299433E+03  0.12348299433E+03  0.00000000000E+00 0. -1.
          2   -1    0    0  501    0  0.00000000000E+00 -0.00000000000E+00 -0.11691865100E+03  0.11691865100E+03  0.00000000000E+00 0.  1.
         25    2    1    2    0    0  0.32672083208E+02 -0.39656079548E+02 -0.26338658361E+02  0.13777204658E+03  0.12508933699E+03 0.  0.
          5    1    3    3  502    0  0.23191335468E+02 -0.79422148325E+02  0.93161188823E+01  0.83366528993E+02  0.41800000000E+01 0. -1.
         -5    1    3    3    0  502  0.94807477396E+01  0.39766068777E+02 -0.35654777243E+02  0.54405517587E+02  0.41800000000E+01 0. -1.
        -11    1    1    2    0    0 -0.46496669340E+02  0.33042155854E+02 -0.92414763766E+01  0.57785198873E+02  0.00000000000E+00 0.  1.
         11    1    1    2    0    0  0.13824586132E+02  0.66139236939E+01  0.42144478073E+02  0.44844399878E+02  0.00000000000E+00 0. -1.
</event>
<event>
 7    1  0.2900135E-009  0.6864281E+02  0.7561462E-02  0.1364770E+00
          3   -1    0    0  501    0  0.00000000000E+00  0.00000000000E+00  0.63678780024E+02  0.63678780024E+02  0.00000000000E+00 0. -1.
         -3   -1    0    0    0  501 -0.00000000000E+00 -0.00000000000E+00 -0.22943998314E+03  0.22943998314E+03  0.00000000000E+00 0.  1.
         25    2    1    2    0    0 -0.46074929252E+02 -0.16238468392E+02 -0.60989611956E+02  0.14749055959E+03  0.12508855039E+03 0.  0.
          5    1    3    3  502    0 -0.46497653787E+01  0.51700705490E+01 -0.91337917776E+02  0.91697533071E+02  0.41800000000E+01 0.  1.
         -5    1    3    3    0  502 -0.41425163874E+02 -0.21408538941E+02  0.30348305820E+02  0.55793026515E+02  0.41800000000E+01 0.  1.
        -11    1    1    2    0    0  0.62692161255E+02  0.63363173409E+01 -0.10893041720E+03  0.12584232910E+03  0.00000000000E+00 0.  1.
         11    1    1    2    0    0 -0.16617232003E+02  0.99021510513E+01  0.41588260454E+01  0.19785874481E+02  0.00000000000E+00 0. -1.
</event>
<event>
 7    1  0.2900135E-009  0.9000391E+02  0.7561462E-02  0.1302842E+00
         -2   -1    0    0    0  501 -0.00000000000E+00  0.00000000000E+00  0.15944805144E+03  0.15944805144E+03  0.00000000000E+00 0.  1.
          2   -1    0    0  501    0  0.00000000000E+00 -0.00000000000E+00 -0.11870515172E+03  0.11870515172E+03  0.00000000000E+00 0. -1.
         25    2    1    2    0    0 -0.11125384207E+02 -0.32781122822E+02 -0.57514690642E+02  0.14196383808E+03  0.12508962984E+03 0.  0.
          5    1    3    3  502    0 -0.58663413299E+02  0.15980835283E+02 -0.20240232653E+02  0.64217774596E+02  0.41800000000E+01 0.  1.
         -5    1    3    3    0  502  0.47538029092E+02 -0.48761958106E+02 -0.37274457990E+02  0.77746063480E+02  0.41800000000E+01 0.  1.
        -11    1    1    2    0    0  0.18709523508E+02  0.16372003342E+01  0.10218410128E+03  0.10389570371E+03  0.00000000000E+00 0.  1.
         11    1    1    2    0    0 -0.75841393009E+01  0.31143922488E+02 -0.39265109129E+01  0.32293661372E+02  0.00000000000E+00 0. -1.
</event>
<event>
 7    1  0.2900135E-009  0.1230503E+03  0.7561462E-02  0.1238148E+00
         -2   -1    0    0    0  501 -0.00000000000E+00  0.00000000000E+00  0.27233663239E+02  0.27233663239E+02  0.00000000000E+00 0.  1.
          2   -1    0    0  501    0  0.00000000000E+00 -0.00000000000E+00 -0.99045829347E+03  0.99045829347E+03  0.00000000000E+00 0. -1.
         25    2    1    2    0    0 -0.63548347505E+01  0.87157634286E+02 -0.79757958823E+03  0.81204533798E+03  0.12509034429E+03 0.  0.
          5    1    3    3  502    0 -0.54893467308E+02  0.82019882643E+02 -0.62052479398E+03  0.62833832148E+03  0.41800000000E+01 0. -1.
         -5    1    3    3    0  502  0.48538632558E+02  0.51377516428E+01 -0.17705479425E+03  0.18370701649E+03  0.41800000000E+01 0. -1.
        -11    1    1    2    0    0  0.25713553051E+02 -0.42779153927E+02 -0.22902025001E+02  0.54915804377E+02  0.00000000000E+00 0.  1.
         11    1    1    2    0    0 -0.19358718301E+02 -0.44378480360E+02 -0.14274301700E+03  0.15073081435E+03  0.00000000000E+00 0. -1.
</event>
<event>
 7    1  0.3502153E-009  0.1307487E+03  0.7561462E-02  0.1226349E+00
         -2   -1    0    0    0  501 -0.00000000000E+00  0.00000000000E+00  0.61633055816E+02  0.61633055816E+02  0.00000000000E+00 0. -1.
          2   -1    0    0  501    0  0.00000000000E+00 -0.00000000000E+00 -0.34392646610E+03  0.34392646610E+03  0.00000000000E+00 0.  1.
         25    2    1    2    0    0 -0.81745359139E+02  0.15226785724E+02 -0.83677381844E+02  0.17193920828E+03  0.12508808243E+03 0.  0.
          5    1    3    3  502    0  0.31203409763E+02  0.42105322062E+01 -0.15648522019E+01  0.31800983077E+02  0.41800000000E+01 0.  1.
         -5    1    3    3    0  502 -0.11294876890E+03  0.11016253518E+02 -0.82112529642E+02  0.14013822520E+03  0.41800000000E+01 0.  1.
        -11    1    1    2    0    0  0.74669121199E+02 -0.43914701075E+02 -0.10882762394E+03  0.13909504076E+03  0.00000000000E+00 0. -1.
         11    1    1    2    0    0  0.70762379399E+01  0.28687915351E+02 -0.89788404499E+02  0.94525272880E+02  0.00000000000E+00 0.  1.
</event>
<event>
 7    1  0.2900135E-009  0.3002329E+03  0.7561462E-02  0.1085124E+00
          2   -1    0    0  501    0  0.00000000000E+00  0.00000000000E+00  0.16808362105E+04  0.16808362105E+04  0.00000000000E+00 0. -1.
         -2   -1    0    0    0  501 -0.00000000000E+00 -0.00000000000E+00 -0.56312915586E+02  0.56312915586E+02  0.00000000000E+00 0.  1.
         25    2    1    2    0    0 -0.19791842299E+03  0.20787831539E+03  0.77046129829E+03  0.83165121168E+03  0.12509208432E+03 0.  0.
          5    1    3    3  502    0 -0.25887620330E+01  0.77448035390E+02  0.21406144509E+03  0.22769425673E+03  0.41800000000E+01 0.  1.
         -5    1    3    3    0  502 -0.19532966096E+03  0.13043028000E+03  0.55639985321E+03  0.60395695496E+03  0.41800000000E+01 0.  1.
        -11    1    1    2    0    0  0.95209750582E+02 -0.11668603060E+03  0.31405808861E+03  0.34830017135E+03  0.00000000000E+00 0.  1.
         11    1    1    2    0    0  0.10270867241E+03 -0.91192284791E+02  0.54000390803E+03  0.55719774307E+03  0.00000000000E+00 0. -1.
</event>
<event>
 7    1  0.3057196E-009  0.1095651E+03  0.7561462E-02  0.1261377E+00
         -1   -1    0    0    0  501 -0.00000000000E+00  0.00000000000E+00  0.62136004945E+02  0.62136004945E+02  0.00000000000E+00 0.  1.
          1   -1    0    0  501    0  0.00000000000E+00 -0.00000000000E+00 -0.27305688674E+03  0.27305688674E+03  0.00000000000E+00 0. -1.
         25    2    1    2    0    0 -0.60356287658E+02  0.16186859774E+02 -0.16209722931E+03  0.21407529374E+03  0.12509126170E+03 0.  0.
          5    1    3    3  502    0 -0.17106882130E+02 -0.52337576017E+02 -0.89688724862E+02  0.10532524411E+03  0.41800000000E+01 0. -1.
         -5    1    3    3    0  502 -0.43249405528E+02  0.68524435791E+02 -0.72408504448E+02  0.10875004963E+03  0.41800000000E+01 0. -1.
        -11    1    1    2    0    0  0.79659234068E+01 -0.27960459952E+02  0.18909657535E+02  0.34681672458E+02  0.00000000000E+00 0.  1.
         11    1    1    2    0    0  0.52390364251E+02  0.11773600177E+02 -0.67733310019E+02  0.86435925480E+02  0.00000000000E+00 0. -1.
</event>
<event>
 7    1  0.2900135E-009  0.1187332E+03  0.7561462E-02  0.1245202E+00
         -2   -1    0    0    0  501 -0.00000000000E+00  0.00000000000E+00  0.11594575584E+03  0.11594575584E+03  0.00000000000E+00 0.  1.
          2   -1    0    0  501    0  0.00000000000E+00 -0.00000000000E+00 -0.26719910369E+03  0.26719910369E+03  0.00000000000E+00 0. -1.
         25    2    1    2    0    0 -0.23934941302E+02  0.90657511076E+02  0.30001911045E+02  0.15918502485E+03  0.12509233286E+03 0.  0.
          5    1    3    3  502    0  0.24824762845E+02  0.46301292405E+01  0.51854655935E+02  0.57828061435E+02  0.41800000000E+01 0.  1.
         -5    1    3    3    0  502 -0.48759704148E+02  0.86027381836E+02 -0.21852744891E+02  0.10135696342E+03  0.41800000000E+01 0.  1.
        -11    1    1    2    0    0  0.20902254758E+02  0.12496692059E+01 -0.25675473030E+00  0.20941152071E+02  0.00000000000E+00 0.  1.
         11    1    1    2    0    0  0.30326865446E+01 -0.91907180282E+02 -0.18099850417E+03  0.20301868260E+03  0.00000000000E+00 0. -1.
</event>
<event>
 7    1  0.2900135E-009  0.2323017E+03  0.7561462E-02  0.1125030E+00
          4   -1    0    0  501    0  0.00000000000E+00  0.00000000000E+00  0.16369344555E+03  0.16369344555E+03  0.00000000000E+00 0. -1.
         -4   -1    0    0    0  501 -0.00000000000E+00 -0.00000000000E+00 -0.45896439906E+03  0.45896439906E+03  0.00000000000E+00 0.  1.
         25    2    1    2    0    0 -0.87184967331E+02  0.19578311236E+03 -0.30224135434E+03  0.39106150172E+03  0.12508803397E+03 0.  0.
          5    1    3    3  502    0 -0.23211780002E+01  0.15105643739E+03 -0.16745186912E+03  0.22556825135E+03  0.41800000000E+01 0. -1.
         -5    1    3    3    0  502 -0.84863789330E+02  0.44726674966E+02 -0.13478948522E+03  0.16549325037E+03  0.41800000000E+01 0. -1.
        -11    1    1    2    0    0  0.49187011021E+02 -0.15052240053E+03  0.40767043089E+02  0.16351852163E+03  0.00000000000E+00 0. -1.
         11    1    1    2    0    0  0.37997956309E+02 -0.45260711831E+02 -0.33796642255E+02  0.68077821255E+02  0.00000000000E+00 0.  1.
</event>
<event>
 7    1  0.2900135E-009  0.1582141E+03  0.7561462E-02  0.1190728E+00
         -1   -1    0    0    0  501 -0.00000000000E+00  0.00000000000E+00  0.17528699095E+02  0.17528699095E+02  0.00000000000E+00 0.  1.
          1   -1    0    0  501    0  0.00000000000E+00 -0.00000000000E+00 -0.18311716707E+04  0.18311716707E+04  0.00000000000E+00 0. -1.
         25    2    1    2    0    0 -0.46101019924E+02 -0.11469767598E+03 -0.13433027264E+04  0.13547652630E+04  0.12508334177E+03 0.  0.
          5    1    3    3  502    0 -0.84005041129E+02 -0.87058435889E+02 -0.11217114576E+04  0.11282243060E+04  0.41800000000E+01 0.  1.
         -5    1    3    3    0  502  0.37904021205E+02 -0.27639240087E+02 -0.22159126881E+03  0.22654095707E+03  0.41800000000E+01 0.  1.
        -11    1    1    2    0    0 -0.20149864135E+02  0.56893723989E+02 -0.23744537218E+03  0.24499636247E+03  0.00000000000E+00 0. -1.
         11    1    1    2    0    0  0.66250884059E+02  0.57803951986E+02 -0.23289487303E+03  0.24893874424E+03  0.00000000000E+00 0.  1.
</event>
<event>
 7    1  0.2900135E-009  0.1076730E+03  0.7561462E-02  0.1264941E+00
          2   -1    0    0  501    0  0.00000000000E+00  0.00000000000E+00  0.83543281145E+03  0.83543281145E+03  0.00000000000E+00 0. -1.
         -2   -1    0    0    0  501 -0.00000000000E+00 -0.00000000000E+00 -0.16683186268E+02  0.16683186268E+02  0.00000000000E+00 0.  1.
         25    2    1    2    0    0  0.46260374437E+02 -0.19397087908E+01  0.45362457799E+03  0.47282832282E+03  0.12509028895E+03 0.  0.
          5    1    3    3  502    0  0.85242103297E+02 -0.45925376381E+01  0.22180545784E+03  0.23770242132E+03  0.41800000000E+01 0. -1.
         -5    1    3    3    0  502 -0.38981728860E+02  0.26528288473E+01  0.23181912015E+03  0.23512590149E+03  0.41800000000E+01 0. -1.
        -11    1    1    2    0    0  0.22126218971E+02  0.17639973297E+01  0.30358647030E+02  0.37607561766E+02  0.00000000000E+00 0.  1.
         11    1    1    2    0    0 -0.68386593407E+02  0.17571146113E+00  0.33476640016E+03  0.34168011313E+03  0.00000000000E+00 0. -1.
</event>
<event>
 7    1  0.2900135E-009  0.1255500E+03  0.7561462E-02  0.1234212E+00
          4   -1    0    0  501    0  0.00000000000E+00  0.00000000000E+00  0.43119976907E+03  0.43119976907E+03  0.00000000000E+00 0. -1.
         -4   -1    0    0    0  501 -0.00000000000E+00 -0.00000000000E+00 -0.42421259910E+02  0.42421259910E+02  0.00000000000E+00 0.  1.
         25    2    1    2    0    0 -0.57979708807E+02  0.55766962361E+02  0.23485312836E+03  0.27798292778E+03  0.12508763134E+03 0.  0.
          5    1    3    3  502    0 -0.94513276122E+02  0.59426771292E+02  0.17340570243E+03  0.20627969009E+03  0.41800000000E+01 0. -1.
         -5    1    3    3    0  502  0.36533567315E+02 -0.36598089315E+01  0.61447425928E+02  0.71703237691E+02  0.41800000000E+01 0. -1.
        -11    1    1    2    0    0 -0.49338278913E+01 -0.36205331859E+02  0.11135531309E+03  0.11719716065E+03  0.00000000000E+00 0. -1.
         11    1    1    2    0    0  0.62913536698E+02 -0.19561630501E+02  0.42570067714E+02  0.78440940540E+02  0.00000000000E+00 0.  1.
</event>
<event>
 7    1  0.2900135E-009  0.1173407E+03  0.7561462E-02  0.1247550E+00
          2   -1    0    0  501    0  0.00000000000E+00  0.00000000000E+00  0.34450471188E+02  0.34450471188E+02  0.00000000000E+00 0. -1.
         -2   -1    0    0    0  501 -0.00000000000E+00 -0.00000000000E+00 -0.55790667741E+03  0.55790667741E+03  0.00000000000E+00 0.  1.
         25    2    1    2    0    0 -0.29213366774E+02 -0.74421032206E+02 -0.21607384384E+03  0.26215890802E+03  0.12508987261E+03 0.  0.
          5    1    3    3  502    0  0.26504962668E+02 -0.82540811847E+02 -0.16300645941E+03  0.18467289156E+03  0.41800000000E+01 0. -1.
         -5    1    3    3    0  502 -0.55718329442E+02  0.81197796403E+01 -0.53067384423E+02  0.77486016460E+02  0.41800000000E+01 0. -1.
        -11    1    1    2    0    0  0.17622573833E+01  0.60721737386E+02 -0.28701559823E+03  0.29337380348E+03  0.00000000000E+00 0.  1.
         11    1    1    2    0    0  0.27451109391E+02  0.13699294820E+02 -0.20366764157E+02  0.36824437098E+02  0.00000000000E+00 0. -1.
</event>
<event>
 7    1  0.2900135E-009  0.1148699E+03  0.7561462E-02  0.1251808E+00
         -2   -1    0    0    0  501 -0.00000000000E+00  0.00000000000E+00  0.49030437027E+02  0.49030437027E+02  0.00000000000E+00 0.  1.
          2   -1    0    0  501    0  0.00000000000E+00 -0.00000000000E+00 -0.35111423567E+03  0.35111423567E+03  0.00000000000E+00 0. -1.
         25    2    1    2    0    0  0.63865883289E+02 -0.33021275152E+02 -0.13725763285E+03  0.19914049101E+03  0.12509205299E+03 0.  0.
          5    1    3    3  502    0 -0.21259280688E+02  0.29364521648E+02 -0.21145639729E+02  0.42176327799E+02  0.41800000000E+01 0.  1.
         -5    1    3    3    0  502  0.85125163977E+02 -0.62385796800E+02 -0.11611199312E+03  0.15696416321E+03  0.41800000000E+01 0.  1.
        -11    1    1    2    0    0 -0.38608647915E+02 -0.80230821512E+01 -0.14256501541E+03  0.14791815696E+03  0.00000000000E+00 0. -1.
         11    1    1    2    0    0 -0.25257235373E+02  0.41044357303E+02 -0.22261150383E+02  0.53086024728E+02  0.00000000000E+00 0.  1.
</event>
<event>
 7    1  0.2900135E-009  0.9168335E+02  0.7561462E-02  0.1298826E+00
          2   -1    0    0  501    0  0.00000000000E+00  0.00000000000E+00  0.66012853360E+03  0.66012853360E+03  0.00000000000E+00 0. -1.
         -2   -1    0    0    0  501 -0.00000000000E+00 -0.00000000000E+00 -0.27227474869E+02  0.27227474869E+02  0.00000000000E+00 0.  1.
         25    2    1    2    0    0 -0.67433544037E+01 -0.76014924781E+02  0.30537196223E+03  0.33870600365E+03  0.12508389176E+03 0.  0.
          5    1    3    3  502    0 -0.14996375580E+02 -0.66279492153E+02  0.53795908785E+02  0.86771738271E+02  0.41800000000E+01 0. -1.
         -5    1    3    3    0  502  0.82530211764E+01 -0.97354326282E+01  0.25157605344E+03  0.25193426538E+03  0.41800000000E+01 0. -1.
        -11    1    1    2    0    0 -0.29953081649E+01 -0.12474846599E+02  0.45276331097E+01  0.13604893614E+02  0.00000000000E+00 0.  1.
         11    1    1    2    0    0  0.97386625686E+01  0.88489771380E+02  0.32300146340E+03  0.33504511121E+03  0.00000000000E+00 0. -1.
</event>
<event>
 7    1  0.2900135E-009  0.6237151E+02  0.7561462E-02  0.1388141E+00
         -2   -1    0    0    0  501 -0.00000000000E+00  0.00000000000E+00  0.64427893481E+02  0.64427893481E+02  0.00000000000E+00 0.  1.
          2   -1    0    0  501    0  0.00000000000E+00 -0.00000000000E+00 -0.21143078016E+03  0.21143078016E+03  0.00000000000E+00 0. -1.
         25    2    1    2    0    0 -0.14485213183E+02 -0.21945715000E+02 -0.12442499353E+03  0.17838233149E+03  0.12508893383E+03 0.  0.
          5    1    3    3  502    0 -0.36069435056E+02  0.16965673893E+02 -0.12743440536E+03  0.13358831650E+03  0.41800000000E+01 0. -1.
         -5    1    3    3    0  502  0.21584221873E+02 -0.38911388893E+02  0.30094118325E+01  0.44794014991E+02  0.41800000000E+01 0. -1.
        -11    1    1    2    0    0 -0.26923190964E+01  0.22620954091E+02  0.32550256655E+02  0.39730030889E+02  0.00000000000E+00 0.  1.
         11    1    1    2    0    0  0.17177532279E+02 -0.67523909143E+00 -0.55128149810E+02  0.57746311263E+02  0.00000000000E+00 0. -1.
</event>
<event>
 7    1  0.2900135E-009  0.8995085E+02  0.7561462E-02  0.1302971E+00
          1   -1    0    0  501    0  0.00000000000E+00  0.00000000000E+00  0.24795135610E+03  0.24795135610E+03  0.00000000000E+00 0. -1.
         -1   -1    0    0    0  501 -0.00000000000E+00 -0.00000000000E+00 -0.68314703241E+02  0.68314703241E+02  0.00000000000E+00 0.  1.
         25    2    1    2    0    0  0.30376421127E+02  0.61901473762E+02  0.10061078051E+03  0.17471258993E+03  0.12508972984E+03 0.  0.
          5    1    3    3  502    0  0.32726341808E+02 -0.96254134374E+01 -0.15936594647E+02  0.37882838871E+02  0.41800000000E+01 0.  1.
         -5    1    3    3    0  502 -0.23499206809E+01  0.71526887199E+02  0.11654737516E+03  0.13682975106E+03  0.41800000000E+01 0.  1.
        -11    1    1    2    0    0  0.32058361860E+01 -0.19478028749E+02  0.84867022278E+02  0.87132556831E+02  0.00000000000E+00 0. -1.
         11    1    1    2    0    0 -0.33582257313E+02 -0.42423445013E+02 -0.58411499320E+01  0.54420912575E+02  0.00000000000E+00 0.  1.
</event>
<event>
 7    1  0.3869487E-009  0.8918795E+02  0.7561462E-02  0.1304830E+00
         -1   -1    0    0    0  501 -0.00000000000E+00  0.00000000000E+00  0.83078261119E+02  0.83078261119E+02  0.00000000000E+00 0.  1.
          1   -1    0    0  501    0  0.00000000000E+00 -0.00000000000E+00 -0.15085264426E+03  0.15085264426E+03  0.00000000000E+00 0. -1.
         25    2    1    2    0    0  0.22813085507E+02 -0.53171397604E+00 -0.22986367533E+02  0.12921393401E+03  0.12508856087E+03 0.  0.
          5    1    3    3  502    0 -0.41669780601E+02 -0.14378586695E+02 -0.41393000975E+02  0.60613260103E+02  0.41800000000E+01 0.  1.
         -5    1    3    3    0  502  0.64482866108E+02  0.13846872719E+02  0.18406633441E+02  0.68600673905E+02  0.41800000000E+01 0.  1.
        -11    1    1    2    0    0  0.15450733000E+02 -0.19454166995E+02 -0.55005319589E+02  0.60355405282E+02  0.00000000000E+00 0. -1.
         11    1    1    2    0    0 -0.38263818507E+02  0.19985880971E+02  0.10217303984E+02  0.44361566086E+02  0.00000000000E+00 0.  1.
</event>
<event>
 7    1  0.2900135E-009  0.8429527E+02  0.7561462E-02  0.1317286E+00
         -1   -1    0    0    0  501 -0.00000000000E+00  0.00000000000E+00  0.26645708805E+03  0.26645708805E+03  0.00000000000E+00 0.  1.
          1   -1    0    0  501    0  0.00000000000E+00 -0.00000000000E+00 -0.60858353479E+02  0.60858353479E+02  0.00000000000E+00 0. -1.
         25    2    1    2    0    0 -0.11149172479E+02 -0.35117078098E+02  0.45708145331E+02  0.13817546864E+03  0.12508282201E+03 0.  0.
          5    1    3    3  502    0 -0.16304335813E+02 -0.54018991910E+02 -0.27046869501E+02  0.62712745140E+02  0.41800000000E+01 0. -1.
         -5    1    3    3    0  502  0.51551633337E+01  0.18901913812E+02  0.72755014832E+02  0.75462723500E+02  0.41800000000E+01 0. -1.
        -11    1    1    2    0    0 -0.36484910219E+02  0.21859529855E+02  0.11402041035E+03  0.12169487128E+03  0.00000000000E+00 0.  1.
         11    1    1    2    0    0  0.47634082698E+02  0.13257548243E+02  0.45870178891E+02  0.67445101612E+02  0.00000000000E+00 0. -1.
</event>
<event>
 7    1  0.2900135E-009  0.1108600E+03  0.7561462E-02  0.1258986E+00
         -2   -1    0    0    0  501 -0.00000000000E+00  0.00000000000E+00  0.19208589647E+02  0.19208589647E+02  0.00000000000E+00 0. -1.
          2   -1    0    0  501    0  0.00000000000E+00 -0.00000000000E+00 -0.90270656775E+03  0.90270656775E+03  0.00000000000E+00 0.  1.
         25    2    1    2    0    0 -0.16344961770E+02  0.16904403446E+02 -0.72134765376E+03  0.73249054428E+03  0.12508814189E+03 0.  0.
          5    1    3    3  502    0 -0.67663251730E+02 -0.11012142519E+02 -0.39709408224E+03  0.40298978333E+03  0.41800000000E+01 0.  1.
         -5    1    3    3    0  502  0.51318289960E+02  0.27916545964E+02 -0.32425357152E+03  0.32950076095E+03  0.41800000000E+01 0.  1.
        -11    1    1    2    0    0 -0.23765524543E+02  0.26347197709E+02 -0.86502265507E+02  0.93496614493E+02  0.00000000000E+00 0.  1.
         11    1    1    2    0    0  0.40110486313E+02 -0.43251601155E+02 -0.75648058841E+02  0.95927998630E+02  0.00000000000E+00 0. -1.
</event>
<event>
 7    1  0.3391829E-009  0.2082332E+03  0.7561462E-02  0.1142973E+00
          2   -1    0    0  501    0  0.00000000000E+00  0.00000000000E+00  0.19448919127E+03  0.19448919127E+03  0.00000000000E+00 0. -1.
         -2   -1    0    0    0  501 -0.00000000000E+00 -0.00000000000E+00 -0.27650339485E+03  0.27650339485E+03  0.00000000000E+00 0.  1.
         25    2    1    2    0    0  0.19820122949E+03 -0.33311853011E+01  0.96687898999E+01  0.23459707835E+03  0.12508988570E+03 0.  0.
          5    1    3    3  502    0  0.19375687474E+02 -0.10607065035E+02 -0.42541913446E+02  0.48116669600E+02  0.41800000000E+01 0.  1.
         -5    1    3    3    0  502  0.17882554202E+03  0.72758797335E+01  0.52210703346E+02  0.18648040875E+03  0.41800000000E+01 0.  1.
        -11    1    1    2    0    0 -0.75515873478E+02  0.41895938390E+02 -0.18123690610E+02  0.88240495024E+02  0.00000000000E+00 0. -1.
         11    1    1    2    0    0 -0.12268535602E+03 -0.38564753089E+02 -0.73559302878E+02  0.14815501274E+03  0.00000000000E+00 0.  1.
</event>
<event>
 7    1  0.2900135E-009  0.1012185E+03  0.7561462E-02  0.1277754E+00
         -1   -1    0    0    0  501 -0.00000000000E+00  0.00000000000E+00  0.42928718056E+02  0.42928718056E+02  0.00000000000E+00 0.  1.
          1   -1    0    0  501    0  0.00000000000E+00 -0.00000000000E+00 -0.32450979900E+03  0.32450979900E+03  0.00000000000E+00 0. -1.
         25    2    1    2    0    0  0.61170980328E+02 -0.13008535100E+02 -0.16863098008E+03  0.21907832403E+03  0.12509114195E+03 0.  0.
          5    1    3    3  502    0  0.54641274846E+02 -0.65594009987E+02 -0.11770879462E+03  0.14546847010E+03  0.41800000000E+01 0.  1.
         -5    1    3    3    0  502  0.65297054822E+01  0.52585474887E+02 -0.50922185468E+02  0.73609853930E+02  0.41800000000E+01 0.  1.
        -11    1    1    2    0    0 -0.46005933676E+02  0.40208044327E+01 -0.14587533377E+02  0.48430454589E+02  0.00000000000E+00 0.  1.
         11    1    1    2    0    0 -0.15165046653E+02  0.89877306674E+01 -0.98362567486E+02  0.99929738441E+02  0.00000000000E+00 0. -1.
</event>
<event>
 7    1  0.2900135E-009  0.8923846E+02  0.7561462E-02  0.1304706E+00
         -4   -1    0    0    0  501 -0.00000000000E+00  0.00000000000E+00  0.32676733932E+03  0.32676733932E+03  0.00000000000E+00 0.  1.
          4   -1    0    0  501    0  0.00000000000E+00 -0.00000000000E+00 -0.35521264051E+02  0.35521264051E+02  0.00000000000E+00 0. -1.
         25    2    1    2    0    0  0.67553320094E+01  0.27218686741E+01  0.20156770397E+03  0.23733835598E+03  0.12508762071E+03 0.  0.
          5    1    3    3  502    0  0.52419323093E+02 -0.35134159891E+02  0.79749482115E+02  0.10178235074E+03  0.41800000000E+01 0. -1.
         -5    1    3    3    0  502 -0.45663991083E+02  0.37856028565E+02  0.12181822185E+03  0.13555600523E+03  0.41800000000E+01 0. -1.
        -11    1    1    2    0    0  0.22325728396E+02  0.94537022124E+01 -0.53504551936E+01  0.24828169581E+02  0.00000000000E+00 0. -1.
         11    1    1    2    0    0 -0.29081060406E+02 -0.12175570887E+02  0.95028826497E+02  0.10012207782E+03  0.00000000000E+00 0.  1.
</event>
<event>
 7    1  0.2900135E-009  0.2800393E+03  0.7561462E-02  0.1095668E+00
          2   -1    0    0  501    0  0.00000000000E+00  0.00000000000E+00  0.36414892715E+03  0.36414892715E+03  0.00000000000E+00 0. -1.
         -2   -1    0    0    0  501 -0.00000000000E+00 -0.00000000000E+00 -0.26884320056E+03  0.26884320056E+03  0.00000000000E+00 0.  1.
         25    2    1    2    0    0 -0.75764585771E+02  0.24857375790E+03  0.18637589764E+03  0.34338265298E+03  0.12508591278E+03 0.  0.
          5    1    3    3  502    0 -0.76625575892E+02  0.26256337430E+03  0.17377874711E+03  0.32407951146E+03  0.41800000000E+01 0.  1.
         -5    1    3    3    0  502  0.86099012135E+00 -0.13989616400E+02  0.12597150533E+02  0.19303141521E+02  0.41800000000E+01 0.  1.
        -11    1    1    2    0    0  0.56590851153E+02 -0.60447132307E+02 -0.84032606635E+01  0.83228570985E+02  0.00000000000E+00 0.  1.
         11    1    1    2    0    0  0.19173734618E+02 -0.18812662559E+03 -0.82666910389E+02  0.20638090374E+03  0.00000000000E+00 0. -1.
</event>
<event>
 7    1  0.2900135E-009  0.9417930E+02  0.7561462E-02  0.1293035E+00
          2   -1    0    0  501    0  0.00000000000E+00  0.00000000000E+00  0.14868320108E+04  0.14868320108E+04  0.00000000000E+00 0. -1.
         -2   -1    0    0    0  501 -0.00000000000E+00 -0.00000000000E+00 -0.10144838978E+02  0.10144838978E+02  0.00000000000E+00 0.  1.
         25    2    1    2    0    0 -0.13114315874E+02 -0.37740917489E+02  0.10588710300E+04  0.10669821668E+04  0.12508686584E+03 0.  0.
          5    1    3    3  502    0  0.13661613971E+02 -0.53768744732E+02  0.20167270619E+03  0.20920580879E+03  0.41800000000E+01 0. -1.
         -5    1    3    3    0  502 -0.26775929845E+02  0.16027827244E+02  0.85719832382E+03  0.85777635805E+03  0.41800000000E+01 0. -1.
        -11    1    1    2    0    0  0.21533678640E+02  0.67218075606E+02  0.30762843419E+03  0.31562196141E+03  0.00000000000E+00 0. -1.
         11    1    1    2    0    0 -0.84193627656E+01 -0.29477158117E+02  0.11018770758E+03  0.11437272149E+03  0.00000000000E+00 0.  1.
</event>
<event>
 7    1  0.2900135E-009  0.1174436E+03  0.7561462E-02  0.1247375E+00
          4   -1    0    0  501    0  0.00000000000E+00  0.00000000000E+00  0.12700803985E+03  0.12700803985E+03  0.00000000000E+00 0.  1.
         -4   -1    0    0    0  501 -0.00000000000E+00 -0.00000000000E+00 -0.13715056863E+03  0.13715056863E+03  0.00000000000E+00 0. -1.
         25    2    1    2    0    0  0.13706456472E+02  0.66847698064E+02  0.25686551832E+02  0.14478515347E+03  0.12508581069E+03 0.  0.
          5    1    3    3  502    0  0.61647867155E+02  0.13595711855E+02 -0.10938108916E+02  0.64206055262E+02  0.41800000000E+01 0.  1.
         -5    1    3    3    0  502 -0.47941410683E+02  0.53251986210E+02  0.36624660749E+02  0.80579098211E+02  0.41800000000E+01 0.  1.
        -11    1    1    2    0    0 -0.41006260347E+02 -0.20000947128E+02 -0.45343652285E+02  0.64324164015E+02  0.00000000000E+00 0.  1.
         11    1    1    2    0    0  0.27299803875E+02 -0.46846750936E+02  0.95145716662E+01  0.55049290993E+02  0.00000000000E+00 0. -1.
</event>
<event>
 7    1  0.2900135E-009  0.1085173E+03  0.7561462E-02  0.1263341E+00
          1   -1    0    0  501    0  0.00000000000E+00  0.00000000000E+00  0.13444932162E+03  0.13444932162E+03  0.00000000000E+00 0. -1.
         -1   -1    0    0    0  501 -0.00000000000E+00 -0.00000000000E+00 -0.10340535782E+03  0.10340535782E+03  0.00000000000E+00 0.  1.
         25    2    1    2    0    0  0.13856256278E+02 -0.34530954275E+02 -0.12748119596E+02  0.13110681142E+03  0.12506837652E+03 0.  0.
          5    1    3    3  502    0  0.58603181094E+02 -0.49983589650E+02 -0.26616882646E+02  0.81600385480E+02  0.41800000000E+01 0.  1.
         -5    1    3    3    0  502 -0.44746924816E+02  0.15452635376E+02  0.13868763050E+02  0.49506425937E+02  0.41800000000E+01 0.  1.
        -11    1    1    2    0    0 -0.38289308238E+02 -0.11738898370E+02  0.35991749256E+02  0.53844952176E+02  0.00000000000E+00 0. -1.
         11    1    1    2    0    0  0.24433051960E+02  0.46269852645E+02  0.78003341402E+01  0.52902915842E+02  0.00000000000E+00 0.  1.
</event>
<event>
 7    1  0.2900135E-009  0.1483978E+03  0.7561462E-02  0.1202456E+00
          2   -1    0    0  501    0  0.00000000000E+00  0.00000000000E+00  0.94749090385E+02  0.94749090385E+02  0.00000000000E+00 0. -1.
         -2   -1    0    0    0  501 -0.00000000000E+00 -0.00000000000E+00 -0.29200117905E+03  0.29200117905E+03  0.00000000000E+00 0.  1.
         25    2    1    2    0    0  0.34124929252E+02  0.11235507068E+03 -0.15930566735E+03  0.23412365766E+03  0.12508964275E+03 0.  0.
          5    1    3    3  502    0  0.67387211081E+02  0.70425045245E+02 -0.44183849472E+02  0.10709999145E+03  0.41800000000E+01 0.  1.
         -5    1    3    3    0  502 -0.33262281829E+02  0.41930025434E+02 -0.11512181787E+03  0.12702366620E+03  0.41800000000E+01 0.  1.
        -11    1    1    2    0    0 -0.60973625741E+02 -0.54547405460E+02 -0.79950149167E+01  0.82201719823E+02  0.00000000000E+00 0.  1.
         11    1    1    2    0    0  0.26848696489E+02 -0.57807665219E+02 -0.29951406401E+02  0.70424891953E+02  0.00000000000E+00 0. -1.
</event>
<event>
 7    1  0.2900135E-009  0.1865271E+03  0.7561462E-02  0.1161631E+00
          3   -1    0    0  501    0  0.00000000000E+00  0.00000000000E+00  0.85725909704E+02  0.85725909704E+02  0.00000000000E+00 0. -1.
         -3   -1    0    0    0  501 -0.00000000000E+00 -0.00000000000E+00 -0.49108424357E+03  0.49108424357E+03  0.00000000000E+00 0.  1.
         25    2    1    2    0    0  0.14673393160E+03 -0.90639474342E+02 -0.24103123719E+03  0.32169640898E+03  0.12508461637E+03 0.  0.
          5    1    3    3  502    0  0.69754675770E+02 -0.69730619297E+02 -0.21681008492E+03  0.23822711722E+03  0.41800000000E+01 0. -1.
         -5    1    3    3    0  502  0.76979255833E+02 -0.20908855045E+02 -0.24221152278E+02  0.83469291752E+02  0.41800000000E+01 0. -1.
        -11    1    1    2    0    0  0.52392380267E+01 -0.10617908409E+02 -0.53504498125E+01  0.12992956064E+02  0.00000000000E+00 0.  1.
         11    1    1    2    0    0 -0.15197316963E+03  0.10125738275E+03 -0.15897664686E+03  0.24212078824E+03  0.00000000000E+00 0. -1.
</event>
<event>
 7    1  0.2900135E-009  0.1816384E+03  0.7561462E-02  0.1166227E+00
         -2   -1    0    0    0  501 -0.00000000000E+00  0.00000000000E+00  0.68469227721E+02  0.68469227721E+02  0.00000000000E+00 0.  1.
          2   -1    0    0  501    0  0.00000000000E+00 -0.00000000000E+00 -0.12876501368E+04  0.12876501368E+04  0.00000000000E+00 0. -1.
         25    2    1    2    0    0  0.12833527167E+03  0.11109224321E+03 -0.11195538109E+04  0.11392363249E+04  0.12508892809E+03 0.  0.
          5    1    3    3  502    0 -0.12303830513E+02  0.19707595017E+02 -0.38685166693E+03  0.38757122978E+03  0.41800000000E+01 0.  1.
         -5    1    3    3    0  502  0.14063910218E+03  0.91384648193E+02 -0.73270214398E+03  0.75166509510E+03  0.41800000000E+01 0.  1.
        -11    1    1    2    0    0 -0.48203159565E+02 -0.59573832609E+02  0.32123614675E+01  0.76700100326E+02  0.00000000000E+00 0.  1.
         11    1    1    2    0    0 -0.80132112102E+02 -0.51518410601E+02 -0.10283945967E+03  0.14018293935E+03  0.00000000000E+00 0. -1.
</event>
<event>
 7    1  0.2982611E-009  0.1111837E+03  0.7561462E-02  0.1258393E+00
          2   -1    0    0  501    0  0.00000000000E+00  0.00000000000E+00  0.71606094560E+02  0.71606094560E+02  0.00000000000E+00 0.  1.
         -2   -1    0    0    0  501 -0.00000000000E+00 -0.00000000000E+00 -0.23888395712E+03  0.23888395712E+03  0.00000000000E+00 0. -1.
         25    2    1    2    0    0  0.72007064554E+02  0.62785536899E+01 -0.95587787268E+02  0.17323077968E+03  0.12508972929E+03 0.  0.
          5    1    3    3  502    0  0.10596406086E+03  0.10722788163E+02 -0.54934038735E+02  0.11991072259E+03  0.41800000000E+01 0.  1.
         -5    1    3    3    0  502 -0.33956996310E+02 -0.44442344736E+01 -0.40653748533E+02  0.53320057091E+02  0.41800000000E+01 0.  1.
        -11    1    1    2    0    0 -0.65963932542E+02 -0.17752820587E+02 -0.40974723239E+01  0.68433853571E+02  0.00000000000E+00 0.  1.
         11    1    1    2    0    0 -0.60431320124E+01  0.11474266897E+02 -0.67592602972E+02  0.68825418429E+02  0.00000000000E+00 0. -1.
</event>
<event>
 7    1  0.2900135E-009  0.1165240E+03  0.7561462E-02  0.1248944E+00
          1   -1    0    0  501    0  0.00000000000E+00  0.00000000000E+00  0.27109122041E+03  0.27109122041E+03  0.00000000000E+00 0. -1.
         -1   -1    0    0    0  501 -0.00000000000E+00 -0.00000000000E+00 -0.69059287561E+02  0.69059287561E+02  0.00000000000E+00 0.  1.
         25    2    1    2    0    0  0.50049931431E+02 -0.63640387169E+02  0.13974007284E+03  0.20427930585E+03  0.12509057649E+03 0.  0.
          5    1    3    3  502    0  0.51228793490E+02  0.91962696399E+01  0.11655796568E+03  0.12771919363E+03  0.41800000000E+01 0. -1.
         -5    1    3    3    0  502 -0.11788620586E+01 -0.72836656809E+02  0.23182107160E+02  0.76560112221E+02  0.41800000000E+01 0. -1.
        -11    1    1    2    0    0 -0.56435097643E+02  0.14439289397E+02  0.26806234216E+01  0.58314655673E+02  0.00000000000E+00 0.  1.
         11    1    1    2    0    0  0.63851662122E+01  0.49201097773E+02  0.59611236584E+02  0.77556546446E+02  0.00000000000E+00 0. -1.
</event>
<event>
 7    1  0.3606310E-009  0.1305626E+03  0.7561462E-02  0.1226623E+00
          2   -1    0    0  501    0  0.00000000000E+00  0.00000000000E+00  0.52211741856E+03  0.52211741856E+03  0.00000000000E+00 0. -1.
         -2   -1    0    0    0  501 -0.00000000000E+00 -0.00000000000E+00 -0.45154789283E+02  0.45154789283E+02  0.00000000000E+00 0.  1.
         25    2    1    2    0    0  0.91533523179E+02  0.52127146543E+02  0.20760381045E+03  0.26428515612E+03  0.12510665994E+03 0.  0.
          5    1    3    3  502    0 -0.10131361373E+02  0.21314039895E+02 -0.68490844803E+01  0.24926193816E+02  0.41800000000E+01 0. -1.
         -5    1    3    3    0  502  0.10166488455E+03  0.30813106647E+02  0.21445289493E+03  0.23935896230E+03  0.41800000000E+01 0. -1.
        -11    1    1    2    0    0 -0.30235803024E+02  0.19951664962E+02  0.12689563820E+03  0.13196505489E+03  0.00000000000E+00 0. -1.
         11    1    1    2    0    0 -0.61297720155E+02 -0.72078811505E+02  0.14246318063E+03  0.17102199683E+03  0.00000000000E+00 0.  1.
</event>
<event>
 7    1  0.2900135E-009  0.1441454E+03  0.7561462E-02  0.1207857E+00
          2   -1    0    0  501    0  0.00000000000E+00  0.00000000000E+00  0.79355500101E+03  0.79355500101E+03  0.00000000000E+00 0. -1.
         -2   -1    0    0    0  501 -0.00000000000E+00 -0.00000000000E+00 -0.34757765801E+02  0.34757765801E+02  0.00000000000E+00 0.  1.
         25    2    1    2    0    0  0.92466144090E+02 -0.79755553048E+02  0.47933322787E+03  0.51021600145E+03  0.12509631790E+03 0.  0.
          5    1    3    3  502    0 -0.12833232044E+02  0.17612341406E+02  0.14073190574E+03  0.14247044644E+03  0.41800000000E+01 0. -1.
         -5    1    3    3    0  502  0.10529937613E+03 -0.97367894454E+02  0.33860132213E+03  0.36774555502E+03  0.41800000000E+01 0. -1.
        -11    1    1    2    0    0 -0.83320629948E+02  0.66941468721E+02  0.28251876458E+03  0.30206015949E+03  0.00000000000E+00 0. -1.
         11    1    1    2    0    0 -0.91455141417E+01  0.12814084328E+02 -0.30547572426E+01  0.16036605872E+02  0.00000000000E+00 0.  1.
</event>
<event>
 7    1  0.2900135E-009  0.1448395E+03  0.7561462E-02  0.1206962E+00
          1   -1    0    0  501    0  0.00000000000E+00  0.00000000000E+00  0.92776363999E+02  0.92776363999E+02  0.00000000000E+00 0. -1.
         -1   -1    0    0    0  501 -0.00000000000E+00 -0.00000000000E+00 -0.26901424606E+03  0.26901424606E+03  0.00000000000E+00 0.  1.
         25    2    1    2    0    0 -0.10178231237E+03  0.50128632633E+02 -0.11094521700E+03  0.20206651294E+03  0.12509802379E+03 0.  0.
          5    1    3    3  502    0 -0.10553506045E+03  0.80907981181E+02 -0.69403019992E+02  0.15005999463E+03  0.41800000000E+01 0. -1.
         -5    1    3    3    0  502  0.37527480769E+01 -0.30779348548E+02 -0.41542197009E+02  0.52006518317E+02  0.41800000000E+01 0. -1.
        -11    1    1    2    0    0  0.10698667862E+02 -0.30293088175E+02  0.16133714476E+02  0.35950374518E+02  0.00000000000E+00 0. -1.
         11    1    1    2    0    0  0.91083644512E+02 -0.19835544458E+02 -0.81426379541E+02  0.12377372260E+03  0.00000000000E+00 0.  1.
</event>
<event>
 7    1  0.2900135E-009  0.1241950E+03  0.7561462E-02  0.1236333E+00
         -1   -1    0    0    0  501 -0.00000000000E+00  0.00000000000E+00  0.22658503437E+02  0.22658503437E+02  0.00000000000E+00 0.  1.
          1   -1    0    0  501    0  0.00000000000E+00 -0.00000000000E+00 -0.81829415640E+03  0.81829415640E+03  0.00000000000E+00 0. -1.
         25    2    1    2    0    0 -0.63548122742E+02  0.40579895303E+02 -0.52780422487E+03  0.54764096166E+03  0.12509289066E+03 0.  0.
          5    1    3    3  502    0  0.26632503227E+02 -0.15425106165E+02 -0.21630199356E+03  0.21852059158E+03  0.41800000000E+01 0. -1.
         -5    1    3    3    0  502 -0.90180625968E+02  0.56005001468E+02 -0.31150223131E+03  0.32912037008E+03  0.41800000000E+01 0. -1.
        -11    1    1    2    0    0 -0.13141165844E+02 -0.31170936478E+02 -0.13926631308E+03  0.14331581727E+03  0.00000000000E+00 0. -1.
         11    1    1    2    0    0  0.76689288586E+02 -0.94089588245E+01 -0.12856511501E+03  0.14999588090E+03  0.00000000000E+00 0.  1.
</event>
<event>
 7    1  0.2900135E-009  0.1154031E+03  0.7561462E-02  0.1250879E+00
         -2   -1    0    0    0  501 -0.00000000000E+00  0.00000000000E+00  0.15642077381E+02  0.15642077381E+02  0.00000000000E+00 0.  1.
          2   -1    0    0  501    0  0.00000000000E+00 -0.00000000000E+00 -0.89163561288E+03  0.89163561288E+03  0.00000000000E+00 0. -1.
         25    2    1    2    0    0 -0.60160047608E+01  0.36631690766E+02 -0.52586858913E+03  0.54181456421E+03  0.12508867208E+03 0.  0.
          5    1    3    3  502    0  0.50986113722E+02  0.45288345545E+02 -0.35256454200E+03  0.35912372062E+03  0.41800000000E+01 0.  1.
         -5    1    3    3    0  502 -0.57002118482E+02 -0.86566547794E+01 -0.17330404713E+03  0.18269084360E+03  0.41800000000E+01 0.  1.
        -11    1    1    2    0    0  0.38974753183E+02  0.16361195789E+02 -0.14886642325E+03  0.15475119413E+03  0.00000000000E+00 0. -1.
         11    1    1    2    0    0 -0.32958748422E+02 -0.52992886555E+02 -0.20125852312E+03  0.21071193191E+03  0.00000000000E+00 0.  1.
</event>
<event>
 7    1  0.2900135E-009  0.1615050E+03  0.7561462E-02  0.1187008E+00
         -2   -1    0    0    0  501 -0.00000000000E+00  0.00000000000E+00  0.59748048354E+02  0.59748048354E+02  0.00000000000E+00 0.  1.
          2   -1    0    0  501    0  0.00000000000E+00 -0.00000000000E+00 -0.59043739369E+03  0.59043739369E+03  0.00000000000E+00 0. -1.
         25    2    1    2    0    0  0.46308189390E+02 -0.10848389251E+03 -0.20627314477E+03  0.26853150936E+03  0.12508939975E+03 0.  0.
          5    1    3    3  502    0  0.19519386088E+02  0.63668818797E+01 -0.12134408405E+03  0.12313976917E+03  0.41800000000E+01 0.  1.
         -5    1    3    3    0  502  0.26788803302E+02 -0.11485077439E+03 -0.84929060718E+02  0.14539174019E+03  0.41800000000E+01 0.  1.
        -11    1    1    2    0    0 -0.97491137304E+02  0.71867885892E+02 -0.13171405317E+03  0.17893604074E+03  0.00000000000E+00 0.  1.
         11    1    1    2    0    0  0.51182947914E+02  0.36616006621E+02 -0.19270214740E+03  0.20271789193E+03  0.00000000000E+00 0. -1.
</event>
<event>
 7    1  0.2900135E-009  0.9552103E+02  0.7561462E-02  0.1290007E+00
         -2   -1    0    0    0  501 -0.00000000000E+00  0.00000000000E+00  0.59421725681E+02  0.59421725681E+02  0.00000000000E+00 0.  1.
          2   -1    0    0  501    0  0.00000000000E+00 -0.00000000000E+00 -0.21576016438E+03  0.21576016438E+03  0.00000000000E+00 0. -1.
         25    2    1    2    0    0  0.14857363629E+02 -0.29560073462E+01 -0.97666681807E+02  0.15942228199E+03  0.12508878458E+03 0.  0.
          5    1    3    3  502    0 -0.48963611240E+02 -0.21781498493E+02 -0.20714958935E+02  0.57605996441E+02  0.41800000000E+01 0. -1.
         -5    1    3    3    0  502  0.63820974869E+02  0.18825491147E+02 -0.76951722872E+02  0.10181628555E+03  0.41800000000E+01 0. -1.
        -11    1    1    2    0    0  0.13328546669E+02 -0.26615475839E+02 -0.67670485149E+02  0.73927858556E+02  0.00000000000E+00 0. -1.
         11    1    1    2    0    0 -0.28185910298E+02  0.29571483185E+02  0.89987282570E+01  0.41831749513E+02  0.00000000000E+00 0.  1.
</event>
<event>
 7    1  0.2900135E-009  0.1060450E+03  0.7561462E-02  0.1268074E+00
         -2   -1    0    0    0  501 -0.00000000000E+00  0.00000000000E+00  0.17683796646E+02  0.17683796646E+02  0.00000000000E+00 0. -1.
          2   -1    0    0  501    0  0.00000000000E+00 -0.00000000000E+00 -0.86551212604E+03  0.86551212604E+03  0.00000000000E+00 0.  1.
         25    2    1    2    0    0 -0.12046574333E+02 -0.45744237767E+02 -0.61099909810E+03  0.62546195580E+03  0.12508039427E+03 0.  0.
          5    1    3    3  502    0  0.37028769812E+02  0.25595661593E+02 -0.26101966679E+03  0.26490565592E+03  0.41800000000E+01 0.  1.
         -5    1    3    3    0  502 -0.49075344145E+02 -0.71339899360E+02 -0.34997943131E+03  0.36055629988E+03  0.41800000000E+01 0.  1.
        -11    1    1    2    0    0 -0.26899725612E+02  0.19632829157E+02 -0.27416436457E+02  0.43135880734E+02  0.00000000000E+00 0. -1.
         11    1    1    2    0    0  0.38946299944E+02  0.26111408610E+02 -0.20941279484E+03  0.21459808615E+03  0.00000000000E+00 0.  1.
</event>
<event>
 7    1  0.2900135E-009  0.9709114E+02  0.7561462E-02  0.1286535E+00
         -3   -1    0    0    0  501 -0.00000000000E+00  0.00000000000E+00  0.14276041602E+03  0.14276041602E+03  0.00000000000E+00 0.  1.
          3   -1    0    0  501    0  0.00000000000E+00 -0.00000000000E+00 -0.18037541108E+03  0.18037541108E+03  0.00000000000E+00 0. -1.
         25    2    1    2    0    0  0.42724183544E+02 -0.38064887275E+02 -0.12331113898E+03  0.18473340643E+03  0.12508598223E+03 0.  0.
          5    1    3    3  502    0  0.63959850256E+02 -0.52638341848E+02 -0.13313178946E+03  0.15685408264E+03  0.41800000000E+01 0.  1.
         -5    1    3    3    0  502 -0.21235666713E+02  0.14573454573E+02  0.98206504767E+01  0.27879323785E+02  0.41800000000E+01 0.  1.
        -11    1    1    2    0    0 -0.32961786348E+02  0.55855592148E+02  0.95834470799E+02  0.11571764052E+03  0.00000000000E+00 0.  1.
         11    1    1    2    0    0 -0.97623971955E+01 -0.17790704873E+02 -0.10138326878E+02  0.22684780157E+02  0.00000000000E+00 0. -1.
</event>
<event>
 7    1  0.2900135E-009  0.2721577E+03  0.7561462E-02  0.1100051E+00
          1   -1    0    0  501    0  0.00000000000E+00  0.00000000000E+00  0.86146652289E+03  0.86146652289E+03  0.00000000000E+00 0. -1.
         -1   -1    0    0    0  501 -0.00000000000E+00 -0.00000000000E+00 -0.92369157898E+02  0.92369157898E+02  0.00000000000E+00 0.  1.
         25    2    1    2    0    0 -0.25859118160E+03  0.80635830223E+01  0.34843133651E+03  0.45165526389E+03  0.12511458975E+03 0.  0.
          5    1    3    3  502    0 -0.13533829678E+02  0.21932256624E+02  0.96217303011E+02  0.99696691144E+02  0.41800000000E+01 0.  1.
         -5    1    3    3    0  502 -0.24505735192E+03 -0.13868673601E+02  0.25221403350E+03  0.35195857275E+03  0.41800000000E+01 0.  1.
        -11    1    1    2    0    0  0.21892836745E+03 -0.39057562549E+02  0.32076305127E+03  0.39031276987E+03  0.00000000000E+00 0. -1.
         11    1    1    2    0    0  0.39662814157E+02  0.30993979527E+02  0.99902977211E+02  0.11186764702E+03  0.00000000000E+00 0.  1.
</event>
<event>
 7    1  0.2900135E-009  0.7631764E+02  0.7561462E-02  0.1339839E+00
         -2   -1    0    0    0  501 -0.00000000000E+00  0.00000000000E+00  0.18607153126E+02  0.18607153126E+02  0.00000000000E+00 0.  1.
          2   -1    0    0  501    0  0.00000000000E+00 -0.00000000000E+00 -0.65833702635E+03  0.65833702635E+03  0.00000000000E+00 0. -1.
         25    2    1    2    0    0 -0.23860303932E+01  0.22970583212E+02 -0.34333032664E+03  0.36613690739E+03  0.12508869223E+03 0.  0.
          5    1    3    3  502    0 -0.84201024854E+01 -0.17278490400E+02 -0.31672253087E+03  0.31733275645E+03  0.41800000000E+01 0.  1.
         -5    1    3    3    0  502  0.60340720922E+01  0.40249073611E+02 -0.26607795773E+02  0.48804150935E+02  0.41800000000E+01 0.  1.
        -11    1    1    2    0    0 -0.18831982589E+02  0.29757064376E+02 -0.87683928973E+02  0.94491258054E+02  0.00000000000E+00 0. -1.
         11    1    1    2    0    0  0.21218012983E+02 -0.52727647587E+02 -0.20871561761E+03  0.21631601403E+03  0.00000000000E+00 0.  1.
</event>
<event>
 7    1  0.2900135E-009  0.1359006E+03  0.7561462E-02  0.1218954E+00
          2   -1    0    0  501    0  0.00000000000E+00  0.00000000000E+00  0.83735472491E+03  0.83735472491E+03  0.00000000000E+00 0. -1.
         -2   -1    0    0    0  501 -0.00000000000E+00 -0.00000000000E+00 -0.26704311209E+02  0.26704311209E+02  0.00000000000E+00 0.  1.
         25    2    1    2    0    0 -0.55594203883E+02 -0.80978684480E+02  0.52018069803E+03  0.54395196386E+03  0.12509003773E+03 0.  0.
          5    1    3    3  502    0  0.17228257371E+02  0.15966588945E+02  0.20237305483E+03  0.20377455812E+03  0.41800000000E+01 0.  1.
         -5    1    3    3    0  502 -0.72822461254E+02 -0.96945273425E+02  0.31780764320E+03  0.34017740575E+03  0.41800000000E+01 0.  1.
        -11    1    1    2    0    0  0.40194697378E+02  0.96634721581E+02  0.18665656317E+03  0.21399662541E+03  0.00000000000E+00 0.  1.
         11    1    1    2    0    0  0.15399506505E+02 -0.15656037101E+02  0.10381315250E+03  0.10611044685E+03  0.00000000000E+00 0. -1.
</event>
<event>
 7    1  0.2900135E-009  0.1038318E+03  0.7561462E-02  0.1272439E+00
          1   -1    0    0  501    0  0.00000000000E+00  0.00000000000E+00  0.45372881852E+03  0.45372881852E+03  0.00000000000E+00 0.  1.
         -1   -1    0    0    0  501 -0.00000000000E+00 -0.00000000000E+00 -0.28499899469E+02  0.28499899469E+02  0.00000000000E+00 0. -1.
         25    2    1    2    0    0 -0.22383099874E+02  0.37289326258E+01  0.16866117269E+03  0.21120165698E+03  0.12507853790E+03 0.  0.
          5    1    3    3  502    0 -0.72551683196E+02 -0.11922158680E+02  0.10948335794E+03  0.13194681758E+03  0.41800000000E+01 0. -1.
         -5    1    3    3    0  502  0.50168583322E+02  0.15651091306E+02  0.59177814744E+02  0.79254839407E+02  0.41800000000E+01 0. -1.
        -11    1    1    2    0    0 -0.20871457415E+02  0.22520250218E+02  0.52867384556E+02  0.61137057128E+02  0.00000000000E+00 0. -1.
         11    1    1    2    0    0  0.43254557288E+02 -0.26249182843E+02  0.20370036180E+03  0.20989000387E+03  0.00000000000E+00 0.  1.
</event>
<event>
 7    1  0.2900135E-009  0.1574685E+03  0.7561462E-02  0.1191585E+00
          2   -1    0    0  501    0  0.00000000000E+00  0.00000000000E+00  0.93908021591E+02  0.93908021591E+02  0.00000000000E+00 0. -1.
         -2   -1    0    0    0  501 -0.00000000000E+00 -0.00000000000E+00 -0.49773808604E+03  0.49773808604E+03  0.00000000000E+00 0.  1.
         25    2    1    2    0    0 -0.56900639745E+02 -0.10692987666E+03 -0.40347299128E+03  0.43944138443E+03  0.12508634749E+03 0.  0.
          5    1    3    3  502    0 -0.81674254116E+02 -0.12036592240E+03 -0.34303257102E+03  0.37262240437E+03  0.41800000000E+01 0.  1.
         -5    1    3    3    0  502  0.24773614372E+02  0.13436045739E+02 -0.60440420264E+02  0.66818980057E+02  0.41800000000E+01 0.  1.
        -11    1    1    2    0    0  0.68314982880E+02  0.54849657891E+02 -0.28225771766E+02  0.92044098390E+02  0.00000000000E+00 0.  1.
         11    1    1    2    0    0 -0.11414343136E+02  0.52080218767E+02  0.27868698600E+02  0.60160624811E+02  0.00000000000E+00 0. -1.
</event>
<event>
 7    1  0.2900135E-009  0.1734348E+03  0.7561462E-02  0.1174312E+00
          2   -1    0    0  501    0  0.00000000000E+00  0.00000000000E+00  0.27089810114E+03  0.27089810114E+03  0.00000000000E+00 0. -1.
         -2   -1    0    0    0  501 -0.00000000000E+00 -0.00000000000E+00 -0.12827556767E+03  0.12827556767E+03  0.00000000000E+00 0.  1.
         25    2    1    2    0    0  0.86636714604E+02 -0.12345607932E+03  0.79765662502E+02  0.21157399874E+03  0.12511463619E+03 0.  0.
          5    1    3    3  502    0  0.54429832369E+02 -0.14632439122E+03  0.65773801214E+02  0.16946120336E+03  0.41800000000E+01 0.  1.
         -5    1    3    3    0  502  0.32206882235E+02  0.22868311897E+02  0.13991861288E+02  0.42112795379E+02  0.41800000000E+01 0.  1.
        -11    1    1    2    0    0 -0.27996419546E+02  0.34535614281E+02  0.67679149049E+02  0.80975152838E+02  0.00000000000E+00 0. -1.
         11    1    1    2    0    0 -0.58640295058E+02  0.88920465044E+02 -0.48222780784E+01  0.10662451723E+03  0.00000000000E+00 0.  1.
</event>
<event>
 7    1  0.2900135E-009  0.3084633E+03  0.7561462E-02  0.1081085E+00
          2   -1    0    0  501    0  0.00000000000E+00  0.00000000000E+00  0.13546498938E+04  0.13546498938E+04  0.00000000000E+00 0. -1.
         -2   -1    0    0    0  501 -0.00000000000E+00 -0.00000000000E+00 -0.10090682312E+03  0.10090682312E+03  0.00000000000E+00 0.  1.
         25    2    1    2    0    0 -0.25708656265E+03  0.15320081293E+03  0.26666715696E+03  0.41990810716E+03  0.12508979206E+03 0.  0.
          5    1    3    3  502    0 -0.22213087887E+03  0.10218675192E+03  0.14749537837E+03  0.28558119451E+03  0.41800000000E+01 0. -1.
         -5    1    3    3    0  502 -0.34955683772E+02  0.51014061019E+02  0.11917177859E+03  0.13432691265E+03  0.41800000000E+01 0. -1.
        -11    1    1    2    0    0  0.15539568657E+03 -0.44705629505E+02  0.44183952171E+03  0.47049822068E+03  0.00000000000E+00 0.  1.
         11    1    1    2    0    0  0.10169087607E+03 -0.10849518343E+03  0.54523639202E+03  0.56515038909E+03  0.00000000000E+00 0. -1.
</event>
<event>
 7    1  0.2900135E-009  0.1156703E+03  0.7561462E-02  0.1250415E+00
         -2   -1    0    0    0  501 -0.00000000000E+00  0.00000000000E+00  0.91470539678E+02  0.91470539678E+02  0.00000000000E+00 0.  1.
          2   -1    0    0  501    0  0.00000000000E+00 -0.00000000000E+00 -0.19200358965E+03  0.19200358965E+03  0.00000000000E+00 0. -1.
         25    2    1    2    0    0  0.35720065846E+01 -0.75328563145E+02 -0.42211764610E+02  0.15204238277E+03  0.12509157218E+03 0.  0.
          5    1    3    3  502    0 -0.22772467977E+02 -0.96930925501E+02 -0.56843528059E+02  0.11472945872E+03  0.41800000000E+01 0. -1.
         -5    1    3    3    0  502  0.26344474561E+02  0.21602362356E+02  0.14631763449E+02  0.37312924047E+02  0.41800000000E+01 0. -1.
        -11    1    1    2    0    0  0.11206299385E+02  0.80819797953E+02 -0.73301760741E+02  0.10968395058E+03  0.00000000000E+00 0. -1.
         11    1    1    2    0    0 -0.14778305970E+02 -0.54912348085E+01  0.14980475384E+02  0.21747795975E+02  0.00000000000E+00 0.  1.
</event>
<event>
 7    1  0.2900135E-009  0.8843826E+02  0.7561462E-02  0.1306678E+00
          2   -1    0    0  501    0  0.00000000000E+00  0.00000000000E+00  0.11465512968E+03  0.11465512968E+03  0.00000000000E+00 0.  1.
         -2   -1    0    0    0  501 -0.00000000000E+00 -0.00000000000E+00 -0.12032850627E+03  0.12032850627E+03  0.00000000000E+00 0. -1.
         25    2    1    2    0    0 -0.27157294799E+02 -0.11371012314E+02  0.32463502629E+02  0.13254417983E+03  0.12508901639E+03 0.  0.
          5    1    3    3  502    0  0.59169509742E+01  0.30014419990E+02 -0.34994090059E+02  0.46668345323E+02  0.41800000000E+01 0.  1.
         -5    1    3    3    0  502 -0.33074245773E+02 -0.41385432304E+02  0.67457592688E+02  0.85875834503E+02  0.41800000000E+01 0.  1.
        -11    1    1    2    0    0 -0.94105969367E+01 -0.33601473444E+02 -0.38788410186E+01  0.35109311585E+02  0.00000000000E+00 0.  1.
         11    1    1    2    0    0  0.36567891735E+02  0.44972485758E+02 -0.34258038200E+02  0.67330144531E+02  0.00000000000E+00 0. -1.
</event>
<event>
 7    1  0.2900135E-009  0.8169567E+02  0.7561462E-02  0.1324307E+00
         -1   -1    0    0    0  501 -0.00000000000E+00  0.00000000000E+00  0.38620152104E+02  0.38620152104E+02  0.00000000000E+00 0.  1.
          1   -1    0    0  501    0  0.00000000000E+00 -0.00000000000E+00 -0.43964462592E+03  0.43964462592E+03  0.00000000000E+00 0. -1.
         25    2    1    2    0    0 -0.18894846735E+02 -0.62909954342E+02 -0.26430351103E+03  0.29969718735E+03  0.12508949027E+03 0.  0.
          5    1    3    3  502    0 -0.59676746162E+01 -0.41647954028E+02 -0.90991248670E+01  0.43248487701E+02  0.41800000000E+01 0. -1.
         -5    1    3    3    0  502 -0.12927172119E+02 -0.21262000314E+02 -0.25520438616E+03  0.25644869965E+03  0.41800000000E+01 0. -1.
        -11    1    1    2    0    0  0.40469313282E+02  0.62306643201E+02 -0.50863110490E+02  0.90038542376E+02  0.00000000000E+00 0.  1.
         11    1    1    2    0    0 -0.21574466547E+02  0.60331114119E+00 -0.85857852290E+02  0.88529048289E+02  0.00000000000E+00 0. -1.
</event>
<event>
 7    1  0.2900135E-009  0.1329238E+03  0.7561462E-02  0.1223181E+00
          1   -1    0    0  501    0  0.00000000000E+00  0.00000000000E+00  0.47993390262E+03  0.47993390262E+03  0.00000000000E+00 0.  1.
         -1   -1    0    0    0  501 -0.00000000000E+00 -0.00000000000E+00 -0.47962579798E+02  0.47962579798E+02  0.00000000000E+00 0. -1.
         25    2    1    2    0    0  0.40669196099E+01 -0.10569706615E+03  0.23656122079E+03  0.28773745816E+03  0.12507287483E+03 0.  0.
          5    1    3    3  502    0 -0.30309485680E+02 -0.19872017771E+02  0.31158068114E+01  0.36616153056E+02  0.41800000000E+01 0.  1.
         -5    1    3    3    0  502  0.34376405290E+02 -0.85825048382E+02  0.23344541398E+03  0.25112130510E+03  0.41800000000E+01 0.  1.
        -11    1    1    2    0    0  0.39388344109E+02  0.29921359410E+02  0.48711032266E+02  0.69422576047E+02  0.00000000000E+00 0.  1.
         11    1    1    2    0    0 -0.43455263719E+02  0.75775706743E+02  0.14669906977E+03  0.17073644821E+03  0.00000000000E+00 0. -1.
</event>
<event>
 7    1  0.2900135E-009  0.1221802E+03  0.7561462E-02  0.1239543E+00
         -1   -1    0    0    0  501 -0.00000000000E+00  0.00000000000E+00  0.15412960399E+03  0.15412960399E+03  0.00000000000E+00 0.  1.
          1   -1    0    0  501    0  0.00000000000E+00 -0.00000000000E+00 -0.12558652516E+03  0.12558652516E+03  0.00000000000E+00 0. -1.
         25    2    1    2    0    0 -0.48064577467E+01 -0.62081956520E+02  0.77086747525E+02  0.15958744416E+03  0.12509402195E+03 0.  0.
          5    1    3    3  502    0  0.51297766634E+02 -0.60860049657E+02  0.62950720128E+02  0.10156609705E+03  0.41800000000E+01 0.  1.
         -5    1    3    3    0  502 -0.56104224380E+02 -0.12219068629E+01  0.14136027397E+02  0.58021347108E+02  0.41800000000E+01 0.  1.
        -11    1    1    2    0    0  0.46773829114E+02  0.35272964902E+02 -0.16322725593E+02  0.60814509073E+02  0.00000000000E+00 0.  1.
         11    1    1    2    0    0 -0.41967371367E+02  0.26808991618E+02 -0.32220943098E+02  0.59314175921E+02  0.00000000000E+00 0. -1.
</event>
<event>
 7    1  0.2900135E-009  0.9630823E+02  0.7561462E-02  0.1288257E+00
         -3   -1    0    0    0  501 -0.00000000000E+00  0.00000000000E+00  0.83787795745E+02  0.83787795745E+02  0.00000000000E+00 0.  1.
          3   -1    0    0  501    0  0.00000000000E+00 -0.00000000000E+00 -0.15811224315E+03  0.15811224315E+03  0.00000000000E+00 0. -1.
         25    2    1    2    0    0 -0.23785340600E+02 -0.29552228747E+02 -0.28062988756E+02  0.13369469692E+03  0.12509062313E+03 0.  0.
          5    1    3    3  502    0 -0.49303747380E+01  0.47412112593E+02 -0.25685399222E+02  0.54308647091E+02  0.41800000000E+01 0. -1.
         -5    1    3    3    0  502 -0.18854965862E+02 -0.76964341341E+02 -0.23775895339E+01  0.79386049830E+02  0.41800000000E+01 0. -1.
        -11    1    1    2    0    0  0.41019427351E+02  0.22586683948E+02 -0.66108414293E+02  0.81012802397E+02  0.00000000000E+00 0. -1.
         11    1    1    2    0    0 -0.17234086751E+02  0.69655447994E+01  0.19846955642E+02  0.27192539579E+02  0.00000000000E+00 0.  1.
</event>
<event>
 7    1  0.2900135E-009  0.9204521E+02  0.7561462E-02  0.1297973E+00
         -1   -1    0    0    0  501 -0.00000000000E+00  0.00000000000E+00  0.14422696873E+02  0.14422696873E+02  0.00000000000E+00 0.  1.
          1   -1    0    0  501    0  0.00000000000E+00 -0.00000000000E+00 -0.84533110261E+03  0.84533110261E+03  0.00000000000E+00 0. -1.
         25    2    1    2    0    0 -0.63572314716E+01  0.28773513987E+01 -0.46579863203E+03  0.48235296764E+03  0.12508927311E+03 0.  0.
          5    1    3    3  502    0  0.36885159633E+02 -0.18256393158E+02 -0.39181285588E+03  0.39399060563E+03  0.41800000000E+01 0.  1.
         -5    1    3    3    0  502 -0.43242391105E+02  0.21133744557E+02 -0.73985776149E+02  0.88362362009E+02  0.41800000000E+01 0.  1.
        -11    1    1    2    0    0  0.18354046964E+02 -0.46065717006E+02 -0.16277449988E+03  0.17016009854E+03  0.00000000000E+00 0.  1.
         11    1    1    2    0    0 -0.11996815492E+02  0.43188365608E+02 -0.20233527383E+03  0.20724073331E+03  0.00000000000E+00 0. -1.
</event>
<event>
 7    1  0.2900135E-009  0.1257862E+03  0.7561462E-02  0.1233846E+00
          2   -1    0    0  501    0  0.00000000000E+00  0.00000000000E+00  0.32198333203E+02  0.32198333203E+02  0.00000000000E+00 0. -1.
         -2   -1    0    0    0  501 -0.00000000000E+00 -0.00000000000E+00 -0.72605862719E+03  0.72605862719E+03  0.00000000000E+00 0.  1.
         25    2    1    2    0    0 -0.37266333128E+02  0.79753460281E+02 -0.21580321917E+03  0.26451436159E+03  0.12508966412E+03 0.  0.
          5    1    3    3  502    0 -0.62372766221E+02  0.82926008228E+02 -0.21509879262E+03  0.23885570496E+03  0.41800000000E+01 0.  1.
         -5    1    3    3    0  502  0.25106433093E+02 -0.31725479472E+01 -0.70442655497E+00  0.25658656627E+02  0.41800000000E+01 0.  1.
        -11    1    1    2    0    0 -0.26678844619E+02 -0.13149407754E+02 -0.15104432612E+03  0.15394497760E+03  0.00000000000E+00 0.  1.
         11    1    1    2    0    0  0.63945177747E+02 -0.66604052527E+02 -0.32701274870E+03  0.33979762121E+03  0.00000000000E+00 0. -1.
</event>
<event>
 7    1  0.2900135E-009  0.1284318E+03  0.7561462E-02  0.1229801E+00
         -1   -1    0    0    0  501 -0.00000000000E+00  0.00000000000E+00  0.23693410585E+03  0.23693410585E+03  0.00000000000E+00 0.  1.
          1   -1    0    0  501    0  0.00000000000E+00 -0.00000000000E+00 -0.94213303143E+02  0.94213303143E+02  0.00000000000E+00 0. -1.
         25    2    1    2    0    0 -0.16186028479E+02 -0.88459551661E+02  0.23615876468E+02  0.15586315452E+03  0.12509409865E+03 0.  0.
          5    1    3    3  502    0 -0.32445597809E+01 -0.10871210327E+03 -0.15322527830E+02  0.10991406108E+03  0.41800000000E+01 0.  1.
         -5    1    3    3    0  502 -0.12941468698E+02  0.20252551605E+02  0.38938404298E+02  0.45949093439E+02  0.41800000000E+01 0.  1.
        -11    1    1    2    0    0  0.32768725994E+02 -0.86181648787E+00  0.55242639019E+02  0.64236137000E+02  0.00000000000E+00 0. -1.
         11    1    1    2    0    0 -0.16582697515E+02  0.89321368149E+02  0.63862287220E+02  0.11104811747E+03  0.00000000000E+00 0.  1.
</event>
<event>
 7    1  0.2900135E-009  0.3043447E+03  0.7561462E-02  0.1083089E+00
         -3   -1    0    0    0  501 -0.00000000000E+00  0.00000000000E+00  0.72770682970E+03  0.72770682970E+03  0.00000000000E+00 0.  1.
          3   -1    0    0  501    0  0.00000000000E+00 -0.00000000000E+00 -0.15098299304E+03  0.15098299304E+03  0.00000000000E+00 0. -1.
         25    2    1    2    0    0 -0.80746742085E+01 -0.29466559810E+03  0.43486944319E+03  0.54004768036E+03  0.12508816643E+03 0.  0.
          5    1    3    3  502    0 -0.29269477931E+02 -0.27033400774E+03  0.42753074093E+03  0.50669239675E+03  0.41800000000E+01 0.  1.
         -5    1    3    3    0  502  0.21194803723E+02 -0.24331590358E+02  0.73387022522E+01  0.33355283613E+02  0.41800000000E+01 0.  1.
        -11    1    1    2    0    0 -0.12654575507E+02  0.27606303941E+03  0.14219021314E+03  0.31078770362E+03  0.00000000000E+00 0.  1.
         11    1    1    2    0    0  0.20729249715E+02  0.18602558694E+02 -0.33581967258E+00  0.27854438759E+02  0.00000000000E+00 0. -1.
</event>
<event>
 7    1  0.2900135E-009  0.1586909E+03  0.7561462E-02  0.1190183E+00
         -2   -1    0    0    0  501 -0.00000000000E+00  0.00000000000E+00  0.17741517978E+02  0.17741517978E+02  0.00000000000E+00 0.  1.
          2   -1    0    0  501    0  0.00000000000E+00 -0.00000000000E+00 -0.19291062593E+04  0.19291062593E+04  0.00000000000E+00 0. -1.
         25    2    1    2    0    0 -0.11274317843E+03  0.60307017360E+02 -0.14182825204E+04  0.14295176799E+04  0.12509008297E+03 0.  0.
          5    1    3    3  502    0  0.13818588321E+02 -0.22253230626E+02 -0.15948323469E+03  0.16167416060E+03  0.41800000000E+01 0.  1.
         -5    1    3    3    0  502 -0.12656176675E+03  0.82560247986E+02 -0.12587992857E+04  0.12678435193E+04  0.41800000000E+01 0.  1.
        -11    1    1    2    0    0  0.92754597833E+02 -0.71194033028E+02 -0.47213001654E+03  0.48639362483E+03  0.00000000000E+00 0.  1.
         11    1    1    2    0    0  0.19988580598E+02  0.10887015667E+02 -0.20952204353E+02  0.30936472516E+02  0.00000000000E+00 0. -1.
</event>
<event>
 6    1  0.2900135E-009  0.9551112E+02  0.7561462E-02  0.1290029E+00
          1   -1    0    0  501    0  0.00000000000E+00  0.00000000000E+00  0.11178668811E+03  0.11178668811E+03  0.00000000000E+00 0. -1.
         -1   -1    0    0    0  501 -0.00000000000E+00 -0.00000000000E+00 -0.16958836573E+03  0.16958836573E+03  0.00000000000E+00 0.  1.
          5    1    1    2  502    0  0.47982678275E+01  0.19013278041E+02 -0.55507844834E+02  0.59017974839E+02  0.41800000000E+01 0.  1.
         -5    1    1    2    0  502 -0.59158141835E+02  0.14555895646E+02  0.63196002831E+02  0.87879275243E+02  0.41800000000E+01 0.  1.
        -11    1    1    2    0    0  0.13376305513E+02 -0.59779936252E+02 -0.59611380778E+02  0.85475628373E+02  0.00000000000E+00 0.  1.
         11    1    1    2    0    0  0.40983568494E+02  0.26210762565E+02 -0.58784548337E+01  0.49002175380E+02  0.00000000000E+00 0. -1.
</event>
<event>
 7    1  0.2900135E-009  0.8380383E+02  0.7561462E-02  0.1318591E+00
         -1   -1    0    0    0  501 -0.00000000000E+00  0.00000000000E+00  0.12003706794E+03  0.12003706794E+03  0.00000000000E+00 0. -1.
          1   -1    0    0  501    0  0.00000000000E+00 -0.00000000000E+00 -0.13404471128E+03  0.13404471128E+03  0.00000000000E+00 0.  1.
         25    2    1    2    0    0  0.48544932886E+02 -0.17657734318E+02 -0.48096148724E+02  0.14362748344E+03  0.12508880200E+03 0.  0.
          5    1    3    3  502    0  0.43881485360E+02 -0.25242961778E+00  0.36377168517E+02  0.57152596332E+02  0.41800000000E+01 0.  1.
         -5    1    3    3    0  502  0.46634475258E+01 -0.17405304700E+02 -0.84473317241E+02  0.86474887108E+02  0.41800000000E+01 0.  1.
        -11    1    1    2    0    0 -0.56560728441E+02  0.47666862394E+02  0.25273262824E+02  0.78166383990E+02  0.00000000000E+00 0.  1.
         11    1    1    2    0    0  0.80157955551E+01 -0.30009128076E+02  0.88152425616E+01  0.32287911789E+02  0.00000000000E+00 0. -1.
</event>
<event>
 7    1  0.2900135E-009  0.1150306E+03  0.7561462E-02  0.1251528E+00
          2   -1    0    0  501    0  0.00000000000E+00  0.00000000000E+00  0.14342843853E+03  0.14342843853E+03  0.00000000000E+00 0. -1.
         -2   -1    0    0    0  501 -0.00000000000E+00 -0.00000000000E+00 -0.11019315428E+03  0.11019315428E+03  0.00000000000E+00 0.  1.
         25    2    1    2    0    0 -0.57656812952E+02  0.21654331970E+02  0.55621224212E+01  0.13953852893E+03  0.12508735219E+03 0.  0.
          5    1    3    3  502    0 -0.64600744460E+02  0.66708764630E+02  0.10260535989E+02  0.93520406661E+02  0.41800000000E+01 0.  1.
         -5    1    3    3    0  502  0.69439315080E+01 -0.45054432661E+02 -0.46984135681E+01  0.46018122269E+02  0.41800000000E+01 0.  1.
        -11    1    1    2    0    0  0.20155702208E+02 -0.43489328758E+02 -0.17888999639E+02  0.51162392002E+02  0.00000000000E+00 0.  1.
         11    1    1    2    0    0  0.37501110744E+02  0.21834996788E+02  0.45562161465E+02  0.62920671874E+02  0.00000000000E+00 0. -1.
</event>
<event>
 7    1  0.2900135E-009  0.1011566E+03  0.7561462E-02  0.1277882E+00
          2   -1    0    0  501    0  0.00000000000E+00  0.00000000000E+00  0.12308744888E+04  0.12308744888E+04  0.00000000000E+00 0.  1.
         -2   -1    0    0    0  501 -0.00000000000E+00 -0.00000000000E+00 -0.15555605022E+02  0.15555605022E+02  0.00000000000E+00 0. -1.
         25    2    1    2    0    0 -0.92878633134E+01 -0.76553027762E+02  0.82532393421E+03  0.83830357731E+03  0.12508661353E+03 0.  0.
          5    1    3    3  502    0  0.19677833415E+02  0.76006702151E+01  0.24752214947E+02  0.32789203413E+02  0.41800000000E+01 0.  1.
         -5    1    3    3    0  502 -0.28965696729E+02 -0.84153697977E+02  0.80057171926E+03  0.80551437389E+03  0.41800000000E+01 0.  1.
        -11    1    1    2    0    0 -0.16625463856E+02  0.56642066211E+02  0.35641204842E+03  0.36126759884E+03  0.00000000000E+00 0.  1.
         11    1    1    2    0    0  0.25913327170E+02  0.19910961551E+02  0.33582901111E+02  0.46858917635E+02  0.00000000000E+00 0. -1.
</event>
<event>
 7    1  0.2900135E-009  0.1192064E+03  0.7561462E-02  0.1244412E+00
          2   -1    0    0  501    0  0.00000000000E+00  0.00000000000E+00  0.18143920655E+04  0.18143920655E+04  0.00000000000E+00 0.  1.
         -2   -1    0    0    0  501 -0.00000000000E+00 -0.00000000000E+00 -0.21184551203E+02  0.21184551203E+02  0.00000000000E+00 0. -1.
         25    2    1    2    0    0 -0.17761784435E+02 -0.61147019835E+02  0.16408487177E+04  0.16468408464E+04  0.12508325255E+03 0.  0.
          5    1    3    3  502    0 -0.24952430029E+01 -0.92240492577E+02  0.80817016504E+03  0.81343163375E+03  0.41800000000E+01 0.  1.
         -5    1    3    3    0  502 -0.15266541432E+02  0.31093472742E+02  0.83267855261E+03  0.83340921264E+03  0.41800000000E+01 0.  1.
        -11    1    1    2    0    0 -0.12270869596E+02 -0.20648074052E+02  0.28030615939E+02  0.36913854210E+02  0.00000000000E+00 0. -1.
         11    1    1    2    0    0  0.30032654031E+02  0.81795093887E+02  0.12432818066E+03  0.15182191607E+03  0.00000000000E+00 0.  1.
</event>
<event>
 7    1  0.2900135E-009  0.1558221E+03  0.7561462E-02  0.1193496E+00
          2   -1    0    0  501    0  0.00000000000E+00  0.00000000000E+00  0.13514389838E+04  0.13514389838E+04  0.00000000000E+00 0. -1.
         -2   -1    0    0    0  501 -0.00000000000E+00 -0.00000000000E+00 -0.19466380970E+02  0.19466380970E+02  0.00000000000E+00 0.  1.
         25    2    1    2    0    0  0.10754641783E+03 -0.50387432510E+02  0.80172914657E+03  0.82007472189E+03  0.12509116549E+03 0.  0.
          5    1    3    3  502    0  0.87129423709E+02 -0.85507094434E+02  0.69779454490E+03  0.70840503877E+03  0.41800000000E+01 0. -1.
         -5    1    3    3    0  502  0.20416994121E+02  0.35119661924E+02  0.10393460167E+03  0.11166968312E+03  0.41800000000E+01 0. -1.
        -11    1    1    2    0    0 -0.33711587447E+02  0.65155236054E+02  0.28484572078E+03  0.29414071558E+03  0.00000000000E+00 0.  1.
         11    1    1    2    0    0 -0.73834830383E+02 -0.14767803544E+02  0.24539773549E+03  0.25668992732E+03  0.00000000000E+00 0. -1.
</event>
<event>
 7    1  0.2900135E-009  0.6635676E+02  0.7561462E-02  0.1372939E+00
         -2   -1    0    0    0  501 -0.00000000000E+00  0.00000000000E+00  0.97799894766E+02  0.97799894766E+02  0.00000000000E+00 0.  1.
          2   -1    0    0  501    0  0.00000000000E+00 -0.00000000000E+00 -0.21606500322E+03  0.21606500322E+03  0.00000000000E+00 0. -1.
         25    2    1    2    0    0  0.30005823279E+02  0.19856202863E+02 -0.16144047366E+03  0.20737858206E+03  0.12509289164E+03 0.  0.
          5    1    3    3  502    0 -0.63524217129E+01  0.20631090778E+02  0.15364333468E+02  0.26824062168E+02  0.41800000000E+01 0. -1.
         -5    1    3    3    0  502  0.36358244992E+02 -0.77488791498E+00 -0.17680480712E+03  0.18055451989E+03  0.41800000000E+01 0. -1.
        -11    1    1    2    0    0 -0.65522118562E+01  0.23733232650E+02 -0.15980922260E+02  0.29352813979E+02  0.00000000000E+00 0. -1.
         11    1    1    2    0    0 -0.23453611423E+02 -0.43589435512E+02  0.59156287461E+02  0.77133501951E+02  0.00000000000E+00 0.  1.
</event>
<event>
 7    1  0.3720425E-009  0.7021443E+02  0.7561462E-02  0.1359365E+00
         -2   -1    0    0    0  501 -0.00000000000E+00  0.00000000000E+00  0.33382119716E+02  0.33382119716E+02  0.00000000000E+00 0. -1.
          2   -1    0    0  501    0  0.00000000000E+00 -0.00000000000E+00 -0.61918361681E+03  0.61918361681E+03  0.00000000000E+00 0.  1.
         25    2    1    2    0    0  0.13110483739E+02 -0.14926017789E+02 -0.52722366076E+03  0.54222467757E+03  0.12509253258E+03 0.  0.
          5    1    3    3  502    0  0.25587083551E+02  0.27073234581E+02 -0.46213258176E+03  0.46365035792E+03  0.41800000000E+01 0. -1.
         -5    1    3    3    0  502 -0.12476599812E+02 -0.41999252370E+02 -0.65091078997E+02  0.78574319644E+02  0.41800000000E+01 0. -1.
        -11    1    1    2    0    0 -0.24304618682E+01  0.35588890421E+02 -0.74194966345E+02  0.82324779363E+02  0.00000000000E+00 0.  1.
         11    1    1    2    0    0 -0.10680021871E+02 -0.20662872632E+02  0.15617130012E+02  0.28016279596E+02  0.00000000000E+00 0. -1.
</event>
<event>
 7    1  0.2900135E-009  0.9913718E+02  0.7561462E-02  0.1282121E+00
          1   -1    0    0  501    0  0.00000000000E+00  0.00000000000E+00  0.34180913053E+03  0.34180913053E+03  0.00000000000E+00 0. -1.
         -1   -1    0    0    0  501 -0.00000000000E+00 -0.00000000000E+00 -0.46264969390E+02  0.46264969390E+02  0.00000000000E+00 0.  1.
         25    2    1    2    0    0  0.49152503276E+02  0.14211779633E+02  0.10809300975E+03  0.17305934932E+03  0.12508995313E+03 0.  0.
          5    1    3    3  502    0  0.44426100363E+02 -0.49512588032E+02  0.77101604834E+02  0.10191812712E+03  0.41800000000E+01 0. -1.
         -5    1    3    3    0  502  0.47264029128E+01  0.63724367665E+02  0.30991404911E+02  0.71141222208E+02  0.41800000000E+01 0. -1.
        -11    1    1    2    0    0  0.28531107826E+00 -0.18000173734E+02 -0.29685675564E+01  0.18245548778E+02  0.00000000000E+00 0.  1.
         11    1    1    2    0    0 -0.49437814354E+02  0.37883941010E+01  0.19041971895E+03  0.19676920182E+03  0.00000000000E+00 0. -1.
</event>
<event>
 7    1  0.2900135E-009  0.3047888E+03  0.7561462E-02  0.1082871E+00
         -2   -1    0    0    0  501 -0.00000000000E+00  0.00000000000E+00  0.90151710203E+03  0.90151710203E+03  0.00000000000E+00 0.  1.
          2   -1    0    0  501    0  0.00000000000E+00 -0.00000000000E+00 -0.11313421784E+03  0.11313421784E+03  0.00000000000E+00 0. -1.
         25    2    1    2    0    0  0.21758773847E+03  0.19441782975E+03  0.29094808791E+03  0.43063113062E+03  0.12509861848E+03 0.  0.
          5    1    3    3  502    0  0.11391018977E+03  0.17884996190E+03  0.20552244732E+03  0.29532996623E+03  0.41800000000E+01 0. -1.
         -5    1    3    3    0  502  0.10367754870E+03  0.15567867854E+02  0.85425640589E+02  0.13530116439E+03  0.41800000000E+01 0. -1.
        -11    1    1    2    0    0 -0.12155946972E+03 -0.12266356463E+03  0.37405280447E+03  0.41199339230E+03  0.00000000000E+00 0.  1.
         11    1    1    2    0    0 -0.96028268747E+02 -0.71754265129E+02  0.12338199182E+03  0.17202679695E+03  0.00000000000E+00 0. -1.
</event>
<event>
 7    1  0.2900135E-009  0.1507145E+03  0.7561462E-02  0.1199598E+00
         -2   -1    0    0    0  501 -0.00000000000E+00  0.00000000000E+00  0.23994416289E+03  0.23994416289E+03  0.00000000000E+00 0.  1.
          2   -1    0    0  501    0  0.00000000000E+00 -0.00000000000E+00 -0.11179324046E+03  0.11179324046E+03  0.00000000000E+00 0. -1.
         25    2    1    2    0    0 -0.11268166272E+03  0.11706458477E+02  0.24011185748E+02  0.17046158977E+03  0.12508564372E+03 0.  0.
          5    1    3    3  502    0  0.18886713786E+02 -0.59755004204E+01 -0.22002502461E+02  0.29899783903E+02  0.41800000000E+01 0. -1.
         -5    1    3    3    0  502 -0.13156837651E+03  0.17681958897E+02  0.46013688209E+02  0.14056180587E+03  0.41800000000E+01 0. -1.
        -11    1    1    2    0    0  0.59759582007E+02  0.41940876730E+02  0.52354827575E+02  0.89840262427E+02  0.00000000000E+00 0. -1.
         11    1    1    2    0    0  0.52922080714E+02 -0.53647335207E+02  0.51784909111E+02  0.91435551147E+02  0.00000000000E+00 0.  1.
</event>
<event>
 7    1  0.2900135E-009  0.1139011E+03  0.7561462E-02  0.1253511E+00
         -1   -1    0    0    0  501 -0.00000000000E+00  0.00000000000E+00  0.36578729760E+03  0.36578729760E+03  0.00000000000E+00 0.  1.
          1   -1    0    0  501    0  0.00000000000E+00 -0.00000000000E+00 -0.59244671678E+02  0.59244671678E+02  0.00000000000E+00 0. -1.
         25    2    1    2    0    0 -0.22901263881E+01 -0.78725244157E+02  0.16178477200E+03  0.21914450248E+03  0.12508833586E+03 0.  0.
          5    1    3    3  502    0  0.95830380698E+01 -0.10732067897E+03  0.88566088537E+02  0.13953847925E+03  0.41800000000E+01 0. -1.
         -5    1    3    3    0  502 -0.11873164458E+02  0.28595434810E+02  0.73218683466E+02  0.79606023231E+02  0.41800000000E+01 0. -1.
        -11    1    1    2    0    0  0.21610579481E+02  0.41797205001E+02 -0.78387385307E+01  0.47701879555E+02  0.00000000000E+00 0. -1.
         11    1    1    2    0    0 -0.19320453093E+02  0.36928039156E+02  0.15259659245E+03  0.15818558724E+03  0.00000000000E+00 0.  1.
</event>
<event>
 7    1  0.2900135E-009  0.1570248E+03  0.7561462E-02  0.1192097E+00
         -1   -1    0    0    0  501 -0.00000000000E+00  0.00000000000E+00  0.16846003109E+03  0.16846003109E+03  0.00000000000E+00 0.  1.
          1   -1    0    0  501    0  0.00000000000E+00 -0.00000000000E+00 -0.23818824630E+03  0.23818824630E+03  0.00000000000E+00 0. -1.
         25    2    1    2    0    0 -0.32308780297E+02  0.11555336010E+03  0.80514870335E+02  0.19111975028E+03  0.12509068025E+03 0.  0.
          5    1    3    3  502    0  0.32745794269E+02  0.96929033485E+02  0.30408007252E+02  0.10681593458E+03  0.41800000000E+01 0.  1.
         -5    1    3    3    0  502 -0.65054574566E+02  0.18624326618E+02  0.50106863084E+02  0.84303815702E+02  0.41800000000E+01 0.  1.
        -11    1    1    2    0    0 -0.19561256369E+02 -0.76409500585E+02 -0.42211226323E+02  0.89458605836E+02  0.00000000000E+00 0.  1.
         11    1    1    2    0    0  0.51870036666E+02 -0.39143859518E+02 -0.10803185922E+03  0.12606992127E+03  0.00000000000E+00 0. -1.
</event>
<event>
 7    1  0.2900135E-009  0.1099090E+03  0.7561462E-02  0.1260738E+00
         -2   -1    0    0    0  501 -0.00000000000E+00  0.00000000000E+00  0.25731145820E+02  0.25731145820E+02  0.00000000000E+00 0.  1.
          2   -1    0    0  501    0  0.00000000000E+00 -0.00000000000E+00 -0.53825952516E+03  0.53825952516E+03  0.00000000000E+00 0. -1.
         25    2    1    2    0    0 -0.35405015948E+02  0.12482355360E+02 -0.23432630040E+03  0.26826378723E+03  0.12508924864E+03 0.  0.
          5    1    3    3  502    0 -0.13628617342E+02 -0.56081129774E+02 -0.90939365087E+02  0.10778809234E+03  0.41800000000E+01 0.  1.
         -5    1    3    3    0  502 -0.21776398606E+02  0.68563485134E+02 -0.14338693532E+03  0.16047569489E+03  0.41800000000E+01 0.  1.
        -11    1    1    2    0    0  0.18089461359E+01 -0.43875521427E+02 -0.20207408107E+03  0.20679039607E+03  0.00000000000E+00 0. -1.
         11    1    1    2    0    0  0.33596069812E+02  0.31393166067E+02 -0.76127997863E+02  0.88936487681E+02  0.00000000000E+00 0.  1.
</event>
<event>
 7    1  0.2900135E-009  0.1193964E+03  0.7561462E-02  0.1244096E+00
          2   -1    0    0  501    0  0.00000000000E+00  0.00000000000E+00  0.21678525102E+03  0.21678525102E+03  0.00000000000E+00 0.  1.
         -2   -1    0    0    0  501 -0.00000000000E+00 -0.00000000000E+00 -0.89927613189E+02  0.89927613189E+02  0.00000000000E+00 0. -1.
         25    2    1    2    0    0  0.71994983031E+02 -0.32890048834E+02  0.11181835153E+03  0.18551316401E+03  0.12508699928E+03 0.  0.
          5    1    3    3  502    0 -0.22347059771E+02 -0.19528010376E+02  0.79254791974E+02  0.84732099705E+02  0.41800000000E+01 0.  1.
         -5    1    3    3    0  502  0.94342042803E+02 -0.13362038458E+02  0.32563559560E+02  0.10078106431E+03  0.41800000000E+01 0.  1.
        -11    1    1    2    0    0 -0.22785745312E+00  0.41200094270E+02 -0.13740773918E+02  0.43431653834E+02  0.00000000000E+00 0. -1.
         11    1    1    2    0    0 -0.71767125578E+02 -0.83100454366E+01  0.28780060217E+02  0.77768046362E+02  0.00000000000E+00 0.  1.
</event>
<event>
 7    1  0.2900135E-009  0.1132365E+03  0.7561462E-02  0.1254691E+00
          2   -1    0    0  501    0  0.00000000000E+00  0.00000000000E+00  0.81543379853E+03  0.81543379853E+03  0.00000000000E+00 0. -1.
         -2   -1    0    0    0  501 -0.00000000000E+00 -0.00000000000E+00 -0.25514070203E+02  0.25514070203E+02  0.00000000000E+00 0.  1.
         25    2    1    2    0    0 -0.54750116814E+02 -0.34519913280E+01  0.66272492987E+03  0.67665406643E+03  0.12508757495E+03 0.  0.
          5    1    3    3  502    0  0.32625902743E+02  0.93060935746E+01  0.76352983731E+02  0.83655863107E+02  0.41800000000E+01 0.  1.
         -5    1    3    3    0  502 -0.87376019558E+02 -0.12758084903E+02  0.58637194614E+03  0.59299820332E+03  0.41800000000E+01 0.  1.
        -11    1    1    2    0    0 -0.24477847839E+02 -0.13457734508E+01  0.33173273775E+02  0.41248542204E+02  0.00000000000E+00 0. -1.
         11    1    1    2    0    0  0.79227964653E+02  0.47977647788E+01  0.94021524683E+02  0.12304526010E+03  0.00000000000E+00 0.  1.
</event>
<event>
 7    1  0.2900135E-009  0.1146143E+03  0.7561462E-02  0.1252256E+00
         -1   -1    0    0    0  501 -0.00000000000E+00  0.00000000000E+00  0.22303129014E+03  0.22303129014E+03  0.00000000000E+00 0.  1.
          1   -1    0    0  501    0  0.00000000000E+00 -0.00000000000E+00 -0.65802181297E+02  0.65802181297E+02  0.00000000000E+00 0. -1.
         25    2    1    2    0    0 -0.11151260292E+02 -0.46581825564E+02  0.64725614830E+02  0.14876460370E+03  0.12508910832E+03 0.  0.
          5    1    3    3  502    0  0.37640802478E+02  0.25925640228E+02  0.28779526834E+02  0.54172893565E+02  0.41800000000E+01 0.  1.
         -5    1    3    3    0  502 -0.48792062770E+02 -0.72507465792E+02  0.35946087996E+02  0.94591710139E+02  0.41800000000E+01 0.  1.
        -11    1    1    2    0    0  0.36754140852E+02 -0.61059722051E+01  0.65962739699E+02  0.75757724325E+02  0.00000000000E+00 0.  1.
         11    1    1    2    0    0 -0.25602880560E+02  0.52687797769E+02  0.26540754312E+02  0.64311143406E+02  0.00000000000E+00 0. -1.
</event>
<event>
 7    1  0.2900135E-009  0.1591856E+03  0.7561462E-02  0.1189619E+00
          2   -1    0    0  501    0  0.00000000000E+00  0.00000000000E+00  0.50895927160E+02  0.50895927160E+02  0.00000000000E+00 0.  1.
         -2   -1    0    0    0  501 -0.00000000000E+00 -0.00000000000E+00 -0.62219611270E+03  0.62219611270E+03  0.00000000000E+00 0. -1.
         25    2    1    2    0    0 -0.28262103596E+02 -0.12063569846E+03 -0.18852321335E+03  0.25795371141E+03  0.12508955598E+03 0.  0.
          5    1    3    3  502    0  0.22030824996E+02 -0.10203289736E+03 -0.64514048871E+02  0.12278275243E+03  0.41800000000E+01 0.  1.
         -5    1    3    3    0  502 -0.50292928592E+02 -0.18602801099E+02 -0.12400916448E+03  0.13517095898E+03  0.41800000000E+01 0.  1.
        -11    1    1    2    0    0  0.65091467530E+02  0.95328021994E+02 -0.25961468659E+03  0.28411989796E+03  0.00000000000E+00 0.  1.
         11    1    1    2    0    0 -0.36829363934E+02  0.25307676461E+02 -0.12316228559E+03  0.13101843049E+03  0.00000000000E+00 0. -1.
</event>
<event>
 7    1  0.2900135E-009  0.9538642E+02  0.7561462E-02  0.1290308E+00
          2   -1    0    0  501    0  0.00000000000E+00  0.00000000000E+00  0.98368782477E+02  0.98368782477E+02  0.00000000000E+00 0.  1.
         -2   -1    0    0    0  501 -0.00000000000E+00 -0.00000000000E+00 -0.17687383496E+03  0.17687383496E+03  0.00000000000E+00 0. -1.
         25    2    1    2    0    0  0.43242643427E+02  0.60438129188E+02 -0.37083630812E+02  0.15014853872E+03  0.12508674725E+03 0.  0.
          5    1    3    3  502    0 -0.28154498387E+01  0.46806964756E+02 -0.75177347956E+02  0.88701323289E+02  0.41800000000E+01 0. -1.
         -5    1    3    3    0  502  0.46058093266E+02  0.13631164432E+02  0.38093717143E+02  0.61447215436E+02  0.41800000000E+01 0. -1.
        -11    1    1    2    0    0  0.19877120051E+01 -0.48715662362E+02 -0.57767449462E+02  0.75592625141E+02  0.00000000000E+00 0. -1.
         11    1    1    2    0    0 -0.45230355432E+02 -0.11722466826E+02  0.16346027793E+02  0.49501453571E+02  0.00000000000E+00 0.  1.
</event>
<event>
 7    1  0.2900135E-009  0.1020529E+03  0.7561462E-02  0.1276037E+00
          1   -1    0    0  501    0  0.00000000000E+00  0.00000000000E+00  0.20876615716E+03  0.20876615716E+03  0.00000000000E+00 0. -1.
         -1   -1    0    0    0  501 -0.00000000000E+00 -0.00000000000E+00 -0.13304800282E+03  0.13304800282E+03  0.00000000000E+00 0.  1.
         25    2    1    2    0    0 -0.10134537583E+02 -0.24589777948E+02 -0.86215264281E+02  0.15422936283E+03  0.12508500522E+03 0.  0.
          5    1    3    3  502    0  0.48751944890E+02 -0.32692127959E+02 -0.13789772892E+02  0.60441356681E+02  0.41800000000E+01 0. -1.
         -5    1    3    3    0  502 -0.58886482474E+02  0.81023500110E+01 -0.72425491389E+02  0.93788006146E+02  0.41800000000E+01 0. -1.
        -11    1    1    2    0    0  0.19691273609E+01 -0.30205738094E+02  0.23011154546E+02  0.38023378465E+02  0.00000000000E+00 0.  1.
         11    1    1    2    0    0  0.81654102226E+01  0.54795516041E+02  0.13892226408E+03  0.14956141869E+03  0.00000000000E+00 0. -1.
</event>
<event>
 7    1  0.3484094E-009  0.1441600E+03  0.7561462E-02  0.1207839E+00
         -1   -1    0    0    0  501 -0.00000000000E+00  0.00000000000E+00  0.88190274235E+02  0.88190274235E+02  0.00000000000E+00 0.  1.
          1   -1    0    0  501    0  0.00000000000E+00 -0.00000000000E+00 -0.26291061039E+03  0.26291061039E+03  0.00000000000E+00 0. -1.
         25    2    1    2    0    0  0.46712846475E+02  0.95511110168E+02 -0.90200564473E+02  0.18731893016E+03  0.12509107711E+03 0.  0.
          5    1    3    3  502    0  0.54946422345E+02  0.12135256498E+03 -0.88168564658E+02  0.15980213562E+03  0.41800000000E+01 0. -1.
         -5    1    3    3    0  502 -0.82335758693E+01 -0.25841454810E+02 -0.20319998156E+01  0.27516794537E+02  0.41800000000E+01 0. -1.
        -11    1    1    2    0    0 -0.65010244884E+02 -0.83023394384E+02 -0.92466448995E+02  0.14024713952E+03  0.00000000000E+00 0. -1.
         11    1    1    2    0    0  0.18297398409E+02 -0.12487715783E+02  0.79466773150E+01  0.23534814942E+02  0.00000000000E+00 0.  1.
</event>
<event>
 7    1  0.5201176E-009  0.9026841E+02  0.7561462E-02  0.1302203E+00
          1   -1    0    0  501    0  0.00000000000E+00  0.00000000000E+00  0.19846151515E+03  0.19846151515E+03  0.00000000000E+00 0. -1.
         -1   -1    0    0    0  501 -0.00000000000E+00 -0.00000000000E+00 -0.82847422142E+02  0.82847422142E+02  0.00000000000E+00 0.  1.
         25    2    1    2    0    0 -0.44565200541E+01 -0.71149500181E+01  0.13886779303E+03  0.18708813848E+03  0.12508886655E+03 0.  0.
          5    1    3    3  502    0  0.29683614345E+02  0.48219361958E+02  0.43209373417E+02  0.71349465164E+02  0.41800000000E+01 0. -1.
         -5    1    3    3    0  502 -0.34140134399E+02 -0.55334311976E+02  0.95658419615E+02  0.11573867332E+03  0.41800000000E+01 0. -1.
        -11    1    1    2    0    0  0.30970108147E+02 -0.65690887410E+00 -0.48001280672E+02  0.57128819995E+02  0.00000000000E+00 0.  1.
         11    1    1    2    0    0 -0.26513588093E+02  0.77718588922E+01  0.24747580647E+02  0.37091978811E+02  0.00000000000E+00 0. -1.
</event>
<event>
 7    1  0.2900135E-009  0.1216034E+03  0.7561462E-02  0.1240475E+00
          3   -1    0    0  501    0  0.00000000000E+00  0.00000000000E+00  0.10967404372E+03  0.10967404372E+03  0.00000000000E+00 0. -1.
         -3   -1    0    0    0  501 -0.00000000000E+00 -0.00000000000E+00 -0.31517736826E+03  0.31517736826E+03  0.00000000000E+00 0.  1.
         25    2    1    2    0    0 -0.17538161387E+02 -0.10471009351E+03  0.12522598605E+02  0.16455123477E+03  0.12509397508E+03 0.  0.
          5    1    3    3  502    0 -0.12549698053E+02  0.23699937589E+01  0.49335573917E+02  0.51132993706E+02  0.41800000000E+01 0.  1.
         -5    1    3    3    0  502 -0.49884633347E+01 -0.10708008726E+03 -0.36812975311E+02  0.11341824106E+03  0.41800000000E+01 0.  1.
        -11    1    1    2    0    0 -0.22340386150E+02  0.26186590246E+02 -0.12363678973E+02  0.36574457204E+02  0.00000000000E+00 0. -1.
         11    1    1    2    0    0  0.39878547537E+02  0.78523503259E+02 -0.20566224417E+03  0.22372572001E+03  0.00000000000E+00 0.  1.
</event>
<event>
 7    1  0.2900135E-009  0.1028102E+03  0.7561462E-02  0.1274495E+00
          1   -1    0    0  501    0  0.00000000000E+00  0.00000000000E+00  0.23896333430E+03  0.23896333430E+03  0.00000000000E+00 0. -1.
         -1   -1    0    0    0  501 -0.00000000000E+00 -0.00000000000E+00 -0.69467453799E+02  0.69467453799E+02  0.00000000000E+00 0.  1.
         25    2    1    2    0    0 -0.52942363580E+02  0.45571474194E+02  0.90626301004E+02  0.16952787933E+03  0.12508765853E+03 0.  0.
          5    1    3    3  502    0 -0.48169249130E+02 -0.17475526834E+02  0.92839213120E+02  0.10612380738E+03  0.41800000000E+01 0.  1.
         -5    1    3    3    0  502 -0.47731144492E+01  0.63047001029E+02 -0.22129121151E+01  0.63404071954E+02  0.41800000000E+01 0.  1.
        -11    1    1    2    0    0 -0.12660245491E+02 -0.10539852386E+02 -0.12798475182E+02  0.20860759124E+02  0.00000000000E+00 0.  1.
         11    1    1    2    0    0  0.65602609071E+02 -0.35031621808E+02  0.91668054678E+02  0.11804214964E+03  0.00000000000E+00 0. -1.
</event>
<event>
 7    1  0.2900135E-009  0.2103893E+03  0.7561462E-02  0.1141258E+00
          2   -1    0    0  501    0  0.00000000000E+00  0.00000000000E+00  0.65559244046E+03  0.65559244046E+03  0.00000000000E+00 0. -1.
         -2   -1    0    0    0  501 -0.00000000000E+00 -0.00000000000E+00 -0.13790346023E+03  0.13790346023E+03  0.00000000000E+00 0.  1.
         25    2    1    2    0    0 -0.17149597264E+03  0.56638052907E+02  0.54357746391E+03  0.58628950499E+03  0.12506073212E+03 0.  0.
          5    1    3    3  502    0 -0.23925573057E+02  0.67151024971E+02  0.19068857805E+03  0.20362047883E+03  0.41800000000E+01 0. -1.
         -5    1    3    3    0  502 -0.14757039959E+03 -0.10512972063E+02  0.35288888586E+03  0.38266902616E+03  0.41800000000E+01 0. -1.
        -11    1    1    2    0    0  0.97098672523E+02 -0.77348160111E+02  0.44859200505E+01  0.12422163079E+03  0.00000000000E+00 0. -1.
         11    1    1    2    0    0  0.74397300121E+02  0.20710107204E+02 -0.30374403733E+02  0.82984764914E+02  0.00000000000E+00 0.  1.
</event>
<event>
 7    1  0.2900135E-009  0.1132977E+03  0.7561462E-02  0.1254582E+00
          2   -1    0    0  501    0  0.00000000000E+00  0.00000000000E+00  0.38978118332E+03  0.38978118332E+03  0.00000000000E+00 0. -1.
         -2   -1    0    0    0  501 -0.00000000000E+00 -0.00000000000E+00 -0.46806376651E+02  0.46806376651E+02  0.00000000000E+00 0.  1.
         25    2    1    2    0    0  0.50553189849E+02 -0.56451978106E+02  0.23420900121E+03  0.27612346189E+03  0.12509140307E+03 0.  0.
          5    1    3    3  502    0 -0.26324319779E+02 -0.41017773523E+02  0.16278578414E+03  0.16997679687E+03  0.41800000000E+01 0.  1.
         -5    1    3    3    0  502  0.76877509628E+02 -0.15434204583E+02  0.71423217071E+02  0.10614666502E+03  0.41800000000E+01 0.  1.
        -11    1    1    2    0    0 -0.32006890405E+02  0.69475007687E+02  0.11392442004E+03  0.13722241511E+03  0.00000000000E+00 0. -1.
         11    1    1    2    0    0 -0.18546299444E+02 -0.13023029581E+02 -0.51586145900E+01  0.23241682965E+02  0.00000000000E+00 0.  1.
</event>
<event>
 7    1  0.2900135E-009  0.1060158E+03  0.7561462E-02  0.1268131E+00
         -1   -1    0    0    0  501 -0.00000000000E+00  0.00000000000E+00  0.28135583165E+02  0.28135583165E+02  0.00000000000E+00 0. -1.
          1   -1    0    0  501    0  0.00000000000E+00 -0.00000000000E+00 -0.52276407748E+03  0.52276407748E+03  0.00000000000E+00 0.  1.
         25    2    1    2    0    0  0.16447462253E+02 -0.96810039077E+01 -0.38872195954E+03  0.40879910800E+03  0.12509079909E+03 0.  0.
          5    1    3    3  502    0  0.19178446298E+02 -0.66144947242E+02 -0.18949205330E+03  0.20166228579E+03  0.41800000000E+01 0.  1.
         -5    1    3    3    0  502 -0.27309840443E+01  0.56463943335E+02 -0.19922990625E+03  0.20713682221E+03  0.41800000000E+01 0.  1.
        -11    1    1    2    0    0 -0.33990570386E+02  0.39279503867E+02 -0.90617199140E+02  0.10444958152E+03  0.00000000000E+00 0.  1.
         11    1    1    2    0    0  0.17543108133E+02 -0.29598499959E+02 -0.15289335629E+02  0.37650971127E+02  0.00000000000E+00 0. -1.
</event>
<event>
 7    1  0.2900135E-009  0.1135220E+03  0.7561462E-02  0.1254183E+00
          3   -1    0    0  501    0  0.00000000000E+00  0.00000000000E+00  0.18170521827E+03  0.18170521827E+03  0.00000000000E+00 0. -1.
         -3   -1    0    0    0  501 -0.00000000000E+00 -0.00000000000E+00 -0.85581435618E+02  0.85581435618E+02  0.00000000000E+00 0.  1.
         25    2    1    2    0    0  0.63989022546E+02  0.15025785016E+02  0.54465669654E+02  0.15144132974E+03  0.12509035919E+03 0.  0.
          5    1    3    3  502    0  0.69525065463E+02 -0.36538898832E+02  0.60269532075E+02  0.99089428054E+02  0.41800000000E+01 0. -1.
         -5    1    3    3    0  502 -0.55360429166E+01  0.51564683848E+02 -0.58038624216E+01  0.52351901689E+02  0.41800000000E+01 0. -1.
        -11    1    1    2    0    0 -0.62852286532E+02  0.16366991014E+02  0.51540827814E+02  0.82914083538E+02  0.00000000000E+00 0. -1.
         11    1    1    2    0    0 -0.11367360140E+01 -0.31392776030E+02 -0.98827148171E+01  0.32931240605E+02  0.00000000000E+00 0.  1.
</event>
<event>
 7    1  0.2900135E-009  0.1105474E+03  0.7561462E-02  0.1259560E+00
          1   -1    0    0  501    0  0.00000000000E+00  0.00000000000E+00  0.12398469994E+03  0.12398469994E+03  0.00000000000E+00 0. -1.
         -1   -1    0    0    0  501 -0.00000000000E+00 -0.00000000000E+00 -0.99581642267E+02  0.99581642267E+02  0.00000000000E+00 0.  1.
         25    2    1    2    0    0  0.23562802111E+02  0.20228892398E+02  0.13097110684E+02  0.12955140966E+03  0.12509044610E+03 0.  0.
          5    1    3    3  502    0  0.68513769715E+02 -0.16479488350E+02  0.45104227244E+01  0.70735609773E+02  0.41800000000E+01 0.  1.
         -5    1    3    3    0  502 -0.44950967604E+02  0.36708380748E+02  0.85866879597E+01  0.58815799882E+02  0.41800000000E+01 0.  1.
        -11    1    1    2    0    0  0.10901183269E+01  0.33334874116E+02  0.10767530396E+02  0.35047708929E+02  0.00000000000E+00 0.  1.
         11    1    1    2    0    0 -0.24652920438E+02 -0.53563766514E+02  0.53841659256E+00  0.58967223623E+02  0.00000000000E+00 0. -1.
</event>
<event>
 7    1  0.2900135E-009  0.7883481E+02  0.7561462E-02  0.1332391E+00
          2   -1    0    0  501    0  0.00000000000E+00  0.00000000000E+00  0.19601706823E+03  0.19601706823E+03  0.00000000000E+00 0. -1.
         -2   -1    0    0    0  501 -0.00000000000E+00 -0.00000000000E+00 -0.86407317836E+02  0.86407317836E+02  0.00000000000E+00 0.  1.
         25    2    1    2    0    0 -0.55847806363E+01  0.28373548507E+02  0.11412792650E+03  0.17178106274E+03  0.12508917570E+03 0.  0.
          5    1    3    3  502    0  0.15379390124E+02 -0.30601284174E+02 -0.71543059573E+01  0.35236638992E+02  0.41800000000E+01 0. -1.
         -5    1    3    3    0  502 -0.20964170761E+02  0.58974832681E+02  0.12128223246E+03  0.13654442375E+03  0.41800000000E+01 0. -1.
        -11    1    1    2    0    0  0.28087247852E+02 -0.60320723292E+01 -0.48531625103E+02  0.56396790898E+02  0.00000000000E+00 0.  1.
         11    1    1    2    0    0 -0.22502467215E+02 -0.22341476177E+02  0.44013448996E+02  0.54246532434E+02  0.00000000000E+00 0. -1.
</event>
<event>
 7    1  0.2900135E-009  0.1578904E+03  0.7561462E-02  0.1191099E+00
         -2   -1    0    0    0  501 -0.00000000000E+00  0.00000000000E+00  0.32332749309E+02  0.32332749309E+02  0.00000000000E+00 0. -1.
          2   -1    0    0  501    0  0.00000000000E+00 -0.00000000000E+00 -0.89584276111E+03  0.89584276111E+03  0.00000000000E+00 0.  1.
         25    2    1    2    0    0 -0.39518069366E+02 -0.99965071405E+02 -0.51132918525E+03  0.53727047635E+03  0.12508931117E+03 0.  0.
          5    1    3    3  502    0 -0.48594007530E+02 -0.12305303210E+03 -0.35390336635E+03  0.37784717994E+03  0.41800000000E+01 0.  1.
         -5    1    3    3    0  502  0.90759381634E+01  0.23087960697E+02 -0.15742581890E+03  0.15942329641E+03  0.41800000000E+01 0.  1.
        -11    1    1    2    0    0 -0.43331031582E+01  0.11255168142E+03 -0.17634204203E+03  0.20924428920E+03  0.00000000000E+00 0. -1.
         11    1    1    2    0    0  0.43851172524E+02 -0.12586610019E+02 -0.17583878452E+03  0.18166074486E+03  0.00000000000E+00 0.  1.
</event>
<event>
 7    1  0.2900135E-009  0.1233730E+03  0.7561462E-02  0.1237634E+00
          4   -1    0    0  501    0  0.00000000000E+00  0.00000000000E+00  0.23910369146E+03  0.23910369146E+03  0.00000000000E+00 0. -1.
         -4   -1    0    0    0  501 -0.00000000000E+00 -0.00000000000E+00 -0.66703851217E+02  0.66703851217E+02  0.00000000000E+00 0.  1.
         25    2    1    2    0    0 -0.57864478038E+02  0.24907434008E+02  0.11716557814E+03  0.18259757273E+03  0.12508166443E+03 0.  0.
          5    1    3    3  502    0 -0.88001707153E+01  0.70493687409E+02  0.74775800686E+02  0.10322642945E+03  0.41800000000E+01 0. -1.
         -5    1    3    3    0  502 -0.49064307323E+02 -0.45586253401E+02  0.42389777457E+02  0.79371143277E+02  0.41800000000E+01 0. -1.
        -11    1    1    2    0    0 -0.55725605653E+01 -0.42327979583E+02  0.32323043255E+02  0.53548953417E+02  0.00000000000E+00 0. -1.
         11    1    1    2    0    0  0.63437038604E+02  0.17420545575E+02  0.22911218844E+02  0.69661016529E+02  0.00000000000E+00 0.  1.
</event>
<event>
 7    1  0.3120390E-009  0.1186164E+03  0.7561462E-02  0.1245397E+00
         -3   -1    0    0    0  501 -0.00000000000E+00  0.00000000000E+00  0.10446782696E+03  0.10446782696E+03  0.00000000000E+00 0.  1.
          3   -1    0    0  501    0  0.00000000000E+00 -0.00000000000E+00 -0.21092955693E+03  0.21092955693E+03  0.00000000000E+00 0. -1.
         25    2    1    2    0    0  0.83590489253E+02  0.55021345867E+02 -0.40593259103E+02  0.16524350730E+03  0.12507152204E+03 0.  0.
          5    1    3    3  502    0  0.47244035385E+02  0.69057725370E+02  0.26222758258E+02  0.87784245531E+02  0.41800000000E+01 0.  1.
         -5    1    3    3    0  502  0.36346453868E+02 -0.14036379503E+02 -0.66816017360E+02  0.77459261772E+02  0.41800000000E+01 0.  1.
        -11    1    1    2    0    0 -0.33759680086E+02 -0.54888357667E+02  0.37394063136E+01  0.64547896685E+02  0.00000000000E+00 0.  1.
         11    1    1    2    0    0 -0.49830809167E+02 -0.13298820067E+00 -0.69607877189E+02  0.85605979901E+02  0.00000000000E+00 0. -1.
</event>
<event>
 7    1  0.2900135E-009  0.1009707E+03  0.7561462E-02  0.1278268E+00
          2   -1    0    0  501    0  0.00000000000E+00  0.00000000000E+00  0.22982595680E+02  0.22982595680E+02  0.00000000000E+00 0. -1.
         -2   -1    0    0    0  501 -0.00000000000E+00 -0.00000000000E+00 -0.56869298077E+03  0.56869298077E+03  0.00000000000E+00 0.  1.
         25    2    1    2    0    0  0.75816273826E+01 -0.36431687570E+02 -0.31486898440E+03  0.34084417363E+03  0.12509006527E+03 0.  0.
          5    1    3    3  502    0 -0.41830204769E+02 -0.49402377303E+02 -0.94692816449E+02  0.11478049835E+03  0.41800000000E+01 0. -1.
         -5    1    3    3    0  502  0.49411832152E+02  0.12970689733E+02 -0.22017616795E+03  0.22606367529E+03  0.41800000000E+01 0. -1.
        -11    1    1    2    0    0 -0.41734163570E+02  0.10780012002E+02 -0.17663806159E+03  0.18182121402E+03  0.00000000000E+00 0.  1.
         11    1    1    2    0    0  0.34152536187E+02  0.25651675568E+02 -0.54203339097E+02  0.69010188789E+02  0.00000000000E+00 0. -1.
</event>
<event>
 6    1  0.2900135E-009  0.8539616E+02  0.7561462E-02  0.1314400E+00
          1   -1    0    0  501    0  0.00000000000E+00  0.00000000000E+00  0.42059115826E+03  0.42059115826E+03  0.00000000000E+00 0. -1.
         -1   -1    0    0    0  501 -0.00000000000E+00 -0.00000000000E+00 -0.36725891008E+02  0.36725891008E+02  0.00000000000E+00 0.  1.
          5    1    1    2  502    0  0.61162343590E+02  0.57888583868E+00  0.23003588568E+03  0.23806542900E+03  0.41800000000E+01 0. -1.
         -5    1    1    2    0  502 -0.37288588170E+02  0.40552436565E+02  0.61628912994E+02  0.82767954161E+02  0.41800000000E+01 0. -1.
        -11    1    1    2    0    0 -0.72706498460E+01 -0.36190005939E+02  0.10731989176E+03  0.11349069586E+03  0.00000000000E+00 0. -1.
         11    1    1    2    0    0 -0.16603105575E+02 -0.49413164653E+01 -0.15119423190E+02  0.22992970246E+02  0.00000000000E+00 0.  1.
</event>
<event>
 7    1  0.2900135E-009  0.1672344E+03  0.7561462E-02  0.1180763E+00
         -2   -1    0    0    0  501 -0.00000000000E+00  0.00000000000E+00  0.38917740463E+03  0.38917740463E+03  0.00000000000E+00 0.  1.
          2   -1    0    0  501    0  0.00000000000E+00 -0.00000000000E+00 -0.38139717539E+03  0.38139717539E+03  0.00000000000E+00 0. -1.
         25    2    1    2    0    0  0.80291172876E+02 -0.11923009778E+03 -0.33619105416E+03  0.38644050402E+03  0.12509736045E+03 0.  0.
          5    1    3    3  502    0  0.30484332914E+02 -0.13471804131E+03 -0.24016181559E+03  0.27708016038E+03  0.41800000000E+01 0.  1.
         -5    1    3    3    0  502  0.49806839962E+02  0.15487943525E+02 -0.96029238570E+02  0.10936034364E+03  0.41800000000E+01 0.  1.
        -11    1    1    2    0    0 -0.68314298482E+02  0.10602538884E+03  0.34390754727E+03  0.36630673966E+03  0.00000000000E+00 0.  1.
         11    1    1    2    0    0 -0.11976874394E+02  0.13204708939E+02  0.63736137778E-01  0.17827336333E+02  0.00000000000E+00 0. -1.
</event>
<event>
 7    1  0.2900135E-009  0.9906283E+02  0.7561462E-02  0.1282279E+00
         -2   -1    0    0    0  501 -0.00000000000E+00  0.00000000000E+00  0.14538260059E+03  0.14538260059E+03  0.00000000000E+00 0.  1.
          2   -1    0    0  501    0  0.00000000000E+00 -0.00000000000E+00 -0.16223736595E+03  0.16223736595E+03  0.00000000000E+00 0. -1.
         25    2    1    2    0    0  0.23725023113E+02  0.26129707859E+02  0.93138858076E+02  0.15990192090E+03  0.12509252204E+03 0.  0.
          5    1    3    3  502    0  0.15426688346E+02  0.61226438825E+02  0.10423454166E+03  0.12193839264E+03  0.41800000000E+01 0.  1.
         -5    1    3    3    0  502  0.82983347676E+01 -0.35096730966E+02 -0.11095683580E+02  0.37963528267E+02  0.41800000000E+01 0.  1.
        -11    1    1    2    0    0  0.22653356953E+02 -0.43477299367E+02 -0.52173852211E+02  0.71593023376E+02  0.00000000000E+00 0.  1.
         11    1    1    2    0    0 -0.46378380066E+02  0.17347591509E+02 -0.57819771223E+02  0.76125022253E+02  0.00000000000E+00 0. -1.
</event>
<event>
 7    1  0.2900135E-009  0.8070482E+02  0.7561462E-02  0.1327063E+00
          2   -1    0    0  501    0  0.00000000000E+00  0.00000000000E+00  0.69038521827E+03  0.69038521827E+03  0.00000000000E+00 0. -1.
         -2   -1    0    0    0  501 -0.00000000000E+00 -0.00000000000E+00 -0.24749593607E+02  0.24749593607E+02  0.00000000000E+00 0.  1.
         25    2    1    2    0    0 -0.48262838704E+02 -0.51212443346E+02  0.46508727667E+03  0.48672992527E+03  0.12509128377E+03 0.  0.
          5    1    3    3  502    0 -0.24146108157E+02  0.82698085177E+01  0.37578973783E+03  0.37667867438E+03  0.41800000000E+01 0. -1.
         -5    1    3    3    0  502 -0.24116730547E+02 -0.59482251864E+02  0.89297538840E+02  0.11005125089E+03  0.41800000000E+01 0. -1.
        -11    1    1    2    0    0  0.18430175942E+02  0.12153415246E+02  0.15992117898E+00  0.22077193258E+02  0.00000000000E+00 0.  1.
         11    1    1    2    0    0  0.29832662763E+02  0.39059028101E+02  0.20038842680E+03  0.20632769334E+03  0.00000000000E+00 0. -1.
</event>
<event>
 7    1  0.2900135E-009  0.1794064E+03  0.7561462E-02  0.1168379E+00
          1   -1    0    0  501    0  0.00000000000E+00  0.00000000000E+00  0.89914255521E+03  0.89914255521E+03  0.00000000000E+00 0. -1.
         -1   -1    0    0    0  501 -0.00000000000E+00 -0.00000000000E+00 -0.39840972641E+02  0.39840972641E+02  0.00000000000E+00 0.  1.
         25    2    1    2    0    0  0.30114710535E+01 -0.15230445216E+03  0.51920662479E+03  0.55536377592E+03  0.12509072418E+03 0.  0.
          5    1    3    3  502    0  0.47280809994E+02 -0.11232579125E+03  0.23303889154E+03  0.26301550476E+03  0.41800000000E+01 0. -1.
         -5    1    3    3    0  502 -0.44269338941E+02 -0.39978660911E+02  0.28616773325E+03  0.29234827117E+03  0.41800000000E+01 0. -1.
        -11    1    1    2    0    0  0.32803278547E+02  0.13176703684E+03  0.24939782687E+03  0.28396810231E+03  0.00000000000E+00 0.  1.
         11    1    1    2    0    0 -0.35814749601E+02  0.20537415316E+02  0.90697130908E+02  0.99651649619E+02  0.00000000000E+00 0. -1.
</event>
<event>
 7    1  0.2900135E-009  0.1374086E+03  0.7561462E-02  0.1216859E+00
         -2   -1    0    0    0  501 -0.00000000000E+00  0.00000000000E+00  0.10792686944E+03  0.10792686944E+03  0.00000000000E+00 0.  1.
          2   -1    0    0  501    0  0.00000000000E+00 -0.00000000000E+00 -0.19118923664E+03  0.19118923664E+03  0.00000000000E+00 0. -1.
         25    2    1    2    0    0 -0.67466465211E+02  0.56308142385E+02 -0.10603638724E+02  0.15324372824E+03  0.12509545262E+03 0.  0.
          5    1    3    3  502    0 -0.10284443497E+03  0.36125850620E+02  0.55559255337E+01  0.10922635029E+03  0.41800000000E+01 0.  1.
         -5    1    3    3    0  502  0.35377969762E+02  0.20182291765E+02 -0.16159564258E+02  0.44017377959E+02  0.41800000000E+01 0.  1.
        -11    1    1    2    0    0  0.55283157115E+02  0.11016598324E+02 -0.21049920673E+02  0.60172186760E+02  0.00000000000E+00 0.  1.
         11    1    1    2    0    0  0.12183308097E+02 -0.67324740709E+02 -0.51608807801E+02  0.85700191075E+02  0.00000000000E+00 0. -1.
</event>
<event>
 7    1  0.2900135E-009  0.8893621E+02  0.7561462E-02  0.1305448E+00
          1   -1    0    0  501    0  0.00000000000E+00  0.00000000000E+00  0.13868110797E+03  0.13868110797E+03  0.00000000000E+00 0. -1.
         -1   -1    0    0    0  501 -0.00000000000E+00 -0.00000000000E+00 -0.10530766616E+03  0.10530766616E+03  0.00000000000E+00 0.  1.
         25    2    1    2    0    0  0.63880716436E+01  0.25854739596E+02 -0.30173288800E+02  0.13140719680E+03  0.12509256171E+03 0.  0.
          5    1    3    3  502    0  0.27669303602E+02  0.54788757321E+02 -0.58941432540E+02  0.85199549062E+02  0.41800000000E+01 0.  1.
         -5    1    3    3    0  502 -0.21281231959E+02 -0.28934017725E+02  0.28768143740E+02  0.46207647740E+02  0.41800000000E+01 0.  1.
        -11    1    1    2    0    0  0.34633426525E+02 -0.15108536315E+02  0.58823210559E+02  0.69913605278E+02  0.00000000000E+00 0. -1.
         11    1    1    2    0    0 -0.41021498169E+02 -0.10746203281E+02  0.47235200477E+01  0.42667972047E+02  0.00000000000E+00 0.  1.
</event>
<event>
 7    1  0.2900135E-009  0.8867249E+02  0.7561462E-02  0.1306099E+00
          1   -1    0    0  501    0  0.00000000000E+00  0.00000000000E+00  0.10185658937E+03  0.10185658937E+03  0.00000000000E+00 0. -1.
         -1   -1    0    0    0  501 -0.00000000000E+00 -0.00000000000E+00 -0.13600877078E+03  0.13600877078E+03  0.00000000000E+00 0.  1.
         25    2    1    2    0    0  0.27774429056E+02 -0.21383090131E+02  0.12197718005E+02  0.13048210267E+03  0.12509252312E+03 0.  0.
          5    1    3    3  502    0  0.39108043683E+01 -0.72539295082E+02  0.94248743391E+00  0.72770903557E+02  0.41800000000E+01 0.  1.
         -5    1    3    3    0  502  0.23863624688E+02  0.51156204952E+02  0.11255230571E+02  0.57711199117E+02  0.41800000000E+01 0.  1.
        -11    1    1    2    0    0  0.36120138064E+01  0.15662549802E+02 -0.67315200925E+02  0.69207646872E+02  0.00000000000E+00 0.  1.
         11    1    1    2    0    0 -0.31386442863E+02  0.57205403291E+01  0.20965301518E+02  0.38175610604E+02  0.00000000000E+00 0. -1.
</event>
<event>
 7    1  0.2900135E-009  0.1673258E+03  0.7561462E-02  0.1180666E+00
          2   -1    0    0  501    0  0.00000000000E+00  0.00000000000E+00  0.49801567193E+03  0.49801567193E+03  0.00000000000E+00 0. -1.
         -2   -1    0    0    0  501 -0.00000000000E+00 -0.00000000000E+00 -0.58202169109E+02  0.58202169109E+02  0.00000000000E+00 0.  1.
         25    2    1    2    0    0 -0.12449998681E+03  0.30672766755E+02  0.19366091552E+03  0.26379256608E+03  0.12506359336E+03 0.  0.
          5    1    3    3  502    0 -0.96460170849E+02  0.77833429026E+02  0.13756825136E+03  0.18521636919E+03  0.41800000000E+01 0. -1.
         -5    1    3    3    0  502 -0.28039815960E+02 -0.47160662271E+02  0.56092664161E+02  0.78576196889E+02  0.41800000000E+01 0. -1.
        -11    1    1    2    0    0  0.89163709047E+02  0.22320819451E+02  0.12053112779E+03  0.15157882028E+03  0.00000000000E+00 0.  1.
         11    1    1    2    0    0  0.35336277762E+02 -0.52993586206E+02  0.12562145951E+03  0.14084645467E+03  0.00000000000E+00 0. -1.
</event>
<event>
 7    1  0.2900135E-009  0.1262368E+03  0.7561462E-02  0.1233149E+00
         -2   -1    0    0    0  501 -0.00000000000E+00  0.00000000000E+00  0.58471969806E+02  0.58471969806E+02  0.00000000000E+00 0.  1.
          2   -1    0    0  501    0  0.00000000000E+00 -0.00000000000E+00 -0.42027107057E+03  0.42027107057E+03  0.00000000000E+00 0. -1.
         25    2    1    2    0    0 -0.52755301185E+02  0.86442127964E+02 -0.27525703683E+03  0.31885643824E+03  0.12509048162E+03 0.  0.
          5    1    3    3  502    0  0.33170361943E+02  0.72728950168E+01 -0.11826234773E+03  0.12311223824E+03  0.41800000000E+01 0. -1.
         -5    1    3    3    0  502 -0.85925663128E+02  0.79169232947E+02 -0.15699468911E+03  0.19574420001E+03  0.41800000000E+01 0. -1.
        -11    1    1    2    0    0  0.36277510776E+02 -0.62883598708E+02 -0.42552558251E+01  0.72722156023E+02  0.00000000000E+00 0.  1.
         11    1    1    2    0    0  0.16477790409E+02 -0.23558529256E+02 -0.82286808107E+02  0.87164446111E+02  0.00000000000E+00 0. -1.
</event>
<event>
 7    1  0.2900135E-009  0.1349045E+03  0.7561462E-02  0.1220355E+00
          2   -1    0    0  501    0  0.00000000000E+00  0.00000000000E+00  0.13539519610E+04  0.13539519610E+04  0.00000000000E+00 0. -1.
         -2   -1    0    0    0  501 -0.00000000000E+00 -0.00000000000E+00 -0.15918328718E+02  0.15918328718E+02  0.00000000000E+00 0.  1.
         25    2    1    2    0    0 -0.98162495105E+02 -0.11540930261E+02  0.76360908029E+03  0.78007310288E+03  0.12508457063E+03 0.  0.
          5    1    3    3  502    0 -0.41078721480E+02 -0.51838903932E+02  0.17181922710E+03  0.18415768385E+03  0.41800000000E+01 0. -1.
         -5    1    3    3    0  502 -0.57083773626E+02  0.40297973671E+02  0.59178985319E+03  0.59591541903E+03  0.41800000000E+01 0. -1.
        -11    1    1    2    0    0  0.96144355728E+02 -0.23063839660E+02  0.40916983686E+03  0.42094611678E+03  0.00000000000E+00 0. -1.
         11    1    1    2    0    0  0.20181393776E+01  0.34604769921E+02  0.16525471511E+03  0.16885107004E+03  0.00000000000E+00 0.  1.
</event>
<event>
 7    1  0.2900135E-009  0.1213582E+03  0.7561462E-02  0.1240873E+00
          3   -1    0    0  501    0  0.00000000000E+00  0.00000000000E+00  0.83668205303E+02  0.83668205303E+02  0.00000000000E+00 0. -1.
         -3   -1    0    0    0  501 -0.00000000000E+00 -0.00000000000E+00 -0.20747080510E+03  0.20747080510E+03  0.00000000000E+00 0.  1.
         25    2    1    2    0    0 -0.12656234329E+02 -0.65339226299E+02 -0.32350303487E+02  0.14533780589E+03  0.12508853234E+03 0.  0.
          5    1    3    3  502    0  0.49036092468E+02  0.28786959239E+01 -0.15974739560E+02  0.51821713198E+02  0.41800000000E+01 0. -1.
         -5    1    3    3    0  502 -0.61692326796E+02 -0.68217922223E+02 -0.16375563926E+02  0.93516092689E+02  0.41800000000E+01 0. -1.
        -11    1    1    2    0    0 -0.30767082896E+02  0.13160761879E+02 -0.64689901988E+02  0.72832701875E+02  0.00000000000E+00 0.  1.
         11    1    1    2    0    0  0.43423317225E+02  0.52178464420E+02 -0.26762394324E+02  0.72968502643E+02  0.00000000000E+00 0. -1.
</event>
<event>
 7    1  0.2900135E-009  0.1158584E+03  0.7561462E-02  0.1250090E+00
          4   -1    0    0  501    0  0.00000000000E+00  0.00000000000E+00  0.42485928624E+03  0.42485928624E+03  0.00000000000E+00 0. -1.
         -4   -1    0    0    0  501 -0.00000000000E+00 -0.00000000000E+00 -0.48677743618E+02  0.48677743618E+02  0.00000000000E+00 0.  1.
         25    2    1    2    0    0  0.87181503200E+02  0.28130167747E+02  0.17565830567E+03  0.23429808854E+03  0.12509129908E+03 0.  0.
          5    1    3    3  502    0  0.76667279928E+02 -0.75603111095E+01  0.18073567786E+03  0.19651434494E+03  0.41800000000E+01 0.  1.
         -5    1    3    3    0  502  0.10514223272E+02  0.35690478857E+02 -0.50773721895E+01  0.37783743600E+02  0.41800000000E+01 0.  1.
        -11    1    1    2    0    0 -0.34321408859E+02 -0.49393246739E+02  0.49738402975E+02  0.78048450722E+02  0.00000000000E+00 0.  1.
         11    1    1    2    0    0 -0.52860094341E+02  0.21263078992E+02  0.15078483398E+03  0.16119049060E+03  0.00000000000E+00 0. -1.
</event>
<event>
 7    1  0.2900135E-009  0.1272012E+03  0.7561462E-02  0.1231669E+00
         -2   -1    0    0    0  501 -0.00000000000E+00  0.00000000000E+00  0.20706278605E+02  0.20706278605E+02  0.00000000000E+00 0.  1.
          2   -1    0    0  501    0  0.00000000000E+00 -0.00000000000E+00 -0.89813673759E+03  0.89813673759E+03  0.00000000000E+00 0. -1.
         25    2    1    2    0    0 -0.18849016630E+02  0.76537289390E+02 -0.48969224786E+03  0.51152601778E+03  0.12508847730E+03 0.  0.
          5    1    3    3  502    0 -0.29525638731E+02  0.10103639337E+03 -0.26436751653E+03  0.28458350677E+03  0.41800000000E+01 0. -1.
         -5    1    3    3    0  502  0.10676622101E+02 -0.24499103976E+02 -0.22532473133E+03  0.22694251101E+03  0.41800000000E+01 0. -1.
        -11    1    1    2    0    0  0.55014256646E+02 -0.28735576706E+02 -0.15453075606E+03  0.16652944596E+03  0.00000000000E+00 0.  1.
         11    1    1    2    0    0 -0.36165240016E+02 -0.47801712684E+02 -0.23320745507E+03  0.24078755246E+03  0.00000000000E+00 0. -1.
</event>
<event>
 7    1  0.2900135E-009  0.1300436E+03  0.7561462E-02  0.1227391E+00
         -1   -1    0    0    0  501 -0.00000000000E+00  0.00000000000E+00  0.17230649311E+03  0.17230649311E+03  0.00000000000E+00 0.  1.
          1   -1    0    0  501    0  0.00000000000E+00 -0.00000000000E+00 -0.14926030554E+03  0.14926030554E+03  0.00000000000E+00 0. -1.
         25    2    1    2    0    0 -0.55284364233E+02 -0.90168548401E+02 -0.37882428378E+02  0.16813714208E+03  0.12509313377E+03 0.  0.
          5    1    3    3  502    0 -0.34278498298E+02 -0.63760287126E+01 -0.68020334838E+02  0.76550032914E+02  0.41800000000E+01 0.  1.
         -5    1    3    3    0  502 -0.21005865935E+02 -0.83792519688E+02  0.30137906460E+02  0.91587109165E+02  0.41800000000E+01 0.  1.
        -11    1    1    2    0    0 -0.70326374031E+01  0.73691283291E+02  0.46361357911E+02  0.87345513503E+02  0.00000000000E+00 0.  1.
         11    1    1    2    0    0  0.62317001636E+02  0.16477265110E+02  0.14567258034E+02  0.66084143068E+02  0.00000000000E+00 0. -1.
</event>
<event>
 7    1  0.2900135E-009  0.9991970E+02  0.7561462E-02  0.1280465E+00
          3   -1    0    0  501    0  0.00000000000E+00  0.00000000000E+00  0.94508237030E+02  0.94508237030E+02  0.00000000000E+00 0. -1.
         -3   -1    0    0    0  501 -0.00000000000E+00 -0.00000000000E+00 -0.13139414984E+03  0.13139414984E+03  0.00000000000E+00 0.  1.
         25    2    1    2    0    0 -0.25032059037E+02 -0.76148172765E+01 -0.24332102414E+02  0.13008786414E+03  0.12508481829E+03 0.  0.
          5    1    3    3  502    0  0.34998892160E+02 -0.43390649239E+02 -0.21894523828E+02  0.60037600448E+02  0.41800000000E+01 0.  1.
         -5    1    3    3    0  502 -0.60030951197E+02  0.35775831963E+02 -0.24375785855E+01  0.70050263694E+02  0.41800000000E+01 0.  1.
        -11    1    1    2    0    0  0.71183724885E+01  0.37997261292E+02 -0.36513259224E+02  0.53175945612E+02  0.00000000000E+00 0.  1.
         11    1    1    2    0    0  0.17913686548E+02 -0.30382444016E+02  0.23959448829E+02  0.42638577114E+02  0.00000000000E+00 0. -1.
</event>
<event>
 7    1  0.2900135E-009  0.2031153E+03  0.7561462E-02  0.1147137E+00
         -1   -1    0    0    0  501 -0.00000000000E+00  0.00000000000E+00  0.11012813318E+03  0.11012813318E+03  0.00000000000E+00 0.  1.
          1   -1    0    0  501    0  0.00000000000E+00 -0.00000000000E+00 -0.44395405022E+03  0.44395405022E+03  0.00000000000E+00 0. -1.
         25    2    1    2    0    0  0.39090606929E+02 -0.17361081171E+03 -0.82993672589E+02  0.23281804310E+03  0.12508997567E+03 0.  0.
          5    1    3    3  502    0 -0.37390133239E+02 -0.22136601066E+02 -0.36301681183E+02  0.56774427580E+02  0.41800000000E+01 0.  1.
         -5    1    3    3    0  502  0.76480740167E+02 -0.15147421064E+03 -0.46691991406E+02  0.17604361552E+03  0.41800000000E+01 0.  1.
        -11    1    1    2    0    0 -0.73489205702E+01  0.15670379802E+03 -0.16238693789E+03  0.22578663500E+03  0.00000000000E+00 0.  1.
         11    1    1    2    0    0 -0.31741686358E+02  0.16907013689E+02 -0.88445306558E+02  0.95477505293E+02  0.00000000000E+00 0. -1.
</event>
<event>
 7    1  0.2900135E-009  0.1118417E+03  0.7561462E-02  0.1257197E+00
          1   -1    0    0  501    0  0.00000000000E+00  0.00000000000E+00  0.33537653777E+03  0.33537653777E+03  0.00000000000E+00 0. -1.
         -1   -1    0    0    0  501 -0.00000000000E+00 -0.00000000000E+00 -0.55777662369E+02  0.55777662369E+02  0.00000000000E+00 0.  1.
         25    2    1    2    0    0 -0.80029154978E+02 -0.51799678943E+01  0.11781900014E+03  0.18963305220E+03  0.12509148643E+03 0.  0.
          5    1    3    3  502    0 -0.44235831095E+02  0.39392517506E+02  0.11824059956E+03  0.13231360841E+03  0.41800000000E+01 0.  1.
         -5    1    3    3    0  502 -0.35793323883E+02 -0.44572485400E+02 -0.42159941690E+00  0.57319443781E+02  0.41800000000E+01 0.  1.
        -11    1    1    2    0    0  0.31668384528E+02  0.37299129516E+02  0.12115871406E+03  0.13066577836E+03  0.00000000000E+00 0. -1.
         11    1    1    2    0    0  0.48360770450E+02 -0.32119161622E+02  0.40621161207E+02  0.70855369590E+02  0.00000000000E+00 0.  1.
</event>
<event>
 7    1  0.2900135E-009  0.1273356E+03  0.7561462E-02  0.1231464E+00
          2   -1    0    0  501    0  0.00000000000E+00  0.00000000000E+00  0.15148422339E+03  0.15148422339E+03  0.00000000000E+00 0. -1.
         -2   -1    0    0    0  501 -0.00000000000E+00 -0.00000000000E+00 -0.16053154275E+03  0.16053154275E+03  0.00000000000E+00 0.  1.
         25    2    1    2    0    0 -0.61679768362E+02 -0.80611249811E+02  0.41666081915E+02  0.16639146357E+03  0.12508992503E+03 0.  0.
          5    1    3    3  502    0 -0.12265255388E+02 -0.64878010561E+02 -0.34140481394E+02  0.74448892630E+02  0.41800000000E+01 0. -1.
         -5    1    3    3    0  502 -0.49414512973E+02 -0.15733239250E+02  0.75806563309E+02  0.91942570937E+02  0.41800000000E+01 0. -1.
        -11    1    1    2    0    0  0.80739341119E+02  0.36845758956E+02 -0.34265455840E+02  0.95134497536E+02  0.00000000000E+00 0. -1.
         11    1    1    2    0    0 -0.19059572758E+02  0.43765490855E+02 -0.16447945443E+02  0.50489805038E+02  0.00000000000E+00 0.  1.
</event>
<event>
 7    1  0.2900135E-009  0.1374524E+03  0.7561462E-02  0.1216799E+00
         -2   -1    0    0    0  501 -0.00000000000E+00  0.00000000000E+00  0.57209431915E+02  0.57209431915E+02  0.00000000000E+00 0.  1.
          2   -1    0    0  501    0  0.00000000000E+00 -0.00000000000E+00 -0.43681536557E+03  0.43681536557E+03  0.00000000000E+00 0. -1.
         25    2    1    2    0    0  0.40559572794E+02  0.75730264225E+02 -0.32312754134E+03  0.35698664505E+03  0.12509158605E+03 0.  0.
          5    1    3    3  502    0 -0.28720465404E+02  0.75657783355E+02 -0.19717359123E+03  0.21317566182E+03  0.41800000000E+01 0.  1.
         -5    1    3    3    0  502  0.69280038199E+02  0.72480870348E-01 -0.12595395011E+03  0.14381098322E+03  0.41800000000E+01 0.  1.
        -11    1    1    2    0    0 -0.51981561546E+02 -0.43350824227E+01 -0.18334370191E+02  0.55290368154E+02  0.00000000000E+00 0. -1.
         11    1    1    2    0    0  0.11421988752E+02 -0.71395181802E+02 -0.38144022118E+02  0.81747784282E+02  0.00000000000E+00 0.  1.
</event>
<event>
 7    1  0.2900135E-009  0.7626817E+02  0.7561462E-02  0.1339988E+00
          2   -1    0    0  501    0  0.00000000000E+00  0.00000000000E+00  0.87875052465E+03  0.87875052465E+03  0.00000000000E+00 0.  1.
         -2   -1    0    0    0  501 -0.00000000000E+00 -0.00000000000E+00 -0.27643821941E+02  0.27643821941E+02  0.00000000000E+00 0. -1.
         25    2    1    2    0    0  0.17116342505E+02 -0.26810173506E+02  0.76200731306E+03  0.77286089480E+03  0.12508822073E+03 0.  0.
          5    1    3    3  502    0  0.32777581448E+02 -0.21912589038E+02  0.75229699611E+03  0.75334107425E+03  0.41800000000E+01 0.  1.
         -5    1    3    3    0  502 -0.15661238943E+02 -0.48975844683E+01  0.97103169581E+01  0.19519820549E+02  0.41800000000E+01 0.  1.
        -11    1    1    2    0    0 -0.29123966939E+02  0.56700360663E+02  0.41509518851E+02  0.76066921226E+02  0.00000000000E+00 0. -1.
         11    1    1    2    0    0  0.12007624434E+02 -0.29890187157E+02  0.47589870793E+02  0.57466530562E+02  0.00000000000E+00 0.  1.
</event>
<event>
 7    1  0.2900135E-009  0.2155142E+03  0.7561462E-02  0.1137272E+00
         -1   -1    0    0    0  501 -0.00000000000E+00  0.00000000000E+00  0.47798607517E+03  0.47798607517E+03  0.00000000000E+00 0. -1.
          1   -1    0    0  501    0  0.00000000000E+00 -0.00000000000E+00 -0.11308082055E+03  0.11308082055E+03  0.00000000000E+00 0.  1.
         25    2    1    2    0    0  0.92000749140E+02 -0.17748005264E+03  0.12893764071E+03  0.26876726525E+03  0.12509045028E+03 0.  0.
          5    1    3    3  502    0  0.73726862149E+02 -0.55002140377E+02  0.30445484300E+01  0.92128319878E+02  0.41800000000E+01 0.  1.
         -5    1    3    3    0  502  0.18273886991E+02 -0.12247791226E+03  0.12589309228E+03  0.17663894537E+03  0.41800000000E+01 0.  1.
        -11    1    1    2    0    0  0.10255884572E+02  0.46729494690E-01  0.54638931041E+00  0.10270535199E+02  0.00000000000E+00 0.  1.
         11    1    1    2    0    0 -0.10225663371E+03  0.17743332315E+03  0.23542122460E+03  0.31202909527E+03  0.00000000000E+00 0. -1.
</event>
<event>
 7    1  0.2900135E-009  0.1156510E+03  0.7561462E-02  0.1250449E+00
          1   -1    0    0  501    0  0.00000000000E+00  0.00000000000E+00  0.20120276891E+02  0.20120276891E+02  0.00000000000E+00 0. -1.
         -1   -1    0    0    0  501 -0.00000000000E+00 -0.00000000000E+00 -0.79886138712E+03  0.79886138712E+03  0.00000000000E+00 0.  1.
         25    2    1    2    0    0 -0.29377109469E+02  0.43410083493E+02 -0.56142874304E+03  0.57757829846E+03  0.12508799875E+03 0.  0.
          5    1    3    3  502    0  0.21477008598E+02  0.68459293633E+02 -0.21977239656E+03  0.23122568082E+03  0.41800000000E+01 0. -1.
         -5    1    3    3    0  502 -0.50854118067E+02 -0.25049210141E+02 -0.34165634649E+03  0.34635261764E+03  0.41800000000E+01 0. -1.
        -11    1    1    2    0    0 -0.82224611689E+01 -0.60664396852E+02 -0.10280635319E+03  0.11965335002E+03  0.00000000000E+00 0.  1.
         11    1    1    2    0    0  0.37599570638E+02  0.17254313359E+02 -0.11450601399E+03  0.12175001553E+03  0.00000000000E+00 0. -1.
</event>
<event>
 7    1  0.3242885E-009  0.1126091E+03  0.7561462E-02  0.1255813E+00
         -2   -1    0    0    0  501 -0.00000000000E+00  0.00000000000E+00  0.75347336997E+02  0.75347336997E+02  0.00000000000E+00 0. -1.
          2   -1    0    0  501    0  0.00000000000E+00 -0.00000000000E+00 -0.19261071698E+03  0.19261071698E+03  0.00000000000E+00 0.  1.
         25    2    1    2    0    0  0.30864305311E+02 -0.39660697056E+02 -0.80597228267E+02  0.15706033817E+03  0.12508581210E+03 0.  0.
          5    1    3    3  502    0 -0.82442585607E+01  0.35053213316E+02 -0.60079268487E+02  0.70168985065E+02  0.41800000000E+01 0.  1.
         -5    1    3    3    0  502  0.39108563871E+02 -0.74713910372E+02 -0.20517959780E+02  0.86891353107E+02  0.41800000000E+01 0.  1.
        -11    1    1    2    0    0 -0.24502394676E+01 -0.29583748574E+02 -0.12907771734E+02  0.32369930866E+02  0.00000000000E+00 0.  1.
         11    1    1    2    0    0 -0.28414065843E+02  0.69244445630E+02 -0.23758379985E+02  0.78527784942E+02  0.00000000000E+00 0. -1.
</event>
<event>
 7    1  0.2900135E-009  0.8244539E+02  0.7561462E-02  0.1322252E+00
         -2   -1    0    0    0  501 -0.00000000000E+00  0.00000000000E+00  0.26000112413E+02  0.26000112413E+02  0.00000000000E+00 0.  1.
          2   -1    0    0  501    0  0.00000000000E+00 -0.00000000000E+00 -0.52969130556E+03  0.52969130556E+03  0.00000000000E+00 0. -1.
         25    2    1    2    0    0 -0.20148594924E+02 -0.31156187835E+02 -0.34779275365E+03  0.37146136361E+03  0.12508825384E+03 0.  0.
          5    1    3    3  502    0  0.12632547333E+02 -0.38212898509E+02 -0.26437777950E+02  0.48334618728E+02  0.41800000000E+01 0. -1.
         -5    1    3    3    0  502 -0.32781142257E+02  0.70567106746E+01 -0.32135497570E+03  0.32312674489E+03  0.41800000000E+01 0. -1.
        -11    1    1    2    0    0  0.52591454158E+02  0.21150291401E+02 -0.60199409556E+02  0.82687150076E+02  0.00000000000E+00 0. -1.
         11    1    1    2    0    0 -0.32442859234E+02  0.10005896434E+02 -0.95699029945E+02  0.10154290429E+03  0.00000000000E+00 0.  1.
</event>
<event>
 7    1  0.2900135E-009  0.2114044E+03  0.7561462E-02  0.1140459E+00
         -2   -1    0    0    0  501 -0.00000000000E+00  0.00000000000E+00  0.46802092796E+03  0.46802092796E+03  0.00000000000E+00 0.  1.
          2   -1    0    0  501    0  0.00000000000E+00 -0.00000000000E+00 -0.13596437581E+03  0.13596437581E+03  0.00000000000E+00 0. -1.
         25    2    1    2    0    0  0.13682276246E+03 -0.94370413212E+02  0.29097449223E+03  0.35768280780E+03  0.12507834604E+03 0.  0.
          5    1    3    3  502    0 -0.98909765525E+01 -0.19462963605E+01 -0.69554853721E+01  0.12941045686E+02  0.41800000000E+01 0.  1.
         -5    1    3    3    0  502  0.14671373901E+03 -0.92424116852E+02  0.29792997760E+03  0.34474176211E+03  0.41800000000E+01 0.  1.
        -11    1    1    2    0    0 -0.14990303181E+03  0.13129622044E+03  0.16278979039E+02  0.19993654395E+03  0.00000000000E+00 0. -1.
         11    1    1    2    0    0  0.13080269358E+02 -0.36925807226E+02  0.24803080876E+02  0.46365952020E+02  0.00000000000E+00 0.  1.
</event>
<event>
 7    1  0.2900135E-009  0.1523474E+03  0.7561462E-02  0.1197618E+00
          2   -1    0    0  501    0  0.00000000000E+00  0.00000000000E+00  0.31824592007E+03  0.31824592007E+03  0.00000000000E+00 0. -1.
         -2   -1    0    0    0  501 -0.00000000000E+00 -0.00000000000E+00 -0.11762164815E+03  0.11762164815E+03  0.00000000000E+00 0.  1.
         25    2    1    2    0    0 -0.25752311892E+02 -0.14091829227E+03  0.25196640089E+02  0.19183461238E+03  0.12507798036E+03 0.  0.
          5    1    3    3  502    0 -0.26943968289E+02 -0.43437441718E+02  0.68091357044E+02  0.85244906442E+02  0.41800000000E+01 0.  1.
         -5    1    3    3    0  502  0.11916563963E+01 -0.97480850549E+02 -0.42894716955E+02  0.10658970594E+03  0.41800000000E+01 0.  1.
        -11    1    1    2    0    0  0.43958059393E+02  0.12152674583E+03  0.17485418123E+03  0.21742825399E+03  0.00000000000E+00 0. -1.
         11    1    1    2    0    0 -0.18205747501E+02  0.19391546434E+02  0.57345059908E+00  0.26604701854E+02  0.00000000000E+00 0.  1.
</event>
<event>
 7    1  0.2900135E-009  0.2551402E+03  0.7561462E-02  0.1110099E+00
         -2   -1    0    0    0  501 -0.00000000000E+00  0.00000000000E+00  0.62717168583E+02  0.62717168583E+02  0.00000000000E+00 0.  1.
          2   -1    0    0  501    0  0.00000000000E+00 -0.00000000000E+00 -0.15248955354E+04  0.15248955354E+04  0.00000000000E+00 0. -1.
         25    2    1    2    0    0  0.23766353267E+03 -0.30716389708E+02 -0.11516667485E+04  0.11829675413E+04  0.12509377609E+03 0.  0.
          5    1    3    3  502    0  0.19253100181E+03 -0.53956977631E+02 -0.10541040107E+04  0.10729083278E+04  0.41800000000E+01 0. -1.
         -5    1    3    3    0  502  0.45132530857E+02  0.23240587923E+02 -0.97562737773E+02  0.11005921347E+03  0.41800000000E+01 0. -1.
        -11    1    1    2    0    0 -0.11506587863E+03  0.64861070200E+02 -0.16403727778E+03  0.21060708286E+03  0.00000000000E+00 0. -1.
         11    1    1    2    0    0 -0.12259765404E+03 -0.34144680492E+02 -0.14647434053E+03  0.19403807981E+03  0.00000000000E+00 0.  1.
</event>
<event>
 7    1  0.2900135E-009  0.5250763E+02  0.7561462E-02  0.1432267E+00
          2   -1    0    0  501    0  0.00000000000E+00  0.00000000000E+00  0.68142885673E+03  0.68142885673E+03  0.00000000000E+00 0. -1.
         -2   -1    0    0    0  501 -0.00000000000E+00 -0.00000000000E+00 -0.33950909249E+02  0.33950909249E+02  0.00000000000E+00 0.  1.
         25    2    1    2    0    0  0.26246682653E+01 -0.47333585646E+02  0.57464880187E+03  0.59001413713E+03  0.12509228319E+03 0.  0.
          5    1    3    3  502    0 -0.13106309982E+02 -0.30771647385E+02  0.30768002308E+02  0.45637835292E+02  0.41800000000E+01 0. -1.
         -5    1    3    3    0  502  0.15730978247E+02 -0.16561938260E+02  0.54388079956E+03  0.54437630184E+03  0.41800000000E+01 0. -1.
        -11    1    1    2    0    0 -0.55518992987E+01  0.31256472842E+02  0.93657715700E+02  0.98891649751E+02  0.00000000000E+00 0. -1.
         11    1    1    2    0    0  0.29272310334E+01  0.16077112804E+02 -0.20828570082E+02  0.26473979098E+02  0.00000000000E+00 0.  1.
</event>
<event>
 7    1  0.2900135E-009  0.9450353E+02  0.7561462E-02  0.1292298E+00
          2   -1    0    0  501    0  0.00000000000E+00  0.00000000000E+00  0.58586139127E+03  0.58586139127E+03  0.00000000000E+00 0. -1.
         -2   -1    0    0    0  501 -0.00000000000E+00 -0.00000000000E+00 -0.35248208337E+02  0.35248208337E+02  0.00000000000E+00 0.  1.
         25    2    1    2    0    0  0.49841342816E+02  0.50210152088E+02  0.44198038211E+03  0.46475515335E+03  0.12508187547E+03 0.  0.
          5    1    3    3  502    0 -0.11632531842E+02 -0.20827820537E+02  0.24803473621E+03  0.24921439901E+03  0.41800000000E+01 0.  1.
         -5    1    3    3    0  502  0.61473874657E+02  0.71037972625E+02  0.19394564590E+03  0.21554075434E+03  0.41800000000E+01 0.  1.
        -11    1    1    2    0    0 -0.12891765787E+02 -0.13410307625E+02  0.10212009633E+03  0.10380052048E+03  0.00000000000E+00 0. -1.
         11    1    1    2    0    0 -0.36949577028E+02 -0.36799844463E+02  0.65127044885E+01  0.52553925779E+02  0.00000000000E+00 0.  1.
</event>
<event>
 6    1  0.2900135E-009  0.8739186E+02  0.7561462E-02  0.1309293E+00
          2   -1    0    0  501    0  0.00000000000E+00  0.00000000000E+00  0.72601049699E+02  0.72601049699E+02  0.00000000000E+00 0. -1.
         -2   -1    0    0    0  501 -0.00000000000E+00 -0.00000000000E+00 -0.21656517092E+03  0.21656517092E+03  0.00000000000E+00 0.  1.
          5    1    1    2  502    0  0.34510306519E+02  0.37230232028E+02  0.40186767630E+02  0.64880660643E+02  0.41800000000E+01 0. -1.
         -5    1    1    2    0  502 -0.36096075151E+02 -0.96980351205E+01 -0.51293042647E+02  0.63603672461E+02  0.41800000000E+01 0. -1.
        -11    1    1    2    0    0 -0.28198068087E+02  0.16804973511E+02 -0.75384454210E+02  0.82221372617E+02  0.00000000000E+00 0.  1.
         11    1    1    2    0    0  0.29783836720E+02 -0.44337170419E+02 -0.57473391992E+02  0.78460514895E+02  0.00000000000E+00 0. -1.
</event>
<event>
 7    1  0.2900135E-009  0.1048240E+03  0.7561462E-02  0.1270467E+00
         -2   -1    0    0    0  501 -0.00000000000E+00  0.00000000000E+00  0.12573995002E+02  0.12573995002E+02  0.00000000000E+00 0.  1.
          2   -1    0    0  501    0  0.00000000000E+00 -0.00000000000E+00 -0.14726902712E+04  0.14726902712E+04  0.00000000000E+00 0. -1.
         25    2    1    2    0    0 -0.45783474517E+02  0.81147902273E+01 -0.11599336918E+04  0.11675856888E+04  0.12509274551E+03 0.  0.
          5    1    3    3  502    0  0.37455983725E+02 -0.73947452934E+01 -0.18335773248E+03  0.18733703167E+03  0.41800000000E+01 0.  1.
         -5    1    3    3    0  502 -0.83239458242E+02  0.15509535521E+02 -0.97657595928E+03  0.98024865710E+03  0.41800000000E+01 0.  1.
        -11    1    1    2    0    0  0.41870232626E+02 -0.37869182570E+02 -0.26714619548E+03  0.27304629851E+03  0.00000000000E+00 0. -1.
         11    1    1    2    0    0  0.39132418911E+01  0.29754392342E+02 -0.33036388915E+02  0.44632278883E+02  0.00000000000E+00 0.  1.
</event>
<event>
 7    1  0.2900135E-009  0.1039233E+03  0.7561462E-02  0.1272256E+00
          3   -1    0    0  501    0  0.00000000000E+00  0.00000000000E+00  0.98591709499E+02  0.98591709499E+02  0.00000000000E+00 0. -1.
         -3   -1    0    0    0  501 -0.00000000000E+00 -0.00000000000E+00 -0.22352352386E+03  0.22352352386E+03  0.00000000000E+00 0.  1.
         25    2    1    2    0    0  0.12309047730E+02  0.67740733698E+02 -0.14813389526E+03  0.20574477936E+03  0.12508774381E+03 0.  0.
          5    1    3    3  502    0  0.73299218960E+01 -0.30528706674E+02 -0.50950211243E+01  0.32080544360E+02  0.41800000000E+01 0.  1.
         -5    1    3    3    0  502  0.49791258336E+01  0.98269440372E+02 -0.14303887414E+03  0.17366423500E+03  0.41800000000E+01 0.  1.
        -11    1    1    2    0    0 -0.17467429100E+02 -0.10845806856E+02  0.49410207176E+02  0.53517391369E+02  0.00000000000E+00 0. -1.
         11    1    1    2    0    0  0.51583813706E+01 -0.56894926842E+02 -0.26208126278E+02  0.62853062628E+02  0.00000000000E+00 0.  1.
</event>
<event>
 7    1  0.2900135E-009  0.7942129E+02  0.7561462E-02  0.1330702E+00
         -1   -1    0    0    0  501 -0.00000000000E+00  0.00000000000E+00  0.13925171184E+03  0.13925171184E+03  0.00000000000E+00 0.  1.
          1   -1    0    0  501    0  0.00000000000E+00 -0.00000000000E+00 -0.92848080344E+02  0.92848080344E+02  0.00000000000E+00 0. -1.
         25    2    1    2    0    0 -0.28013956580E+02  0.71307241712E+00  0.30270336785E+02  0.13172007637E+03  0.12509434437E+03 0.  0.
          5    1    3    3  502    0  0.28830056762E+02  0.13373745459E+02  0.58622252746E+02  0.66813697379E+02  0.41800000000E+01 0. -1.
         -5    1    3    3    0  502 -0.56844013342E+02 -0.12660673042E+02 -0.28351915961E+02  0.64906378988E+02  0.41800000000E+01 0. -1.
        -11    1    1    2    0    0  0.82697251155E+01 -0.31090243010E+02 -0.28439756974E+02  0.42939624366E+02  0.00000000000E+00 0. -1.
         11    1    1    2    0    0  0.19744231465E+02  0.30377170593E+02  0.44573051684E+02  0.57440091450E+02  0.00000000000E+00 0.  1.
</event>
<event>
 7    1  0.2900135E-009  0.1025373E+03  0.7561462E-02  0.1275049E+00
          1   -1    0    0  501    0  0.00000000000E+00  0.00000000000E+00  0.43169936178E+02  0.43169936178E+02  0.00000000000E+00 0. -1.
         -1   -1    0    0    0  501 -0.00000000000E+00 -0.00000000000E+00 -0.36618243525E+03  0.36618243525E+03  0.00000000000E+00 0.  1.
         25    2    1    2    0    0 -0.64248812805E+01  0.64846385538E+02 -0.18476760460E+03  0.23245728042E+03  0.12510390358E+03 0.  0.
          5    1    3    3  502    0 -0.45241161828E+02  0.66157645278E+02 -0.55915439485E+02  0.97814137654E+02  0.41800000000E+01 0.  1.
         -5    1    3    3    0  502  0.38816280547E+02 -0.13112597406E+01 -0.12885216512E+03  0.13464314276E+03  0.41800000000E+01 0.  1.
        -11    1    1    2    0    0 -0.24784978119E+02 -0.31512304170E+02 -0.12201448286E+03  0.12843229533E+03  0.00000000000E+00 0.  1.
         11    1    1    2    0    0  0.31209859400E+02 -0.33334081367E+02 -0.16230411603E+02  0.48462795681E+02  0.00000000000E+00 0. -1.
</event>
<event>
 7    1  0.2900135E-009  0.1113527E+03  0.7561462E-02  0.1258085E+00
         -2   -1    0    0    0  501 -0.00000000000E+00  0.00000000000E+00  0.59989843053E+02  0.59989843053E+02  0.00000000000E+00 0. -1.
          2   -1    0    0  501    0  0.00000000000E+00 -0.00000000000E+00 -0.26891344781E+03  0.26891344781E+03  0.00000000000E+00 0.  1.
         25    2    1    2    0    0 -0.34997125580E+02  0.55593983592E+02 -0.14460648977E+03  0.20219702939E+03  0.12512838207E+03 0.  0.
          5    1    3    3  502    0 -0.32472150728E+02  0.83380123536E+02 -0.14879261916E+03  0.17367613967E+03  0.41800000000E+01 0.  1.
         -5    1    3    3    0  502 -0.25249748526E+01 -0.27786139943E+02  0.41861293937E+01  0.28520889717E+02  0.41800000000E+01 0.  1.
        -11    1    1    2    0    0 -0.16935507899E+02  0.11203196634E+02 -0.28104346587E+02  0.34672429100E+02  0.00000000000E+00 0.  1.
         11    1    1    2    0    0  0.51932633479E+02 -0.66797180226E+02 -0.36212768399E+02  0.92033832374E+02  0.00000000000E+00 0. -1.
</event>
<event>
 7    1  0.2900135E-009  0.7596602E+02  0.7561462E-02  0.1340905E+00
          1   -1    0    0  501    0  0.00000000000E+00  0.00000000000E+00  0.46246075278E+03  0.46246075278E+03  0.00000000000E+00 0. -1.
         -1   -1    0    0    0  501 -0.00000000000E+00 -0.00000000000E+00 -0.36325180355E+02  0.36325180355E+02  0.00000000000E+00 0.  1.
         25    2    1    2    0    0 -0.23119117785E+02  0.59765939170E+01  0.36373059160E+03  0.38538053142E+03  0.12509195600E+03 0.  0.
          5    1    3    3  502    0 -0.60073297497E+02 -0.29420668143E+02  0.13211460274E+03  0.14814222033E+03  0.41800000000E+01 0. -1.
         -5    1    3    3    0  502  0.36954179712E+02  0.35397262059E+02  0.23161598885E+03  0.23723831110E+03  0.41800000000E+01 0. -1.
        -11    1    1    2    0    0  0.20452899448E+02  0.59870461565E+01  0.85037347121E+02  0.87667076049E+02  0.00000000000E+00 0. -1.
         11    1    1    2    0    0  0.26662183371E+01 -0.11963640073E+02 -0.22632366290E+02  0.25738325662E+02  0.00000000000E+00 0.  1.
</event>
<event>
 7    1  0.2900135E-009  0.2030628E+03  0.7561462E-02  0.1147180E+00
          1   -1    0    0  501    0  0.00000000000E+00  0.00000000000E+00  0.14344299754E+04  0.14344299754E+04  0.00000000000E+00 0. -1.
         -1   -1    0    0    0  501 -0.00000000000E+00 -0.00000000000E+00 -0.34454430162E+02  0.34454430162E+02  0.00000000000E+00 0.  1.
         25    2    1    2    0    0 -0.12795809192E+03 -0.14564883407E+03  0.70777615155E+03  0.74443626483E+03  0.12510561753E+03 0.  0.
          5    1    3    3  502    0 -0.45730574777E+02 -0.10985472160E+03  0.55151124383E+03  0.56421757310E+03  0.41800000000E+01 0.  1.
         -5    1    3    3    0  502 -0.82227517144E+02 -0.35794112463E+02  0.15626490772E+03  0.18021869172E+03  0.41800000000E+01 0.  1.
        -11    1    1    2    0    0  0.68056699650E+02  0.10413126060E+03  0.28781329498E+03  0.31354668961E+03  0.00000000000E+00 0.  1.
         11    1    1    2    0    0  0.59901392271E+02  0.41517573469E+02  0.40438609869E+03  0.41090145110E+03  0.00000000000E+00 0. -1.
</event>
<event>
 7    1  0.2900135E-009  0.1493342E+03  0.7561462E-02  0.1201294E+00
         -1   -1    0    0    0  501 -0.00000000000E+00  0.00000000000E+00  0.50443643942E+02  0.50443643942E+02  0.00000000000E+00 0.  1.
          1   -1    0    0  501    0  0.00000000000E+00 -0.00000000000E+00 -0.50269056410E+03  0.50269056410E+03  0.00000000000E+00 0. -1.
         25    2    1    2    0    0 -0.19979901547E+02  0.11416335863E+03 -0.22112907963E+03  0.27924494036E+03  0.12508876025E+03 0.  0.
          5    1    3    3  502    0 -0.60019512480E+02  0.91648650998E+02 -0.20092432112E+03  0.22888834030E+03  0.41800000000E+01 0.  1.
         -5    1    3    3    0  502  0.40039610933E+02  0.22514707629E+02 -0.20204758510E+02  0.50356600061E+02  0.41800000000E+01 0.  1.
        -11    1    1    2    0    0  0.49037164559E+02 -0.40081468751E+02 -0.13490453427E+03  0.14903154368E+03  0.00000000000E+00 0.  1.
         11    1    1    2    0    0 -0.29057263012E+02 -0.74081889876E+02 -0.96213306265E+02  0.12485772401E+03  0.00000000000E+00 0. -1.
</event>
<event>
 7    1  0.2900135E-009  0.1785900E+03  0.7561462E-02  0.1169175E+00
          2   -1    0    0  501    0  0.00000000000E+00  0.00000000000E+00  0.16882835154E+03  0.16882835154E+03  0.00000000000E+00 0.  1.
         -2   -1    0    0    0  501 -0.00000000000E+00 -0.00000000000E+00 -0.28384535983E+03  0.28384535983E+03  0.00000000000E+00 0. -1.
         25    2    1    2    0    0  0.12506021388E+03 -0.11559562000E+03  0.27013677932E+02  0.21302824374E+03  0.12509552101E+03 0.  0.
          5    1    3    3  502    0  0.64325373629E+02 -0.15267810272E+02  0.61832912605E+02  0.90618106382E+02  0.41800000000E+01 0. -1.
         -5    1    3    3    0  502  0.60734840248E+02 -0.10032780973E+03 -0.34819234673E+02  0.12241013736E+03  0.41800000000E+01 0. -1.
        -11    1    1    2    0    0 -0.45316255676E+00  0.10677666714E+02 -0.52883112431E+02  0.53952214998E+02  0.00000000000E+00 0. -1.
         11    1    1    2    0    0 -0.12460705132E+03  0.10491795329E+03 -0.89147573782E+02  0.18569325263E+03  0.00000000000E+00 0.  1.
</event>
<event>
 7    1  0.2900135E-009  0.1078099E+03  0.7561462E-02  0.1264680E+00
          1   -1    0    0  501    0  0.00000000000E+00  0.00000000000E+00  0.18611737590E+03  0.18611737590E+03  0.00000000000E+00 0. -1.
         -1   -1    0    0    0  501 -0.00000000000E+00 -0.00000000000E+00 -0.96152283819E+02  0.96152283819E+02  0.00000000000E+00 0.  1.
         25    2    1    2    0    0  0.58212744764E+02 -0.40073996802E+02  0.14506021598E+02  0.14441056404E+03  0.12509731200E+03 0.  0.
          5    1    3    3  502    0  0.83706337922E+02 -0.43825179270E+02  0.44605115310E+02  0.10456809293E+03  0.41800000000E+01 0. -1.
         -5    1    3    3    0  502 -0.25493593159E+02  0.37511824682E+01 -0.30099093712E+02  0.39842471112E+02  0.41800000000E+01 0. -1.
        -11    1    1    2    0    0  0.11534039907E+02  0.18732510463E+02 -0.11121508260E+02  0.24650131254E+02  0.00000000000E+00 0.  1.
         11    1    1    2    0    0 -0.69746784671E+02  0.21341486338E+02  0.86580578741E+02  0.11320896443E+03  0.00000000000E+00 0. -1.
</event>
<event>
 7    1  0.2900135E-009  0.1325581E+03  0.7561462E-02  0.1223709E+00
         -1   -1    0    0    0  501 -0.00000000000E+00  0.00000000000E+00  0.14864618717E+02  0.14864618717E+02  0.00000000000E+00 0.  1.
          1   -1    0    0  501    0  0.00000000000E+00 -0.00000000000E+00 -0.12053213290E+04  0.12053213290E+04  0.00000000000E+00 0. -1.
         25    2    1    2    0    0 -0.70607712886E+02 -0.36003523082E+02 -0.62846673204E+03  0.64567757500E+03  0.12508954706E+03 0.  0.
          5    1    3    3  502    0 -0.15874316893E+02 -0.76699176911E+02 -0.37832571377E+03  0.38637103382E+03  0.41800000000E+01 0.  1.
         -5    1    3    3    0  502 -0.54733395993E+02  0.40695653829E+02 -0.25014101827E+03  0.25930654118E+03  0.41800000000E+01 0. -1.
        -11    1    1    2    0    0  0.79342086431E+02 -0.19857583972E+01 -0.34170623298E+03  0.35080230839E+03  0.00000000000E+00 0.  1.
         11    1    1    2    0    0 -0.87343735453E+01  0.37989281479E+02 -0.22028374524E+03  0.22370606430E+03  0.00000000000E+00 0. -1.
</event>
<event>
 7    1  0.2900135E-009  0.1078152E+03  0.7561462E-02  0.1264670E+00
          2   -1    0    0  501    0  0.00000000000E+00  0.00000000000E+00  0.17410216577E+03  0.17410216577E+03  0.00000000000E+00 0. -1.
         -2   -1    0    0    0  501 -0.00000000000E+00 -0.00000000000E+00 -0.98339407623E+02  0.98339407623E+02  0.00000000000E+00 0.  1.
         25    2    1    2    0    0  0.31731708361E+02  0.35285204123E+02  0.10132336938E+03  0.16782887701E+03  0.12509260502E+03 0.  0.
          5    1    3    3  502    0  0.58960838037E+02  0.66159785169E+02  0.86410281663E+02  0.12384549557E+03  0.41800000000E+01 0. -1.
         -5    1    3    3    0  502 -0.27229129676E+02 -0.30874581046E+02  0.14913087714E+02  0.43983381439E+02  0.41800000000E+01 0. -1.
        -11    1    1    2    0    0 -0.16492992623E+02  0.21296471061E+02 -0.36133468517E+02  0.45068681280E+02  0.00000000000E+00 0.  1.
         11    1    1    2    0    0 -0.15238715738E+02 -0.56581675183E+02  0.10572857290E+02  0.59544015108E+02  0.00000000000E+00 0. -1.
</event>
<event>
 7    1  0.2900135E-009  0.1319945E+03  0.7561462E-02  0.1224526E+00
         -2   -1    0    0    0  501 -0.00000000000E+00  0.00000000000E+00  0.65303234073E+03  0.65303234073E+03  0.00000000000E+00 0.  1.
          2   -1    0    0  501    0  0.00000000000E+00 -0.00000000000E+00 -0.33454731510E+02  0.33454731510E+02  0.00000000000E+00 0. -1.
         25    2    1    2    0    0  0.73692199126E+02 -0.39658692811E+02  0.21111922210E+03  0.25927236921E+03  0.12508990115E+03 0.  0.
          5    1    3    3  502    0 -0.20374470735E+02 -0.50717546021E+02  0.91159682287E+02  0.10637174722E+03  0.41800000000E+01 0. -1.
         -5    1    3    3    0  502  0.94066669861E+02  0.11058853210E+02  0.11995953981E+03  0.15290062199E+03  0.41800000000E+01 0. -1.
        -11    1    1    2    0    0  0.16642556482E+02  0.93082144022E+01  0.21695906284E+02  0.28884769189E+02  0.00000000000E+00 0. -1.
         11    1    1    2    0    0 -0.90334755608E+02  0.30350478409E+02  0.38676248084E+03  0.39832993384E+03  0.00000000000E+00 0.  1.
</event>
<event>
 7    1  0.2900135E-009  0.7050681E+02  0.7561462E-02  0.1358378E+00
          2   -1    0    0  501    0  0.00000000000E+00  0.00000000000E+00  0.13547714736E+03  0.13547714736E+03  0.00000000000E+00 0.  1.
         -2   -1    0    0    0  501 -0.00000000000E+00 -0.00000000000E+00 -0.94355781045E+02  0.94355781045E+02  0.00000000000E+00 0. -1.
         25    2    1    2    0    0 -0.11078657274E+02  0.32001217280E+02  0.30771712285E+02  0.13319477836E+03  0.12508851327E+03 0.  0.
          5    1    3    3  502    0 -0.29546854537E+02  0.33633109022E+02  0.73651704934E+02  0.86291648931E+02  0.41800000000E+01 0.  1.
         -5    1    3    3    0  502  0.18468197264E+02 -0.16318917418E+01 -0.42879992649E+02  0.46903129431E+02  0.41800000000E+01 0.  1.
        -11    1    1    2    0    0  0.34678585656E+02  0.30248152209E+01  0.33638757973E+02  0.48407849035E+02  0.00000000000E+00 0.  1.
         11    1    1    2    0    0 -0.23599928382E+02 -0.35026032501E+02 -0.23289103946E+02  0.48230301005E+02  0.00000000000E+00 0. -1.
</event>
<event>
 7    1  0.2900135E-009  0.2685243E+03  0.7561462E-02  0.1102127E+00
         -2   -1    0    0    0  501 -0.00000000000E+00  0.00000000000E+00  0.86397617855E+02  0.86397617855E+02  0.00000000000E+00 0. -1.
          2   -1    0    0  501    0  0.00000000000E+00 -0.00000000000E+00 -0.93753228634E+03  0.93753228634E+03  0.00000000000E+00 0.  1.
         25    2    1    2    0    0  0.18670615396E+03  0.17975514375E+03 -0.51264861367E+03  0.58790232069E+03  0.12509771359E+03 0.  0.
          5    1    3    3  502    0  0.16787460560E+03  0.12697264167E+03 -0.47689293106E+03  0.52129480626E+03  0.41800000000E+01 0. -1.
         -5    1    3    3    0  502  0.18831548361E+02  0.52782502085E+02 -0.35755682606E+02  0.66607514431E+02  0.41800000000E+01 0. -1.
        -11    1    1    2    0    0 -0.15447113600E+03 -0.99254660081E+02 -0.19102065212E+03  0.26495605096E+03  0.00000000000E+00 0.  1.
         11    1    1    2    0    0 -0.32235017961E+02 -0.80500483672E+02 -0.14746540269E+03  0.17107153254E+03  0.00000000000E+00 0. -1.
</event>
<event>
 7    1  0.2900135E-009  0.7288828E+02  0.7561462E-02  0.1350538E+00
         -2   -1    0    0    0  501 -0.00000000000E+00  0.00000000000E+00  0.42644743953E+02  0.42644743953E+02  0.00000000000E+00 0.  1.
          2   -1    0    0  501    0  0.00000000000E+00 -0.00000000000E+00 -0.52356626400E+03  0.52356626400E+03  0.00000000000E+00 0. -1.
         25    2    1    2    0    0 -0.14448051905E+02 -0.23691369839E+02 -0.44640790475E+03  0.46443263523E+03  0.12509047942E+03 0.  0.
          5    1    3    3  502    0  0.20402005891E+02 -0.23967417589E+02 -0.41819555896E+03  0.41939918561E+03  0.41800000000E+01 0. -1.
         -5    1    3    3    0  502 -0.34850057796E+02  0.27604775072E+00 -0.28212345782E+02  0.45033449627E+02  0.41800000000E+01 0. -1.
        -11    1    1    2    0    0  0.17655524422E+02  0.49687451631E+02  0.64835039044E+01  0.53128111345E+02  0.00000000000E+00 0.  1.
         11    1    1    2    0    0 -0.32074725171E+01 -0.25996081793E+02 -0.40997119203E+02  0.48650261371E+02  0.00000000000E+00 0. -1.
</event>
<event>
 7    1  0.2900135E-009  0.9830494E+02  0.7561462E-02  0.1283901E+00
         -1   -1    0    0    0  501 -0.00000000000E+00  0.00000000000E+00  0.79756794470E+02  0.79756794470E+02  0.00000000000E+00 0.  1.
          1   -1    0    0  501    0  0.00000000000E+00 -0.00000000000E+00 -0.16815781010E+03  0.16815781010E+03  0.00000000000E+00 0. -1.
         25    2    1    2    0    0 -0.33572591989E+01  0.25880232471E+02 -0.83383670906E+02  0.15258234378E+03  0.12508987744E+03 0.  0.
          5    1    3    3  502    0  0.32721198060E+02  0.65667803111E+02 -0.54205374428E+02  0.91316111310E+02  0.41800000000E+01 0. -1.
         -5    1    3    3    0  502 -0.36078457259E+02 -0.39787570640E+02 -0.29178296478E+02  0.61266232470E+02  0.41800000000E+01 0. -1.
        -11    1    1    2    0    0 -0.14326705757E+02  0.17375100335E+02  0.29588151204E+02  0.37183427776E+02  0.00000000000E+00 0.  1.
         11    1    1    2    0    0  0.17683964956E+02 -0.43255332805E+02 -0.34605495930E+02  0.58148833017E+02  0.00000000000E+00 0. -1.
</event>
<event>
 7    1  0.2900135E-009  0.1142729E+03  0.7561462E-02  0.1252856E+00
          2   -1    0    0  501    0  0.00000000000E+00  0.00000000000E+00  0.13087617748E+03  0.13087617748E+03  0.00000000000E+00 0. -1.
         -2   -1    0    0    0  501 -0.00000000000E+00 -0.00000000000E+00 -0.16095643085E+03  0.16095643085E+03  0.00000000000E+00 0.  1.
         25    2    1    2    0    0  0.71947047825E+02  0.42099319219E+02  0.46027033124E+02  0.15721135100E+03  0.12509272854E+03 0.  0.
          5    1    3    3  502    0  0.16962706061E+02  0.76311761569E+02  0.48813437331E+02  0.92257478910E+02  0.41800000000E+01 0.  1.
         -5    1    3    3    0  502  0.54984341764E+02 -0.34212442350E+02 -0.27864042066E+01  0.64953872088E+02  0.41800000000E+01 0.  1.
        -11    1    1    2    0    0 -0.21639291891E+02 -0.22933298693E+02 -0.74347703524E+02  0.80757514584E+02  0.00000000000E+00 0.  1.
         11    1    1    2    0    0 -0.50307755935E+02 -0.19166020526E+02 -0.17595829704E+01  0.53863742742E+02  0.00000000000E+00 0. -1.
</event>
<event>
 7    1  0.2900135E-009  0.2183241E+03  0.7561462E-02  0.1135139E+00
         -3   -1    0    0    0  501 -0.00000000000E+00  0.00000000000E+00  0.44156063888E+03  0.44156063888E+03  0.00000000000E+00 0.  1.
          3   -1    0    0  501    0  0.00000000000E+00 -0.00000000000E+00 -0.14622044355E+03  0.14622044355E+03  0.00000000000E+00 0. -1.
         25    2    1    2    0    0  0.71292685752E+02 -0.18633155487E+03  0.28292318899E+03  0.36809073434E+03  0.12507262875E+03 0.  0.
          5    1    3    3  502    0  0.71497086415E+02 -0.54029100440E+02  0.57133748855E+02  0.10636124632E+03  0.41800000000E+01 0. -1.
         -5    1    3    3    0  502 -0.20440066249E+00 -0.13230245443E+03  0.22578944013E+03  0.26172948802E+03  0.41800000000E+01 0. -1.
        -11    1    1    2    0    0 -0.87101019897E+02  0.13334261930E+03 -0.10979340075E+02  0.15964769869E+03  0.00000000000E+00 0. -1.
         11    1    1    2    0    0  0.15808334145E+02  0.52988935568E+02  0.23396346421E+02  0.60042649400E+02  0.00000000000E+00 0.  1.
</event>
<event>
 7    1  0.3731285E-009  0.1132943E+03  0.7561462E-02  0.1254588E+00
         -1   -1    0    0    0  501 -0.00000000000E+00  0.00000000000E+00  0.84402082286E+02  0.84402082286E+02  0.00000000000E+00 0. -1.
          1   -1    0    0  501    0  0.00000000000E+00 -0.00000000000E+00 -0.21289773203E+03  0.21289773203E+03  0.00000000000E+00 0.  1.
         25    2    1    2    0    0  0.41767499259E+02 -0.23616868766E+01  0.31068672229E+01  0.13193468092E+03  0.12508799242E+03 0.  0.
          5    1    3    3  502    0 -0.28292824072E+02  0.37458976205E+02  0.16904828785E+02  0.50068996680E+02  0.41800000000E+01 0. -1.
         -5    1    3    3    0  502  0.70060323331E+02 -0.39820663081E+02 -0.13797961563E+02  0.81865684244E+02  0.41800000000E+01 0. -1.
        -11    1    1    2    0    0  0.64030976068E+01  0.38195221840E+02 -0.65291540686E+02  0.75913502854E+02  0.00000000000E+00 0.  1.
         11    1    1    2    0    0 -0.48170596866E+02 -0.35833534963E+02 -0.66310976278E+02  0.89451630535E+02  0.00000000000E+00 0. -1.
</event>
<event>
 7    1  0.2900135E-009  0.1094380E+03  0.7561462E-02  0.1261614E+00
         -1   -1    0    0    0  501 -0.00000000000E+00  0.00000000000E+00  0.77661016857E+03  0.77661016857E+03  0.00000000000E+00 0.  1.
          1   -1    0    0  501    0  0.00000000000E+00 -0.00000000000E+00 -0.29475109037E+02  0.29475109037E+02  0.00000000000E+00 0. -1.
         25    2    1    2    0    0  0.40894204513E+02 -0.89090782519E+02  0.53342193662E+03  0.55659267594E+03  0.12508773303E+03 0.  0.
          5    1    3    3  502    0  0.10587643109E+02 -0.86032052590E+02  0.51155474553E+03  0.51886351031E+03  0.41800000000E+01 0. -1.
         -5    1    3    3    0  502  0.30306561404E+02 -0.30587299283E+01  0.21867191086E+02  0.37729165627E+02  0.41800000000E+01 0. -1.
        -11    1    1    2    0    0 -0.28051212799E+02  0.30800226581E+02  0.17124044776E+03  0.17623511411E+03  0.00000000000E+00 0.  1.
         11    1    1    2    0    0 -0.12842991713E+02  0.58290555937E+02  0.42472675149E+02  0.73257487549E+02  0.00000000000E+00 0. -1.
</event>
<event>
 7    1  0.2900135E-009  0.2754031E+03  0.7561462E-02  0.1098226E+00
          4   -1    0    0  501    0  0.00000000000E+00  0.00000000000E+00  0.72750800673E+02  0.72750800673E+02  0.00000000000E+00 0. -1.
         -4   -1    0    0    0  501 -0.00000000000E+00 -0.00000000000E+00 -0.11164290961E+04  0.11164290961E+04  0.00000000000E+00 0.  1.
         25    2    1    2    0    0  0.15668582226E+03 -0.20426237763E+03 -0.42076076864E+03  0.50888155420E+03  0.12508895223E+03 0.  0.
          5    1    3    3  502    0  0.36623417982E+02 -0.14896835234E+03 -0.21083789538E+03  0.26077372427E+03  0.41800000000E+01 0.  1.
         -5    1    3    3    0  502  0.12006240427E+03 -0.55294025286E+02 -0.20992287326E+03  0.24810782993E+03  0.41800000000E+01 0.  1.
        -11    1    1    2    0    0 -0.67202796588E+02  0.40452383044E+02 -0.11530906993E+03  0.13945892862E+03  0.00000000000E+00 0. -1.
         11    1    1    2    0    0 -0.89483025668E+02  0.16380999459E+03 -0.50760845682E+03  0.54083941391E+03  0.00000000000E+00 0.  1.
</event>
<event>
 7    1  0.2900135E-009  0.1678947E+03  0.7561462E-02  0.1180061E+00
         -1   -1    0    0    0  501 -0.00000000000E+00  0.00000000000E+00  0.34689342521E+03  0.34689342521E+03  0.00000000000E+00 0.  1.
          1   -1    0    0  501    0  0.00000000000E+00 -0.00000000000E+00 -0.12078956442E+03  0.12078956442E+03  0.00000000000E+00 0. -1.
         25    2    1    2    0    0 -0.44783989515E+02 -0.12425487603E+03 -0.10294665802E+02  0.18220625685E+03  0.12509300523E+03 0.  0.
          5    1    3    3  502    0  0.27298134768E+02 -0.10107726500E+03  0.47772108990E+01  0.10489087571E+03  0.41800000000E+01 0. -1.
         -5    1    3    3    0  502 -0.72082124284E+02 -0.23177611030E+02 -0.15071876701E+02  0.77315381145E+02  0.41800000000E+01 0. -1.
        -11    1    1    2    0    0  0.24464895005E+02  0.13138349041E+03  0.17355757610E+03  0.21904881844E+03  0.00000000000E+00 0.  1.
         11    1    1    2    0    0  0.20319094510E+02 -0.71286143731E+01  0.62840950496E+02  0.66427914342E+02  0.00000000000E+00 0. -1.
</event>
<event>
 7    1  0.2900135E-009  0.1492292E+03  0.7561462E-02  0.1201423E+00
         -3   -1    0    0    0  501 -0.00000000000E+00  0.00000000000E+00  0.17806796264E+03  0.17806796264E+03  0.00000000000E+00 0.  1.
          3   -1    0    0  501    0  0.00000000000E+00 -0.00000000000E+00 -0.18556969058E+03  0.18556969058E+03  0.00000000000E+00 0. -1.
         25    2    1    2    0    0 -0.10660110738E+03 -0.62366636711E+02 -0.72799296735E+02  0.19026593623E+03  0.12509194784E+03 0.  0.
          5    1    3    3  502    0  0.16138419943E+02 -0.27494051736E+02  0.14840894458E+02  0.35413218259E+02  0.41800000000E+01 0. -1.
         -5    1    3    3    0  502 -0.12273952732E+03 -0.34872584975E+02 -0.87640191193E+02  0.15485271797E+03  0.41800000000E+01 0. -1.
        -11    1    1    2    0    0  0.27873355703E+02  0.52308441015E+02  0.72538303991E+02  0.93674449587E+02  0.00000000000E+00 0.  1.
         11    1    1    2    0    0  0.78727751677E+02  0.10058195696E+02 -0.72407351946E+01  0.79697267399E+02  0.00000000000E+00 0. -1.
</event>
<event>
 7    1  0.2900135E-009  0.1031384E+03  0.7561462E-02  0.1273831E+00
          2   -1    0    0  501    0  0.00000000000E+00  0.00000000000E+00  0.10132778608E+04  0.10132778608E+04  0.00000000000E+00 0. -1.
         -2   -1    0    0    0  501 -0.00000000000E+00 -0.00000000000E+00 -0.13863307294E+02  0.13863307294E+02  0.00000000000E+00 0.  1.
         25    2    1    2    0    0  0.40716942027E+02  0.35696396265E+02  0.64755773054E+03  0.66174833233E+03  0.12509092245E+03 0.  0.
          5    1    3    3  502    0  0.80566439745E+02  0.42870400523E+02  0.51641014218E+03  0.52442895591E+03  0.41800000000E+01 0. -1.
         -5    1    3    3    0  502 -0.39849497718E+02 -0.71740042585E+01  0.13114758836E+03  0.13731937641E+03  0.41800000000E+01 0. -1.
        -11    1    1    2    0    0  0.12016607338E+02 -0.38912851094E+01  0.57994203914E+01  0.13898713199E+02  0.00000000000E+00 0.  1.
         11    1    1    2    0    0 -0.52733549365E+02 -0.31805111155E+02  0.34605740258E+03  0.35149412258E+03  0.00000000000E+00 0. -1.
</event>
<event>
 7    1  0.2900135E-009  0.5130750E+03  0.7561462E-02  0.1010421E+00
         -1   -1    0    0    0  501 -0.00000000000E+00  0.00000000000E+00  0.20206288088E+03  0.20206288088E+03  0.00000000000E+00 0.  1.
          1   -1    0    0  501    0  0.00000000000E+00 -0.00000000000E+00 -0.14768328941E+04  0.14768328941E+04  0.00000000000E+00 0. -1.
         25    2    1    2    0    0 -0.37918568908E+03  0.33350080157E+03 -0.36920449289E+03  0.63793843462E+03  0.12509563279E+03 0.  0.
          5    1    3    3  502    0 -0.33260824044E+03  0.24376454316E+03 -0.33438783752E+03  0.53092569385E+03  0.41800000000E+01 0. -1.
         -5    1    3    3    0  502 -0.46577448646E+02  0.89736258414E+02 -0.34816655367E+02  0.10701274077E+03  0.41800000000E+01 0. -1.
        -11    1    1    2    0    0  0.30953292323E+03 -0.31242710968E+03 -0.75572602579E+03  0.87438158460E+03  0.00000000000E+00 0.  1.
         11    1    1    2    0    0  0.69652765850E+02 -0.21073691892E+02 -0.14983949451E+03  0.16657575573E+03  0.00000000000E+00 0. -1.
</event>
<event>
 7    1  0.2900135E-009  0.1171215E+03  0.7561462E-02  0.1247923E+00
          2   -1    0    0  501    0  0.00000000000E+00  0.00000000000E+00  0.78244932210E+03  0.78244932210E+03  0.00000000000E+00 0. -1.
         -2   -1    0    0    0  501 -0.00000000000E+00 -0.00000000000E+00 -0.17779680953E+02  0.17779680953E+02  0.00000000000E+00 0.  1.
         25    2    1    2    0    0  0.36465188544E+02  0.27111262881E+02  0.47728114169E+03  0.49548850465E+03  0.12508732738E+03 0.  0.
          5    1    3    3  502    0  0.80042667489E+02  0.36693848028E+02  0.30637773540E+03  0.31880723996E+03  0.41800000000E+01 0. -1.
         -5    1    3    3    0  502 -0.43577478944E+02 -0.95825851463E+01  0.17090340629E+03  0.17668126469E+03  0.41800000000E+01 0. -1.
        -11    1    1    2    0    0  0.26880155195E+02 -0.26762082282E+02  0.11379257628E+03  0.11994791456E+03  0.00000000000E+00 0. -1.
         11    1    1    2    0    0 -0.63345343740E+02 -0.34918059919E+00  0.17359592318E+03  0.18479258385E+03  0.00000000000E+00 0.  1.
</event>
<event>
 7    1  0.2900135E-009  0.6025012E+02  0.7561462E-02  0.1396785E+00
         -2   -1    0    0    0  501 -0.00000000000E+00  0.00000000000E+00  0.57629041010E+02  0.57629041010E+02  0.00000000000E+00 0.  1.
          2   -1    0    0  501    0  0.00000000000E+00 -0.00000000000E+00 -0.29558980056E+03  0.29558980056E+03  0.00000000000E+00 0. -1.
         25    2    1    2    0    0 -0.36627616525E+02  0.34429697791E+02 -0.20041548444E+03  0.24153947685E+03  0.12509183062E+03 0.  0.
          5    1    3    3  502    0 -0.23026848914E+02  0.21887864695E+02 -0.21514907010E+03  0.21752220383E+03  0.41800000000E+01 0.  1.
         -5    1    3    3    0  502 -0.13600767612E+02  0.12541833096E+02  0.14733585657E+02  0.24017273021E+02  0.41800000000E+01 0.  1.
        -11    1    1    2    0    0  0.31411757093E+02  0.31320082786E+01  0.23817196785E+02  0.39544491680E+02  0.00000000000E+00 0.  1.
         11    1    1    2    0    0  0.52158594325E+01 -0.37561706069E+02 -0.61362471893E+02  0.72134873045E+02  0.00000000000E+00 0. -1.
</event>
<event>
 7    1  0.2900135E-009  0.1180165E+03  0.7561462E-02  0.1246405E+00
          1   -1    0    0  501    0  0.00000000000E+00  0.00000000000E+00  0.64864803345E+02  0.64864803345E+02  0.00000000000E+00 0. -1.
         -1   -1    0    0    0  501 -0.00000000000E+00 -0.00000000000E+00 -0.31624553613E+03  0.31624553613E+03  0.00000000000E+00 0.  1.
         25    2    1    2    0    0  0.55961389983E+02 -0.73110108152E+02 -0.12321295996E+03  0.19825607305E+03  0.12508905594E+03 0.  0.
          5    1    3    3  502    0  0.41885255184E+02  0.14327049606E+02 -0.95533402511E+02  0.10537429643E+03  0.41800000000E+01 0. -1.
         -5    1    3    3    0  502  0.14076134799E+02 -0.87437157758E+02 -0.27679557450E+02  0.92881776622E+02  0.41800000000E+01 0. -1.
        -11    1    1    2    0    0 -0.98236760821E+01  0.50647799369E+02 -0.80257882845E+01  0.52212234872E+02  0.00000000000E+00 0. -1.
         11    1    1    2    0    0 -0.46137713901E+02  0.22462308783E+02 -0.12014198454E+03  0.13064203155E+03  0.00000000000E+00 0.  1.
</event>
<event>
 7    1  0.2900135E-009  0.1888643E+03  0.7561462E-02  0.1159490E+00
          1   -1    0    0  501    0  0.00000000000E+00  0.00000000000E+00  0.23019794286E+04  0.23019794286E+04  0.00000000000E+00 0. -1.
         -1   -1    0    0    0  501 -0.00000000000E+00 -0.00000000000E+00 -0.21114950582E+02  0.21114950582E+02  0.00000000000E+00 0.  1.
         25    2    1    2    0    0  0.88850003501E+02  0.15322881801E+03  0.15584645106E+04  0.15734779673E+04  0.12509152344E+03 0.  0.
          5    1    3    3  502    0  0.78571507505E+02  0.13299658061E+03  0.80714401698E+03  0.82180320563E+03  0.41800000000E+01 0.  1.
         -5    1    3    3    0  502  0.10278495996E+02  0.20232237404E+02  0.75132049359E+03  0.75167476171E+03  0.41800000000E+01 0.  1.
        -11    1    1    2    0    0 -0.34654542811E+02  0.29795038793E+01  0.13075448609E+03  0.13530170145E+03  0.00000000000E+00 0. -1.
         11    1    1    2    0    0 -0.54195460691E+02 -0.15620832189E+03  0.59164548137E+03  0.61431471040E+03  0.00000000000E+00 0.  1.
</event>
<event>
 7    1  0.2900135E-009  0.7537787E+02  0.7561462E-02  0.1342705E+00
          1   -1    0    0  501    0  0.00000000000E+00  0.00000000000E+00  0.15000456157E+04  0.15000456157E+04  0.00000000000E+00 0. -1.
         -1   -1    0    0    0  501 -0.00000000000E+00 -0.00000000000E+00 -0.10455030665E+02  0.10455030665E+02  0.00000000000E+00 0.  1.
         25    2    1    2    0    0  0.11772491830E+02 -0.32129085095E+02  0.11547114763E+04  0.11619736757E+04  0.12511338802E+03 0.  0.
          5    1    3    3  502    0 -0.62346352001E+01  0.74602198311E+01  0.54904599912E+01  0.11922378409E+02  0.41800000000E+01 0.  1.
         -5    1    3    3    0  502  0.18007127030E+02 -0.39589304926E+02  0.11492210163E+04  0.11500512973E+04  0.41800000000E+01 0.  1.
        -11    1    1    2    0    0 -0.38273903650E+02 -0.16042480384E+02  0.15179582905E+03  0.15736653582E+03  0.00000000000E+00 0. -1.
         11    1    1    2    0    0  0.26501411820E+02  0.48171565478E+02  0.18308327965E+03  0.19116043481E+03  0.00000000000E+00 0.  1.
</event>
<event>
 7    1  0.2900135E-009  0.9025863E+02  0.7561462E-02  0.1302227E+00
          2   -1    0    0  501    0  0.00000000000E+00  0.00000000000E+00  0.79111924132E+03  0.79111924132E+03  0.00000000000E+00 0. -1.
         -2   -1    0    0    0  501 -0.00000000000E+00 -0.00000000000E+00 -0.17777809978E+02  0.17777809978E+02  0.00000000000E+00 0.  1.
         25    2    1    2    0    0 -0.11522434118E+02 -0.17268844397E+02  0.50923835076E+03  0.52478778385E+03  0.12509013041E+03 0.  0.
          5    1    3    3  502    0  0.33799669700E+01  0.33716623469E+02  0.40241596194E+02  0.52773983544E+02  0.41800000000E+01 0. -1.
         -5    1    3    3    0  502 -0.14902401088E+02 -0.50985467865E+02  0.46899675456E+03  0.47201380031E+03  0.41800000000E+01 0. -1.
        -11    1    1    2    0    0  0.51458873178E+02  0.77806434420E+01  0.79661410287E+02  0.95155106695E+02  0.00000000000E+00 0.  1.
         11    1    1    2    0    0 -0.39936439060E+02  0.94882009547E+01  0.18444167030E+03  0.18895416075E+03  0.00000000000E+00 0. -1.
</event>
<event>
 7    1  0.2900135E-009  0.1429278E+03  0.7561462E-02  0.1209443E+00
          2   -1    0    0  501    0  0.00000000000E+00  0.00000000000E+00  0.16965619006E+04  0.16965619006E+04  0.00000000000E+00 0.  1.
         -2   -1    0    0    0  501 -0.00000000000E+00 -0.00000000000E+00 -0.14402820545E+02  0.14402820545E+02  0.00000000000E+00 0. -1.
         25    2    1    2    0    0 -0.77610227852E+02  0.50950501048E+02  0.12357256340E+04  0.12455052428E+04  0.12508463737E+03 0.  0.
          5    1    3    3  502    0  0.78258246683E+01  0.67555301771E+02  0.49309731794E+03  0.49778248231E+03  0.41800000000E+01 0.  1.
         -5    1    3    3    0  502 -0.85436052520E+02 -0.16604800723E+02  0.74262831602E+03  0.74772276054E+03  0.41800000000E+01 0.  1.
        -11    1    1    2    0    0  0.23762879830E+01 -0.55181219402E+02  0.21951642844E+03  0.22635829138E+03  0.00000000000E+00 0.  1.
         11    1    1    2    0    0  0.75233939869E+02  0.42307183542E+01  0.22691701761E+03  0.23910118688E+03  0.00000000000E+00 0. -1.
</event>
<event>
 7    1  0.2900135E-009  0.1560728E+03  0.7561462E-02  0.1193203E+00
         -3   -1    0    0    0  501 -0.00000000000E+00  0.00000000000E+00  0.75666050157E+02  0.75666050157E+02  0.00000000000E+00 0.  1.
          3   -1    0    0  501    0  0.00000000000E+00 -0.00000000000E+00 -0.33605885633E+03  0.33605885633E+03  0.00000000000E+00 0. -1.
         25    2    1    2    0    0 -0.11630722192E+03 -0.19154973277E+01 -0.16344847365E+03  0.23641910103E+03  0.12509016266E+03 0.  0.
          5    1    3    3  502    0 -0.13559640304E+03  0.19883632664E+02 -0.15241412686E+03  0.20501044323E+03  0.41800000000E+01 0.  1.
         -5    1    3    3    0  502  0.19289181113E+02 -0.21799129992E+02 -0.11034346782E+02  0.31408657808E+02  0.41800000000E+01 0.  1.
        -11    1    1    2    0    0  0.47420943957E+02 -0.42488537704E+02 -0.35733269400E+02  0.73012932444E+02  0.00000000000E+00 0.  1.
         11    1    1    2    0    0  0.68886277965E+02  0.44404035032E+02 -0.61211063126E+02  0.10229287301E+03  0.00000000000E+00 0. -1.
</event>
<event>
 7    1  0.2900135E-009  0.1151002E+03  0.7561462E-02  0.1251406E+00
          1   -1    0    0  501    0  0.00000000000E+00  0.00000000000E+00  0.13538349757E+03  0.13538349757E+03  0.00000000000E+00 0. -1.
         -1   -1    0    0    0  501 -0.00000000000E+00 -0.00000000000E+00 -0.98290099574E+02  0.98290099574E+02  0.00000000000E+00 0.  1.
         25    2    1    2    0    0  0.35898039252E+01 -0.39046883139E+02  0.20699968454E+02  0.13271488334E+03  0.12508879163E+03 0.  0.
          5    1    3    3  502    0  0.79278136621E+01  0.45232493673E+02  0.18813300978E+01  0.46150195192E+02  0.41800000000E+01 0.  1.
         -5    1    3    3    0  502 -0.43380097369E+01 -0.84279376812E+02  0.18818638356E+02  0.86564688147E+02  0.41800000000E+01 0.  1.
        -11    1    1    2    0    0  0.42441254837E+02  0.31716796366E+02  0.98418377235E+01  0.53889489269E+02  0.00000000000E+00 0.  1.
         11    1    1    2    0    0 -0.46031058762E+02  0.73300867732E+01  0.65515918164E+01  0.47069224533E+02  0.00000000000E+00 0. -1.
</event>
<event>
 7    1  0.2900135E-009  0.1878096E+03  0.7561462E-02  0.1160452E+00
          1   -1    0    0  501    0  0.00000000000E+00  0.00000000000E+00  0.76023059641E+03  0.76023059641E+03  0.00000000000E+00 0. -1.
         -1   -1    0    0    0  501 -0.00000000000E+00 -0.00000000000E+00 -0.50892207165E+02  0.50892207165E+02  0.00000000000E+00 0.  1.
         25    2    1    2    0    0  0.16350854223E+03 -0.89111522677E+01  0.43678032716E+03  0.48294770566E+03  0.12508788987E+03 0.  0.
          5    1    3    3  502    0  0.44213542337E+02 -0.59811976080E+02  0.12966746037E+03  0.14954408209E+03  0.41800000000E+01 0.  1.
         -5    1    3    3    0  502  0.11929499989E+03  0.50900823812E+02  0.30711286679E+03  0.33340362357E+03  0.41800000000E+01 0.  1.
        -11    1    1    2    0    0 -0.59217147738E+02 -0.21046276180E+02  0.15967191877E+03  0.17159469098E+03  0.00000000000E+00 0. -1.
         11    1    1    2    0    0 -0.10429139449E+03  0.29957428447E+02  0.11288614331E+03  0.15658040693E+03  0.00000000000E+00 0.  1.
</event>
<event>
 7    1  0.2900135E-009  0.9127146E+02  0.7561462E-02  0.1299802E+00
         -2   -1    0    0    0  501 -0.00000000000E+00  0.00000000000E+00  0.44713246243E+02  0.44713246243E+02  0.00000000000E+00 0.  1.
          2   -1    0    0  501    0  0.00000000000E+00 -0.00000000000E+00 -0.32766801972E+03  0.32766801972E+03  0.00000000000E+00 0. -1.
         25    2    1    2    0    0 -0.33448937290E+02 -0.49374177190E+02 -0.14611902138E+03  0.20138518809E+03  0.12509430359E+03 0.  0.
          5    1    3    3  502    0 -0.25443081837E+02 -0.64842921506E+02 -0.18061281312E+02  0.72080768347E+02  0.41800000000E+01 0.  1.
         -5    1    3    3    0  502 -0.80058554537E+01  0.15468744316E+02 -0.12805774007E+03  0.12930441974E+03  0.41800000000E+01 0.  1.
        -11    1    1    2    0    0  0.53450834652E+02  0.15745282077E+02 -0.46589143604E+02  0.72632320178E+02  0.00000000000E+00 0. -1.
         11    1    1    2    0    0 -0.20001897361E+02  0.33628895112E+02 -0.90246608491E+02  0.98363757699E+02  0.00000000000E+00 0.  1.
</event>
<event>
 7    1  0.2900135E-009  0.1901205E+03  0.7561462E-02  0.1158353E+00
          1   -1    0    0  501    0  0.00000000000E+00  0.00000000000E+00  0.76933305601E+03  0.76933305601E+03  0.00000000000E+00 0. -1.
         -1   -1    0    0    0  501 -0.00000000000E+00 -0.00000000000E+00 -0.51112643705E+02  0.51112643705E+02  0.00000000000E+00 0.  1.
         25    2    1    2    0    0 -0.12703060471E+03 -0.10198103487E+03  0.44313274094E+03  0.48841537815E+03  0.12508416970E+03 0.  0.
          5    1    3    3  502    0  0.14300618531E+02 -0.38588109726E+02  0.16422180081E+03  0.16935117999E+03  0.41800000000E+01 0. -1.
         -5    1    3    3    0  502 -0.14133122324E+03 -0.63392925139E+02  0.27891094013E+03  0.31906419816E+03  0.41800000000E+01 0. -1.
        -11    1    1    2    0    0  0.34873977564E+02  0.82725829667E+02  0.15868162583E+03  0.18231734854E+03  0.00000000000E+00 0. -1.
         11    1    1    2    0    0  0.92156627145E+02  0.19255205198E+02  0.11640604553E+03  0.14971297302E+03  0.00000000000E+00 0.  1.
</event>
<event>
 7    1  0.2900135E-009  0.9119316E+02  0.7561462E-02  0.1299988E+00
         -2   -1    0    0    0  501 -0.00000000000E+00  0.00000000000E+00  0.18140116389E+02  0.18140116389E+02  0.00000000000E+00 0.  1.
          2   -1    0    0  501    0  0.00000000000E+00 -0.00000000000E+00 -0.66382069202E+03  0.66382069202E+03  0.00000000000E+00 0. -1.
         25    2    1    2    0    0 -0.11483837198E+02 -0.90738869979E+01 -0.39971333415E+03  0.41908510935E+03  0.12508942976E+03 0.  0.
          5    1    3    3  502    0 -0.52600422779E+02  0.69206536773E+01 -0.34303501009E+03  0.34713857532E+03  0.41800000000E+01 0. -1.
         -5    1    3    3    0  502  0.41116585581E+02 -0.15994540675E+02 -0.56678324054E+02  0.71946534029E+02  0.41800000000E+01 0. -1.
        -11    1    1    2    0    0  0.37233152410E+02  0.32963246419E+02 -0.88266624361E+02  0.10131081003E+03  0.00000000000E+00 0.  1.
         11    1    1    2    0    0 -0.25749315212E+02 -0.23889359422E+02 -0.15770061712E+03  0.16156488903E+03  0.00000000000E+00 0. -1.
</event>
<event>
 7    1  0.3328167E-009  0.9672245E+02  0.7561462E-02  0.1287343E+00
         -2   -1    0    0    0  501 -0.00000000000E+00  0.00000000000E+00  0.64447340635E+02  0.64447340635E+02  0.00000000000E+00 0.  1.
          2   -1    0    0  501    0  0.00000000000E+00 -0.00000000000E+00 -0.32131089880E+03  0.32131089880E+03  0.00000000000E+00 0. -1.
         25    2    1    2    0    0 -0.28822453409E+02 -0.39327280950E+02 -0.31659077470E+02  0.13793920087E+03  0.12509019587E+03 0.  0.
          5    1    3    3  502    0  0.41531284756E+02  0.66204845413E+01 -0.33276299065E+02  0.53790918458E+02  0.41800000000E+01 0. -1.
         -5    1    3    3    0  502 -0.70353738166E+02 -0.45947765492E+02  0.16172215959E+01  0.84148282414E+02  0.41800000000E+01 0. -1.
        -11    1    1    2    0    0  0.41561530286E+02  0.29762643003E+02 -0.22615522009E+03  0.23186064628E+03  0.00000000000E+00 0. -1.
         11    1    1    2    0    0 -0.12739076876E+02  0.95646379471E+01  0.95073940066E+00  0.15958392279E+02  0.00000000000E+00 0.  1.
</event>
<event>
 7    1  0.2900135E-009  0.1873047E+03  0.7561462E-02  0.1160915E+00
          2   -1    0    0  501    0  0.00000000000E+00  0.00000000000E+00  0.11542459168E+04  0.11542459168E+04  0.00000000000E+00 0. -1.
         -2   -1    0    0    0  501 -0.00000000000E+00 -0.00000000000E+00 -0.45975253931E+02  0.45975253931E+02  0.00000000000E+00 0.  1.
         25    2    1    2    0    0  0.11245719777E+03  0.11882727447E+03  0.88655835000E+03  0.91016379497E+03  0.12508350503E+03 0.  0.
          5    1    3    3  502    0 -0.18858659788E+02  0.54708047707E+02  0.20187146079E+03  0.21004327796E+03  0.41800000000E+01 0.  1.
         -5    1    3    3    0  502  0.13131585756E+03  0.64119226763E+02  0.68468688921E+03  0.70012051701E+03  0.41800000000E+01 0.  1.
        -11    1    1    2    0    0 -0.10841762090E+03 -0.88918584233E+02  0.12194952110E+03  0.18582944019E+03  0.00000000000E+00 0.  1.
         11    1    1    2    0    0 -0.40395768705E+01 -0.29908690237E+02  0.99762791774E+02  0.10422793558E+03  0.00000000000E+00 0. -1.
</event>
<event>
 7    1  0.2900135E-009  0.1620791E+03  0.7561462E-02  0.1186369E+00
          2   -1    0    0  501    0  0.00000000000E+00  0.00000000000E+00  0.37429800806E+03  0.37429800806E+03  0.00000000000E+00 0. -1.
         -2   -1    0    0    0  501 -0.00000000000E+00 -0.00000000000E+00 -0.11450206743E+03  0.11450206743E+03  0.00000000000E+00 0.  1.
         25    2    1    2    0    0  0.43695308249E+02 -0.12976114626E+03  0.90938745392E+01  0.18568209423E+03  0.12509159252E+03 0.  0.
          5    1    3    3  502    0  0.80033486562E+02 -0.97179835810E+02  0.34359742818E+02  0.13056547701E+03  0.41800000000E+01 0.  1.
         -5    1    3    3    0  502 -0.36338178313E+02 -0.32581310450E+02 -0.25265868279E+02  0.55116617219E+02  0.41800000000E+01 0.  1.
        -11    1    1    2    0    0 -0.46634830675E+02  0.46360310639E+02  0.41180040060E+02  0.77587895537E+02  0.00000000000E+00 0.  1.
         11    1    1    2    0    0  0.29395224264E+01  0.83400835621E+02  0.20952202604E+03  0.22553008573E+03  0.00000000000E+00 0. -1.
</event>
<event>
 7    1  0.2900135E-009  0.2460074E+03  0.7561462E-02  0.1115854E+00
         -2   -1    0    0    0  501 -0.00000000000E+00  0.00000000000E+00  0.44880112523E+02  0.44880112523E+02  0.00000000000E+00 0.  1.
          2   -1    0    0  501    0  0.00000000000E+00 -0.00000000000E+00 -0.15663365397E+04  0.15663365397E+04  0.00000000000E+00 0. -1.
         25    2    1    2    0    0 -0.13139617759E+03 -0.17984500759E+03 -0.10625905790E+04  0.10928649010E+04  0.12508305656E+03 0.  0.
          5    1    3    3  502    0 -0.15256383832E+02 -0.12346343963E+03 -0.45670678725E+03  0.47336512344E+03  0.41800000000E+01 0.  1.
         -5    1    3    3    0  502 -0.11613979375E+03 -0.56381567963E+02 -0.60588379171E+03  0.61949977753E+03  0.41800000000E+01 0.  1.
        -11    1    1    2    0    0  0.91326871341E+02  0.17579083153E+03 -0.34851255857E+03  0.40087905578E+03  0.00000000000E+00 0.  1.
         11    1    1    2    0    0  0.40069306244E+02  0.40541760606E+01 -0.11035328967E+03  0.11747269550E+03  0.00000000000E+00 0. -1.
</event>
<event>
 7    1  0.2900135E-009  0.1139740E+03  0.7561462E-02  0.1253383E+00
          1   -1    0    0  501    0  0.00000000000E+00  0.00000000000E+00  0.49777181980E+02  0.49777181980E+02  0.00000000000E+00 0. -1.
         -1   -1    0    0    0  501 -0.00000000000E+00 -0.00000000000E+00 -0.34162634096E+03  0.34162634096E+03  0.00000000000E+00 0.  1.
         25    2    1    2    0    0  0.60727338839E+02  0.27737004392E+02 -0.15333918417E+03  0.20884651425E+03  0.12508720965E+03 0.  0.
          5    1    3    3  502    0  0.70537321069E+01  0.52414312396E+02 -0.13774088324E+03  0.14760433123E+03  0.41800000000E+01 0. -1.
         -5    1    3    3    0  502  0.53673606732E+02 -0.24677308004E+02 -0.15598300925E+02  0.61242183025E+02  0.41800000000E+01 0. -1.
        -11    1    1    2    0    0 -0.33781224189E+02 -0.62885631251E+02 -0.10522950631E+03  0.12715747215E+03  0.00000000000E+00 0.  1.
         11    1    1    2    0    0 -0.26946114650E+02  0.35148626860E+02 -0.33280468505E+02  0.55399536539E+02  0.00000000000E+00 0. -1.
</event>
<event>
 7    1  0.2900135E-009  0.1237874E+03  0.7561462E-02  0.1236977E+00
         -2   -1    0    0    0  501 -0.00000000000E+00  0.00000000000E+00  0.12713909883E+03  0.12713909883E+03  0.00000000000E+00 0.  1.
          2   -1    0    0  501    0  0.00000000000E+00 -0.00000000000E+00 -0.14203291267E+03  0.14203291267E+03  0.00000000000E+00 0. -1.
         25    2    1    2    0    0 -0.68392252839E+02 -0.21675332421E+02  0.26810144567E+02  0.14667499100E+03  0.12508976317E+03 0.  0.
          5    1    3    3  502    0  0.37641304165E+01  0.38448053479E+02  0.35010106410E+02  0.52302977401E+02  0.41800000000E+01 0. -1.
         -5    1    3    3    0  502 -0.72156383256E+02 -0.60123385900E+02 -0.81999618427E+01  0.94372013599E+02  0.41800000000E+01 0. -1.
        -11    1    1    2    0    0  0.79731382325E+02 -0.10655903295E+02 -0.24075459969E+02  0.83965882210E+02  0.00000000000E+00 0. -1.
         11    1    1    2    0    0 -0.11339129486E+02  0.32331235716E+02 -0.17628498446E+02  0.38531138290E+02  0.00000000000E+00 0.  1.
</event>
<event>
 6    1  0.2900135E-009  0.1501913E+03  0.7561462E-02  0.1200238E+00
          2   -1    0    0  501    0  0.00000000000E+00  0.00000000000E+00  0.34276281694E+03  0.34276281694E+03  0.00000000000E+00 0. -1.
         -2   -1    0    0    0  501 -0.00000000000E+00 -0.00000000000E+00 -0.95202550243E+02  0.95202550243E+02  0.00000000000E+00 0.  1.
          5    1    1    2  502    0 -0.24514147317E+02 -0.64684120786E+01  0.44449021857E+02  0.51341715179E+02  0.41800000000E+01 0.  1.
         -5    1    1    2    0  502  0.14845949536E+03  0.17907417735E+02  0.17644073263E+03  0.23132164167E+03  0.41800000000E+01 0.  1.
        -11    1    1    2    0    0 -0.33768217526E+02  0.24310110375E+01 -0.32197620291E+02  0.46721398544E+02  0.00000000000E+00 0.  1.
         11    1    1    2    0    0 -0.90177130521E+02 -0.13870016694E+02  0.58868132497E+02  0.10858061179E+03  0.00000000000E+00 0. -1.
</event>
<event>
 7    1  0.2900135E-009  0.7006362E+02  0.7561462E-02  0.1359877E+00
          1   -1    0    0  501    0  0.00000000000E+00  0.00000000000E+00  0.18736887975E+03  0.18736887975E+03  0.00000000000E+00 0. -1.
         -1   -1    0    0    0  501 -0.00000000000E+00 -0.00000000000E+00 -0.92387096556E+02  0.92387096556E+02  0.00000000000E+00 0.  1.
         25    2    1    2    0    0  0.15769582548E+01 -0.45947407318E+02 -0.10690437265E+02  0.13370048030E+03  0.12509149430E+03 0.  0.
          5    1    3    3  502    0  0.62237709267E+01 -0.12074573296E+02  0.56465244176E+02  0.58226513245E+02  0.41800000000E+01 0.  1.
         -5    1    3    3    0  502 -0.46468126719E+01 -0.33872834022E+02 -0.67155681441E+02  0.75473967051E+02  0.41800000000E+01 0.  1.
        -11    1    1    2    0    0 -0.37627893094E+02  0.40026063551E+02  0.31380697982E+02  0.63266834186E+02  0.00000000000E+00 0.  1.
         11    1    1    2    0    0  0.36050934839E+02  0.59213437674E+01  0.74291522476E+02  0.82788661824E+02  0.00000000000E+00 0. -1.
</event>
<event>
 7    1  0.2900135E-009  0.2432293E+03  0.7561462E-02  0.1117660E+00
          1   -1    0    0  501    0  0.00000000000E+00  0.00000000000E+00  0.30967664937E+03  0.30967664937E+03  0.00000000000E+00 0. -1.
         -1   -1    0    0    0  501 -0.00000000000E+00 -0.00000000000E+00 -0.22179649049E+03  0.22179649049E+03  0.00000000000E+00 0.  1.
         25    2    1    2    0    0 -0.22529099931E+02  0.22884436271E+03 -0.60903394685E+01  0.26184357609E+03  0.12509062081E+03 0.  0.
          5    1    3    3  502    0  0.16817717883E+02  0.11794134019E+03 -0.58698228519E+02  0.13287569300E+03  0.41800000000E+01 0.  1.
         -5    1    3    3    0  502 -0.39346817814E+02  0.11090302253E+03  0.52607889051E+02  0.12896788309E+03  0.41800000000E+01 0.  1.
        -11    1    1    2    0    0 -0.20325402770E+02 -0.41354367667E+01 -0.33845824210E+01  0.21016165996E+02  0.00000000000E+00 0.  1.
         11    1    1    2    0    0  0.42854502701E+02 -0.22470892595E+03  0.97355080769E+02  0.24861339778E+03  0.00000000000E+00 0. -1.
</event>
<event>
 7    1  0.2900135E-009  0.9459904E+02  0.7561462E-02  0.1292082E+00
         -1   -1    0    0    0  501 -0.00000000000E+00  0.00000000000E+00  0.17758797060E+02  0.17758797060E+02  0.00000000000E+00 0.  1.
          1   -1    0    0  501    0  0.00000000000E+00 -0.00000000000E+00 -0.84890358119E+03  0.84890358119E+03  0.00000000000E+00 0. -1.
         25    2    1    2    0    0  0.48042737925E+02 -0.15684211421E+02 -0.59145409433E+03  0.60664530326E+03  0.12508588693E+03 0.  0.
          5    1    3    3  502    0  0.93721414873E+01 -0.48810826100E+02 -0.92573402538E+02  0.10515531864E+03  0.41800000000E+01 0. -1.
         -5    1    3    3    0  502  0.38670596438E+02  0.33126614680E+02 -0.49888069179E+03  0.50148998462E+03  0.41800000000E+01 0. -1.
        -11    1    1    2    0    0 -0.25394851292E+02 -0.28748017240E+02 -0.45434253190E+02  0.59461065667E+02  0.00000000000E+00 0.  1.
         11    1    1    2    0    0 -0.22647886634E+02  0.44432228660E+02 -0.19425643661E+03  0.20055600932E+03  0.00000000000E+00 0. -1.
</event>
<event>
 7    1  0.2900135E-009  0.1163853E+03  0.7561462E-02  0.1249182E+00
         -1   -1    0    0    0  501 -0.00000000000E+00  0.00000000000E+00  0.35181044091E+02  0.35181044091E+02  0.00000000000E+00 0.  1.
          1   -1    0    0  501    0  0.00000000000E+00 -0.00000000000E+00 -0.61761981598E+03  0.61761981598E+03  0.00000000000E+00 0. -1.
         25    2    1    2    0    0  0.81557623578E+02 -0.43112072411E+02 -0.40544989903E+03  0.43422037752E+03  0.12508964338E+03 0.  0.
          5    1    3    3  502    0 -0.13337769752E+02  0.17002297451E+02 -0.12086758478E+02  0.25110482892E+02  0.41800000000E+01 0. -1.
         -5    1    3    3    0  502  0.94895393330E+02 -0.60114369862E+02 -0.39336314055E+03  0.40910989463E+03  0.41800000000E+01 0. -1.
        -11    1    1    2    0    0 -0.17248647604E+02  0.27021877549E+02 -0.27717749350E+01  0.32177328148E+02  0.00000000000E+00 0.  1.
         11    1    1    2    0    0 -0.64308975974E+02  0.16090194862E+02 -0.17421709792E+03  0.18640315440E+03  0.00000000000E+00 0. -1.
</event>
<event>
 7    1  0.2900135E-009  0.1309881E+03  0.7561462E-02  0.1225997E+00
          2   -1    0    0  501    0  0.00000000000E+00  0.00000000000E+00  0.97723299624E+03  0.97723299624E+03  0.00000000000E+00 0. -1.
         -2   -1    0    0    0  501 -0.00000000000E+00 -0.00000000000E+00 -0.25903763697E+02  0.25903763697E+02  0.00000000000E+00 0.  1.
         25    2    1    2    0    0 -0.11459758625E+03 -0.90077627646E+01  0.57736565807E+03  0.60184069494E+03  0.12508945758E+03 0.  0.
          5    1    3    3  502    0 -0.95703697215E+02 -0.35983811755E+02  0.54814184080E+03  0.55761185640E+03  0.41800000000E+01 0.  1.
         -5    1    3    3    0  502 -0.18893889034E+02  0.26976048990E+02  0.29223817273E+02  0.44228838533E+02  0.41800000000E+01 0.  1.
        -11    1    1    2    0    0  0.21994254115E+02 -0.19667977267E+02  0.23642148285E+02  0.37809095723E+02  0.00000000000E+00 0.  1.
         11    1    1    2    0    0  0.92603332135E+02  0.28675740032E+02  0.35032142619E+03  0.36348696928E+03  0.00000000000E+00 0. -1.
</event>
<event>
 7    1  0.2900135E-009  0.1017422E+03  0.7561462E-02  0.1276674E+00
          2   -1    0    0  501    0  0.00000000000E+00  0.00000000000E+00  0.19155670336E+02  0.19155670336E+02  0.00000000000E+00 0. -1.
         -2   -1    0    0    0  501 -0.00000000000E+00 -0.00000000000E+00 -0.89827905385E+03  0.89827905385E+03  0.00000000000E+00 0.  1.
         25    2    1    2    0    0 -0.48282910435E+02  0.22093534415E+02 -0.64821181386E+03  0.66230351406E+03  0.12509206772E+03 0.  0.
          5    1    3    3  502    0 -0.81376370721E+02 -0.86420610126E+01 -0.29420554755E+03  0.30540329982E+03  0.41800000000E+01 0. -1.
         -5    1    3    3    0  502  0.33093460285E+02  0.30735595428E+02 -0.35400626631E+03  0.35690021424E+03  0.41800000000E+01 0. -1.
        -11    1    1    2    0    0  0.55581661191E+02 -0.29064475030E+01 -0.22763802557E+03  0.23434342146E+03  0.00000000000E+00 0.  1.
         11    1    1    2    0    0 -0.72987507556E+01 -0.19187086912E+02 -0.32735440895E+01  0.20787788667E+02  0.00000000000E+00 0. -1.
</event>
<event>
 7    1  0.2900135E-009  0.1253853E+03  0.7561462E-02  0.1234468E+00
          1   -1    0    0  501    0  0.00000000000E+00  0.00000000000E+00  0.18042284128E+03  0.18042284128E+03  0.00000000000E+00 0. -1.
         -1   -1    0    0    0  501 -0.00000000000E+00 -0.00000000000E+00 -0.15278159197E+03  0.15278159197E+03  0.00000000000E+00 0.  1.
         25    2    1    2    0    0  0.84136717983E+02 -0.36507616907E+02  0.10042055938E+03  0.18478150795E+03  0.12509245991E+03 0.  0.
          5    1    3    3  502    0  0.79595390962E+02  0.31000886649E+02  0.69829080794E+02  0.11040857829E+03  0.41800000000E+01 0.  1.
         -5    1    3    3    0  502  0.45413270207E+01 -0.67508503556E+02  0.30591478589E+02  0.74372929657E+02  0.41800000000E+01 0.  1.
        -11    1    1    2    0    0 -0.47179813027E+02  0.25158275229E+01 -0.84544778154E+02  0.96850831996E+02  0.00000000000E+00 0. -1.
         11    1    1    2    0    0 -0.36956904956E+02  0.33991789385E+02  0.11765468077E+02  0.51572093312E+02  0.00000000000E+00 0.  1.
</event>
<event>
 7    1  0.2900135E-009  0.1051635E+03  0.7561462E-02  0.1269798E+00
          2   -1    0    0  501    0  0.00000000000E+00  0.00000000000E+00  0.14657775970E+04  0.14657775970E+04  0.00000000000E+00 0. -1.
         -2   -1    0    0    0  501 -0.00000000000E+00 -0.00000000000E+00 -0.15443582953E+02  0.15443582953E+02  0.00000000000E+00 0.  1.
         25    2    1    2    0    0  0.93802725227E+01 -0.18735295672E+02  0.12568137866E+04  0.12631970709E+04  0.12508774878E+03 0.  0.
          5    1    3    3  502    0  0.37064237840E+02  0.34583492698E+02  0.89173634365E+03  0.89318584554E+03  0.41800000000E+01 0.  1.
         -5    1    3    3    0  502 -0.27683965317E+02 -0.53318788370E+02  0.36507744292E+03  0.37001122531E+03  0.41800000000E+01 0.  1.
        -11    1    1    2    0    0  0.82966496192E+00 -0.39805846335E+02  0.94442392439E+02  0.10249175204E+03  0.00000000000E+00 0.  1.
         11    1    1    2    0    0 -0.10209937485E+02  0.58541142008E+02  0.99077835024E+02  0.11553235704E+03  0.00000000000E+00 0. -1.
</event>
<event>
 7    1  0.2900135E-009  0.9006833E+02  0.7561462E-02  0.1302686E+00
          1   -1    0    0  501    0  0.00000000000E+00  0.00000000000E+00  0.27452207766E+03  0.27452207766E+03  0.00000000000E+00 0. -1.
         -1   -1    0    0    0  501 -0.00000000000E+00 -0.00000000000E+00 -0.57609058959E+02  0.57609058959E+02  0.00000000000E+00 0.  1.
         25    2    1    2    0    0 -0.38187920455E+02 -0.16970014588E+02  0.18527377324E+03  0.22742145235E+03  0.12509135572E+03 0.  0.
          5    1    3    3  502    0  0.16645799002E+02 -0.19563253711E+02 -0.73841004058E+01  0.27051818034E+02  0.41800000000E+01 0.  1.
         -5    1    3    3    0  502 -0.54833719457E+02  0.25932391232E+01  0.19265787365E+03  0.20036963432E+03  0.41800000000E+01 0.  1.
        -11    1    1    2    0    0  0.41900531195E+02  0.50332052948E+02  0.14742855690E+02  0.67129143167E+02  0.00000000000E+00 0. -1.
         11    1    1    2    0    0 -0.37126107396E+01 -0.33362038361E+02  0.16896389769E+02  0.37580541099E+02  0.00000000000E+00 0.  1.
</event>
<event>
 7    1  0.3417214E-009  0.1281031E+03  0.7561462E-02  0.1230298E+00
         -2   -1    0    0    0  501 -0.00000000000E+00  0.00000000000E+00  0.70589361828E+02  0.70589361828E+02  0.00000000000E+00 0.  1.
          2   -1    0    0  501    0  0.00000000000E+00 -0.00000000000E+00 -0.30540552862E+03  0.30540552862E+03  0.00000000000E+00 0. -1.
         25    2    1    2    0    0 -0.84173883497E+02 -0.49328127111E+02 -0.10643986995E+03  0.19103797794E+03  0.12509019271E+03 0.  0.
          5    1    3    3  502    0 -0.79842330463E+02  0.66373745434E+01 -0.12032785156E+02  0.81124058042E+02  0.41800000000E+01 0.  1.
         -5    1    3    3    0  502 -0.43315530347E+01 -0.55965501655E+02 -0.94407084798E+02  0.10991391990E+03  0.41800000000E+01 0.  1.
        -11    1    1    2    0    0  0.70585797505E+02  0.21749938927E+01 -0.33545486517E+02  0.78181743863E+02  0.00000000000E+00 0. -1.
         11    1    1    2    0    0  0.13588085992E+02  0.47153133218E+02 -0.94830810324E+02  0.10677516865E+03  0.00000000000E+00 0.  1.
</event>
<event>
 7    1  0.2900135E-009  0.1573613E+03  0.7561462E-02  0.1191708E+00
          4   -1    0    0  501    0  0.00000000000E+00  0.00000000000E+00  0.23030467926E+03  0.23030467926E+03  0.00000000000E+00 0. -1.
         -4   -1    0    0    0  501 -0.00000000000E+00 -0.00000000000E+00 -0.12978204886E+03  0.12978204886E+03  0.00000000000E+00 0.  1.
         25    2    1    2    0    0  0.12822345129E+03  0.30674321317E+02  0.81762443730E+02  0.19928618605E+03  0.12509084418E+03 0.  0.
          5    1    3    3  502    0  0.15691218887E+02  0.46360760818E+02  0.69249037834E+02  0.84902509590E+02  0.41800000000E+01 0.  1.
         -5    1    3    3    0  502  0.11253223240E+03 -0.15686439500E+02  0.12513405896E+02  0.11438367646E+03  0.41800000000E+01 0.  1.
        -11    1    1    2    0    0 -0.90914016603E+02 -0.56030293046E+02 -0.10066563324E+02  0.10726643394E+03  0.00000000000E+00 0. -1.
         11    1    1    2    0    0 -0.37309434683E+02  0.25355971728E+02  0.28826749996E+02  0.53534108137E+02  0.00000000000E+00 0.  1.
</event>
<event>
 7    1  0.2900135E-009  0.1152639E+03  0.7561462E-02  0.1251121E+00
         -2   -1    0    0    0  501 -0.00000000000E+00  0.00000000000E+00  0.11078454428E+03  0.11078454428E+03  0.00000000000E+00 0.  1.
          2   -1    0    0  501    0  0.00000000000E+00 -0.00000000000E+00 -0.16409135970E+03  0.16409135970E+03  0.00000000000E+00 0. -1.
         25    2    1    2    0    0 -0.51022579736E+02  0.42493168986E+02 -0.81986154821E+02  0.16364345979E+03  0.12509388193E+03 0.  0.
          5    1    3    3  502    0  0.33557146481E+02  0.14352706034E+02  0.72495972287E+01  0.37444776811E+02  0.41800000000E+01 0.  1.
         -5    1    3    3    0  502 -0.84579726217E+02  0.28140462953E+02 -0.89235752050E+02  0.12619868298E+03  0.41800000000E+01 0.  1.
        -11    1    1    2    0    0  0.37321454249E+02 -0.66876873184E+02  0.91740923827E+01  0.77133462810E+02  0.00000000000E+00 0. -1.
         11    1    1    2    0    0  0.13701125487E+02  0.24383704197E+02  0.19505247020E+02  0.34098981382E+02  0.00000000000E+00 0.  1.
</event>
<event>
 7    1  0.2900135E-009  0.1306132E+03  0.7561462E-02  0.1226549E+00
         -2   -1    0    0    0  501 -0.00000000000E+00  0.00000000000E+00  0.12273718103E+02  0.12273718103E+02  0.00000000000E+00 0.  1.
          2   -1    0    0  501    0  0.00000000000E+00 -0.00000000000E+00 -0.15194455139E+04  0.15194455139E+04  0.00000000000E+00 0. -1.
         25    2    1    2    0    0 -0.18094387805E+02  0.72820778957E+02 -0.10044376177E+04  0.10149742400E+04  0.12508999635E+03 0.  0.
          5    1    3    3  502    0  0.35295771428E+02 -0.17813863640E+02 -0.22940221471E+03  0.23282176387E+03  0.41800000000E+01 0. -1.
         -5    1    3    3    0  502 -0.53390159233E+02  0.90634642597E+02 -0.77503540301E+03  0.78215247609E+03  0.41800000000E+01 0. -1.
        -11    1    1    2    0    0  0.52733842735E+02 -0.58368671080E+02 -0.39224124918E+03  0.40005119359E+03  0.00000000000E+00 0. -1.
         11    1    1    2    0    0 -0.34639454930E+02 -0.14452107876E+02 -0.11049292887E+03  0.11669379842E+03  0.00000000000E+00 0.  1.
</event>
<event>
 7    1  0.2900135E-009  0.1602897E+03  0.7561462E-02  0.1188370E+00
          3   -1    0    0  501    0  0.00000000000E+00  0.00000000000E+00  0.15841080068E+03  0.15841080068E+03  0.00000000000E+00 0. -1.
         -3   -1    0    0    0  501 -0.00000000000E+00 -0.00000000000E+00 -0.20592194695E+03  0.20592194695E+03  0.00000000000E+00 0.  1.
         25    2    1    2    0    0  0.13621270857E+03  0.48497161119E+02 -0.89514637579E+01  0.19139851792E+03  0.12508951734E+03 0.  0.
          5    1    3    3  502    0  0.12029078485E+03  0.15217416701E+02 -0.54190616637E+02  0.13287414354E+03  0.41800000000E+01 0.  1.
         -5    1    3    3    0  502  0.15921923722E+02  0.33279744418E+02  0.45239152879E+02  0.58524374381E+02  0.41800000000E+01 0.  1.
        -11    1    1    2    0    0 -0.11851017183E+03 -0.67314867098E+02 -0.13531881699E+02  0.13696373236E+03  0.00000000000E+00 0.  1.
         11    1    1    2    0    0 -0.17702536744E+02  0.18817705979E+02 -0.25027800818E+02  0.35970497346E+02  0.00000000000E+00 0. -1.
</event>
<event>
 6    1  0.2900135E-009  0.1211068E+03  0.7561462E-02  0.1241282E+00
          2   -1    0    0  501    0  0.00000000000E+00  0.00000000000E+00  0.16719841369E+03  0.16719841369E+03  0.00000000000E+00 0.  1.
         -2   -1    0    0    0  501 -0.00000000000E+00 -0.00000000000E+00 -0.25413462357E+03  0.25413462357E+03  0.00000000000E+00 0. -1.
          5    1    1    2  502    0 -0.72314169256E+02 -0.63434611584E+02 -0.39765449752E+01  0.96366873623E+02  0.41800000000E+01 0. -1.
         -5    1    1    2    0  502 -0.22214343819E+02 -0.27572041974E+01  0.93131789913E+02  0.95875345833E+02  0.41800000000E+01 0. -1.
        -11    1    1    2    0    0  0.61125981387E+02  0.65718321598E+02 -0.59193922955E+02  0.10751373823E+03  0.00000000000E+00 0.  1.
         11    1    1    2    0    0  0.33402531688E+02  0.47349418362E+00 -0.11689753186E+03  0.12157707957E+03  0.00000000000E+00 0. -1.
</event>
<event>
 7    1  0.2900135E-009  0.1016594E+03  0.7561462E-02  0.1276845E+00
         -1   -1    0    0    0  501 -0.00000000000E+00  0.00000000000E+00  0.44406674584E+03  0.44406674584E+03  0.00000000000E+00 0.  1.
          1   -1    0    0  501    0  0.00000000000E+00 -0.00000000000E+00 -0.28647245820E+02  0.28647245820E+02  0.00000000000E+00 0. -1.
         25    2    1    2    0    0 -0.18607218059E+01 -0.11758072532E+02  0.30006040861E+03  0.32530801851E+03  0.12508934222E+03 0.  0.
          5    1    3    3  502    0 -0.22579244394E+02 -0.63253391880E+02  0.13023628489E+03  0.14659391585E+03  0.41800000000E+01 0.  1.
         -5    1    3    3    0  502  0.20718522588E+02  0.51495319348E+02  0.16982412372E+03  0.17871410266E+03  0.41800000000E+01 0.  1.
        -11    1    1    2    0    0 -0.27291380396E+02 -0.22506195851E+02  0.17000885318E+02  0.39247654671E+02  0.00000000000E+00 0.  1.
         11    1    1    2    0    0  0.29152102202E+02  0.34264268383E+02  0.98358206093E+02  0.10815831848E+03  0.00000000000E+00 0. -1.
</event>
<event>
 7    1  0.3158702E-009  0.1718961E+03  0.7561462E-02  0.1175885E+00
         -3   -1    0    0    0  501 -0.00000000000E+00  0.00000000000E+00  0.28107988762E+03  0.28107988762E+03  0.00000000000E+00 0.  1.
          3   -1    0    0  501    0  0.00000000000E+00 -0.00000000000E+00 -0.12297688779E+03  0.12297688779E+03  0.00000000000E+00 0. -1.
         25    2    1    2    0    0  0.56227901765E+02  0.13800553109E+03  0.60929215602E+02  0.20387958220E+03  0.12508961259E+03 0.  0.
          5    1    3    3  502    0  0.86047802751E+02  0.55481828251E+02  0.11579966288E+02  0.10312141215E+03  0.41800000000E+01 0. -1.
         -5    1    3    3    0  502 -0.29819900987E+02  0.82523702834E+02  0.49349249314E+02  0.10075817005E+03  0.41800000000E+01 0. -1.
        -11    1    1    2    0    0 -0.17786658476E+01 -0.49717485706E+02 -0.10307743132E+02  0.50805920970E+02  0.00000000000E+00 0. -1.
         11    1    1    2    0    0 -0.54449235917E+02 -0.88288045379E+02  0.10748152735E+03  0.14937127224E+03  0.00000000000E+00 0.  1.
</event>
<event>
 7    1  0.2900135E-009  0.1424066E+03  0.7561462E-02  0.1210127E+00
         -1   -1    0    0    0  501 -0.00000000000E+00  0.00000000000E+00  0.40762896276E+02  0.40762896276E+02  0.00000000000E+00 0.  1.
          1   -1    0    0  501    0  0.00000000000E+00 -0.00000000000E+00 -0.63516845719E+03  0.63516845719E+03  0.00000000000E+00 0. -1.
         25    2    1    2    0    0 -0.25199415696E+02  0.11305652466E+03 -0.36999073176E+03  0.40737795133E+03  0.12508743072E+03 0.  0.
          5    1    3    3  502    0 -0.40118991692E+01  0.12026119605E+03 -0.36462356274E+03  0.38398784553E+03  0.41800000000E+01 0. -1.
         -5    1    3    3    0  502 -0.21187516527E+02 -0.72046713842E+01 -0.53671690224E+01  0.23390105807E+02  0.41800000000E+01 0. -1.
        -11    1    1    2    0    0  0.54672197128E+02 -0.84247238560E+02 -0.12113707974E+03  0.15735577025E+03  0.00000000000E+00 0.  1.
         11    1    1    2    0    0 -0.29472781432E+02 -0.28809286105E+02 -0.10327774941E+03  0.11119763188E+03  0.00000000000E+00 0. -1.
</event>
<event>
 7    1  0.2900135E-009  0.2026183E+03  0.7561462E-02  0.1147549E+00
          2   -1    0    0  501    0  0.00000000000E+00  0.00000000000E+00  0.96917871605E+03  0.96917871605E+03  0.00000000000E+00 0. -1.
         -2   -1    0    0    0  501 -0.00000000000E+00 -0.00000000000E+00 -0.45150890959E+02  0.45150890959E+02  0.00000000000E+00 0.  1.
         25    2    1    2    0    0 -0.17071120650E+03 -0.38104468237E+02  0.39290594060E+03  0.44790262220E+03  0.12508962504E+03 0.  0.
          5    1    3    3  502    0 -0.18825141635E+03 -0.48168591939E+02  0.35301180889E+03  0.40298091595E+03  0.41800000000E+01 0.  1.
         -5    1    3    3    0  502  0.17540209849E+02  0.10064123702E+02  0.39894131712E+02  0.44921706251E+02  0.41800000000E+01 0.  1.
        -11    1    1    2    0    0  0.88117797318E+02 -0.18575237440E+02  0.17962548056E+03  0.20093555911E+03  0.00000000000E+00 0.  1.
         11    1    1    2    0    0  0.82593409185E+02  0.56679705677E+02  0.35149640394E+03  0.36549142570E+03  0.00000000000E+00 0. -1.
</event>
<event>
 7    1  0.2900135E-009  0.6087785E+02  0.7561462E-02  0.1394184E+00
          1   -1    0    0  501    0  0.00000000000E+00  0.00000000000E+00  0.41552108536E+03  0.41552108536E+03  0.00000000000E+00 0. -1.
         -1   -1    0    0    0  501 -0.00000000000E+00 -0.00000000000E+00 -0.34770000774E+02  0.34770000774E+02  0.00000000000E+00 0.  1.
         25    2    1    2    0    0  0.24949443752E+02  0.11973333667E+02  0.15610993069E+03  0.20194904748E+03  0.12508905570E+03 0.  0.
          5    1    3    3  502    0  0.20082450500E+01 -0.29530698531E+01 -0.21501153265E+02  0.22192919174E+02  0.41800000000E+01 0.  1.
         -5    1    3    3    0  502  0.22941198702E+02  0.14926403520E+02  0.17761108396E+03  0.17975612831E+03  0.41800000000E+01 0.  1.
        -11    1    1    2    0    0 -0.51888938734E+02 -0.26175237916E+02  0.71199216276E+02  0.91907200160E+02  0.00000000000E+00 0.  1.
         11    1    1    2    0    0  0.26939494982E+02  0.14201904249E+02  0.15344193762E+03  0.15643483849E+03  0.00000000000E+00 0. -1.
</event>
<event>
 7    1  0.2900135E-009  0.8033540E+02  0.7561462E-02  0.1328102E+00
          1   -1    0    0  501    0  0.00000000000E+00  0.00000000000E+00  0.31069051993E+03  0.31069051993E+03  0.00000000000E+00 0. -1.
         -1   -1    0    0    0  501 -0.00000000000E+00 -0.00000000000E+00 -0.80647394065E+02  0.80647394065E+02  0.00000000000E+00 0.  1.
         25    2    1    2    0    0 -0.71198667481E+02  0.63756347709E+01  0.23551641177E+03  0.27609189258E+03  0.12509537946E+03 0.  0.
          5    1    3    3  502    0 -0.18263318855E+02 -0.95596238449E+00  0.21928279764E+03  0.22008380317E+03  0.41800000000E+01 0. -1.
         -5    1    3    3    0  502 -0.52935348625E+02  0.73315971554E+01  0.16233614138E+02  0.56008089406E+02  0.41800000000E+01 0. -1.
        -11    1    1    2    0    0  0.47869114076E+02  0.21056875164E+02 -0.39627712551E+02  0.65614020424E+02  0.00000000000E+00 0.  1.
         11    1    1    2    0    0  0.23329553404E+02 -0.27432509935E+02  0.34154426645E+02  0.49632000995E+02  0.00000000000E+00 0. -1.
</event>
<event>
 7    1  0.2900135E-009  0.1378183E+03  0.7561462E-02  0.1216295E+00
         -2   -1    0    0    0  501 -0.00000000000E+00  0.00000000000E+00  0.97076811027E+02  0.97076811027E+02  0.00000000000E+00 0.  1.
          2   -1    0    0  501    0  0.00000000000E+00 -0.00000000000E+00 -0.25555817611E+03  0.25555817611E+03  0.00000000000E+00 0. -1.
         25    2    1    2    0    0  0.77796339496E+02 -0.64649065336E+02 -0.21675752714E+02  0.16232252401E+03  0.12508793490E+03 0.  0.
          5    1    3    3  502    0  0.75357236150E+02  0.14914282547E+02 -0.29133295723E+02  0.82264027277E+02  0.41800000000E+01 0. -1.
         -5    1    3    3    0  502  0.24391033457E+01 -0.79563347883E+02  0.74575430096E+01  0.80058496733E+02  0.41800000000E+01 0. -1.
        -11    1    1    2    0    0 -0.88847605186E+02  0.57323062799E+02 -0.81665062795E+02  0.13360019819E+03  0.00000000000E+00 0.  1.
         11    1    1    2    0    0  0.11051265690E+02  0.73260025366E+01 -0.55140549571E+02  0.56712264930E+02  0.00000000000E+00 0. -1.
</event>
<event>
 7    1  0.2900135E-009  0.1219123E+03  0.7561462E-02  0.1239975E+00
          1   -1    0    0  501    0  0.00000000000E+00  0.00000000000E+00  0.54907194462E+03  0.54907194462E+03  0.00000000000E+00 0. -1.
         -1   -1    0    0    0  501 -0.00000000000E+00 -0.00000000000E+00 -0.42904478527E+02  0.42904478527E+02  0.00000000000E+00 0.  1.
         25    2    1    2    0    0 -0.73419669945E+02 -0.60064371301E+02  0.17078091950E+03  0.23197613892E+03  0.12509448399E+03 0.  0.
          5    1    3    3  502    0 -0.80457958620E+02 -0.28095490856E+02  0.34969113408E+02  0.92212531709E+02  0.41800000000E+01 0. -1.
         -5    1    3    3    0  502  0.70382886751E+01 -0.31968880445E+02  0.13581180610E+03  0.13976360721E+03  0.41800000000E+01 0. -1.
        -11    1    1    2    0    0  0.73129553233E+02  0.81476637873E+01  0.24447864160E+03  0.25531181363E+03  0.00000000000E+00 0. -1.
         11    1    1    2    0    0  0.29011671210E+00  0.51916707514E+02  0.90907904981E+02  0.10468847059E+03  0.00000000000E+00 0.  1.
</event>
<event>
 7    1  0.2900135E-009  0.1204695E+03  0.7561462E-02  0.1242324E+00
         -2   -1    0    0    0  501 -0.00000000000E+00  0.00000000000E+00  0.22484325510E+02  0.22484325510E+02  0.00000000000E+00 0.  1.
          2   -1    0    0  501    0  0.00000000000E+00 -0.00000000000E+00 -0.97215825454E+03  0.97215825454E+03  0.00000000000E+00 0. -1.
         25    2    1    2    0    0 -0.12674399249E+02 -0.90767793087E+02 -0.48258266621E+03  0.50688457002E+03  0.12508599017E+03 0.  0.
          5    1    3    3  502    0  0.15751336390E+02 -0.72966619903E+02 -0.11137935457E+03  0.13414568663E+03  0.41800000000E+01 0.  1.
         -5    1    3    3    0  502 -0.28425735639E+02 -0.17801173184E+02 -0.37120331164E+03  0.37273888338E+03  0.41800000000E+01 0.  1.
        -11    1    1    2    0    0  0.53650539592E+02  0.63622345858E+02 -0.20774126239E+03  0.22379145513E+03  0.00000000000E+00 0.  1.
         11    1    1    2    0    0 -0.40976140342E+02  0.27145447229E+02 -0.25935000043E+03  0.26396655490E+03  0.00000000000E+00 0. -1.
</event>
<event>
 7    1  0.2900135E-009  0.1025198E+03  0.7561462E-02  0.1275085E+00
         -2   -1    0    0    0  501 -0.00000000000E+00  0.00000000000E+00  0.92105918108E+01  0.92105918108E+01  0.00000000000E+00 0.  1.
          2   -1    0    0  501    0  0.00000000000E+00 -0.00000000000E+00 -0.15235415521E+04  0.15235415521E+04  0.00000000000E+00 0. -1.
         25    2    1    2    0    0 -0.29234130616E+02  0.70802907333E+01 -0.11167520624E+04  0.11241385651E+04  0.12509028661E+03 0.  0.
          5    1    3    3  502    0  0.33856377352E+02 -0.30750496988E+02 -0.64855488275E+03  0.65017901819E+03  0.41800000000E+01 0.  1.
         -5    1    3    3    0  502 -0.63090507969E+02  0.37830787721E+02 -0.46819717967E+03  0.47395954695E+03  0.41800000000E+01 0.  1.
        -11    1    1    2    0    0  0.53648079004E+02  0.11356199745E+02 -0.32874623171E+03  0.33328841042E+03  0.00000000000E+00 0. -1.
         11    1    1    2    0    0 -0.24413948387E+02 -0.18436490478E+02 -0.68832666128E+02  0.75325168326E+02  0.00000000000E+00 0.  1.
</event>
<event>
 7    1  0.2947235E-009  0.1091796E+03  0.7561462E-02  0.1262097E+00
         -1   -1    0    0    0  501 -0.00000000000E+00  0.00000000000E+00  0.96976755905E+02  0.96976755905E+02  0.00000000000E+00 0.  1.
          1   -1    0    0  501    0  0.00000000000E+00 -0.00000000000E+00 -0.15301147530E+03  0.15301147530E+03  0.00000000000E+00 0. -1.
         25    2    1    2    0    0 -0.18036630070E+02 -0.44928552407E+02 -0.30157130072E+01  0.13416672885E+03  0.12509085402E+03 0.  0.
          5    1    3    3  502    0  0.50038929675E+02  0.11445086397E+01  0.88771458925E+01  0.51004710589E+02  0.41800000000E+01 0. -1.
         -5    1    3    3    0  502 -0.68075559745E+02 -0.46073061047E+02 -0.11892858900E+02  0.83162018264E+02  0.41800000000E+01 0. -1.
        -11    1    1    2    0    0 -0.26204365862E+02  0.28284333235E+02  0.72442020440E+01  0.39232011929E+02  0.00000000000E+00 0.  1.
         11    1    1    2    0    0  0.44240995932E+02  0.16644219172E+02 -0.60263208435E+02  0.76589490427E+02  0.00000000000E+00 0. -1.
</event>
<event>
 7    1  0.2900135E-009  0.1386938E+03  0.7561462E-02  0.1215097E+00
          1   -1    0    0  501    0  0.00000000000E+00  0.00000000000E+00  0.61681772920E+03  0.61681772920E+03  0.00000000000E+00 0. -1.
         -1   -1    0    0    0  501 -0.00000000000E+00 -0.00000000000E+00 -0.61911321584E+02  0.61911321584E+02  0.00000000000E+00 0.  1.
         25    2    1    2    0    0  0.10799446313E+03  0.39460273909E+01  0.49949455296E+03  0.52613871469E+03  0.12509501771E+03 0.  0.
          5    1    3    3  502    0  0.10335823165E+03 -0.45511558911E+02  0.30208163572E+03  0.32252908874E+03  0.41800000000E+01 0.  1.
         -5    1    3    3    0  502  0.46362314851E+01  0.49457586302E+02  0.19741291724E+03  0.20360962595E+03  0.41800000000E+01 0.  1.
        -11    1    1    2    0    0 -0.57524893061E+02 -0.21021904766E+02  0.74093975736E+02  0.96129865505E+02  0.00000000000E+00 0. -1.
         11    1    1    2    0    0 -0.50469570071E+02  0.17075877375E+02 -0.18682121081E+02  0.56460470592E+02  0.00000000000E+00 0.  1.
</event>
<event>
 7    1  0.2900135E-009  0.1534923E+03  0.7561462E-02  0.1196246E+00
          1   -1    0    0  501    0  0.00000000000E+00  0.00000000000E+00  0.24734013516E+03  0.24734013516E+03  0.00000000000E+00 0. -1.
         -1   -1    0    0    0  501 -0.00000000000E+00 -0.00000000000E+00 -0.15359875569E+03  0.15359875569E+03  0.00000000000E+00 0.  1.
         25    2    1    2    0    0  0.93769656510E+02 -0.10525956070E+03  0.13044506104E+03  0.22920620693E+03  0.12508895931E+03 0.  0.
          5    1    3    3  502    0  0.64947815460E+02 -0.71989952579E+02  0.15174740516E+03  0.18012639834E+03  0.41800000000E+01 0. -1.
         -5    1    3    3    0  502  0.28821841050E+02 -0.33269608118E+02 -0.21302344119E+02  0.49079808585E+02  0.41800000000E+01 0. -1.
        -11    1    1    2    0    0 -0.75237507754E+02  0.12027547995E+03 -0.40600441460E+02  0.14756445879E+03  0.00000000000E+00 0.  1.
         11    1    1    2    0    0 -0.18532148756E+02 -0.15015919253E+02  0.38967598864E+01  0.24168225134E+02  0.00000000000E+00 0. -1.
</event>
<event>
 7    1  0.2900135E-009  0.1976394E+03  0.7561462E-02  0.1151746E+00
         -1   -1    0    0    0  501 -0.00000000000E+00  0.00000000000E+00  0.28047347362E+03  0.28047347362E+03  0.00000000000E+00 0. -1.
          1   -1    0    0  501    0  0.00000000000E+00 -0.00000000000E+00 -0.17063172494E+03  0.17063172494E+03  0.00000000000E+00 0.  1.
         25    2    1    2    0    0 -0.97669687383E+02 -0.14725127123E+03 -0.12133974882E+02  0.21681777533E+03  0.12506162337E+03 0.  0.
          5    1    3    3  502    0  0.54103704273E+01  0.13079610447E+02 -0.21334475806E+02  0.25941869160E+02  0.41800000000E+01 0.  1.
         -5    1    3    3    0  502 -0.10308005781E+03 -0.16033088168E+03  0.92005009241E+01  0.19087590617E+03  0.41800000000E+01 0.  1.
        -11    1    1    2    0    0  0.41725644123E+02  0.12114720679E+03  0.45424823509E+02  0.13594517160E+03  0.00000000000E+00 0.  1.
         11    1    1    2    0    0  0.55944043260E+02  0.26104064443E+02  0.76550900052E+02  0.98342251630E+02  0.00000000000E+00 0. -1.
</event>
<event>
 6    1  0.2900135E-009  0.1007041E+03  0.7561462E-02  0.1278822E+00
         -3   -1    0    0    0  501 -0.00000000000E+00  0.00000000000E+00  0.16722839745E+04  0.16722839745E+04  0.00000000000E+00 0.  1.
          3   -1    0    0  501    0  0.00000000000E+00 -0.00000000000E+00 -0.13129786356E+02  0.13129786356E+02  0.00000000000E+00 0. -1.
          5    1    1    2  502    0 -0.35473793527E+02  0.49488603499E+02  0.75863675825E+03  0.76108784991E+03  0.41800000000E+01 0. -1.
         -5    1    1    2    0  502  0.11763076182E+02 -0.65973065919E+02  0.70489562278E+03  0.70808624249E+03  0.41800000000E+01 0. -1.
        -11    1    1    2    0    0  0.31563563668E+01 -0.25918310441E+02  0.14398731500E+03  0.14633546488E+03  0.00000000000E+00 0.  1.
         11    1    1    2    0    0  0.20554360978E+02  0.42402772861E+02  0.51634492096E+02  0.69904203561E+02  0.00000000000E+00 0. -1.
</event>
<event>
 7    1  0.2900135E-009  0.3734174E+03  0.7561462E-02  0.1053394E+00
          2   -1    0    0  501    0  0.00000000000E+00  0.00000000000E+00  0.81621543463E+03  0.81621543463E+03  0.00000000000E+00 0. -1.
         -2   -1    0    0    0  501 -0.00000000000E+00 -0.00000000000E+00 -0.17506050704E+03  0.17506050704E+03  0.00000000000E+00 0.  1.
         25    2    1    2    0    0  0.11889057541E+03 -0.34165035805E+03  0.30578749291E+03  0.48991098282E+03  0.12508734624E+03 0.  0.
          5    1    3    3  502    0  0.55828615558E+02 -0.28276930153E+03  0.18916906035E+03  0.34478648175E+03  0.41800000000E+01 0. -1.
         -5    1    3    3    0  502  0.63061959850E+02 -0.58881056513E+02  0.11661843257E+03  0.14512450107E+03  0.41800000000E+01 0. -1.
        -11    1    1    2    0    0 -0.62259039485E+01  0.14820252798E+03  0.12117379325E+03  0.19153547804E+03  0.00000000000E+00 0.  1.
         11    1    1    2    0    0 -0.11266467146E+03  0.19344783007E+03  0.21419364143E+03  0.30982948082E+03  0.00000000000E+00 0. -1.
</event>
<event>
 7    1  0.2900135E-009  0.3406066E+03  0.7561462E-02  0.1066538E+00
         -1   -1    0    0    0  501 -0.00000000000E+00  0.00000000000E+00  0.83741339722E+03  0.83741339722E+03  0.00000000000E+00 0.  1.
          1   -1    0    0  501    0  0.00000000000E+00 -0.00000000000E+00 -0.15418869614E+03  0.15418869614E+03  0.00000000000E+00 0. -1.
         25    2    1    2    0    0  0.22917965551E+03  0.24138481821E+03  0.27196981503E+03  0.44767074655E+03  0.12510624313E+03 0.  0.
          5    1    3    3  502    0  0.19160814167E+02 -0.44158168394E+01  0.54288090330E+02  0.57890460264E+02  0.41800000000E+01 0. -1.
         -5    1    3    3    0  502  0.21001884135E+03  0.24580063505E+03  0.21768172470E+03  0.38978028629E+03  0.41800000000E+01 0. -1.
        -11    1    1    2    0    0 -0.11078809516E+03 -0.75855022803E+02  0.83441173753E+02  0.15808357281E+03  0.00000000000E+00 0. -1.
         11    1    1    2    0    0 -0.11839156035E+03 -0.16552979541E+03  0.32781371230E+03  0.38584777400E+03  0.00000000000E+00 0.  1.
</event>
<event>
 7    1  0.2900135E-009  0.1150092E+03  0.7561462E-02  0.1251565E+00
         -1   -1    0    0    0  501 -0.00000000000E+00  0.00000000000E+00  0.39370130168E+02  0.39370130168E+02  0.00000000000E+00 0.  1.
          1   -1    0    0  501    0  0.00000000000E+00 -0.00000000000E+00 -0.35125079619E+03  0.35125079619E+03  0.00000000000E+00 0. -1.
         25    2    1    2    0    0  0.15952941490E+02 -0.37428782870E+02 -0.20310802681E+03  0.24198207950E+03  0.12508815339E+03 0.  0.
          5    1    3    3  502    0 -0.50228935374E+01  0.44251913612E+02 -0.93263203351E+02  0.10343577146E+03  0.41800000000E+01 0. -1.
         -5    1    3    3    0  502  0.20975835027E+02 -0.81680696482E+02 -0.10984482346E+03  0.13854630805E+03  0.41800000000E+01 0. -1.
        -11    1    1    2    0    0 -0.27613896649E+02 -0.25056852119E+02 -0.33587356380E+02  0.50184495961E+02  0.00000000000E+00 0.  1.
         11    1    1    2    0    0  0.11660955159E+02  0.62485634989E+02 -0.75185282837E+02  0.98454350896E+02  0.00000000000E+00 0. -1.
</event>
<event>
 7    1  0.2900135E-009  0.1026644E+03  0.7561462E-02  0.1274791E+00
          2   -1    0    0  501    0  0.00000000000E+00  0.00000000000E+00  0.17368446955E+03  0.17368446955E+03  0.00000000000E+00 0. -1.
         -2   -1    0    0    0  501 -0.00000000000E+00 -0.00000000000E+00 -0.14749948685E+03  0.14749948685E+03  0.00000000000E+00 0.  1.
         25    2    1    2    0    0 -0.51709516136E+01  0.42636620319E+02 -0.96251948922E+02  0.16357478779E+03  0.12509058077E+03 0.  0.
          5    1    3    3  502    0  0.46849478884E+02  0.31866531456E+02 -0.38948437628E+01  0.56947271284E+02  0.41800000000E+01 0. -1.
         -5    1    3    3    0  502 -0.52020430497E+02  0.10770088863E+02 -0.92357105160E+02  0.10662751651E+03  0.41800000000E+01 0. -1.
        -11    1    1    2    0    0 -0.38415035281E+02 -0.72689996291E+01  0.73007481150E+02  0.82816940267E+02  0.00000000000E+00 0.  1.
         11    1    1    2    0    0  0.43585986895E+02 -0.35367620690E+02  0.49429450469E+02  0.74792228343E+02  0.00000000000E+00 0. -1.
</event>
<event>
 7    1  0.2900135E-009  0.1239664E+03  0.7561462E-02  0.1236693E+00
         -4   -1    0    0    0  501 -0.00000000000E+00  0.00000000000E+00  0.97029996814E+02  0.97029996814E+02  0.00000000000E+00 0.  1.
          4   -1    0    0  501    0  0.00000000000E+00 -0.00000000000E+00 -0.20517584235E+03  0.20517584235E+03  0.00000000000E+00 0. -1.
         25    2    1    2    0    0  0.39269638528E+02 -0.80359271954E+02 -0.33883098933E+02  0.15745421376E+03  0.12507616854E+03 0.  0.
          5    1    3    3  502    0  0.66396826319E+02 -0.54867703813E+02 -0.65616547786E+02  0.10836054268E+03  0.41800000000E+01 0. -1.
         -5    1    3    3    0  502 -0.27127187790E+02 -0.25491568141E+02  0.31733448853E+02  0.49093671076E+02  0.41800000000E+01 0. -1.
        -11    1    1    2    0    0  0.39391540199E+01 -0.17143844770E+02 -0.98419106976E+01  0.20156675174E+02  0.00000000000E+00 0. -1.
         11    1    1    2    0    0 -0.43208792548E+02  0.97503116724E+02 -0.64420835902E+02  0.12459495023E+03  0.00000000000E+00 0.  1.
</event>
<event>
 7    1  0.2900135E-009  0.1817907E+03  0.7561462E-02  0.1166081E+00
         -2   -1    0    0    0  501 -0.00000000000E+00  0.00000000000E+00  0.14835104303E+03  0.14835104303E+03  0.00000000000E+00 0.  1.
          2   -1    0    0  501    0  0.00000000000E+00 -0.00000000000E+00 -0.23592305792E+03  0.23592305792E+03  0.00000000000E+00 0. -1.
         25    2    1    2    0    0 -0.13438282381E+03 -0.61339849032E+02 -0.53131452787E+02  0.20072814316E+03  0.12509003065E+03 0.  0.
          5    1    3    3  502    0 -0.15781377778E+03 -0.58210629725E+02 -0.53984495603E+02  0.17670728349E+03  0.41800000000E+01 0.  1.
         -5    1    3    3    0  502  0.23430953974E+02 -0.31292193066E+01  0.85304281607E+00  0.24020859678E+02  0.41800000000E+01 0.  1.
        -11    1    1    2    0    0  0.92972102659E+02 -0.50069792616E+01  0.99161728687E+01  0.93633392540E+02  0.00000000000E+00 0.  1.
         11    1    1    2    0    0  0.41410721152E+02  0.66346828293E+02 -0.44356734977E+02  0.89912565244E+02  0.00000000000E+00 0. -1.
</event>
<event>
 7    1  0.2900135E-009  0.8984145E+02  0.7561462E-02  0.1303236E+00
         -1   -1    0    0    0  501 -0.00000000000E+00  0.00000000000E+00  0.23946880606E+02  0.23946880606E+02  0.00000000000E+00 0.  1.
          1   -1    0    0  501    0  0.00000000000E+00 -0.00000000000E+00 -0.77350825017E+03  0.77350825017E+03  0.00000000000E+00 0. -1.
         25    2    1    2    0    0  0.57864374327E+02 -0.48296303785E+02 -0.50703580166E+03  0.52764914593E+03  0.12508996066E+03 0.  0.
          5    1    3    3  502    0  0.97640059705E+01  0.52247905211E+01  0.32682021701E+01  0.12279568152E+02  0.41800000000E+01 0.  1.
         -5    1    3    3    0  502  0.48100368356E+02 -0.53521094306E+02 -0.51030400383E+03  0.51536957778E+03  0.41800000000E+01 0.  1.
        -11    1    1    2    0    0 -0.34682413180E+02  0.60373432573E+02 -0.23095209336E+03  0.24121917539E+03  0.00000000000E+00 0. -1.
         11    1    1    2    0    0 -0.23181961146E+02 -0.12077128788E+02 -0.11573474542E+02  0.28586809464E+02  0.00000000000E+00 0.  1.
</event>
<event>
 7    1  0.2900135E-009  0.7437993E+02  0.7561462E-02  0.1345802E+00
         -2   -1    0    0    0  501 -0.00000000000E+00  0.00000000000E+00  0.85752106781E+02  0.85752106781E+02  0.00000000000E+00 0.  1.
          2   -1    0    0  501    0  0.00000000000E+00 -0.00000000000E+00 -0.19193164747E+03  0.19193164747E+03  0.00000000000E+00 0. -1.
         25    2    1    2    0    0 -0.54087188121E+01  0.46077271963E+02 -0.34782883209E+01  0.13346441251E+03  0.12509309208E+03 0.  0.
          5    1    3    3  502    0 -0.89504874114E+01  0.33745941558E+01  0.57710643616E+02  0.58647164443E+02  0.41800000000E+01 0.  1.
         -5    1    3    3    0  502  0.35417685994E+01  0.42702677808E+02 -0.61188931937E+02  0.74817248067E+02  0.41800000000E+01 0.  1.
        -11    1    1    2    0    0  0.39846978947E+02 -0.45961711620E+02 -0.40369360453E+02  0.73006478682E+02  0.00000000000E+00 0. -1.
         11    1    1    2    0    0 -0.34438260135E+02 -0.11556034356E+00 -0.62331891920E+02  0.71212863063E+02  0.00000000000E+00 0.  1.
</event>
<event>
 7    1  0.2900135E-009  0.8990049E+02  0.7561462E-02  0.1303093E+00
         -1   -1    0    0    0  501 -0.00000000000E+00  0.00000000000E+00  0.23060219614E+03  0.23060219614E+03  0.00000000000E+00 0.  1.
          1   -1    0    0  501    0  0.00000000000E+00 -0.00000000000E+00 -0.62346418819E+02  0.62346418819E+02  0.00000000000E+00 0. -1.
         25    2    1    2    0    0 -0.19196057396E+02 -0.42466965256E+02  0.12865940300E+03  0.18539942761E+03  0.12509106291E+03 0.  0.
          5    1    3    3  502    0  0.38620130637E+02  0.86958220243E+01  0.91153228883E+02  0.99466151765E+02  0.41800000000E+01 0. -1.
         -5    1    3    3    0  502 -0.57816188033E+02 -0.51162787280E+02  0.37506174118E+02  0.85933275848E+02  0.41800000000E+01 0. -1.
        -11    1    1    2    0    0  0.29805385237E+02  0.15280056396E+02  0.62193897299E+02  0.70639379767E+02  0.00000000000E+00 0.  1.
         11    1    1    2    0    0 -0.10609327841E+02  0.27186908860E+02 -0.22597522981E+02  0.36909807578E+02  0.00000000000E+00 0. -1.
</event>
<event>
 7    1  0.2900135E-009  0.1888569E+03  0.7561462E-02  0.1159496E+00
         -3   -1    0    0    0  501 -0.00000000000E+00  0.00000000000E+00  0.71887901737E+03  0.71887901737E+03  0.00000000000E+00 0.  1.
          3   -1    0    0  501    0  0.00000000000E+00 -0.00000000000E+00 -0.63448038091E+02  0.63448038091E+02  0.00000000000E+00 0. -1.
         25    2    1    2    0    0 -0.15586054693E+03  0.12601027964E+02  0.16394992367E+03  0.25880182520E+03  0.12509001264E+03 0.  0.
          5    1    3    3  502    0  0.10713679344E+02  0.28270438635E+02  0.12141060848E+02  0.32846284177E+02  0.41800000000E+01 0.  1.
         -5    1    3    3    0  502 -0.16657422628E+03 -0.15669410671E+02  0.15180886282E+03  0.22595554103E+03  0.41800000000E+01 0.  1.
        -11    1    1    2    0    0  0.57010911690E+02  0.38265793657E+02  0.20719754384E+03  0.21827811889E+03  0.00000000000E+00 0.  1.
         11    1    1    2    0    0  0.98849635241E+02 -0.50866821621E+02  0.28428351178E+03  0.30524711137E+03  0.00000000000E+00 0. -1.
</event>
<event>
 7    1  0.2900135E-009  0.1087385E+03  0.7561462E-02  0.1262924E+00
         -2   -1    0    0    0  501 -0.00000000000E+00  0.00000000000E+00  0.32109792766E+02  0.32109792766E+02  0.00000000000E+00 0.  1.
          2   -1    0    0  501    0  0.00000000000E+00 -0.00000000000E+00 -0.53260747938E+03  0.53260747938E+03  0.00000000000E+00 0. -1.
         25    2    1    2    0    0  0.78811819231E+01  0.70280022607E+02 -0.32203884451E+03  0.35264459911E+03  0.12509117195E+03 0.  0.
          5    1    3    3  502    0 -0.33539135235E+02  0.27020141822E+02 -0.25791783997E+02  0.50375094820E+02  0.41800000000E+01 0.  1.
         -5    1    3    3    0  502  0.41420317158E+02  0.43259880785E+02 -0.29624706052E+03  0.30226950429E+03  0.41800000000E+01 0.  1.
        -11    1    1    2    0    0  0.25695336775E+02  0.96688314700E+01 -0.35603401084E+02  0.44959301626E+02  0.00000000000E+00 0.  1.
         11    1    1    2    0    0 -0.33576518698E+02 -0.79948854077E+02 -0.14285544102E+03  0.16711337141E+03  0.00000000000E+00 0. -1.
</event>
<event>
 7    1  0.2900135E-009  0.1025861E+03  0.7561462E-02  0.1274950E+00
         -3   -1    0    0    0  501 -0.00000000000E+00  0.00000000000E+00  0.66309240520E+02  0.66309240520E+02  0.00000000000E+00 0.  1.
          3   -1    0    0  501    0  0.00000000000E+00 -0.00000000000E+00 -0.23326482195E+03  0.23326482195E+03  0.00000000000E+00 0. -1.
         25    2    1    2    0    0  0.43408025269E+02  0.40927327625E+02 -0.79530063801E+02  0.15978707956E+03  0.12509027516E+03 0.  0.
          5    1    3    3  502    0 -0.26906381517E+02  0.58697084956E+02 -0.48145506642E+02  0.80652113168E+02  0.41800000000E+01 0. -1.
         -5    1    3    3    0  502  0.70314406786E+02 -0.17769757331E+02 -0.31384557160E+02  0.79134966389E+02  0.41800000000E+01 0. -1.
        -11    1    1    2    0    0 -0.19770001770E+02  0.88519037478E+00 -0.89547756128E+02  0.91708435597E+02  0.00000000000E+00 0. -1.
         11    1    1    2    0    0 -0.23638023499E+02 -0.41812518000E+02  0.21222384951E+01  0.48078547322E+02  0.00000000000E+00 0.  1.
</event>
<event>
 7    1  0.2900135E-009  0.1725801E+03  0.7561462E-02  0.1175184E+00
         -2   -1    0    0    0  501 -0.00000000000E+00  0.00000000000E+00  0.40740861394E+03  0.40740861394E+03  0.00000000000E+00 0.  1.
          2   -1    0    0  501    0  0.00000000000E+00 -0.00000000000E+00 -0.90627562627E+02  0.90627562627E+02  0.00000000000E+00 0. -1.
         25    2    1    2    0    0 -0.13295627065E+03 -0.42575006055E+02  0.70441025722E+02  0.20024766599E+03  0.12508872285E+03 0.  0.
          5    1    3    3  502    0 -0.91087994422E+01  0.36597937895E+02  0.18611093359E+01  0.37990991214E+02  0.41800000000E+01 0. -1.
         -5    1    3    3    0  502 -0.12384747121E+03 -0.79172943950E+02  0.68579916386E+02  0.16225667478E+03  0.41800000000E+01 0. -1.
        -11    1    1    2    0    0 -0.55173476965E+01  0.18889785045E+02  0.67837403078E+02  0.70634116127E+02  0.00000000000E+00 0.  1.
         11    1    1    2    0    0  0.13847361835E+03  0.23685221009E+02  0.17850262251E+03  0.22715439445E+03  0.00000000000E+00 0. -1.
</event>
<event>
 7    1  0.2900135E-009  0.1197960E+03  0.7561462E-02  0.1243434E+00
          2   -1    0    0  501    0  0.00000000000E+00  0.00000000000E+00  0.13368310467E+03  0.13368310467E+03  0.00000000000E+00 0. -1.
         -2   -1    0    0    0  501 -0.00000000000E+00 -0.00000000000E+00 -0.11224576189E+03  0.11224576189E+03  0.00000000000E+00 0.  1.
         25    2    1    2    0    0 -0.29386699272E+01  0.52077365649E+02 -0.89629806487E+01  0.13584231936E+03  0.12510840465E+03 0.  0.
          5    1    3    3  502    0  0.53967457143E+02 -0.54668508579E+01 -0.62111323783E+01  0.54757862031E+02  0.41800000000E+01 0. -1.
         -5    1    3    3    0  502 -0.56906127071E+02  0.57544216507E+02 -0.27518482704E+01  0.81084457330E+02  0.41800000000E+01 0. -1.
        -11    1    1    2    0    0 -0.25289955982E+02  0.16359318496E+02  0.16532851324E+00  0.30120367009E+02  0.00000000000E+00 0.  1.
         11    1    1    2    0    0  0.28228625909E+02 -0.68436684145E+02  0.30234994909E+02  0.79966180193E+02  0.00000000000E+00 0. -1.
</event>
<event>
 7    1  0.2900135E-009  0.1006615E+03  0.7561462E-02  0.1278911E+00
          1   -1    0    0  501    0  0.00000000000E+00  0.00000000000E+00  0.38591995138E+03  0.38591995138E+03  0.00000000000E+00 0. -1.
         -1   -1    0    0    0  501 -0.00000000000E+00 -0.00000000000E+00 -0.46516297687E+02  0.46516297687E+02  0.00000000000E+00 0.  1.
         25    2    1    2    0    0 -0.65184211693E+02 -0.50168083801E+01  0.25771122160E+03  0.29383162188E+03  0.12509116059E+03 0.  0.
          5    1    3    3  502    0 -0.15606458390E+02  0.28760269061E+02  0.41627375195E+01  0.33249291776E+02  0.41800000000E+01 0. -1.
         -5    1    3    3    0  502 -0.49577753302E+02 -0.33777077441E+02  0.25354848408E+03  0.26058233010E+03  0.41800000000E+01 0. -1.
        -11    1    1    2    0    0  0.52175257596E+02  0.43277367512E+02  0.33201591483E+02  0.75482009254E+02  0.00000000000E+00 0.  1.
         11    1    1    2    0    0  0.13008954096E+02 -0.38260559131E+02  0.48490840614E+02  0.63122617937E+02  0.00000000000E+00 0. -1.
</event>
<event>
 7    1  0.2900135E-009  0.1602453E+03  0.7561462E-02  0.1188420E+00
          3   -1    0    0  501    0  0.00000000000E+00  0.00000000000E+00  0.15191331127E+03  0.15191331127E+03  0.00000000000E+00 0. -1.
         -3   -1    0    0    0  501 -0.00000000000E+00 -0.00000000000E+00 -0.19574341194E+03  0.19574341194E+03  0.00000000000E+00 0.  1.
         25    2    1    2    0    0  0.11961530984E+02 -0.13330866194E+03 -0.27157026689E+02  0.18520112953E+03  0.12509067395E+03 0.  0.
          5    1    3    3  502    0 -0.17386433562E+02  0.13025301766E+02  0.18746709481E+02  0.28997552905E+02  0.41800000000E+01 0.  1.
         -5    1    3    3    0  502  0.29347964546E+02 -0.14633396371E+03 -0.45903736170E+02  0.15620357663E+03  0.41800000000E+01 0.  1.
        -11    1    1    2    0    0  0.26926293806E+02  0.42986012662E+02  0.23905354850E+02  0.56073956283E+02  0.00000000000E+00 0. -1.
         11    1    1    2    0    0 -0.38887824791E+02  0.90322649279E+02 -0.40578428832E+02  0.10638163740E+03  0.00000000000E+00 0.  1.
</event>
<event>
 7    1  0.2900135E-009  0.1135914E+03  0.7561462E-02  0.1254060E+00
          4   -1    0    0  501    0  0.00000000000E+00  0.00000000000E+00  0.55890256116E+02  0.55890256116E+02  0.00000000000E+00 0. -1.
         -4   -1    0    0    0  501 -0.00000000000E+00 -0.00000000000E+00 -0.37969780196E+03  0.37969780196E+03  0.00000000000E+00 0.  1.
         25    2    1    2    0    0  0.60400354656E+02  0.12720128688E+01 -0.62915223875E+02  0.15250010918E+03  0.12509251395E+03 0.  0.
          5    1    3    3  502    0 -0.29118079193E+02 -0.21216905504E+02  0.66125420721E+01  0.36867570135E+02  0.41800000000E+01 0.  1.
         -5    1    3    3    0  502  0.89518433848E+02  0.22488918373E+02 -0.69527765947E+02  0.11563253904E+03  0.41800000000E+01 0.  1.
        -11    1    1    2    0    0 -0.18570214236E+02  0.37269419887E+02 -0.17630521248E+03  0.18115570778E+03  0.00000000000E+00 0.  1.
         11    1    1    2    0    0 -0.41830140420E+02 -0.38541432756E+02 -0.84587109491E+02  0.10193224111E+03  0.00000000000E+00 0. -1.
</event>
<event>
 7    1  0.2900135E-009  0.1224138E+03  0.7561462E-02  0.1239167E+00
          2   -1    0    0  501    0  0.00000000000E+00  0.00000000000E+00  0.40425823502E+03  0.40425823502E+03  0.00000000000E+00 0. -1.
         -2   -1    0    0    0  501 -0.00000000000E+00 -0.00000000000E+00 -0.52740538160E+02  0.52740538160E+02  0.00000000000E+00 0.  1.
         25    2    1    2    0    0 -0.54635991166E+02 -0.29866666946E+02  0.73165388613E+02  0.15772242111E+03  0.12508428641E+03 0.  0.
          5    1    3    3  502    0  0.40659695405E+02 -0.80806709612E+01  0.25916853897E+02  0.49067950737E+02  0.41800000000E+01 0.  1.
         -5    1    3    3    0  502 -0.95295686571E+02 -0.21785995985E+02  0.47248534716E+02  0.10865447038E+03  0.41800000000E+01 0.  1.
        -11    1    1    2    0    0  0.77815695982E+02  0.23006756280E+02  0.24497549776E+03  0.25806508458E+03  0.00000000000E+00 0. -1.
         11    1    1    2    0    0 -0.23179704815E+02  0.68599106661E+01  0.33376810492E+02  0.41211267492E+02  0.00000000000E+00 0.  1.
</event>
<event>
 7    1  0.2900135E-009  0.1013881E+03  0.7561462E-02  0.1277404E+00
         -1   -1    0    0    0  501 -0.00000000000E+00  0.00000000000E+00  0.31523386369E+03  0.31523386369E+03  0.00000000000E+00 0.  1.
          1   -1    0    0  501    0  0.00000000000E+00 -0.00000000000E+00 -0.36111538109E+02  0.36111538109E+02  0.00000000000E+00 0. -1.
         25    2    1    2    0    0 -0.67645737866E+01  0.13828150756E+02  0.15577735446E+03  0.20038008390E+03  0.12509443093E+03 0.  0.
          5    1    3    3  502    0 -0.30266852373E+02 -0.45750870048E+02  0.40061340649E+02  0.68055917284E+02  0.41800000000E+01 0.  1.
         -5    1    3    3    0  502  0.23502278587E+02  0.59579020804E+02  0.11571601381E+03  0.13232416662E+03  0.41800000000E+01 0.  1.
        -11    1    1    2    0    0  0.14472151727E+02 -0.47178390098E+02  0.51190725548E+02  0.71103685206E+02  0.00000000000E+00 0. -1.
         11    1    1    2    0    0 -0.77075779405E+01  0.33350239342E+02  0.72154245575E+02  0.79861632692E+02  0.00000000000E+00 0.  1.
</event>
<event>
 7    1  0.2900135E-009  0.1050684E+03  0.7561462E-02  0.1269985E+00
          1   -1    0    0  501    0  0.00000000000E+00  0.00000000000E+00  0.21988882115E+03  0.21988882115E+03  0.00000000000E+00 0. -1.
         -1   -1    0    0    0  501 -0.00000000000E+00 -0.00000000000E+00 -0.59869408262E+02  0.59869408262E+02  0.00000000000E+00 0.  1.
         25    2    1    2    0    0  0.28530302864E+02  0.16088679968E+02  0.11430325564E+03  0.17257832518E+03  0.12508085492E+03 0.  0.
          5    1    3    3  502    0 -0.33755714473E+02 -0.29847354817E+02  0.17376980101E+02  0.48474165146E+02  0.41800000000E+01 0. -1.
         -5    1    3    3    0  502  0.62286017338E+02  0.45936034785E+02  0.96926275541E+02  0.12410416003E+03  0.41800000000E+01 0. -1.
        -11    1    1    2    0    0 -0.48534467094E+02 -0.35009726013E+02  0.78433945152E+01  0.60355565188E+02  0.00000000000E+00 0.  1.
         11    1    1    2    0    0  0.20004164230E+02  0.18921046045E+02  0.37872762728E+02  0.46824339041E+02  0.00000000000E+00 0. -1.
</event>
<event>
 7    1  0.2900135E-009  0.1295344E+03  0.7561462E-02  0.1228148E+00
          2   -1    0    0  501    0  0.00000000000E+00  0.00000000000E+00  0.13053593353E+03  0.13053593353E+03  0.00000000000E+00 0. -1.
         -2   -1    0    0    0  501 -0.00000000000E+00 -0.00000000000E+00 -0.16801864762E+03  0.16801864762E+03  0.00000000000E+00 0.  1.
         25    2    1    2    0    0 -0.54204470916E+02 -0.69315749009E+02  0.28632222438E+02  0.15559729309E+03  0.12509162932E+03 0.  0.
          5    1    3    3  502    0 -0.25253426517E+02  0.34230598898E+02  0.21281712112E+02  0.47747807512E+02  0.41800000000E+01 0.  1.
         -5    1    3    3    0  502 -0.28951044399E+02 -0.10354634791E+03  0.73505103252E+01  0.10784948557E+03  0.41800000000E+01 0.  1.
        -11    1    1    2    0    0 -0.14123380133E+02  0.52656606631E+01 -0.44302598622E+02  0.46796552151E+02  0.00000000000E+00 0.  1.
         11    1    1    2    0    0  0.68327851049E+02  0.64050088346E+02 -0.21812337900E+02  0.96160735910E+02  0.00000000000E+00 0. -1.
</event>
<event>
 7    1  0.2900135E-009  0.1702300E+03  0.7561462E-02  0.1177608E+00
          1   -1    0    0  501    0  0.00000000000E+00  0.00000000000E+00  0.11127412004E+04  0.11127412004E+04  0.00000000000E+00 0. -1.
         -1   -1    0    0    0  501 -0.00000000000E+00 -0.00000000000E+00 -0.39661540171E+02  0.39661540171E+02  0.00000000000E+00 0.  1.
         25    2    1    2    0    0 -0.13583990329E+03  0.56224290525E+02  0.84456320211E+03  0.86634170566E+03  0.12508916200E+03 0.  0.
          5    1    3    3  502    0 -0.14594523717E+03  0.29761186764E+02  0.79711886866E+03  0.81092644775E+03  0.41800000000E+01 0.  1.
         -5    1    3    3    0  502  0.10105333876E+02  0.26463103761E+02  0.47444333450E+02  0.55415257916E+02  0.41800000000E+01 0.  1.
        -11    1    1    2    0    0  0.79060010842E+01  0.14589745991E+02  0.23759763260E+01  0.16763376889E+02  0.00000000000E+00 0.  1.
         11    1    1    2    0    0  0.12793390221E+03 -0.70814036516E+02  0.22614048176E+03  0.26929765798E+03  0.00000000000E+00 0. -1.
</event>
<event>
 7    1  0.3511420E-009  0.1312390E+03  0.7561462E-02  0.1225629E+00
         -1   -1    0    0    0  501 -0.00000000000E+00  0.00000000000E+00  0.30527079443E+02  0.30527079443E+02  0.00000000000E+00 0.  1.
          1   -1    0    0  501    0  0.00000000000E+00 -0.00000000000E+00 -0.61869624822E+03  0.61869624822E+03  0.00000000000E+00 0. -1.
         25    2    1    2    0    0  0.58427780833E+02 -0.60393645551E+02 -0.35351754995E+03  0.38429627564E+03  0.12509105225E+03 0.  0.
          5    1    3    3  502    0 -0.35972670774E+02 -0.39922959071E+02 -0.13361119774E+03  0.14407394027E+03  0.41800000000E+01 0.  1.
         -5    1    3    3    0  502  0.94400451606E+02 -0.20470686481E+02 -0.21990635221E+03  0.24022233537E+03  0.41800000000E+01 0.  1.
        -11    1    1    2    0    0 -0.22194198306E+02  0.70796975704E+02 -0.20150226794E+03  0.21472763724E+03  0.00000000000E+00 0. -1.
         11    1    1    2    0    0 -0.36233582526E+02 -0.10403330153E+02 -0.33149350893E+02  0.50199414794E+02  0.00000000000E+00 0.  1.
</event>
<event>
 7    1  0.2900135E-009  0.9896474E+02  0.7561462E-02  0.1282488E+00
         -1   -1    0    0    0  501 -0.00000000000E+00  0.00000000000E+00  0.19364800170E+02  0.19364800170E+02  0.00000000000E+00 0.  1.
          1   -1    0    0  501    0  0.00000000000E+00 -0.00000000000E+00 -0.10427922201E+04  0.10427922201E+04  0.00000000000E+00 0. -1.
         25    2    1    2    0    0  0.21269103532E+02 -0.73746082054E+02 -0.72323025606E+03  0.73797098737E+03  0.12509322739E+03 0.  0.
          5    1    3    3  502    0 -0.18025553161E+02 -0.43177339680E+02 -0.79768294534E+02  0.92572438887E+02  0.41800000000E+01 0. -1.
         -5    1    3    3    0  502  0.39294656692E+02 -0.30568742374E+02 -0.64346196153E+03  0.64539854849E+03  0.41800000000E+01 0. -1.
        -11    1    1    2    0    0 -0.12329386072E+02 -0.10549089530E+02 -0.48809145426E+01  0.16944626806E+02  0.00000000000E+00 0.  1.
         11    1    1    2    0    0 -0.89397174593E+01  0.84295171584E+02 -0.29531624933E+03  0.30724140610E+03  0.00000000000E+00 0. -1.
</event>
<event>
 7    1  0.2900135E-009  0.1290481E+03  0.7561462E-02  0.1228875E+00
         -3   -1    0    0    0  501 -0.00000000000E+00  0.00000000000E+00  0.13633129396E+03  0.13633129396E+03  0.00000000000E+00 0.  1.
          3   -1    0    0  501    0  0.00000000000E+00 -0.00000000000E+00 -0.18759158622E+03  0.18759158622E+03  0.00000000000E+00 0. -1.
         25    2    1    2    0    0 -0.81881357527E+02  0.61937051646E+02 -0.85651117942E+02  0.18310934943E+03  0.12510861188E+03 0.  0.
          5    1    3    3  502    0  0.21638178313E+02 -0.13278648736E+00 -0.53899435915E+02  0.58231005358E+02  0.41800000000E+01 0.  1.
         -5    1    3    3    0  502 -0.10351953584E+03  0.62069838133E+02 -0.31751682027E+02  0.12487834407E+03  0.41800000000E+01 0.  1.
        -11    1    1    2    0    0  0.18463938790E+02  0.86522470361E+01  0.40896679373E+02  0.45698104973E+02  0.00000000000E+00 0.  1.
         11    1    1    2    0    0  0.63417418737E+02 -0.70589298682E+02 -0.65058536907E+01  0.95115425773E+02  0.00000000000E+00 0. -1.
</event>
<event>
 7    1  0.2900135E-009  0.1559643E+03  0.7561462E-02  0.1193330E+00
         -2   -1    0    0    0  501 -0.00000000000E+00  0.00000000000E+00  0.91262764479E+02  0.91262764479E+02  0.00000000000E+00 0.  1.
          2   -1    0    0  501    0  0.00000000000E+00 -0.00000000000E+00 -0.67919285657E+03  0.67919285657E+03  0.00000000000E+00 0. -1.
         25    2    1    2    0    0  0.10998421915E+03 -0.90922642071E+02 -0.56007776115E+03  0.59135283786E+03  0.12509046729E+03 0.  0.
          5    1    3    3  502    0 -0.79136597815E+01  0.85942810234E+01 -0.18968080397E+03  0.19008621063E+03  0.41800000000E+01 0. -1.
         -5    1    3    3    0  502  0.11789787893E+03 -0.99516923095E+02 -0.37039695718E+03  0.40126662723E+03  0.41800000000E+01 0. -1.
        -11    1    1    2    0    0 -0.46297956457E+02  0.21742912759E+02  0.38499039908E+02  0.64018990161E+02  0.00000000000E+00 0.  1.
         11    1    1    2    0    0 -0.63686262696E+02  0.69179729312E+02 -0.66351370844E+02  0.11508379302E+03  0.00000000000E+00 0. -1.
</event>
<event>
 7    1  0.2900135E-009  0.1134871E+03  0.7561462E-02  0.1254245E+00
          2   -1    0    0  501    0  0.00000000000E+00  0.00000000000E+00  0.78545895410E+02  0.78545895410E+02  0.00000000000E+00 0. -1.
         -2   -1    0    0    0  501 -0.00000000000E+00 -0.00000000000E+00 -0.21494918029E+03  0.21494918029E+03  0.00000000000E+00 0.  1.
         25    2    1    2    0    0  0.55876087651E+02 -0.24596688718E+02 -0.33617206984E+02  0.14319570506E+03  0.12509100318E+03 0.  0.
          5    1    3    3  502    0 -0.38093797411E+01 -0.61614886422E+02 -0.38154434085E+02  0.72692082397E+02  0.41800000000E+01 0. -1.
         -5    1    3    3    0  502  0.59685467392E+02  0.37018197704E+02  0.45372271016E+01  0.70503622665E+02  0.41800000000E+01 0. -1.
        -11    1    1    2    0    0  0.16937637275E+02 -0.23563238026E+01 -0.58428471451E+02  0.60879570419E+02  0.00000000000E+00 0.  1.
         11    1    1    2    0    0 -0.72813724926E+02  0.26953012520E+02 -0.44357606444E+02  0.89419800218E+02  0.00000000000E+00 0. -1.
</event>
<event>
 7    1  0.2900135E-009  0.1310987E+03  0.7561462E-02  0.1225835E+00
         -1   -1    0    0    0  501 -0.00000000000E+00  0.00000000000E+00  0.15010808695E+03  0.15010808695E+03  0.00000000000E+00 0.  1.
          1   -1    0    0  501    0  0.00000000000E+00 -0.00000000000E+00 -0.14137164498E+03  0.14137164498E+03  0.00000000000E+00 0. -1.
         25    2    1    2    0    0 -0.76566005676E+02  0.14736168243E+02 -0.48422937926E+02  0.15515422188E+03  0.12509413963E+03 0.  0.
          5    1    3    3  502    0  0.34666065045E+02  0.56506152210E+01 -0.16292850542E+02  0.38943483368E+02  0.41800000000E+01 0. -1.
         -5    1    3    3    0  502 -0.11123207072E+03  0.90855530217E+01 -0.32130087384E+02  0.11621073851E+03  0.41800000000E+01 0. -1.
        -11    1    1    2    0    0  0.32057425981E+02  0.35631307848E+02  0.49122320004E+02  0.68631413959E+02  0.00000000000E+00 0.  1.
         11    1    1    2    0    0  0.44508579695E+02 -0.50367476090E+02  0.80370598956E+01  0.67694096094E+02  0.00000000000E+00 0. -1.
</event>
<event>
 7    1  0.2900135E-009  0.1243939E+03  0.7561462E-02  0.1236020E+00
         -4   -1    0    0    0  501 -0.00000000000E+00  0.00000000000E+00  0.20066639146E+03  0.20066639146E+03  0.00000000000E+00 0. -1.
          4   -1    0    0  501    0  0.00000000000E+00 -0.00000000000E+00 -0.83942634034E+02  0.83942634034E+02  0.00000000000E+00 0.  1.
         25    2    1    2    0    0 -0.14394332701E+02 -0.69042973945E+02  0.67721682148E+02  0.15877362480E+03  0.12509479859E+03 0.  0.
          5    1    3    3  502    0  0.42374228706E+01  0.34944557574E+02  0.48822122996E+01  0.35782485290E+02  0.41800000000E+01 0.  1.
         -5    1    3    3    0  502 -0.18631755572E+02 -0.10398753152E+03  0.62839469849E+02  0.12299113951E+03  0.41800000000E+01 0.  1.
        -11    1    1    2    0    0 -0.28580998186E+02  0.55716554108E+02  0.48666818311E+01  0.62808378828E+02  0.00000000000E+00 0. -1.
         11    1    1    2    0    0  0.42975330888E+02  0.13326419837E+02  0.44135393445E+02  0.63027021865E+02  0.00000000000E+00 0.  1.
</event>
<event>
 7    1  0.2900135E-009  0.1138377E+03  0.7561462E-02  0.1253624E+00
          2   -1    0    0  501    0  0.00000000000E+00  0.00000000000E+00  0.69963386761E+03  0.69963386761E+03  0.00000000000E+00 0. -1.
         -2   -1    0    0    0  501 -0.00000000000E+00 -0.00000000000E+00 -0.20318007245E+02  0.20318007245E+02  0.00000000000E+00 0.  1.
         25    2    1    2    0    0 -0.32541450072E+02  0.24048928861E+02  0.47598328745E+03  0.49380699466E+03  0.12509181065E+03 0.  0.
          5    1    3    3  502    0 -0.16000094241E+02 -0.51408117969E+02  0.20563696204E+03  0.21260957214E+03  0.41800000000E+01 0. -1.
         -5    1    3    3    0  502 -0.16541355831E+02  0.75457046831E+02  0.27034632541E+03  0.28119742252E+03  0.41800000000E+01 0. -1.
        -11    1    1    2    0    0  0.61649945019E+02 -0.57249712444E+01  0.15422967336E+03  0.16619351119E+03  0.00000000000E+00 0. -1.
         11    1    1    2    0    0 -0.29108494947E+02 -0.18323957617E+02  0.49102899551E+02  0.59951369002E+02  0.00000000000E+00 0.  1.
</event>
<event>
 7    1  0.2900135E-009  0.1208596E+03  0.7561462E-02  0.1241686E+00
          2   -1    0    0  501    0  0.00000000000E+00  0.00000000000E+00  0.75138556011E+03  0.75138556011E+03  0.00000000000E+00 0. -1.
         -2   -1    0    0    0  501 -0.00000000000E+00 -0.00000000000E+00 -0.31733713423E+02  0.31733713423E+02  0.00000000000E+00 0.  1.
         25    2    1    2    0    0  0.72317546646E+02  0.56838738785E+02  0.50963982740E+03  0.53276730117E+03  0.12509106180E+03 0.  0.
          5    1    3    3  502    0  0.79688440646E+02  0.84688217780E+02  0.46600988615E+03  0.48031763261E+03  0.41800000000E+01 0.  1.
         -5    1    3    3    0  502 -0.73708940002E+01 -0.27849478995E+02  0.43629941254E+02  0.52449668564E+02  0.41800000000E+01 0.  1.
        -11    1    1    2    0    0 -0.30454563882E+02 -0.41902816041E+02  0.20520376071E+02  0.55717253051E+02  0.00000000000E+00 0.  1.
         11    1    1    2    0    0 -0.41862982764E+02 -0.14935922744E+02  0.18949164321E+03  0.19463471931E+03  0.00000000000E+00 0. -1.
</event>
<event>
 7    1  0.2900135E-009  0.1046491E+03  0.7561462E-02  0.1270812E+00
         -1   -1    0    0    0  501 -0.00000000000E+00  0.00000000000E+00  0.62639343073E+02  0.62639343073E+02  0.00000000000E+00 0.  1.
          1   -1    0    0  501    0  0.00000000000E+00 -0.00000000000E+00 -0.20042045873E+03  0.20042045873E+03  0.00000000000E+00 0. -1.
         25    2    1    2    0    0 -0.39206073972E+02 -0.10736413814E+02 -0.96822473758E+02  0.16332257198E+03  0.12508910534E+03 0.  0.
          5    1    3    3  502    0  0.39261655647E+02  0.14367758198E+02 -0.92640541090E+01  0.43025633968E+02  0.41800000000E+01 0.  1.
         -5    1    3    3    0  502 -0.78467729619E+02 -0.25104172011E+02 -0.87558419649E+02  0.12029693801E+03  0.41800000000E+01 0.  1.
        -11    1    1    2    0    0  0.46853796175E+00 -0.29170340902E+02  0.23197832838E+01  0.29266187156E+02  0.00000000000E+00 0. -1.
         11    1    1    2    0    0  0.38737536010E+02  0.39906754716E+02 -0.43278425184E+02  0.70471042666E+02  0.00000000000E+00 0.  1.
</event>
<event>
 7    1  0.2900135E-009  0.9365559E+02  0.7561462E-02  0.1294233E+00
         -1   -1    0    0    0  501 -0.00000000000E+00  0.00000000000E+00  0.91883391292E+02  0.91883391292E+02  0.00000000000E+00 0.  1.
          1   -1    0    0  501    0  0.00000000000E+00 -0.00000000000E+00 -0.68613276278E+03  0.68613276278E+03  0.00000000000E+00 0. -1.
         25    2    1    2    0    0 -0.54179732945E+02 -0.36117301798E+02 -0.64124446176E+03  0.65656759442E+03  0.12508654341E+03 0.  0.
          5    1    3    3  502    0  0.61166537898E+01 -0.44281861085E+02 -0.77750253990E+02  0.89782353891E+02  0.41800000000E+01 0.  1.
         -5    1    3    3    0  502 -0.60296386735E+02  0.81645592868E+01 -0.56349420777E+03  0.56678524052E+03  0.41800000000E+01 0.  1.
        -11    1    1    2    0    0  0.49748326082E+01  0.31625415247E+02 -0.20340686113E+02  0.37929663333E+02  0.00000000000E+00 0. -1.
         11    1    1    2    0    0  0.49204900337E+02  0.44918865508E+01  0.67335776386E+02  0.83518896326E+02  0.00000000000E+00 0.  1.
</event>
<event>
 7    1  0.2900135E-009  0.2547319E+03  0.7561462E-02  0.1110350E+00
         -2   -1    0    0    0  501 -0.00000000000E+00  0.00000000000E+00  0.12304568431E+03  0.12304568431E+03  0.00000000000E+00 0.  1.
          2   -1    0    0  501    0  0.00000000000E+00 -0.00000000000E+00 -0.72929400844E+03  0.72929400844E+03  0.00000000000E+00 0. -1.
         25    2    1    2    0    0  0.13235769984E+03 -0.19927317545E+03 -0.51326866640E+03  0.57993173814E+03  0.12509091826E+03 0.  0.
          5    1    3    3  502    0  0.11278706948E+03 -0.21197346186E+03 -0.42109930430E+03  0.48476362080E+03  0.41800000000E+01 0.  1.
         -5    1    3    3    0  502  0.19570630357E+02  0.12700286402E+02 -0.92169362098E+02  0.95168117334E+02  0.41800000000E+01 0.  1.
        -11    1    1    2    0    0 -0.65217281647E+02  0.50806699936E+02  0.40374816660E+01  0.82770259405E+02  0.00000000000E+00 0.  1.
         11    1    1    2    0    0 -0.67140418191E+02  0.14846647552E+03 -0.97017139399E+02  0.18963769521E+03  0.00000000000E+00 0. -1.
</event>
<event>
 7    1  0.2900135E-009  0.1785550E+03  0.7561462E-02  0.1169209E+00
          2   -1    0    0  501    0  0.00000000000E+00  0.00000000000E+00  0.39962412305E+03  0.39962412305E+03  0.00000000000E+00 0. -1.
         -2   -1    0    0    0  501 -0.00000000000E+00 -0.00000000000E+00 -0.13163435444E+03  0.13163435444E+03  0.00000000000E+00 0.  1.
         25    2    1    2    0    0  0.34942340096E+02  0.15532209039E+03 -0.50445819279E+01  0.20253655900E+03  0.12509872513E+03 0.  0.
          5    1    3    3  502    0 -0.42322169083E+02  0.44310699220E+02  0.20660720687E+02  0.64799242593E+02  0.41800000000E+01 0.  1.
         -5    1    3    3    0  502  0.77264509179E+02  0.11101139117E+03 -0.25705302614E+02  0.13773731640E+03  0.41800000000E+01 0.  1.
        -11    1    1    2    0    0 -0.19494202997E+02 -0.12318770185E+03  0.26394256111E+03  0.29192620541E+03  0.00000000000E+00 0. -1.
         11    1    1    2    0    0 -0.15448137100E+02 -0.32134388538E+02  0.90917894247E+01  0.36795713086E+02  0.00000000000E+00 0.  1.
</event>
<event>
 7    1  0.2900135E-009  0.2034683E+03  0.7561462E-02  0.1146845E+00
         -1   -1    0    0    0  501 -0.00000000000E+00  0.00000000000E+00  0.38302149172E+03  0.38302149172E+03  0.00000000000E+00 0. -1.
          1   -1    0    0  501    0  0.00000000000E+00 -0.00000000000E+00 -0.14921973444E+03  0.14921973444E+03  0.00000000000E+00 0.  1.
         25    2    1    2    0    0 -0.78943412556E+02 -0.16204292893E+03 -0.53244049067E+01  0.21946684496E+03  0.12508946217E+03 0.  0.
          5    1    3    3  502    0  0.24733578991E+02 -0.27472974759E+02  0.27671903889E+02  0.46365083162E+02  0.41800000000E+01 0. -1.
         -5    1    3    3    0  502 -0.10367699155E+03 -0.13456995417E+03 -0.32996308796E+02  0.17310176179E+03  0.41800000000E+01 0. -1.
        -11    1    1    2    0    0 -0.18970321127E+02  0.25218594085E+02  0.23884803947E+02  0.39576943173E+02  0.00000000000E+00 0.  1.
         11    1    1    2    0    0  0.97913733683E+02  0.13682433485E+03  0.21524135825E+03  0.27319743804E+03  0.00000000000E+00 0. -1.
</event>
<event>
 7    1  0.2900135E-009  0.1088364E+03  0.7561462E-02  0.1262740E+00
         -2   -1    0    0    0  501 -0.00000000000E+00  0.00000000000E+00  0.23442250909E+03  0.23442250909E+03  0.00000000000E+00 0. -1.
          2   -1    0    0  501    0  0.00000000000E+00 -0.00000000000E+00 -0.11544611866E+03  0.11544611866E+03  0.00000000000E+00 0.  1.
         25    2    1    2    0    0  0.24136210751E+02 -0.26147665968E+02  0.18885007560E+03  0.22929808256E+03  0.12508797907E+03 0.  0.
          5    1    3    3  502    0  0.11666946259E+02 -0.73670848787E+02  0.78151609645E+02  0.10811409754E+03  0.41800000000E+01 0.  1.
         -5    1    3    3    0  502  0.12469264492E+02  0.47523182819E+02  0.11069846595E+03  0.12118398502E+03  0.41800000000E+01 0.  1.
        -11    1    1    2    0    0  0.32346339012E+02  0.16656492571E+02 -0.45673163219E+02  0.58393169384E+02  0.00000000000E+00 0. -1.
         11    1    1    2    0    0 -0.56482549763E+02  0.94911733963E+01 -0.24200521950E+02  0.62177375812E+02  0.00000000000E+00 0.  1.
</event>
<event>
 7    1  0.3370075E-009  0.1095551E+03  0.7561462E-02  0.1261396E+00
          2   -1    0    0  501    0  0.00000000000E+00  0.00000000000E+00  0.41205105148E+03  0.41205105148E+03  0.00000000000E+00 0. -1.
         -2   -1    0    0    0  501 -0.00000000000E+00 -0.00000000000E+00 -0.51053676521E+02  0.51053676521E+02  0.00000000000E+00 0.  1.
         25    2    1    2    0    0  0.60146843752E+02 -0.54479491000E+02  0.11549805290E+03  0.18860721090E+03  0.12508885652E+03 0.  0.
          5    1    3    3  502    0  0.50406730421E+02 -0.78593229649E+02  0.12876938544E+03  0.15911241701E+03  0.41800000000E+01 0.  1.
         -5    1    3    3    0  502  0.97401133313E+01  0.24113738649E+02 -0.13271332540E+02  0.29494793892E+02  0.41800000000E+01 0.  1.
        -11    1    1    2    0    0  0.52728444271E+00  0.35827277331E+02  0.21743980851E+02  0.41912677475E+02  0.00000000000E+00 0.  1.
         11    1    1    2    0    0 -0.60674128195E+02  0.18652213668E+02  0.22375534121E+03  0.23258483963E+03  0.00000000000E+00 0. -1.
</event>
<event>
 7    1  0.2900135E-009  0.4893099E+03  0.7561462E-02  0.1016607E+00
          1   -1    0    0  501    0  0.00000000000E+00  0.00000000000E+00  0.94948011582E+03  0.94948011582E+03  0.00000000000E+00 0. -1.
         -1   -1    0    0    0  501 -0.00000000000E+00 -0.00000000000E+00 -0.26192232688E+03  0.26192232688E+03  0.00000000000E+00 0.  1.
         25    2    1    2    0    0  0.44777335257E+03  0.17922376964E+03  0.26595359262E+03  0.56480348467E+03  0.12509807352E+03 0.  0.
          5    1    3    3  502    0  0.11811696476E+03  0.90885923942E+02  0.12858493055E+03  0.19688429419E+03  0.41800000000E+01 0. -1.
         -5    1    3    3    0  502  0.32965638781E+03  0.88337845694E+02  0.13736866207E+03  0.36791919048E+03  0.41800000000E+01 0. -1.
        -11    1    1    2    0    0 -0.34505243218E+03 -0.10235375544E+03  0.28405883764E+03  0.45850506589E+03  0.00000000000E+00 0.  1.
         11    1    1    2    0    0 -0.10272092039E+03 -0.76870014191E+02  0.13754535868E+03  0.18809389214E+03  0.00000000000E+00 0. -1.
</event>
<event>
 7    1  0.2900135E-009  0.3094458E+03  0.7561462E-02  0.1080612E+00
          2   -1    0    0  501    0  0.00000000000E+00  0.00000000000E+00  0.25838429825E+03  0.25838429825E+03  0.00000000000E+00 0. -1.
         -2   -1    0    0    0  501 -0.00000000000E+00 -0.00000000000E+00 -0.39554778475E+03  0.39554778475E+03  0.00000000000E+00 0.  1.
         25    2    1    2    0    0  0.17706221255E+03 -0.23871207996E+03 -0.24467440141E+02  0.32339097684E+03  0.12509430060E+03 0.  0.
          5    1    3    3  502    0  0.19097672444E+03 -0.18508170386E+03 -0.29450523306E+02  0.26760446951E+03  0.41800000000E+01 0. -1.
         -5    1    3    3    0  502 -0.13914511890E+02 -0.53630376104E+02  0.49830831654E+01  0.55786507329E+02  0.41800000000E+01 0. -1.
        -11    1    1    2    0    0 -0.12565507652E+03  0.17617019603E+03 -0.12303906173E+03  0.24892518342E+03  0.00000000000E+00 0.  1.
         11    1    1    2    0    0 -0.51407136024E+02  0.62541883927E+02  0.10343015375E+02  0.81615922750E+02  0.00000000000E+00 0. -1.
</event>
<event>
 7    1  0.2900135E-009  0.1160958E+03  0.7561462E-02  0.1249680E+00
         -2   -1    0    0    0  501 -0.00000000000E+00  0.00000000000E+00  0.66513466425E+02  0.66513466425E+02  0.00000000000E+00 0.  1.
          2   -1    0    0  501    0  0.00000000000E+00 -0.00000000000E+00 -0.23653519970E+03  0.23653519970E+03  0.00000000000E+00 0. -1.
         25    2    1    2    0    0  0.40814006836E+01 -0.60018161345E+02 -0.88405635340E+02  0.16456366856E+03  0.12508719809E+03 0.  0.
          5    1    3    3  502    0  0.43270302781E+01  0.29801594289E+02  0.92869257564E+01  0.31789583250E+02  0.41800000000E+01 0. -1.
         -5    1    3    3    0  502 -0.24562959453E+00 -0.89819755634E+02 -0.97692561097E+02  0.13277408531E+03  0.41800000000E+01 0. -1.
        -11    1    1    2    0    0 -0.49244746543E+02  0.31081741514E+02 -0.41678859245E+02  0.71611779936E+02  0.00000000000E+00 0. -1.
         11    1    1    2    0    0  0.45163345860E+02  0.28936419831E+02 -0.39937238691E+02  0.66873217630E+02  0.00000000000E+00 0.  1.
</event>
<event>
 7    1  0.2900135E-009  0.1243668E+03  0.7561462E-02  0.1236062E+00
          2   -1    0    0  501    0  0.00000000000E+00  0.00000000000E+00  0.58925561031E+02  0.58925561031E+02  0.00000000000E+00 0. -1.
         -2   -1    0    0    0  501 -0.00000000000E+00 -0.00000000000E+00 -0.37258632020E+03  0.37258632020E+03  0.00000000000E+00 0.  1.
         25    2    1    2    0    0 -0.51309332324E+02 -0.68418505715E+02 -0.92908397620E+02  0.17774433083E+03  0.12508931723E+03 0.  0.
          5    1    3    3  502    0  0.29914714513E+02 -0.55328870308E+02 -0.15977951986E+02  0.65030311268E+02  0.41800000000E+01 0. -1.
         -5    1    3    3    0  502 -0.81224046837E+02 -0.13089635407E+02 -0.76930445634E+02  0.11271401956E+03  0.41800000000E+01 0. -1.
        -11    1    1    2    0    0  0.78260311723E+00 -0.10000748311E+02  0.37070685603E+01  0.10694381316E+02  0.00000000000E+00 0. -1.
         11    1    1    2    0    0  0.50526729207E+02  0.78419254026E+02 -0.22445943011E+03  0.24307316909E+03  0.00000000000E+00 0.  1.
</event>
<event>
 7    1  0.2900135E-009  0.1152151E+03  0.7561462E-02  0.1251206E+00
          1   -1    0    0  501    0  0.00000000000E+00  0.00000000000E+00  0.11372205859E+03  0.11372205859E+03  0.00000000000E+00 0. -1.
         -1   -1    0    0    0  501 -0.00000000000E+00 -0.00000000000E+00 -0.18488282733E+03  0.18488282733E+03  0.00000000000E+00 0.  1.
         25    2    1    2    0    0  0.94256355525E+02  0.14828555229E+02 -0.27976374859E+02  0.15979265334E+03  0.12508744103E+03 0.  0.
          5    1    3    3  502    0  0.27597515786E+02  0.31729495259E+02 -0.68040085916E+02  0.80095626837E+02  0.41800000000E+01 0. -1.
         -5    1    3    3    0  502  0.66658839739E+02 -0.16900940030E+02  0.40063711058E+02  0.79697026500E+02  0.41800000000E+01 0. -1.
        -11    1    1    2    0    0 -0.64821275843E+01 -0.29570110753E+02  0.13653003303E+02  0.33208642356E+02  0.00000000000E+00 0. -1.
         11    1    1    2    0    0 -0.87774227941E+02  0.14741555524E+02 -0.56837397187E+02  0.10560359023E+03  0.00000000000E+00 0.  1.
</event>
<event>
 7    1  0.2900135E-009  0.6357420E+02  0.7561462E-02  0.1383416E+00
         -3   -1    0    0    0  501 -0.00000000000E+00  0.00000000000E+00  0.42048388901E+02  0.42048388901E+02  0.00000000000E+00 0.  1.
          3   -1    0    0  501    0  0.00000000000E+00 -0.00000000000E+00 -0.30757529452E+03  0.30757529452E+03  0.00000000000E+00 0. -1.
         25    2    1    2    0    0  0.49095272079E+01  0.21626319201E+02 -0.11059631524E+03  0.16842895578E+03  0.12507984275E+03 0.  0.
          5    1    3    3  502    0  0.38989749995E+01 -0.17798173524E+02  0.22672077614E+02  0.29384902420E+02  0.41800000000E+01 0. -1.
         -5    1    3    3    0  502  0.10105522084E+01  0.39424492725E+02 -0.13326839285E+03  0.13904405336E+03  0.41800000000E+01 0. -1.
        -11    1    1    2    0    0 -0.16966497773E+02 -0.41902087078E+02 -0.15056400829E+03  0.15720422241E+03  0.00000000000E+00 0. -1.
         11    1    1    2    0    0  0.12056970565E+02  0.20275767877E+02 -0.43665820868E+01  0.23990505233E+02  0.00000000000E+00 0.  1.
</event>
<event>
 7    1  0.2900135E-009  0.2204886E+03  0.7561462E-02  0.1133519E+00
         -1   -1    0    0    0  501 -0.00000000000E+00  0.00000000000E+00  0.12066883973E+03  0.12066883973E+03  0.00000000000E+00 0.  1.
          1   -1    0    0  501    0  0.00000000000E+00 -0.00000000000E+00 -0.43939558722E+03  0.43939558722E+03  0.00000000000E+00 0. -1.
         25    2    1    2    0    0 -0.66799776534E+01  0.20116433806E+03 -0.13160583524E+03  0.27105232791E+03  0.12505021227E+03 0.  0.
          5    1    3    3  502    0  0.16978482454E+02  0.20702623605E+03 -0.13230414936E+03  0.24631279223E+03  0.41800000000E+01 0. -1.
         -5    1    3    3    0  502 -0.23658460108E+02 -0.58618979926E+01  0.69831412764E+00  0.24739535674E+02  0.41800000000E+01 0. -1.
        -11    1    1    2    0    0 -0.15687917682E+02 -0.16645005310E+03 -0.10592784403E+03  0.19792028466E+03  0.00000000000E+00 0.  1.
         11    1    1    2    0    0  0.22367895335E+02 -0.34714284955E+02 -0.81193068228E+02  0.91091814396E+02  0.00000000000E+00 0. -1.
</event>
<event>
 7    1  0.2900135E-009  0.1539596E+03  0.7561462E-02  0.1195690E+00
         -2   -1    0    0    0  501 -0.00000000000E+00  0.00000000000E+00  0.23974313304E+03  0.23974313304E+03  0.00000000000E+00 0.  1.
          2   -1    0    0  501    0  0.00000000000E+00 -0.00000000000E+00 -0.10340153967E+03  0.10340153967E+03  0.00000000000E+00 0. -1.
         25    2    1    2    0    0 -0.54378832379E+02  0.99315820497E+02  0.81625877628E+02  0.18743238183E+03  0.12508966483E+03 0.  0.
          5    1    3    3  502    0 -0.58935700439E+02 -0.43409180941E+01  0.53561216501E+02  0.79865741524E+02  0.41800000000E+01 0. -1.
         -5    1    3    3    0  502  0.45568680602E+01  0.10365673859E+03  0.28064661126E+02  0.10756664030E+03  0.41800000000E+01 0. -1.
        -11    1    1    2    0    0 -0.18992043797E+02 -0.57123499276E+02  0.31536320173E+02  0.67958306241E+02  0.00000000000E+00 0.  1.
         11    1    1    2    0    0  0.73370876176E+02 -0.42192321220E+02  0.23179395572E+02  0.87753984638E+02  0.00000000000E+00 0. -1.
</event>
<event>
 7    1  0.2900135E-009  0.2130555E+03  0.7561462E-02  0.1139169E+00
          1   -1    0    0  501    0  0.00000000000E+00  0.00000000000E+00  0.28396553712E+03  0.28396553712E+03  0.00000000000E+00 0. -1.
         -1   -1    0    0    0  501 -0.00000000000E+00 -0.00000000000E+00 -0.19657471216E+03  0.19657471216E+03  0.00000000000E+00 0.  1.
         25    2    1    2    0    0  0.19754671602E+03  0.17640670949E+02  0.11101341950E+03  0.25943943069E+03  0.12509572578E+03 0.  0.
          5    1    3    3  502    0  0.96836246921E+02 -0.35940632552E+02  0.10152487476E+03  0.14489223713E+03  0.41800000000E+01 0.  1.
         -5    1    3    3    0  502  0.10071046910E+03  0.53581303502E+02  0.94885447355E+01  0.11454719356E+03  0.41800000000E+01 0.  1.
        -11    1    1    2    0    0 -0.93360313420E+02  0.23978594773E+02  0.23820615744E+02  0.99290195203E+02  0.00000000000E+00 0. -1.
         11    1    1    2    0    0 -0.10418640260E+03 -0.41619265722E+02 -0.47443210278E+02  0.12181062338E+03  0.00000000000E+00 0.  1.
</event>
<event>
 7    1  0.2900135E-009  0.1375627E+03  0.7561462E-02  0.1216647E+00
          1   -1    0    0  501    0  0.00000000000E+00  0.00000000000E+00  0.61151144734E+03  0.61151144734E+03  0.00000000000E+00 0. -1.
         -1   -1    0    0    0  501 -0.00000000000E+00 -0.00000000000E+00 -0.48515352372E+02  0.48515352372E+02  0.00000000000E+00 0.  1.
         25    2    1    2    0    0  0.60516678925E+02  0.94599942635E+02  0.43572531567E+03  0.46702808848E+03  0.12508903683E+03 0.  0.
          5    1    3    3  502    0 -0.34189498542E+02  0.36122641922E+02  0.80198920111E+02  0.94462194856E+02  0.41800000000E+01 0. -1.
         -5    1    3    3    0  502  0.94706177467E+02  0.58477300712E+02  0.35552639556E+03  0.37256589362E+03  0.41800000000E+01 0. -1.
        -11    1    1    2    0    0 -0.12716692676E+02 -0.36158007022E+02 -0.69940040646E+01  0.38961928049E+02  0.00000000000E+00 0.  1.
         11    1    1    2    0    0 -0.47799986249E+02 -0.58441935613E+02  0.13426478336E+03  0.15403678319E+03  0.00000000000E+00 0. -1.
</event>
<event>
 7    1  0.2900135E-009  0.1694338E+03  0.7561462E-02  0.1178440E+00
          1   -1    0    0  501    0  0.00000000000E+00  0.00000000000E+00  0.66900699808E+03  0.66900699808E+03  0.00000000000E+00 0. -1.
         -1   -1    0    0    0  501 -0.00000000000E+00 -0.00000000000E+00 -0.62323667851E+02  0.62323667851E+02  0.00000000000E+00 0.  1.
         25    2    1    2    0    0  0.54857603478E+02 -0.15254731846E+03  0.42181320863E+03  0.46888828125E+03  0.12509914585E+03 0.  0.
          5    1    3    3  502    0  0.24463691677E+02 -0.39597518654E+02  0.28515712874E+03  0.28896106341E+03  0.41800000000E+01 0. -1.
         -5    1    3    3    0  502  0.30393911801E+02 -0.11294979980E+03  0.13665607989E+03  0.17992721784E+03  0.41800000000E+01 0. -1.
        -11    1    1    2    0    0 -0.70381246432E+02  0.12703746422E+03  0.11108640428E+03  0.18284481502E+03  0.00000000000E+00 0.  1.
         11    1    1    2    0    0  0.15523642955E+02  0.25509854232E+02  0.73783717325E+02  0.79597569661E+02  0.00000000000E+00 0. -1.
</event>
<event>
 7    1  0.2900135E-009  0.1298548E+03  0.7561462E-02  0.1227671E+00
          2   -1    0    0  501    0  0.00000000000E+00  0.00000000000E+00  0.27954291307E+03  0.27954291307E+03  0.00000000000E+00 0. -1.
         -2   -1    0    0    0  501 -0.00000000000E+00 -0.00000000000E+00 -0.65032432939E+02  0.65032432939E+02  0.00000000000E+00 0.  1.
         25    2    1    2    0    0 -0.60169447558E+02  0.46440694497E+02  0.88817549121E+02  0.17120722316E+03  0.12508499392E+03 0.  0.
          5    1    3    3  502    0 -0.96576654823E+02  0.51154881158E+02  0.64411749602E+02  0.12692603362E+03  0.41800000000E+01 0.  1.
         -5    1    3    3    0  502  0.36407207265E+02 -0.47141866612E+01  0.24405799519E+02  0.44281189538E+02  0.41800000000E+01 0.  1.
        -11    1    1    2    0    0  0.81582406827E+02 -0.40972702554E+02  0.75295233633E+02  0.11833775250E+03  0.00000000000E+00 0.  1.
         11    1    1    2    0    0 -0.21412959269E+02 -0.54679919430E+01  0.50397697374E+02  0.55030370352E+02  0.00000000000E+00 0. -1.
</event>
<event>
 7    1  0.2900135E-009  0.9884154E+02  0.7561462E-02  0.1282751E+00
          1   -1    0    0  501    0  0.00000000000E+00  0.00000000000E+00  0.37111362159E+02  0.37111362159E+02  0.00000000000E+00 0. -1.
         -1   -1    0    0    0  501 -0.00000000000E+00 -0.00000000000E+00 -0.58189967181E+03  0.58189967181E+03  0.00000000000E+00 0.  1.
         25    2    1    2    0    0 -0.47107756839E+02  0.37541646299E+02 -0.46280771793E+03  0.48318220620E+03  0.12508215160E+03 0.  0.
          5    1    3    3  502    0  0.31822807404E+01  0.44390415257E+02 -0.39922251631E+03  0.40171722120E+03  0.41800000000E+01 0. -1.
         -5    1    3    3    0  502 -0.50290037579E+02 -0.68487689575E+01 -0.63585201620E+02  0.81464985000E+02  0.41800000000E+01 0. -1.
        -11    1    1    2    0    0  0.48244062984E+02  0.14209533403E+02 -0.17744110289E+02  0.53331546974E+02  0.00000000000E+00 0. -1.
         11    1    1    2    0    0 -0.11363061447E+01 -0.51751179702E+02 -0.64236481430E+02  0.82497280796E+02  0.00000000000E+00 0.  1.
</event>
<event>
 7    1  0.2900135E-009  0.1015960E+03  0.7561462E-02  0.1276975E+00
          2   -1    0    0  501    0  0.00000000000E+00  0.00000000000E+00  0.16239782344E+03  0.16239782344E+03  0.00000000000E+00 0. -1.
         -2   -1    0    0    0  501 -0.00000000000E+00 -0.00000000000E+00 -0.12291417222E+03  0.12291417222E+03  0.00000000000E+00 0.  1.
         25    2    1    2    0    0  0.17663893950E+02 -0.81053130833E+02  0.60922419375E+02  0.16198185278E+03  0.12507979965E+03 0.  0.
          5    1    3    3  502    0  0.28715589917E+02 -0.67067077651E+02 -0.22588688833E+02  0.76487249082E+02  0.41800000000E+01 0.  1.
         -5    1    3    3    0  502 -0.11051695967E+02 -0.13986053182E+02  0.83511108209E+02  0.85494603699E+02  0.41800000000E+01 0.  1.
        -11    1    1    2    0    0  0.44563257388E+01  0.88389898452E+02  0.43020153473E+01  0.88606660717E+02  0.00000000000E+00 0. -1.
         11    1    1    2    0    0 -0.22120219688E+02 -0.73367676187E+01 -0.25740783498E+02  0.34723482159E+02  0.00000000000E+00 0.  1.
</event>
<event>
 7    1  0.2900135E-009  0.1746351E+03  0.7561462E-02  0.1173099E+00
          3   -1    0    0  501    0  0.00000000000E+00  0.00000000000E+00  0.53552778454E+02  0.53552778454E+02  0.00000000000E+00 0. -1.
         -3   -1    0    0    0  501 -0.00000000000E+00 -0.00000000000E+00 -0.63838108301E+03  0.63838108301E+03  0.00000000000E+00 0.  1.
         25    2    1    2    0    0  0.11312311042E+03 -0.89112409534E+02 -0.23344733702E+03  0.30146876180E+03  0.12509154862E+03 0.  0.
          5    1    3    3  502    0  0.12929812558E+03 -0.10250898729E+03 -0.18175676925E+03  0.24551801018E+03  0.41800000000E+01 0. -1.
         -5    1    3    3    0  502 -0.16175015159E+02  0.13396577755E+02 -0.51690567775E+02  0.55950751629E+02  0.41800000000E+01 0. -1.
        -11    1    1    2    0    0 -0.95592988961E+02  0.10293421371E+03 -0.25104057045E+03  0.28767140960E+03  0.00000000000E+00 0. -1.
         11    1    1    2    0    0 -0.17530121459E+02 -0.13821804173E+02 -0.10034039709E+03  0.10279369006E+03  0.00000000000E+00 0.  1.
</event>
<event>
 7    1  0.2900135E-009  0.9267863E+02  0.7561462E-02  0.1296492E+00
         -2   -1    0    0    0  501 -0.00000000000E+00  0.00000000000E+00  0.34898361031E+02  0.34898361031E+02  0.00000000000E+00 0.  1.
          2   -1    0    0  501    0  0.00000000000E+00 -0.00000000000E+00 -0.40672405507E+03  0.40672405507E+03  0.00000000000E+00 0. -1.
         25    2    1    2    0    0  0.22329641929E+02  0.19451890731E+02 -0.13763835775E+03  0.18833130169E+03  0.12508945883E+03 0.  0.
          5    1    3    3  502    0 -0.31127766011E+02  0.17281684792E+02  0.47544078286E+01  0.36161737236E+02  0.41800000000E+01 0.  1.
         -5    1    3    3    0  502  0.53457407940E+02  0.21702059382E+01 -0.14239276558E+03  0.15216956446E+03  0.41800000000E+01 0.  1.
        -11    1    1    2    0    0 -0.46301599405E+02 -0.42310240719E+02 -0.16680765831E+03  0.17820995889E+03  0.00000000000E+00 0.  1.
         11    1    1    2    0    0  0.23971957476E+02  0.22858349988E+02 -0.67379677973E+02  0.75081155513E+02  0.00000000000E+00 0. -1.
</event>
<event>
 7    1  0.2900135E-009  0.7694453E+02  0.7561462E-02  0.1337953E+00
         -2   -1    0    0    0  501 -0.00000000000E+00  0.00000000000E+00  0.33058352551E+03  0.33058352551E+03  0.00000000000E+00 0.  1.
          2   -1    0    0  501    0  0.00000000000E+00 -0.00000000000E+00 -0.43198923828E+02  0.43198923828E+02  0.00000000000E+00 0. -1.
         25    2    1    2    0    0  0.15453529321E+02  0.42644811652E+02  0.13413463209E+03  0.18893867053E+03  0.12509328586E+03 0.  0.
          5    1    3    3  502    0  0.30940018449E+02  0.15268703025E+02  0.14964026534E+03  0.15362323862E+03  0.41800000000E+01 0. -1.
         -5    1    3    3    0  502 -0.15486489128E+02  0.27376108626E+02 -0.15505633246E+02  0.35315431916E+02  0.41800000000E+01 0. -1.
        -11    1    1    2    0    0  0.21393670389E+01 -0.61545990592E+02  0.14532241045E+03  0.15783247077E+03  0.00000000000E+00 0.  1.
         11    1    1    2    0    0 -0.17592896360E+02  0.18901178940E+02  0.79275591347E+01  0.27011308030E+02  0.00000000000E+00 0. -1.
</event>
<event>
 7    1  0.2900135E-009  0.1342145E+03  0.7561462E-02  0.1221333E+00
         -2   -1    0    0    0  501 -0.00000000000E+00  0.00000000000E+00  0.11169927300E+03  0.11169927300E+03  0.00000000000E+00 0.  1.
          2   -1    0    0  501    0  0.00000000000E+00 -0.00000000000E+00 -0.18326107079E+03  0.18326107079E+03  0.00000000000E+00 0. -1.
         25    2    1    2    0    0 -0.83230395910E+02  0.10068166095E+02 -0.50527286017E+01  0.15067103064E+03  0.12509021799E+03 0.  0.
          5    1    3    3  502    0 -0.11000853574E+03 -0.16550485936E+02  0.47916245914E+01  0.11142813194E+03  0.41800000000E+01 0.  1.
         -5    1    3    3    0  502  0.26778139832E+02  0.26618652031E+02 -0.98443531931E+01  0.39242898703E+02  0.41800000000E+01 0.  1.
        -11    1    1    2    0    0 -0.16304169305E+02 -0.10839145304E+02  0.67385551960E+01  0.20705582189E+02  0.00000000000E+00 0.  1.
         11    1    1    2    0    0  0.99534565215E+02  0.77097920908E+00 -0.73247624385E+02  0.12358373097E+03  0.00000000000E+00 0. -1.
</event>
<event>
 7    1  0.2900135E-009  0.1070501E+03  0.7561462E-02  0.1266132E+00
          2   -1    0    0  501    0  0.00000000000E+00  0.00000000000E+00  0.72460252211E+03  0.72460252211E+03  0.00000000000E+00 0. -1.
         -2   -1    0    0    0  501 -0.00000000000E+00 -0.00000000000E+00 -0.18025823903E+02  0.18025823903E+02  0.00000000000E+00 0.  1.
         25    2    1    2    0    0 -0.35767864517E+02 -0.11181990251E+02  0.39234505284E+03  0.41350474479E+03  0.12508859433E+03 0.  0.
          5    1    3    3  502    0 -0.28442880208E+02 -0.62822150179E+02  0.29506738481E+03  0.30304761007E+03  0.41800000000E+01 0.  1.
         -5    1    3    3    0  502 -0.73249843085E+01  0.51640159928E+02  0.97277668031E+02  0.11045713472E+03  0.41800000000E+01 0.  1.
        -11    1    1    2    0    0  0.51979869629E+02 -0.21465066236E+02  0.13539271279E+03  0.14660778489E+03  0.00000000000E+00 0.  1.
         11    1    1    2    0    0 -0.16212005112E+02  0.32647056488E+02  0.17883893258E+03  0.18251581634E+03  0.00000000000E+00 0. -1.
</event>
<event>
 6    1  0.2900135E-009  0.1571942E+03  0.7561462E-02  0.1191901E+00
          2   -1    0    0  501    0  0.00000000000E+00  0.00000000000E+00  0.99611583159E+02  0.99611583159E+02  0.00000000000E+00 0. -1.
         -2   -1    0    0    0  501 -0.00000000000E+00 -0.00000000000E+00 -0.43233617299E+03  0.43233617299E+03  0.00000000000E+00 0.  1.
          5    1    1    2  502    0  0.63645364865E+02  0.13243554650E+03 -0.30732763289E+03  0.34067235400E+03  0.41800000000E+01 0. -1.
         -5    1    1    2    0  502 -0.65978052626E+01  0.54248466617E+01  0.10609480898E+02  0.14247578058E+02  0.41800000000E+01 0. -1.
        -11    1    1    2    0    0 -0.66742004986E+02 -0.11354831685E+03 -0.56960373627E+02  0.14349982457E+03  0.00000000000E+00 0.  1.
         11    1    1    2    0    0  0.96944453833E+01 -0.24312076317E+02  0.20953935790E+02  0.33527999511E+02  0.00000000000E+00 0. -1.
</event>
<event>
 7    1  0.2900135E-009  0.1339311E+03  0.7561462E-02  0.1221737E+00
         -1   -1    0    0    0  501 -0.00000000000E+00  0.00000000000E+00  0.15337419406E+02  0.15337419406E+02  0.00000000000E+00 0.  1.
          1   -1    0    0  501    0  0.00000000000E+00 -0.00000000000E+00 -0.13174809989E+04  0.13174809989E+04  0.00000000000E+00 0. -1.
         25    2    1    2    0    0  0.82394544022E+02  0.39951963752E+02 -0.72152043422E+03  0.73798619434E+03  0.12508743238E+03 0.  0.
          5    1    3    3  502    0  0.11450126517E+03  0.29508170346E+02 -0.49613980679E+03  0.51005240135E+03  0.41800000000E+01 0. -1.
         -5    1    3    3    0  502 -0.32106721147E+02  0.10443793406E+02 -0.22538062743E+03  0.22793379299E+03  0.41800000000E+01 0. -1.
        -11    1    1    2    0    0 -0.94895641045E+02 -0.40107850044E+02 -0.56723307714E+03  0.57651295400E+03  0.00000000000E+00 0. -1.
         11    1    1    2    0    0  0.12501097022E+02  0.15588629226E+00 -0.13390068091E+02  0.18319269931E+02  0.00000000000E+00 0.  1.
</event>
<event>
 6    1  0.2900135E-009  0.9023122E+02  0.7561462E-02  0.1302293E+00
          1   -1    0    0  501    0  0.00000000000E+00  0.00000000000E+00  0.71210831194E+03  0.71210831194E+03  0.00000000000E+00 0. -1.
         -1   -1    0    0    0  501 -0.00000000000E+00 -0.00000000000E+00 -0.22530350504E+02  0.22530350504E+02  0.00000000000E+00 0.  1.
          5    1    1    2  502    0  0.54901190627E+02 -0.12281618257E+02  0.42666970346E+02  0.70731334201E+02  0.41800000000E+01 0.  1.
         -5    1    1    2    0  502 -0.24686815053E+01 -0.10804151313E+02  0.27712566490E+03  0.27737867730E+03  0.41800000000E+01 0.  1.
        -11    1    1    2    0    0  0.17492583143E+02 -0.22673959924E+02  0.10774037245E+03  0.11148132929E+03  0.00000000000E+00 0. -1.
         11    1    1    2    0    0 -0.69925092265E+02  0.45759729494E+02  0.26204495374E+03  0.27504732166E+03  0.00000000000E+00 0.  1.
</event>
<event>
 7    1  0.2900135E-009  0.8903698E+02  0.7561462E-02  0.1305201E+00
          2   -1    0    0  501    0  0.00000000000E+00  0.00000000000E+00  0.53165289111E+02  0.53165289111E+02  0.00000000000E+00 0.  1.
         -2   -1    0    0    0  501 -0.00000000000E+00 -0.00000000000E+00 -0.23583472594E+03  0.23583472594E+03  0.00000000000E+00 0. -1.
         25    2    1    2    0    0 -0.96132336586E+01 -0.23998593672E+02 -0.14393184104E+03  0.19243889156E+03  0.12509198760E+03 0.  0.
          5    1    3    3  502    0 -0.14422521282E+02 -0.69223772810E+02 -0.12357297935E+03  0.14243487447E+03  0.41800000000E+01 0.  1.
         -5    1    3    3    0  502  0.48092876236E+01  0.45225179137E+02 -0.20358861693E+02  0.50004017088E+02  0.41800000000E+01 0.  1.
        -11    1    1    2    0    0  0.18017550037E+02 -0.13895583605E+02  0.17166860826E+02  0.28502990434E+02  0.00000000000E+00 0.  1.
         11    1    1    2    0    0 -0.84043163787E+01  0.37894177277E+02 -0.55904456614E+02  0.68058133053E+02  0.00000000000E+00 0. -1.
</event>
<event>
 7    1  0.2900135E-009  0.1050566E+03  0.7561462E-02  0.1270008E+00
         -2   -1    0    0    0  501 -0.00000000000E+00  0.00000000000E+00  0.28089352540E+02  0.28089352540E+02  0.00000000000E+00 0.  1.
          2   -1    0    0  501    0  0.00000000000E+00 -0.00000000000E+00 -0.52743328590E+03  0.52743328590E+03  0.00000000000E+00 0. -1.
         25    2    1    2    0    0  0.33797781547E+02 -0.33741382915E+02 -0.22141095850E+03  0.25874792345E+03  0.12508758685E+03 0.  0.
          5    1    3    3  502    0  0.55811825071E+02  0.22066940411E+02 -0.53922576221E+02  0.80790013636E+02  0.41800000000E+01 0.  1.
         -5    1    3    3    0  502 -0.22014043524E+02 -0.55808323326E+02 -0.16748838228E+03  0.17795790981E+03  0.41800000000E+01 0.  1.
        -11    1    1    2    0    0  0.10087085115E+02  0.43669533280E+02 -0.63822620702E+02  0.77987847363E+02  0.00000000000E+00 0.  1.
         11    1    1    2    0    0 -0.43884866663E+02 -0.99281503651E+01 -0.21411035416E+03  0.21878686764E+03  0.00000000000E+00 0. -1.
</event>
<event>
 7    1  0.2900135E-009  0.9737908E+02  0.7561462E-02  0.1285906E+00
          2   -1    0    0  501    0  0.00000000000E+00  0.00000000000E+00  0.33740696336E+03  0.33740696336E+03  0.00000000000E+00 0.  1.
         -2   -1    0    0    0  501 -0.00000000000E+00 -0.00000000000E+00 -0.54757073112E+02  0.54757073112E+02  0.00000000000E+00 0. -1.
         25    2    1    2    0    0  0.74494111044E+02 -0.14748598944E+02  0.19659884375E+03  0.24508312489E+03  0.12509092290E+03 0.  0.
          5    1    3    3  502    0  0.14520582973E+02 -0.47739647165E+02  0.15937333292E+03  0.16705464042E+03  0.41800000000E+01 0. -1.
         -5    1    3    3    0  502  0.59973528071E+02  0.32991048221E+02  0.37225510829E+02  0.78028484469E+02  0.41800000000E+01 0. -1.
        -11    1    1    2    0    0 -0.39159395475E+02  0.51791403797E+01 -0.12917505883E+02  0.41558918505E+02  0.00000000000E+00 0. -1.
         11    1    1    2    0    0 -0.35334715569E+02  0.95694585641E+01  0.98968552382E+02  0.10552199307E+03  0.00000000000E+00 0.  1.
</event>
<event>
 7    1  0.2900135E-009  0.8767633E+02  0.7561462E-02  0.1308578E+00
         -3   -1    0    0    0  501 -0.00000000000E+00  0.00000000000E+00  0.44384577387E+03  0.44384577387E+03  0.00000000000E+00 0.  1.
          3   -1    0    0  501    0  0.00000000000E+00 -0.00000000000E+00 -0.41593267385E+02  0.41593267385E+02  0.00000000000E+00 0. -1.
         25    2    1    2    0    0 -0.38723437217E+02 -0.35084878633E+02  0.33376601715E+03  0.36024633677E+03  0.12508883105E+03 0.  0.
          5    1    3    3  502    0 -0.47430430302E+02 -0.14179600222E+02  0.33353692158E+03  0.33721663250E+03  0.41800000000E+01 0.  1.
         -5    1    3    3    0  502  0.87069930843E+01 -0.20905278410E+02  0.22909557464E+00  0.23029704270E+02  0.41800000000E+01 0.  1.
        -11    1    1    2    0    0  0.52836702536E+02  0.56269572756E+02  0.61783716922E+02  0.98869659804E+02  0.00000000000E+00 0.  1.
         11    1    1    2    0    0 -0.14113265318E+02 -0.21184694124E+02  0.67027724088E+01  0.26323044676E+02  0.00000000000E+00 0. -1.
</event>
<event>
 7    1  0.2900135E-009  0.9756355E+02  0.7561462E-02  0.1285505E+00
          2   -1    0    0  501    0  0.00000000000E+00  0.00000000000E+00  0.20820845576E+03  0.20820845576E+03  0.00000000000E+00 0. -1.
         -2   -1    0    0    0  501 -0.00000000000E+00 -0.00000000000E+00 -0.72367082546E+02  0.72367082546E+02  0.00000000000E+00 0.  1.
         25    2    1    2    0    0  0.31970214848E+02 -0.78531517002E+01  0.22728805389E+02  0.13134280291E+03  0.12510222481E+03 0.  0.
          5    1    3    3  502    0  0.69254896948E+02 -0.26336395061E+02  0.42022478309E+02  0.85283102308E+02  0.41800000000E+01 0.  1.
         -5    1    3    3    0  502 -0.37284682100E+02  0.18483243361E+02 -0.19293672920E+02  0.46059700598E+02  0.41800000000E+01 0.  1.
        -11    1    1    2    0    0  0.15937713807E+01  0.35543807088E+02  0.96166143030E+02  0.10253696599E+03  0.00000000000E+00 0. -1.
         11    1    1    2    0    0 -0.33563986229E+02 -0.27690655388E+02  0.16946424798E+02  0.46695769410E+02  0.00000000000E+00 0.  1.
</event>
<event>
 7    1  0.2900135E-009  0.1432449E+03  0.7561462E-02  0.1209028E+00
         -1   -1    0    0    0  501 -0.00000000000E+00  0.00000000000E+00  0.11964628657E+03  0.11964628657E+03  0.00000000000E+00 0.  1.
          1   -1    0    0  501    0  0.00000000000E+00 -0.00000000000E+00 -0.19463718833E+03  0.19463718833E+03  0.00000000000E+00 0. -1.
         25    2    1    2    0    0  0.15817995252E+02 -0.99297952875E+02 -0.32784957478E+01  0.16052619436E+03  0.12509043977E+03 0.  0.
          5    1    3    3  502    0 -0.29357988785E+02 -0.10093027832E+03  0.23540267907E+02  0.10779809460E+03  0.41800000000E+01 0. -1.
         -5    1    3    3    0  502  0.45175984037E+02  0.16323254419E+01 -0.26818763655E+02  0.52728099758E+02  0.41800000000E+01 0. -1.
        -11    1    1    2    0    0  0.38419135364E+02  0.37793558313E+02 -0.25365047447E+02  0.59563148372E+02  0.00000000000E+00 0. -1.
         11    1    1    2    0    0 -0.54237130616E+02  0.61504394562E+02 -0.46347358569E+02  0.94194132165E+02  0.00000000000E+00 0.  1.
</event>
<event>
 7    1  0.2900135E-009  0.1320810E+03  0.7561462E-02  0.1224400E+00
          1   -1    0    0  501    0  0.00000000000E+00  0.00000000000E+00  0.12431282561E+04  0.12431282561E+04  0.00000000000E+00 0. -1.
         -1   -1    0    0    0  501 -0.00000000000E+00 -0.00000000000E+00 -0.23515509594E+02  0.23515509594E+02  0.00000000000E+00 0.  1.
         25    2    1    2    0    0  0.79487112442E+02 -0.84207479799E+02  0.88148686980E+03  0.89781941314E+03  0.12510594025E+03 0.  0.
          5    1    3    3  502    0  0.39468940382E+02 -0.32114533854E+02  0.74012936350E+03  0.74188819080E+03  0.41800000000E+01 0.  1.
         -5    1    3    3    0  502  0.40018172060E+02 -0.52092945946E+02  0.14135750630E+03  0.15593122234E+03  0.41800000000E+01 0.  1.
        -11    1    1    2    0    0 -0.92170159359E+02  0.38565437172E+02  0.23296046082E+03  0.25348216412E+03  0.00000000000E+00 0.  1.
         11    1    1    2    0    0  0.12683046917E+02  0.45642042627E+02  0.10516541588E+03  0.11534218843E+03  0.00000000000E+00 0. -1.
</event>
<event>
 7    1  0.2900135E-009  0.1088108E+03  0.7561462E-02  0.1262788E+00
          1   -1    0    0  501    0  0.00000000000E+00  0.00000000000E+00  0.25738113905E+02  0.25738113905E+02  0.00000000000E+00 0. -1.
         -1   -1    0    0    0  501 -0.00000000000E+00 -0.00000000000E+00 -0.58692111602E+03  0.58692111602E+03  0.00000000000E+00 0.  1.
         25    2    1    2    0    0  0.16364644705E+02  0.55948244724E+02 -0.31160572069E+03  0.34079877187E+03  0.12509064735E+03 0.  0.
          5    1    3    3  502    0 -0.18754121594E+01 -0.35449963723E+02 -0.40136719839E+02  0.53746123378E+02  0.41800000000E+01 0.  1.
         -5    1    3    3    0  502  0.18240056864E+02  0.91398208446E+02 -0.27146900085E+03  0.28705264849E+03  0.41800000000E+01 0.  1.
        -11    1    1    2    0    0 -0.42457163117E+02 -0.37256759300E+02 -0.22343560993E+03  0.23046507023E+03  0.00000000000E+00 0.  1.
         11    1    1    2    0    0  0.26092518412E+02 -0.18691485424E+02 -0.26141671494E+02  0.41395387822E+02  0.00000000000E+00 0. -1.
</event>
<event>
 7    1  0.2900135E-009  0.1190489E+03  0.7561462E-02  0.1244674E+00
          1   -1    0    0  501    0  0.00000000000E+00  0.00000000000E+00  0.85120843721E+03  0.85120843721E+03  0.00000000000E+00 0. -1.
         -1   -1    0    0    0  501 -0.00000000000E+00 -0.00000000000E+00 -0.19924101177E+02  0.19924101177E+02  0.00000000000E+00 0.  1.
         25    2    1    2    0    0 -0.55101803913E+02 -0.41297607688E+02  0.39224208625E+03  0.41742602372E+03  0.12509568280E+03 0.  0.
          5    1    3    3  502    0  0.32410867149E+02  0.57127109078E+01  0.18022228598E+03  0.18325022275E+03  0.41800000000E+01 0. -1.
         -5    1    3    3    0  502 -0.87512671061E+02 -0.47010318596E+02  0.21201980028E+03  0.23417580097E+03  0.41800000000E+01 0. -1.
        -11    1    1    2    0    0  0.76561000819E+01  0.55455806013E+02  0.31865204101E+03  0.32353220169E+03  0.00000000000E+00 0. -1.
         11    1    1    2    0    0  0.47445703831E+02 -0.14158198324E+02  0.12039020877E+03  0.13017431298E+03  0.00000000000E+00 0.  1.
</event>
<event>
 7    1  0.2900135E-009  0.8008264E+02  0.7561462E-02  0.1328817E+00
         -1   -1    0    0    0  501 -0.00000000000E+00  0.00000000000E+00  0.74638121672E+02  0.74638121672E+02  0.00000000000E+00 0.  1.
          1   -1    0    0  501    0  0.00000000000E+00 -0.00000000000E+00 -0.24247795636E+03  0.24247795636E+03  0.00000000000E+00 0. -1.
         25    2    1    2    0    0 -0.34551173000E+02 -0.17813409083E+02 -0.10016081860E+02  0.13137586277E+03  0.12509274289E+03 0.  0.
          5    1    3    3  502    0 -0.26985009278E+02 -0.43352283187E+02 -0.57348948837E+02  0.76902441547E+02  0.41800000000E+01 0.  1.
         -5    1    3    3    0  502 -0.75661637222E+01  0.25538874104E+02  0.47332866976E+02  0.54473421227E+02  0.41800000000E+01 0.  1.
        -11    1    1    2    0    0  0.17728790965E+02 -0.28012650168E+02 -0.11851668878E+03  0.12306593403E+03  0.00000000000E+00 0. -1.
         11    1    1    2    0    0  0.16822382035E+02  0.45826059252E+02 -0.39307064048E+02  0.62674281232E+02  0.00000000000E+00 0.  1.
</event>
<event>
 7    1  0.2900135E-009  0.8967117E+02  0.7561462E-02  0.1303650E+00
          2   -1    0    0  501    0  0.00000000000E+00  0.00000000000E+00  0.18457600813E+03  0.18457600813E+03  0.00000000000E+00 0. -1.
         -2   -1    0    0    0  501 -0.00000000000E+00 -0.00000000000E+00 -0.12309859498E+03  0.12309859498E+03  0.00000000000E+00 0.  1.
         25    2    1    2    0    0 -0.52932938438E+02  0.61563846244E+02  0.99932877859E+02  0.17952060979E+03  0.12509622746E+03 0.  0.
          5    1    3    3  502    0 -0.10447432299E+02  0.90436490122E+01  0.11013222002E+03  0.11107436570E+03  0.41800000000E+01 0. -1.
         -5    1    3    3    0  502 -0.42485506139E+02  0.52520197231E+02 -0.10199342162E+02  0.68446244087E+02  0.41800000000E+01 0. -1.
        -11    1    1    2    0    0  0.69492121695E+01 -0.49088517074E+02 -0.58309113451E+02  0.76537094077E+02  0.00000000000E+00 0. -1.
         11    1    1    2    0    0  0.45983726269E+02 -0.12475329170E+02  0.19853648746E+02  0.51616899248E+02  0.00000000000E+00 0.  1.
</event>
<event>
 7    1  0.2900135E-009  0.1285429E+03  0.7561462E-02  0.1229634E+00
          3   -1    0    0  501    0  0.00000000000E+00  0.00000000000E+00  0.21254721610E+03  0.21254721610E+03  0.00000000000E+00 0. -1.
         -3   -1    0    0    0  501 -0.00000000000E+00 -0.00000000000E+00 -0.10066609039E+03  0.10066609039E+03  0.00000000000E+00 0.  1.
         25    2    1    2    0    0 -0.65307651731E+02 -0.68291472072E+02  0.80098889706E+02  0.17604530538E+03  0.12508917971E+03 0.  0.
          5    1    3    3  502    0 -0.79668333532E+02 -0.80194855943E+02  0.98142774726E+02  0.14975892267E+03  0.41800000000E+01 0.  1.
         -5    1    3    3    0  502  0.14360681801E+02  0.11903383870E+02 -0.18043885019E+02  0.26286382710E+02  0.41800000000E+01 0.  1.
        -11    1    1    2    0    0  0.53671998331E+02  0.87350552554E+02  0.54847640381E+01  0.10266881256E+03  0.00000000000E+00 0.  1.
         11    1    1    2    0    0  0.11635653400E+02 -0.19059080481E+02  0.26297471964E+02  0.34499188549E+02  0.00000000000E+00 0. -1.
</event>
<event>
 7    1  0.2900135E-009  0.1635448E+03  0.7561462E-02  0.1184752E+00
         -1   -1    0    0    0  501 -0.00000000000E+00  0.00000000000E+00  0.22364315324E+03  0.22364315324E+03  0.00000000000E+00 0.  1.
          1   -1    0    0  501    0  0.00000000000E+00 -0.00000000000E+00 -0.19408123489E+03  0.19408123489E+03  0.00000000000E+00 0. -1.
         25    2    1    2    0    0  0.60119233452E+02  0.11596460276E+03 -0.10423559027E+03  0.20874652590E+03  0.12509173622E+03 0.  0.
          5    1    3    3  502    0  0.87761615988E+02  0.12371934262E+03 -0.84870108170E+02  0.17386484590E+03  0.41800000000E+01 0. -1.
         -5    1    3    3    0  502 -0.27642382536E+02 -0.77547398547E+01 -0.19365482099E+02  0.34881679997E+02  0.41800000000E+01 0. -1.
        -11    1    1    2    0    0 -0.69848693142E+02 -0.68319731458E+02  0.44638419290E+02  0.10741980319E+03  0.00000000000E+00 0. -1.
         11    1    1    2    0    0  0.97294596909E+01 -0.47644871306E+02  0.89159089324E+02  0.10155805904E+03  0.00000000000E+00 0.  1.
</event>
<event>
 7    1  0.2900135E-009  0.1210149E+03  0.7561462E-02  0.1241432E+00
         -2   -1    0    0    0  501 -0.00000000000E+00  0.00000000000E+00  0.17885362256E+03  0.17885362256E+03  0.00000000000E+00 0.  1.
          2   -1    0    0  501    0  0.00000000000E+00 -0.00000000000E+00 -0.10656188900E+03  0.10656188900E+03  0.00000000000E+00 0. -1.
         25    2    1    2    0    0  0.59845275244E+02 -0.31423614857E+02 -0.14554324218E+02  0.14292934136E+03  0.12509223688E+03 0.  0.
          5    1    3    3  502    0  0.93712977254E+02 -0.34436590367E+02 -0.31412813858E+02  0.10474845171E+03  0.41800000000E+01 0. -1.
         -5    1    3    3    0  502 -0.33867702010E+02  0.30129755098E+01  0.16858489640E+02  0.38180889641E+02  0.41800000000E+01 0. -1.
        -11    1    1    2    0    0 -0.28231724590E+02  0.59312070987E+02  0.31327546107E+02  0.72776144328E+02  0.00000000000E+00 0.  1.
         11    1    1    2    0    0 -0.31613550654E+02 -0.27888456130E+02  0.55518511665E+02  0.69710025877E+02  0.00000000000E+00 0. -1.
</event>
<event>
 7    1  0.2900135E-009  0.1459460E+03  0.7561462E-02  0.1205545E+00
          3   -1    0    0  501    0  0.00000000000E+00  0.00000000000E+00  0.59204542550E+03  0.59204542550E+03  0.00000000000E+00 0. -1.
         -3   -1    0    0    0  501 -0.00000000000E+00 -0.00000000000E+00 -0.44845302604E+02  0.44845302604E+02  0.00000000000E+00 0.  1.
         25    2    1    2    0    0  0.77760368592E+02 -0.90166419510E+02  0.25738715212E+03  0.30995573708E+03  0.12509098585E+03 0.  0.
          5    1    3    3  502    0 -0.34490153795E+02 -0.23723217408E+02  0.67796940997E+02  0.79788842337E+02  0.41800000000E+01 0. -1.
         -5    1    3    3    0  502  0.11225052239E+03 -0.66443202102E+02  0.18959021113E+03  0.23016689475E+03  0.41800000000E+01 0. -1.
        -11    1    1    2    0    0 -0.24010033236E+02  0.33445049430E+02  0.19503647321E+02  0.45557055284E+02  0.00000000000E+00 0.  1.
         11    1    1    2    0    0 -0.53750335356E+02  0.56721370081E+02  0.27030932346E+03  0.28137793574E+03  0.00000000000E+00 0. -1.
</event>
<event>
 7    1  0.2900135E-009  0.1208066E+03  0.7561462E-02  0.1241772E+00
         -2   -1    0    0    0  501 -0.00000000000E+00  0.00000000000E+00  0.20202250841E+02  0.20202250841E+02  0.00000000000E+00 0.  1.
          2   -1    0    0  501    0  0.00000000000E+00 -0.00000000000E+00 -0.94183406385E+03  0.94183406385E+03  0.00000000000E+00 0. -1.
         25    2    1    2    0    0 -0.70770082279E+02 -0.45633983690E+02 -0.58592425796E+03  0.60501877855E+03  0.12509844652E+03 0.  0.
          5    1    3    3  502    0 -0.26150622663E+01  0.26976640273E+02 -0.31756648120E+02  0.41958726994E+02  0.41800000000E+01 0.  1.
         -5    1    3    3    0  502 -0.68155020013E+02 -0.72610623963E+02 -0.55416760984E+03  0.56306005156E+03  0.41800000000E+01 0.  1.
        -11    1    1    2    0    0  0.61387727199E+02 -0.63284691686E+01 -0.11997110565E+03  0.13491318973E+03  0.00000000000E+00 0.  1.
         11    1    1    2    0    0  0.93823550799E+01  0.51962452858E+02 -0.21573644940E+03  0.22210434641E+03  0.00000000000E+00 0. -1.
</event>
<event>
 7    1  0.2900135E-009  0.1473901E+03  0.7561462E-02  0.1203717E+00
          1   -1    0    0  501    0  0.00000000000E+00  0.00000000000E+00  0.11667912072E+03  0.11667912072E+03  0.00000000000E+00 0. -1.
         -1   -1    0    0    0  501 -0.00000000000E+00 -0.00000000000E+00 -0.24454736979E+03  0.24454736979E+03  0.00000000000E+00 0.  1.
         25    2    1    2    0    0  0.61652569545E+01 -0.12494929750E+03 -0.45209840421E+02  0.18260021766E+03  0.12509425438E+03 0.  0.
          5    1    3    3  502    0  0.40290935051E+02 -0.10378785856E+03 -0.73349148078E+02  0.13338983828E+03  0.41800000000E+01 0. -1.
         -5    1    3    3    0  502 -0.34125678097E+02 -0.21161438937E+02  0.28139307657E+02  0.49210379381E+02  0.41800000000E+01 0. -1.
        -11    1    1    2    0    0  0.19172102022E+02  0.11364660829E+03 -0.93929220135E+02  0.14868025917E+03  0.00000000000E+00 0.  1.
         11    1    1    2    0    0 -0.25337358977E+02  0.11302689213E+02  0.11270811485E+02  0.29946013673E+02  0.00000000000E+00 0. -1.
</event>
<event>
 7    1  0.2900135E-009  0.8749208E+02  0.7561462E-02  0.1309041E+00
          4   -1    0    0  501    0  0.00000000000E+00  0.00000000000E+00  0.15430913507E+03  0.15430913507E+03  0.00000000000E+00 0.  1.
         -4   -1    0    0    0  501 -0.00000000000E+00 -0.00000000000E+00 -0.17416441410E+03  0.17416441410E+03  0.00000000000E+00 0. -1.
         25    2    1    2    0    0  0.42812491194E+02 -0.51473049591E+02 -0.11369534032E+03  0.18181709944E+03  0.12509373685E+03 0.  0.
          5    1    3    3  502    0  0.15789642606E+02 -0.28916224813E+02 -0.13596006311E+03  0.13995739363E+03  0.41800000000E+01 0. -1.
         -5    1    3    3    0  502  0.27022848588E+02 -0.22556824779E+02  0.22264722783E+02  0.41859705810E+02  0.41800000000E+01 0. -1.
        -11    1    1    2    0    0 -0.66604449466E+02  0.48408259946E+02  0.49032603866E+02  0.95831667843E+02  0.00000000000E+00 0. -1.
         11    1    1    2    0    0  0.23791958272E+02  0.30647896457E+01  0.44807457427E+02  0.50824781899E+02  0.00000000000E+00 0.  1.
</event>
<event>
 7    1  0.2900135E-009  0.1482255E+03  0.7561462E-02  0.1202671E+00
         -2   -1    0    0    0  501 -0.00000000000E+00  0.00000000000E+00  0.24749886183E+02  0.24749886183E+02  0.00000000000E+00 0. -1.
          2   -1    0    0  501    0  0.00000000000E+00 -0.00000000000E+00 -0.12595821852E+04  0.12595821852E+04  0.00000000000E+00 0.  1.
         25    2    1    2    0    0  0.37255606857E+02  0.12740175954E+03 -0.80372503041E+03  0.82416061734E+03  0.12509040770E+03 0.  0.
          5    1    3    3  502    0  0.34244136894E+02  0.59849422794E+02 -0.67653266903E+03  0.68005039445E+03  0.41800000000E+01 0. -1.
         -5    1    3    3    0  502  0.30114699631E+01  0.67552336742E+02 -0.12719236138E+03  0.14411022290E+03  0.41800000000E+01 0. -1.
        -11    1    1    2    0    0  0.29424267529E+02 -0.41692687520E+02 -0.11157394410E+03  0.12268990470E+03  0.00000000000E+00 0.  1.
         11    1    1    2    0    0 -0.66679874386E+02 -0.85709072016E+02 -0.31953332447E+03  0.33748154930E+03  0.00000000000E+00 0. -1.
</event>
<event>
 7    1  0.2900135E-009  0.1253425E+03  0.7561462E-02  0.1234535E+00
          2   -1    0    0  501    0  0.00000000000E+00  0.00000000000E+00  0.41141245092E+03  0.41141245092E+03  0.00000000000E+00 0. -1.
         -2   -1    0    0    0  501 -0.00000000000E+00 -0.00000000000E+00 -0.42382864553E+02  0.42382864553E+02  0.00000000000E+00 0.  1.
         25    2    1    2    0    0 -0.69841934534E+02 -0.20459206712E+02  0.17517902595E+03  0.22722579157E+03  0.12508954498E+03 0.  0.
          5    1    3    3  502    0 -0.98820039581E+02  0.12887520182E+02  0.13050817403E+03  0.16425998992E+03  0.41800000000E+01 0.  1.
         -5    1    3    3    0  502  0.28978105047E+02 -0.33346726893E+02  0.44670851924E+02  0.62965801657E+02  0.41800000000E+01 0.  1.
        -11    1    1    2    0    0  0.10637538326E+02 -0.28066532723E+02  0.10541485487E+03  0.10960464912E+03  0.00000000000E+00 0. -1.
         11    1    1    2    0    0  0.59204396209E+02  0.48525739434E+02  0.88435705550E+02  0.11696487479E+03  0.00000000000E+00 0.  1.
</event>
<event>
 7    1  0.2900135E-009  0.1038406E+03  0.7561462E-02  0.1272421E+00
         -2   -1    0    0    0  501 -0.00000000000E+00  0.00000000000E+00  0.23156840159E+03  0.23156840159E+03  0.00000000000E+00 0.  1.
          2   -1    0    0  501    0  0.00000000000E+00 -0.00000000000E+00 -0.64554090206E+02  0.64554090206E+02  0.00000000000E+00 0. -1.
         25    2    1    2    0    0 -0.50073112680E+02  0.10110875344E+02  0.79181458516E+02  0.15660416448E+03  0.12508243100E+03 0.  0.
          5    1    3    3  502    0 -0.70367542822E+01  0.46339988663E+02  0.87726010903E+02  0.99550167499E+02  0.41800000000E+01 0.  1.
         -5    1    3    3    0  502 -0.43036358397E+02 -0.36229113319E+02 -0.85445523864E+01  0.57053996981E+02  0.41800000000E+01 0.  1.
        -11    1    1    2    0    0 -0.12135730351E+02 -0.35126078035E+02  0.50733841454E+02  0.62889108579E+02  0.00000000000E+00 0.  1.
         11    1    1    2    0    0  0.62208843031E+02  0.25015202691E+02  0.37099011419E+02  0.76629218743E+02  0.00000000000E+00 0. -1.
</event>
<event>
 7    1  0.2900135E-009  0.9456845E+02  0.7561462E-02  0.1292151E+00
         -2   -1    0    0    0  501 -0.00000000000E+00  0.00000000000E+00  0.17135324146E+03  0.17135324146E+03  0.00000000000E+00 0.  1.
          2   -1    0    0  501    0  0.00000000000E+00 -0.00000000000E+00 -0.72566460455E+02  0.72566460455E+02  0.00000000000E+00 0. -1.
         25    2    1    2    0    0  0.29999362806E+02  0.73959194062E+00  0.47833916514E+02  0.13724409073E+03  0.12508936048E+03 0.  0.
          5    1    3    3  502    0 -0.88373076595E+01  0.50901890658E+02 -0.82265523457E+01  0.52480939804E+02  0.41800000000E+01 0.  1.
         -5    1    3    3    0  502  0.38836670465E+02 -0.50162298717E+02  0.56060468859E+02  0.84763150922E+02  0.41800000000E+01 0.  1.
        -11    1    1    2    0    0  0.14041283466E+02  0.20488421938E+02 -0.11492798985E+02  0.27368184145E+02  0.00000000000E+00 0. -1.
         11    1    1    2    0    0 -0.44040646272E+02 -0.21228013879E+02  0.62445663473E+02  0.79307427041E+02  0.00000000000E+00 0.  1.
</event>
<event>
 7    1  0.2900135E-009  0.9710142E+02  0.7561462E-02  0.1286512E+00
         -3   -1    0    0    0  501 -0.00000000000E+00  0.00000000000E+00  0.30842303184E+03  0.30842303184E+03  0.00000000000E+00 0.  1.
          3   -1    0    0  501    0  0.00000000000E+00 -0.00000000000E+00 -0.62360293097E+02  0.62360293097E+02  0.00000000000E+00 0. -1.
         25    2    1    2    0    0 -0.33287643449E+02  0.22780054054E+02  0.35816247832E+02  0.13622496302E+03  0.12508972328E+03 0.  0.
          5    1    3    3  502    0  0.98822036510E+01  0.42027798619E+02 -0.31683845235E+02  0.53715288835E+02  0.41800000000E+01 0. -1.
         -5    1    3    3    0  502 -0.43169847100E+02 -0.19247744565E+02  0.67500093067E+02  0.82509674181E+02  0.41800000000E+01 0. -1.
        -11    1    1    2    0    0  0.64039702045E+02  0.17120629895E+01  0.14235873410E+03  0.15610901247E+03  0.00000000000E+00 0.  1.
         11    1    1    2    0    0 -0.30752058596E+02 -0.24492117043E+02  0.67887756804E+02  0.78449349450E+02  0.00000000000E+00 0. -1.
</event>
<event>
 7    1  0.2900135E-009  0.1759998E+03  0.7561462E-02  0.1171732E+00
         -2   -1    0    0    0  501 -0.00000000000E+00  0.00000000000E+00  0.10586582010E+03  0.10586582010E+03  0.00000000000E+00 0.  1.
          2   -1    0    0  501    0  0.00000000000E+00 -0.00000000000E+00 -0.31928748988E+03  0.31928748988E+03  0.00000000000E+00 0. -1.
         25    2    1    2    0    0  0.95348016881E+02 -0.10780132293E+03 -0.75448369882E+02  0.20506660940E+03  0.12508992055E+03 0.  0.
          5    1    3    3  502    0  0.87476477874E+02 -0.13531608591E+03 -0.58069266513E+02  0.17132451489E+03  0.41800000000E+01 0.  1.
         -5    1    3    3    0  502  0.78715390061E+01  0.27514762978E+02 -0.17379103369E+02  0.33742094510E+02  0.41800000000E+01 0.  1.
        -11    1    1    2    0    0 -0.56938261275E+02  0.11326046924E+02 -0.16652961648E+02  0.60395083141E+02  0.00000000000E+00 0.  1.
         11    1    1    2    0    0 -0.38409755605E+02  0.96475276010E+02 -0.12132033826E+03  0.15969161744E+03  0.00000000000E+00 0. -1.
</event>
<event>
 7    1  0.2900135E-009  0.1015537E+03  0.7561462E-02  0.1277062E+00
         -1   -1    0    0    0  501 -0.00000000000E+00  0.00000000000E+00  0.42914019859E+02  0.42914019859E+02  0.00000000000E+00 0.  1.
          1   -1    0    0  501    0  0.00000000000E+00 -0.00000000000E+00 -0.37075024141E+03  0.37075024141E+03  0.00000000000E+00 0. -1.
         25    2    1    2    0    0  0.31106242461E+02 -0.27077970081E+02 -0.96338785085E+02  0.16318335879E+03  0.12508729868E+03 0.  0.
          5    1    3    3  502    0 -0.35557985293E+02 -0.17961506835E+02  0.61351505768E+01  0.40522814789E+02  0.41800000000E+01 0.  1.
         -5    1    3    3    0  502  0.66664227754E+02 -0.91164632466E+01 -0.10247393566E+03  0.12266054400E+03  0.41800000000E+01 0.  1.
        -11    1    1    2    0    0 -0.56436843260E+02 -0.27512932146E+01 -0.13448704214E+03  0.14587477985E+03  0.00000000000E+00 0.  1.
         11    1    1    2    0    0  0.25330600799E+02  0.29829263296E+02 -0.97010394330E+02  0.10460612264E+03  0.00000000000E+00 0. -1.
</event>
<event>
 6    1  0.2900135E-009  0.1116090E+03  0.7561462E-02  0.1257619E+00
          2   -1    0    0  501    0  0.00000000000E+00  0.00000000000E+00  0.83112794589E+03  0.83112794589E+03  0.00000000000E+00 0. -1.
         -2   -1    0    0    0  501 -0.00000000000E+00 -0.00000000000E+00 -0.21877595181E+02  0.21877595181E+02  0.00000000000E+00 0.  1.
          5    1    1    2  502    0 -0.11850733385E+02  0.32881521364E+02  0.40743519826E+03  0.40895298937E+03  0.41800000000E+01 0. -1.
         -5    1    1    2    0  502 -0.47650525846E+02 -0.59091635920E+02  0.18503449362E+03  0.20004407084E+03  0.41800000000E+01 0. -1.
        -11    1    1    2    0    0 -0.91607140376E+00 -0.29676091588E+02  0.59448679139E+02  0.66450395409E+02  0.00000000000E+00 0. -1.
         11    1    1    2    0    0  0.60417330635E+02  0.55886206143E+02  0.15733197969E+03  0.17755808546E+03  0.00000000000E+00 0.  1.
</event>
<event>
 7    1  0.2900135E-009  0.9530615E+02  0.7561462E-02  0.1290488E+00
         -2   -1    0    0    0  501 -0.00000000000E+00  0.00000000000E+00  0.83078807446E+02  0.83078807446E+02  0.00000000000E+00 0.  1.
          2   -1    0    0  501    0  0.00000000000E+00 -0.00000000000E+00 -0.17446497457E+03  0.17446497457E+03  0.00000000000E+00 0. -1.
         25    2    1    2    0    0  0.51692629953E+02 -0.27457309839E+02 -0.70745797486E+02  0.15517365400E+03  0.12509141929E+03 0.  0.
          5    1    3    3  502    0 -0.24327545667E+02  0.43055063391E+01  0.20347417560E+02  0.32277804516E+02  0.41800000000E+01 0.  1.
         -5    1    3    3    0  502  0.76020175621E+02 -0.31762816178E+02 -0.91093215046E+02  0.12289584948E+03  0.41800000000E+01 0.  1.
        -11    1    1    2    0    0 -0.34167657382E+02 -0.14859103665E+02  0.18975475147E+02  0.41812563061E+02  0.00000000000E+00 0.  1.
         11    1    1    2    0    0 -0.17524972572E+02  0.42316413504E+02 -0.39615844790E+02  0.60557564960E+02  0.00000000000E+00 0. -1.
</event>
<event>
 7    1  0.2900135E-009  0.8348400E+02  0.7561462E-02  0.1319445E+00
          2   -1    0    0  501    0  0.00000000000E+00  0.00000000000E+00  0.49908833430E+03  0.49908833430E+03  0.00000000000E+00 0. -1.
         -2   -1    0    0    0  501 -0.00000000000E+00 -0.00000000000E+00 -0.25550557708E+02  0.25550557708E+02  0.00000000000E+00 0.  1.
         25    2    1    2    0    0 -0.23847180918E+02 -0.96953430710E+01  0.22641791804E+03  0.25995362303E+03  0.12509246500E+03 0.  0.
          5    1    3    3  502    0 -0.35560246502E+02 -0.32494159620E+02  0.22881977162E+03  0.23387253329E+03  0.41800000000E+01 0.  1.
         -5    1    3    3    0  502  0.11713065584E+02  0.22798816549E+02 -0.24018535838E+01  0.26081089740E+02  0.41800000000E+01 0.  1.
        -11    1    1    2    0    0 -0.21847849511E+02 -0.26505473106E+02  0.65828763492E+02  0.74251563861E+02  0.00000000000E+00 0.  1.
         11    1    1    2    0    0  0.45695030428E+02  0.36200816177E+02  0.18129109506E+03  0.19043370512E+03  0.00000000000E+00 0. -1.
</event>
<event>
 7    1  0.2957397E-009  0.9836551E+02  0.7561462E-02  0.1283771E+00
         -2   -1    0    0    0  501 -0.00000000000E+00  0.00000000000E+00  0.13830521530E+02  0.13830521530E+02  0.00000000000E+00 0.  1.
          2   -1    0    0  501    0  0.00000000000E+00 -0.00000000000E+00 -0.13177769543E+04  0.13177769543E+04  0.00000000000E+00 0. -1.
         25    2    1    2    0    0  0.21637503879E+02  0.11050983988E+02 -0.10920866968E+04  0.10994952682E+04  0.12508471341E+03 0.  0.
          5    1    3    3  502    0 -0.50284742092E+02  0.95600304972E+01 -0.32514123205E+03  0.32917205630E+03  0.41800000000E+01 0.  1.
         -5    1    3    3    0  502  0.71922245970E+02  0.14909534904E+01 -0.76694546477E+03  0.77032321187E+03  0.41800000000E+01 0.  1.
        -11    1    1    2    0    0  0.24219616933E+02 -0.12862545681E+02 -0.16216786367E+03  0.16447021290E+03  0.00000000000E+00 0. -1.
         11    1    1    2    0    0 -0.45857120811E+02  0.18115616934E+01 -0.49691872298E+02  0.67641994776E+02  0.00000000000E+00 0.  1.
</event>
<event>
 7    1  0.2900135E-009  0.1565662E+03  0.7561462E-02  0.1192629E+00
          1   -1    0    0  501    0  0.00000000000E+00  0.00000000000E+00  0.60162925391E+03  0.60162925391E+03  0.00000000000E+00 0. -1.
         -1   -1    0    0    0  501 -0.00000000000E+00 -0.00000000000E+00 -0.76739948898E+02  0.76739948898E+02  0.00000000000E+00 0.  1.
         25    2    1    2    0    0  0.94049603762E+02  0.76275295821E+02  0.48754018232E+03  0.51769545236E+03  0.12509957354E+03 0.  0.
          5    1    3    3  502    0 -0.26668200980E+02  0.11513833912E+02  0.15946464554E+03  0.16214255115E+03  0.41800000000E+01 0.  1.
         -5    1    3    3    0  502  0.12071780474E+03  0.64761461910E+02  0.32807553678E+03  0.35555290122E+03  0.41800000000E+01 0.  1.
        -11    1    1    2    0    0 -0.39946093901E+02  0.13283824968E+02  0.36991452353E+02  0.56040324507E+02  0.00000000000E+00 0. -1.
         11    1    1    2    0    0 -0.54103509861E+02 -0.89559120789E+02  0.35767034145E+00  0.10463342594E+03  0.00000000000E+00 0.  1.
</event>
<event>
 7    1  0.2900135E-009  0.1240139E+03  0.7561462E-02  0.1236619E+00
          2   -1    0    0  501    0  0.00000000000E+00  0.00000000000E+00  0.62888920758E+02  0.62888920758E+02  0.00000000000E+00 0. -1.
         -2   -1    0    0    0  501 -0.00000000000E+00 -0.00000000000E+00 -0.37155804655E+03  0.37155804655E+03  0.00000000000E+00 0.  1.
         25    2    1    2    0    0  0.48389097505E+02  0.79740051594E+02 -0.24167770496E+03  0.28767034308E+03  0.12508450196E+03 0.  0.
          5    1    3    3  502    0  0.78699238951E+02  0.92537637714E+02 -0.20408038219E+03  0.23753538558E+03  0.41800000000E+01 0. -1.
         -5    1    3    3    0  502 -0.30310141445E+02 -0.12797586120E+02 -0.37597322769E+02  0.50134957508E+02  0.41800000000E+01 0. -1.
        -11    1    1    2    0    0 -0.35951969705E+02 -0.61458200447E+02 -0.90070819850E+02  0.11481466420E+03  0.00000000000E+00 0.  1.
         11    1    1    2    0    0 -0.12437127800E+02 -0.18281851147E+02  0.23079399018E+02  0.31961960020E+02  0.00000000000E+00 0. -1.
</event>
<event>
 7    1  0.2900135E-009  0.1275986E+03  0.7561462E-02  0.1231063E+00
          1   -1    0    0  501    0  0.00000000000E+00  0.00000000000E+00  0.18658881084E+03  0.18658881084E+03  0.00000000000E+00 0. -1.
         -1   -1    0    0    0  501 -0.00000000000E+00 -0.00000000000E+00 -0.11823184426E+03  0.11823184426E+03  0.00000000000E+00 0.  1.
         25    2    1    2    0    0 -0.64197800403E+02 -0.65689304925E+02  0.16076999586E+02  0.15601931328E+03  0.12508842410E+03 0.  0.
          5    1    3    3  502    0 -0.33948898326E+02  0.33198290302E+02  0.21695326023E+02  0.52371879360E+02  0.41800000000E+01 0.  1.
         -5    1    3    3    0  502 -0.30248902078E+02 -0.98887595226E+02 -0.56183264365E+01  0.10364743392E+03  0.41800000000E+01 0.  1.
        -11    1    1    2    0    0  0.24250554943E+02  0.58658911280E+02 -0.19458835712E+02  0.66389785169E+02  0.00000000000E+00 0.  1.
         11    1    1    2    0    0  0.39947245460E+02  0.70303936449E+01  0.71738802714E+02  0.82411556650E+02  0.00000000000E+00 0. -1.
</event>
<event>
 7    1  0.2900135E-009  0.1109063E+03  0.7561462E-02  0.1258901E+00
         -2   -1    0    0    0  501 -0.00000000000E+00  0.00000000000E+00  0.79419928129E+02  0.79419928129E+02  0.00000000000E+00 0.  1.
          2   -1    0    0  501    0  0.00000000000E+00 -0.00000000000E+00 -0.29135702237E+03  0.29135702237E+03  0.00000000000E+00 0. -1.
         25    2    1    2    0    0 -0.75724834081E+02  0.73973062982E+02 -0.10952675777E+03  0.19710374630E+03  0.12509001397E+03 0.  0.
          5    1    3    3  502    0 -0.64086469800E+02  0.31280112014E+02  0.75889602023E+01  0.71837216928E+02  0.41800000000E+01 0. -1.
         -5    1    3    3    0  502 -0.11638364281E+02  0.42692950968E+02 -0.11711571797E+03  0.12526652937E+03  0.41800000000E+01 0. -1.
        -11    1    1    2    0    0  0.46166545713E+02 -0.47697694364E+02 -0.27334115963E+01  0.66437124634E+02  0.00000000000E+00 0.  1.
         11    1    1    2    0    0  0.29558288368E+02 -0.26275368617E+02 -0.99676924881E+02  0.10723607957E+03  0.00000000000E+00 0. -1.
</event>
<event>
 7    1  0.2900135E-009  0.1397173E+03  0.7561462E-02  0.1213710E+00
          3   -1    0    0  501    0  0.00000000000E+00  0.00000000000E+00  0.21620016553E+03  0.21620016553E+03  0.00000000000E+00 0. -1.
         -3   -1    0    0    0  501 -0.00000000000E+00 -0.00000000000E+00 -0.15252033928E+03  0.15252033928E+03  0.00000000000E+00 0.  1.
         25    2    1    2    0    0  0.12391935165E+03  0.18307235143E+01  0.11043078150E+03  0.20785139183E+03  0.12509151180E+03 0.  0.
          5    1    3    3  502    0  0.57339948263E+02 -0.95429499912E+01  0.12563270987E+03  0.13849183279E+03  0.41800000000E+01 0. -1.
         -5    1    3    3    0  502  0.66579403385E+02  0.11373673505E+02 -0.15201928371E+02  0.69359559041E+02  0.41800000000E+01 0. -1.
        -11    1    1    2    0    0 -0.18549934211E+02 -0.37830254267E+02 -0.18342474598E+02  0.45952960422E+02  0.00000000000E+00 0.  1.
         11    1    1    2    0    0 -0.10536941744E+03  0.35999530753E+02 -0.28408480653E+02  0.11491615256E+03  0.00000000000E+00 0. -1.
</event>
<event>
 7    1  0.2900135E-009  0.8505886E+02  0.7561462E-02  0.1315279E+00
         -2   -1    0    0    0  501 -0.00000000000E+00  0.00000000000E+00  0.40699569917E+02  0.40699569917E+02  0.00000000000E+00 0.  1.
          2   -1    0    0  501    0  0.00000000000E+00 -0.00000000000E+00 -0.34084561727E+03  0.34084561727E+03  0.00000000000E+00 0. -1.
         25    2    1    2    0    0  0.16208222784E+02  0.42146019619E+02 -0.19564276127E+03  0.23656474684E+03  0.12509115058E+03 0.  0.
          5    1    3    3  502    0  0.50965788500E+02  0.32193052555E+02 -0.30937028581E+02  0.67885759682E+02  0.41800000000E+01 0.  1.
         -5    1    3    3    0  502 -0.34757565715E+02  0.99529670639E+01 -0.16470573269E+03  0.16867898716E+03  0.41800000000E+01 0.  1.
        -11    1    1    2    0    0 -0.95894192466E-01  0.14450292860E+02 -0.79904614499E+02  0.81200785573E+02  0.00000000000E+00 0. -1.
         11    1    1    2    0    0 -0.16112328592E+02 -0.56596312479E+02 -0.24598671577E+02  0.63779654767E+02  0.00000000000E+00 0.  1.
</event>
<event>
 7    1  0.2900135E-009  0.1326019E+03  0.7561462E-02  0.1223645E+00
          3   -1    0    0  501    0  0.00000000000E+00  0.00000000000E+00  0.51587728436E+03  0.51587728436E+03  0.00000000000E+00 0. -1.
         -3   -1    0    0    0  501 -0.00000000000E+00 -0.00000000000E+00 -0.35838597366E+02  0.35838597366E+02  0.00000000000E+00 0.  1.
         25    2    1    2    0    0 -0.41321649152E+02  0.70515928985E+02  0.30132576065E+03  0.33633945867E+03  0.12508813891E+03 0.  0.
          5    1    3    3  502    0 -0.55092995242E+02  0.98947158371E+02  0.19717747527E+03  0.22742516885E+03  0.41800000000E+01 0. -1.
         -5    1    3    3    0  502  0.13771346090E+02 -0.28431229386E+02  0.10414828538E+03  0.10891428981E+03  0.41800000000E+01 0. -1.
        -11    1    1    2    0    0  0.49573769971E+02 -0.87815780452E+02  0.14549680148E+03  0.17702680364E+03  0.00000000000E+00 0. -1.
         11    1    1    2    0    0 -0.82521208189E+01  0.17299851467E+02  0.33216124864E+02  0.38349619421E+02  0.00000000000E+00 0.  1.
</event>
<event>
 7    1  0.3657516E-009  0.1151007E+03  0.7561462E-02  0.1251405E+00
         -2   -1    0    0    0  501 -0.00000000000E+00  0.00000000000E+00  0.11643877585E+03  0.11643877585E+03  0.00000000000E+00 0.  1.
          2   -1    0    0  501    0  0.00000000000E+00 -0.00000000000E+00 -0.16874515623E+03  0.16874515623E+03  0.00000000000E+00 0. -1.
         25    2    1    2    0    0  0.41410614845E+02  0.76229554522E+02 -0.44950003931E+02  0.15872267108E+03  0.12508636799E+03 0.  0.
          5    1    3    3  502    0 -0.64578308088E+01 -0.81400239812E+01  0.32593803365E+02  0.34464358212E+02  0.41800000000E+01 0.  1.
         -5    1    3    3    0  502  0.47868445654E+02  0.84369578504E+02 -0.77543807297E+02  0.12425831287E+03  0.41800000000E+01 0.  1.
        -11    1    1    2    0    0 -0.48211460577E+02 -0.29367295564E+01  0.13134246374E+02  0.50054747420E+02  0.00000000000E+00 0. -1.
         11    1    1    2    0    0  0.68008457317E+01 -0.73292824966E+02 -0.20490622822E+02  0.76406513582E+02  0.00000000000E+00 0.  1.
</event>
<event>
 7    1  0.2900135E-009  0.1243522E+03  0.7561462E-02  0.1236085E+00
          2   -1    0    0  501    0  0.00000000000E+00  0.00000000000E+00  0.30875265724E+03  0.30875265724E+03  0.00000000000E+00 0. -1.
         -2   -1    0    0    0  501 -0.00000000000E+00 -0.00000000000E+00 -0.81966682341E+02  0.81966682341E+02  0.00000000000E+00 0.  1.
         25    2    1    2    0    0  0.26113011896E+02  0.11256395776E+03  0.10447900090E+03  0.19978876765E+03  0.12508859290E+03 0.  0.
          5    1    3    3  502    0  0.10310257118E+02  0.88048614826E+00  0.84410699006E+02  0.85145259200E+02  0.41800000000E+01 0.  1.
         -5    1    3    3    0  502  0.15802754778E+02  0.11168347161E+03  0.20068301896E+02  0.11464350845E+03  0.41800000000E+01 0.  1.
        -11    1    1    2    0    0  0.30656511186E+01 -0.83263194979E+02  0.27903703803E+02  0.87867938071E+02  0.00000000000E+00 0.  1.
         11    1    1    2    0    0 -0.29178663014E+02 -0.29300762778E+02  0.94403270191E+02  0.10306263386E+03  0.00000000000E+00 0. -1.
</event>
<event>
 7    1  0.2900135E-009  0.7494605E+02  0.7561462E-02  0.1344038E+00
          1   -1    0    0  501    0  0.00000000000E+00  0.00000000000E+00  0.12040541657E+03  0.12040541657E+03  0.00000000000E+00 0. -1.
         -1   -1    0    0    0  501 -0.00000000000E+00 -0.00000000000E+00 -0.11255703213E+03  0.11255703213E+03  0.00000000000E+00 0.  1.
         25    2    1    2    0    0 -0.21090104245E+02  0.40872058252E+02 -0.46556637866E+01  0.13335836713E+03  0.12508981268E+03 0.  0.
          5    1    3    3  502    0 -0.20909434937E+02  0.17803436745E+02  0.59168267356E+02  0.65364540014E+02  0.41800000000E+01 0. -1.
         -5    1    3    3    0  502 -0.18066930769E+00  0.23068621507E+02 -0.63823931143E+02  0.67993827118E+02  0.41800000000E+01 0. -1.
        -11    1    1    2    0    0  0.54790367329E+02 -0.16989551271E+02  0.99491340070E+01  0.58220395670E+02  0.00000000000E+00 0.  1.
         11    1    1    2    0    0 -0.33700263085E+02 -0.23882506982E+02  0.25549142256E+01  0.41383685897E+02  0.00000000000E+00 0. -1.
</event>
<event>
 7    1  0.2900135E-009  0.1589646E+03  0.7561462E-02  0.1189871E+00
         -1   -1    0    0    0  501 -0.00000000000E+00  0.00000000000E+00  0.92295012878E+02  0.92295012878E+02  0.00000000000E+00 0.  1.
          1   -1    0    0  501    0  0.00000000000E+00 -0.00000000000E+00 -0.36219578563E+03  0.36219578563E+03  0.00000000000E+00 0. -1.
         25    2    1    2    0    0  0.16576648603E+01 -0.13304527763E+03 -0.62073974119E+02  0.19288300863E+03  0.12508750139E+03 0.  0.
          5    1    3    3  502    0  0.56569621667E+02 -0.76041468430E+02 -0.46032519291E+01  0.94979415375E+02  0.41800000000E+01 0.  1.
         -5    1    3    3    0  502 -0.54911956807E+02 -0.57003809198E+02 -0.57470722190E+02  0.97903593256E+02  0.41800000000E+01 0.  1.
        -11    1    1    2    0    0  0.26019791037E+02  0.77321200809E+02 -0.60149374198E+02  0.10135849662E+03  0.00000000000E+00 0.  1.
         11    1    1    2    0    0 -0.27677455898E+02  0.55724076819E+02 -0.14767742443E+03  0.16024929326E+03  0.00000000000E+00 0. -1.
</event>
<event>
 7    1  0.2900135E-009  0.9779365E+02  0.7561462E-02  0.1285005E+00
          2   -1    0    0  501    0  0.00000000000E+00  0.00000000000E+00  0.35877792140E+03  0.35877792140E+03  0.00000000000E+00 0. -1.
         -2   -1    0    0    0  501 -0.00000000000E+00 -0.00000000000E+00 -0.57602286330E+02  0.57602286330E+02  0.00000000000E+00 0.  1.
         25    2    1    2    0    0  0.45979369720E+02  0.26403000814E+02  0.27742005969E+03  0.30890219973E+03  0.12508980210E+03 0.  0.
          5    1    3    3  502    0  0.18323169091E+02 -0.31980117352E+02  0.21766250926E+03  0.22080060410E+03  0.41800000000E+01 0. -1.
         -5    1    3    3    0  502  0.27656200629E+02  0.58383118166E+02  0.59757550426E+02  0.88101595633E+02  0.41800000000E+01 0. -1.
        -11    1    1    2    0    0 -0.31022938748E+02 -0.54051519297E+02 -0.79548448462E+01  0.62827295210E+02  0.00000000000E+00 0.  1.
         11    1    1    2    0    0 -0.14956430972E+02  0.27648518483E+02  0.31710420233E+02  0.44650712795E+02  0.00000000000E+00 0. -1.
</event>
<event>
 7    1  0.2900135E-009  0.1289508E+03  0.7561462E-02  0.1229021E+00
          1   -1    0    0  501    0  0.00000000000E+00  0.00000000000E+00  0.67320542712E+03  0.67320542712E+03  0.00000000000E+00 0.  1.
         -1   -1    0    0    0  501 -0.00000000000E+00 -0.00000000000E+00 -0.25896155427E+02  0.25896155427E+02  0.00000000000E+00 0. -1.
         25    2    1    2    0    0 -0.74742878033E+02  0.10059351056E+02  0.33524684503E+03  0.36568551275E+03  0.12509100198E+03 0.  0.
          5    1    3    3  502    0  0.65734761356E+01  0.50594073531E+02  0.82723901074E+02  0.97281483716E+02  0.41800000000E+01 0.  1.
         -5    1    3    3    0  502 -0.81316354169E+02 -0.40534722475E+02  0.25252294395E+03  0.26840402904E+03  0.41800000000E+01 0.  1.
        -11    1    1    2    0    0 -0.62247180064E+01 -0.31409859148E+02  0.11324127993E+03  0.11768140824E+03  0.00000000000E+00 0.  1.
         11    1    1    2    0    0  0.80967596040E+02  0.21350508092E+02  0.19882114673E+03  0.21573466155E+03  0.00000000000E+00 0. -1.
</event>
<event>
 7    1  0.2900135E-009  0.1407637E+03  0.7561462E-02  0.1212305E+00
          1   -1    0    0  501    0  0.00000000000E+00  0.00000000000E+00  0.97259160813E+02  0.97259160813E+02  0.00000000000E+00 0. -1.
         -1   -1    0    0    0  501 -0.00000000000E+00 -0.00000000000E+00 -0.35612773036E+03  0.35612773036E+03  0.00000000000E+00 0.  1.
         25    2    1    2    0    0  0.11120546568E+03 -0.12290909665E+02 -0.14085153662E+02  0.16841649334E+03  0.12509197264E+03 0.  0.
          5    1    3    3  502    0  0.11072020229E+03  0.26663281567E+02  0.20931451342E+02  0.11586842467E+03  0.41800000000E+01 0. -1.
         -5    1    3    3    0  502  0.48526338468E+00 -0.38954191231E+02 -0.35016605004E+02  0.52548068671E+02  0.41800000000E+01 0. -1.
        -11    1    1    2    0    0 -0.28878082196E+02 -0.24820668022E+02 -0.14706212423E+03  0.15191207185E+03  0.00000000000E+00 0.  1.
         11    1    1    2    0    0 -0.82327383482E+02  0.37111577686E+02 -0.97721291652E+02  0.13305832598E+03  0.00000000000E+00 0. -1.
</event>
<event>
 7    1  0.2900135E-009  0.2515637E+03  0.7561462E-02  0.1112321E+00
         -1   -1    0    0    0  501 -0.00000000000E+00  0.00000000000E+00  0.83115830574E+03  0.83115830574E+03  0.00000000000E+00 0.  1.
          1   -1    0    0  501    0  0.00000000000E+00 -0.00000000000E+00 -0.83437007145E+02  0.83437007145E+02  0.00000000000E+00 0. -1.
         25    2    1    2    0    0 -0.11260013121E+03  0.21173880203E+03  0.41165912389E+03  0.49256723123E+03  0.12508850132E+03 0.  0.
          5    1    3    3  502    0 -0.31456772286E+02  0.15436268602E+03  0.32269359972E+03  0.35911836358E+03  0.41800000000E+01 0. -1.
         -5    1    3    3    0  502 -0.81143358924E+02  0.57376116006E+02  0.88965524170E+02  0.13344886765E+03  0.41800000000E+01 0. -1.
        -11    1    1    2    0    0  0.93262321096E+02 -0.11825157324E+03  0.25786889356E+03  0.29862629049E+03  0.00000000000E+00 0.  1.
         11    1    1    2    0    0  0.19337810115E+02 -0.93487228783E+02  0.78193281143E+02  0.12340179116E+03  0.00000000000E+00 0. -1.
</event>
<event>
 7    1  0.2900135E-009  0.1894211E+03  0.7561462E-02  0.1158984E+00
          2   -1    0    0  501    0  0.00000000000E+00  0.00000000000E+00  0.31724259383E+03  0.31724259383E+03  0.00000000000E+00 0. -1.
         -2   -1    0    0    0  501 -0.00000000000E+00 -0.00000000000E+00 -0.15633099123E+03  0.15633099123E+03  0.00000000000E+00 0.  1.
         25    2    1    2    0    0 -0.17338822034E+03 -0.34729207509E+02 -0.21382782063E+01  0.21661252413E+03  0.12508725183E+03 0.  0.
          5    1    3    3  502    0 -0.33165324840E+01 -0.31383211031E+02  0.29661377803E+02  0.43510631523E+02  0.41800000000E+01 0. -1.
         -5    1    3    3    0  502 -0.17007168785E+03 -0.33459964785E+01 -0.31799656010E+02  0.17310189261E+03  0.41800000000E+01 0. -1.
        -11    1    1    2    0    0  0.29972691136E+02  0.70469454227E+01  0.86996249813E+02  0.92284175975E+02  0.00000000000E+00 0.  1.
         11    1    1    2    0    0  0.14341552920E+03  0.27682262086E+02  0.76053630990E+02  0.16467688495E+03  0.00000000000E+00 0. -1.
</event>
<event>
 7    1  0.2900135E-009  0.1053633E+03  0.7561462E-02  0.1269405E+00
          1   -1    0    0  501    0  0.00000000000E+00  0.00000000000E+00  0.17477446267E+03  0.17477446267E+03  0.00000000000E+00 0. -1.
         -1   -1    0    0    0  501 -0.00000000000E+00 -0.00000000000E+00 -0.76194578138E+02  0.76194578138E+02  0.00000000000E+00 0.  1.
         25    2    1    2    0    0 -0.29606704576E+02 -0.17643278859E+02  0.41953600954E+02  0.13641755889E+03  0.12514712740E+03 0.  0.
          5    1    3    3  502    0 -0.78441406914E+02 -0.82551363977E+01  0.33529058013E+02  0.85807177595E+02  0.41800000000E+01 0.  1.
         -5    1    3    3    0  502  0.48834702339E+02 -0.93881424609E+01  0.84245429410E+01  0.50610381298E+02  0.41800000000E+01 0.  1.
        -11    1    1    2    0    0 -0.10606468417E+02  0.36074332483E+02 -0.57949505807E+01  0.38045184828E+02  0.00000000000E+00 0.  1.
         11    1    1    2    0    0  0.40213172993E+02 -0.18431053624E+02  0.62421234159E+02  0.76506297085E+02  0.00000000000E+00 0. -1.
</event>
<event>
 7    1  0.2900135E-009  0.8250193E+02  0.7561462E-02  0.1322098E+00
          2   -1    0    0  501    0  0.00000000000E+00  0.00000000000E+00  0.64047342110E+03  0.64047342110E+03  0.00000000000E+00 0.  1.
         -2   -1    0    0    0  501 -0.00000000000E+00 -0.00000000000E+00 -0.25343674821E+02  0.25343674821E+02  0.00000000000E+00 0. -1.
         25    2    1    2    0    0  0.14703957753E+02 -0.14659423193E+02  0.51422831843E+03  0.52963036828E+03  0.12508580442E+03 0.  0.
          5    1    3    3  502    0  0.56063210720E+02  0.24680519922E+02  0.17156747650E+03  0.18222261948E+03  0.41800000000E+01 0.  1.
         -5    1    3    3    0  502 -0.41359252967E+02 -0.39339943115E+02  0.34266084193E+03  0.34740774880E+03  0.41800000000E+01 0.  1.
        -11    1    1    2    0    0  0.14637643336E+02  0.54540952087E+01 -0.11664839957E+02  0.19495544317E+02  0.00000000000E+00 0. -1.
         11    1    1    2    0    0 -0.29341601089E+02  0.92053279842E+01  0.11256626781E+03  0.11669118332E+03  0.00000000000E+00 0.  1.
</event>
<event>
 7    1  0.2900135E-009  0.1824974E+03  0.7561462E-02  0.1165408E+00
         -1   -1    0    0    0  501 -0.00000000000E+00  0.00000000000E+00  0.40147461609E+02  0.40147461609E+02  0.00000000000E+00 0.  1.
          1   -1    0    0  501    0  0.00000000000E+00 -0.00000000000E+00 -0.11922867127E+04  0.11922867127E+04  0.00000000000E+00 0. -1.
         25    2    1    2    0    0  0.18211917399E+02 -0.17916674379E+03 -0.76244987613E+03  0.79335353601E+03  0.12509046118E+03 0.  0.
          5    1    3    3  502    0  0.21759837484E+02 -0.17045676631E+03 -0.46545257380E+03  0.49617796260E+03  0.41800000000E+01 0. -1.
         -5    1    3    3    0  502 -0.35479200843E+01 -0.87099774794E+01 -0.29699730232E+03  0.29717557341E+03  0.41800000000E+01 0. -1.
        -11    1    1    2    0    0  0.46598363853E+01  0.10713632471E+03 -0.12949732004E+03  0.16813524926E+03  0.00000000000E+00 0.  1.
         11    1    1    2    0    0 -0.22871753785E+02  0.72030419083E+02 -0.26019205495E+03  0.27094538906E+03  0.00000000000E+00 0. -1.
</event>
<event>
 7    1  0.2900135E-009  0.1810314E+03  0.7561462E-02  0.1166809E+00
          2   -1    0    0  501    0  0.00000000000E+00  0.00000000000E+00  0.15928847551E+04  0.15928847551E+04  0.00000000000E+00 0. -1.
         -2   -1    0    0    0  501 -0.00000000000E+00 -0.00000000000E+00 -0.26914744000E+02  0.26914744000E+02  0.00000000000E+00 0.  1.
         25    2    1    2    0    0  0.21095310659E+02 -0.15371001521E+03  0.11396840071E+04  0.11569779969E+04  0.12508664414E+03 0.  0.
          5    1    3    3  502    0  0.46083676424E+02 -0.68765475330E+01  0.18990889672E+03  0.19558592381E+03  0.41800000000E+01 0. -1.
         -5    1    3    3    0  502 -0.24988365765E+02 -0.14683346768E+03  0.94977511033E+03  0.96139207312E+03  0.41800000000E+01 0. -1.
        -11    1    1    2    0    0 -0.41374774856E+02  0.83349002706E+02  0.32351675349E+03  0.33663335847E+03  0.00000000000E+00 0. -1.
         11    1    1    2    0    0  0.20279464197E+02  0.70361012507E+02  0.10276925054E+03  0.12618814368E+03  0.00000000000E+00 0.  1.
</event>
<event>
 6    1  0.2900135E-009  0.1317715E+03  0.7561462E-02  0.1224851E+00
          1   -1    0    0  501    0  0.00000000000E+00  0.00000000000E+00  0.10033494205E+04  0.10033494205E+04  0.00000000000E+00 0. -1.
         -1   -1    0    0    0  501 -0.00000000000E+00 -0.00000000000E+00 -0.25421736511E+02  0.25421736511E+02  0.00000000000E+00 0.  1.
          5    1    1    2  502    0 -0.12736835213E+02  0.57490694673E+02  0.11451373718E+03  0.12883429415E+03  0.41800000000E+01 0.  1.
         -5    1    1    2    0  502 -0.68654038605E+02  0.44704826987E+01  0.58904672503E+03  0.59306566154E+03  0.41800000000E+01 0.  1.
        -11    1    1    2    0    0  0.10060524238E+03 -0.57427279895E+02  0.21377755022E+03  0.24314635150E+03  0.00000000000E+00 0.  1.
         11    1    1    2    0    0 -0.19214368558E+02 -0.45338974767E+01  0.60589671573E+02  0.63724849837E+02  0.00000000000E+00 0. -1.
</event>
<event>
 7    1  0.2900135E-009  0.1331064E+03  0.7561462E-02  0.1222918E+00
         -2   -1    0    0    0  501 -0.00000000000E+00  0.00000000000E+00  0.25412034544E+03  0.25412034544E+03  0.00000000000E+00 0.  1.
          2   -1    0    0  501    0  0.00000000000E+00 -0.00000000000E+00 -0.10565734637E+03  0.10565734637E+03  0.00000000000E+00 0. -1.
         25    2    1    2    0    0  0.10469686176E+03 -0.57228710212E+02  0.11098824730E+03  0.20543830652E+03  0.12509975464E+03 0.  0.
          5    1    3    3  502    0  0.59541180792E+02 -0.61814140443E+02  0.13018040981E+03  0.15598253642E+03  0.41800000000E+01 0. -1.
         -5    1    3    3    0  502  0.45155680966E+02  0.45854302311E+01 -0.19192162512E+02  0.49455770096E+02  0.41800000000E+01 0. -1.
        -11    1    1    2    0    0 -0.82385206059E+02  0.10666381122E+02  0.55210550018E+02  0.99746171340E+02  0.00000000000E+00 0.  1.
         11    1    1    2    0    0 -0.22311655699E+02  0.46562329090E+02 -0.17735798254E+02  0.54593213956E+02  0.00000000000E+00 0. -1.
</event>
<event>
 7    1  0.2900135E-009  0.1113004E+03  0.7561462E-02  0.1258181E+00
         -1   -1    0    0    0  501 -0.00000000000E+00  0.00000000000E+00  0.27069385567E+02  0.27069385567E+02  0.00000000000E+00 0.  1.
          1   -1    0    0  501    0  0.00000000000E+00 -0.00000000000E+00 -0.46853993005E+03  0.46853993005E+03  0.00000000000E+00 0. -1.
         25    2    1    2    0    0 -0.31972361714E+02  0.91859324684E+01 -0.25493938026E+03  0.28591690445E+03  0.12509106832E+03 0.  0.
          5    1    3    3  502    0 -0.73075559316E+02  0.32307506112E+02 -0.13438473456E+03  0.15639866241E+03  0.41800000000E+01 0.  1.
         -5    1    3    3    0  502  0.41103197602E+02 -0.23121573644E+02 -0.12055464570E+03  0.12951824204E+03  0.41800000000E+01 0.  1.
        -11    1    1    2    0    0 -0.63312737902E+01  0.35690154917E+02 -0.60351108913E+02  0.70399776511E+02  0.00000000000E+00 0.  1.
         11    1    1    2    0    0  0.38303635504E+02 -0.44876087385E+02 -0.12618005531E+03  0.13929263465E+03  0.00000000000E+00 0. -1.
</event>
<event>
 7    1  0.2900135E-009  0.1085531E+03  0.7561462E-02  0.1263273E+00
         -2   -1    0    0    0  501 -0.00000000000E+00  0.00000000000E+00  0.65286894112E+02  0.65286894112E+02  0.00000000000E+00 0.  1.
          2   -1    0    0  501    0  0.00000000000E+00 -0.00000000000E+00 -0.50501279289E+03  0.50501279289E+03  0.00000000000E+00 0. -1.
         25    2    1    2    0    0  0.49478351814E+02 -0.54731238356E+01 -0.18466909066E+02  0.13588167273E+03  0.12507893456E+03 0.  0.
          5    1    3    3  502    0  0.26118738846E+02 -0.52621414293E+02  0.28316876856E+02  0.65349213277E+02  0.41800000000E+01 0.  1.
         -5    1    3    3    0  502  0.23359612968E+02  0.47148290457E+02 -0.46783785922E+02  0.70532459451E+02  0.41800000000E+01 0.  1.
        -11    1    1    2    0    0 -0.36943550256E+01  0.44872617273E+02 -0.20468798335E+03  0.20958141751E+03  0.00000000000E+00 0.  1.
         11    1    1    2    0    0 -0.45783996788E+02 -0.39399493437E+02 -0.21657100637E+03  0.22483659676E+03  0.00000000000E+00 0. -1.
</event>
<event>
 7    1  0.2900135E-009  0.1023537E+03  0.7561462E-02  0.1275423E+00
          2   -1    0    0  501    0  0.00000000000E+00  0.00000000000E+00  0.24481856888E+03  0.24481856888E+03  0.00000000000E+00 0. -1.
         -2   -1    0    0    0  501 -0.00000000000E+00 -0.00000000000E+00 -0.51899475302E+02  0.51899475302E+02  0.00000000000E+00 0.  1.
         25    2    1    2    0    0 -0.81938667721E+01 -0.17634443463E+01  0.69564512139E+02  0.14337392000E+03  0.12508641172E+03 0.  0.
          5    1    3    3  502    0 -0.48218953669E+02 -0.44473643841E+02  0.27908477558E+02  0.71409579253E+02  0.41800000000E+01 0.  1.
         -5    1    3    3    0  502  0.40025086897E+02  0.42710199495E+02  0.41656034581E+02  0.71964340746E+02  0.41800000000E+01 0.  1.
        -11    1    1    2    0    0 -0.33768669919E+02  0.14043404129E+02  0.93508412777E+02  0.10040599348E+03  0.00000000000E+00 0. -1.
         11    1    1    2    0    0  0.41962536691E+02 -0.12279959782E+02  0.29846168660E+02  0.52938130695E+02  0.00000000000E+00 0.  1.
</event>
<event>
 7    1  0.2900135E-009  0.7795357E+02  0.7561462E-02  0.1334961E+00
          3   -1    0    0  501    0  0.00000000000E+00  0.00000000000E+00  0.20848958925E+03  0.20848958925E+03  0.00000000000E+00 0. -1.
         -3   -1    0    0    0  501 -0.00000000000E+00 -0.00000000000E+00 -0.62205414884E+02  0.62205414884E+02  0.00000000000E+00 0.  1.
         25    2    1    2    0    0  0.32256961686E+02 -0.12073705179E+02  0.63174539771E+02  0.14430802252E+03  0.12508995545E+03 0.  0.
          5    1    3    3  502    0 -0.11048928416E+02 -0.26703735217E+02  0.87581802227E+02  0.92321247690E+02  0.41800000000E+01 0.  1.
         -5    1    3    3    0  502  0.43305890102E+02  0.14630030038E+02 -0.24407262456E+02  0.51986774828E+02  0.41800000000E+01 0.  1.
        -11    1    1    2    0    0 -0.11401023974E+02 -0.30955811634E+02  0.30433737080E+01  0.33128654441E+02  0.00000000000E+00 0.  1.
         11    1    1    2    0    0 -0.20855937712E+02  0.43029516813E+02  0.80066260889E+02  0.93258327177E+02  0.00000000000E+00 0. -1.
</event>
<event>
 7    1  0.4169739E-009  0.1866595E+03  0.7561462E-02  0.1161509E+00
         -2   -1    0    0    0  501 -0.00000000000E+00  0.00000000000E+00  0.13893718202E+03  0.13893718202E+03  0.00000000000E+00 0.  1.
          2   -1    0    0  501    0  0.00000000000E+00 -0.00000000000E+00 -0.28040956342E+03  0.28040956342E+03  0.00000000000E+00 0. -1.
         25    2    1    2    0    0 -0.14103187909E+03 -0.72672935296E+02 -0.12141109938E+03  0.23570956662E+03  0.12508796225E+03 0.  0.
          5    1    3    3  502    0 -0.24310452231E+02  0.31518699113E+02 -0.48961587336E+02  0.63238721650E+02  0.41800000000E+01 0.  1.
         -5    1    3    3    0  502 -0.11672142686E+03 -0.10419163441E+03 -0.72449512044E+02  0.17247084497E+03  0.41800000000E+01 0.  1.
        -11    1    1    2    0    0  0.47871477876E+02  0.68442692558E+02 -0.32361423382E+02  0.89573111378E+02  0.00000000000E+00 0.  1.
         11    1    1    2    0    0  0.93160401212E+02  0.42302427386E+01  0.12300141363E+02  0.94064067450E+02  0.00000000000E+00 0. -1.
</event>
<event>
 7    1  0.2900135E-009  0.1350853E+03  0.7561462E-02  0.1220099E+00
         -2   -1    0    0    0  501 -0.00000000000E+00  0.00000000000E+00  0.29521379910E+02  0.29521379910E+02  0.00000000000E+00 0. -1.
          2   -1    0    0  501    0  0.00000000000E+00 -0.00000000000E+00 -0.76708691117E+03  0.76708691117E+03  0.00000000000E+00 0.  1.
         25    2    1    2    0    0  0.87070641018E+02 -0.54111918034E+02 -0.42747952314E+03  0.45705123571E+03  0.12509073967E+03 0.  0.
          5    1    3    3  502    0  0.25574252277E+02  0.37392490291E+02 -0.18726226999E+03  0.19270929109E+03  0.41800000000E+01 0.  1.
         -5    1    3    3    0  502  0.61496388742E+02 -0.91504408325E+02 -0.24021725315E+03  0.26434194462E+03  0.41800000000E+01 0.  1.
        -11    1    1    2    0    0 -0.57396713508E+02  0.58506395099E+01 -0.25160084552E+03  0.25813097096E+03  0.00000000000E+00 0.  1.
         11    1    1    2    0    0 -0.29673927511E+02  0.48261278524E+02 -0.58485162598E+02  0.81426084413E+02  0.00000000000E+00 0. -1.
</event>
<event>
 7    1  0.2900135E-009  0.1144969E+03  0.7561462E-02  0.1252462E+00
          2   -1    0    0  501    0  0.00000000000E+00  0.00000000000E+00  0.15164189397E+03  0.15164189397E+03  0.00000000000E+00 0. -1.
         -2   -1    0    0    0  501 -0.00000000000E+00 -0.00000000000E+00 -0.92275527439E+02  0.92275527439E+02  0.00000000000E+00 0.  1.
         25    2    1    2    0    0  0.17244512322E+02 -0.33252831028E+02  0.57095546189E+02  0.14249665305E+03  0.12506906396E+03 0.  0.
          5    1    3    3  502    0  0.42378044594E+02 -0.70664915134E+02  0.22474465572E+02  0.85510250247E+02  0.41800000000E+01 0. -1.
         -5    1    3    3    0  502 -0.25133532272E+02  0.37412084107E+02  0.34621080616E+02  0.56986402805E+02  0.41800000000E+01 0. -1.
        -11    1    1    2    0    0 -0.88111505020E+01  0.66420692275E+02  0.42758405152E+01  0.67138867637E+02  0.00000000000E+00 0.  1.
         11    1    1    2    0    0 -0.84333618201E+01 -0.33167861247E+02 -0.20050201696E+01  0.34281900723E+02  0.00000000000E+00 0. -1.
</event>
<event>
 7    1  0.2900135E-009  0.9965859E+02  0.7561462E-02  0.1281016E+00
         -2   -1    0    0    0  501 -0.00000000000E+00  0.00000000000E+00  0.16583411244E+02  0.16583411244E+02  0.00000000000E+00 0.  1.
          2   -1    0    0  501    0  0.00000000000E+00 -0.00000000000E+00 -0.10485574714E+04  0.10485574714E+04  0.00000000000E+00 0. -1.
         25    2    1    2    0    0 -0.51161030176E+02  0.13148757313E+02 -0.77735305135E+03  0.78912292796E+03  0.12508752201E+03 0.  0.
          5    1    3    3  502    0 -0.50961525772E+02  0.61068418246E+02 -0.34359488064E+03  0.35270574594E+03  0.41800000000E+01 0. -1.
         -5    1    3    3    0  502 -0.19950440349E+00 -0.47919660932E+02 -0.43375817071E+03  0.43641718202E+03  0.41800000000E+01 0. -1.
        -11    1    1    2    0    0  0.27912325977E+01 -0.22185019742E+02 -0.68174679387E+01  0.23376140602E+02  0.00000000000E+00 0.  1.
         11    1    1    2    0    0  0.48369797578E+02  0.90362624287E+01 -0.24780354088E+03  0.25264181409E+03  0.00000000000E+00 0. -1.
</event>
<event>
 7    1  0.2900135E-009  0.1293527E+03  0.7561462E-02  0.1228419E+00
          1   -1    0    0  501    0  0.00000000000E+00  0.00000000000E+00  0.20016473248E+03  0.20016473248E+03  0.00000000000E+00 0. -1.
         -1   -1    0    0    0  501 -0.00000000000E+00 -0.00000000000E+00 -0.89730694887E+02  0.89730694887E+02  0.00000000000E+00 0.  1.
         25    2    1    2    0    0  0.56199308394E+01 -0.72020640521E+02  0.31773447619E+02  0.14790630259E+03  0.12509263003E+03 0.  0.
          5    1    3    3  502    0  0.45635434255E+02  0.13034731369E+02  0.24394686725E+02  0.53526350725E+02  0.41800000000E+01 0. -1.
         -5    1    3    3    0  502 -0.40015503416E+02 -0.85055371890E+02  0.73787608936E+01  0.94379951861E+02  0.41800000000E+01 0. -1.
        -11    1    1    2    0    0 -0.46130792724E+02  0.57985332327E+02  0.59498136776E+02  0.95028296219E+02  0.00000000000E+00 0. -1.
         11    1    1    2    0    0  0.40510861885E+02  0.14035308194E+02  0.19162453200E+02  0.46960828564E+02  0.00000000000E+00 0.  1.
</event>
<event>
 7    1  0.2900135E-009  0.9559144E+02  0.7561462E-02  0.1289850E+00
         -1   -1    0    0    0  501 -0.00000000000E+00  0.00000000000E+00  0.12638993488E+03  0.12638993488E+03  0.00000000000E+00 0.  1.
          1   -1    0    0  501    0  0.00000000000E+00 -0.00000000000E+00 -0.12261691594E+03  0.12261691594E+03  0.00000000000E+00 0. -1.
         25    2    1    2    0    0  0.53042748384E+02  0.31431829619E+02 -0.13041150393E+02  0.14005553943E+03  0.12507593474E+03 0.  0.
          5    1    3    3  502    0  0.83662202464E+02  0.10737405094E+02  0.23762818885E+02  0.87731408005E+02  0.41800000000E+01 0.  1.
         -5    1    3    3    0  502 -0.30619454079E+02  0.20694424525E+02 -0.36803969278E+02  0.52324131423E+02  0.41800000000E+01 0.  1.
        -11    1    1    2    0    0 -0.26561355626E+02 -0.33758415596E+02  0.50333006477E+02  0.66170596017E+02  0.00000000000E+00 0.  1.
         11    1    1    2    0    0 -0.26481392758E+02  0.23265859770E+01 -0.33518837142E+02  0.42780715376E+02  0.00000000000E+00 0. -1.
</event>
<event>
 7    1  0.2900135E-009  0.9790595E+02  0.7561462E-02  0.1284762E+00
          3   -1    0    0  501    0  0.00000000000E+00  0.00000000000E+00  0.20849513667E+03  0.20849513667E+03  0.00000000000E+00 0. -1.
         -3   -1    0    0    0  501 -0.00000000000E+00 -0.00000000000E+00 -0.62119678147E+02  0.62119678147E+02  0.00000000000E+00 0.  1.
         25    2    1    2    0    0 -0.21047750529E+02  0.19617569957E+02  0.49163464956E+02  0.13745059258E+03  0.12509101590E+03 0.  0.
          5    1    3    3  502    0 -0.61050618777E+02  0.20917285435E+02 -0.10467466214E+02  0.65511458021E+02  0.41800000000E+01 0. -1.
         -5    1    3    3    0  502  0.40002868248E+02 -0.12997154781E+01  0.59630931170E+02  0.71939134556E+02  0.41800000000E+01 0. -1.
        -11    1    1    2    0    0  0.26943341030E+02 -0.51689994271E+02  0.59194155506E+02  0.83076754749E+02  0.00000000000E+00 0.  1.
         11    1    1    2    0    0 -0.58955905002E+01  0.32072424314E+02  0.38017838056E+02  0.50087467487E+02  0.00000000000E+00 0. -1.
</event>
<event>
 7    1  0.2900135E-009  0.1540633E+03  0.7561462E-02  0.1195567E+00
          3   -1    0    0  501    0  0.00000000000E+00  0.00000000000E+00  0.66520951679E+02  0.66520951679E+02  0.00000000000E+00 0. -1.
         -3   -1    0    0    0  501 -0.00000000000E+00 -0.00000000000E+00 -0.55992824443E+03  0.55992824443E+03  0.00000000000E+00 0.  1.
         25    2    1    2    0    0  0.57426913623E+01 -0.11897150495E+03 -0.84098009468E+02  0.19211191176E+03  0.12508922395E+03 0.  0.
          5    1    3    3  502    0  0.42996387569E+02  0.46851142801E+01 -0.18976397132E+02  0.47415352872E+02  0.41800000000E+01 0. -1.
         -5    1    3    3    0  502 -0.37253696207E+02 -0.12365661923E+03 -0.65121612337E+02  0.14469655888E+03  0.41800000000E+01 0. -1.
        -11    1    1    2    0    0 -0.34527692831E+02  0.50408355499E+02 -0.10897978659E+03  0.12493901617E+03  0.00000000000E+00 0. -1.
         11    1    1    2    0    0  0.28785001468E+02  0.68563149447E+02 -0.30032949669E+03  0.30939826818E+03  0.00000000000E+00 0.  1.
</event>
<event>
 7    1  0.2900135E-009  0.1315138E+03  0.7561462E-02  0.1225227E+00
         -3   -1    0    0    0  501 -0.00000000000E+00  0.00000000000E+00  0.15715392494E+03  0.15715392494E+03  0.00000000000E+00 0.  1.
          3   -1    0    0  501    0  0.00000000000E+00 -0.00000000000E+00 -0.16458950753E+03  0.16458950753E+03  0.00000000000E+00 0. -1.
         25    2    1    2    0    0  0.67524232548E+02  0.85297108813E+02 -0.50547399524E+02  0.17331349195E+03  0.12508960045E+03 0.  0.
          5    1    3    3  502    0  0.12718299112E+02  0.59155089298E+02  0.33696263651E+02  0.69382925178E+02  0.41800000000E+01 0. -1.
         -5    1    3    3    0  502  0.54805933436E+02  0.26142019515E+02 -0.84243663175E+02  0.10393056677E+03  0.41800000000E+01 0. -1.
        -11    1    1    2    0    0 -0.79250251710E+02 -0.29606822350E+02  0.19522067132E+02  0.86823253976E+02  0.00000000000E+00 0.  1.
         11    1    1    2    0    0  0.11726019162E+02 -0.55690286462E+02  0.23589749801E+02  0.61606686547E+02  0.00000000000E+00 0. -1.
</event>
<event>
 7    1  0.2900135E-009  0.9563061E+02  0.7561462E-02  0.1289762E+00
         -2   -1    0    0    0  501 -0.00000000000E+00  0.00000000000E+00  0.48225720268E+03  0.48225720268E+03  0.00000000000E+00 0.  1.
          2   -1    0    0  501    0  0.00000000000E+00 -0.00000000000E+00 -0.35933017051E+02  0.35933017051E+02  0.00000000000E+00 0. -1.
         25    2    1    2    0    0  0.42999408783E+00 -0.19597210741E+02  0.10389847121E+03  0.16378904476E+03  0.12509086019E+03 0.  0.
          5    1    3    3  502    0 -0.43329654728E+02  0.15258568847E+02  0.96815684011E+02  0.10724286444E+03  0.41800000000E+01 0.  1.
         -5    1    3    3    0  502  0.43759648816E+02 -0.34855779588E+02  0.70827871947E+01  0.56546180328E+02  0.41800000000E+01 0.  1.
        -11    1    1    2    0    0 -0.42740752555E+02  0.83569477896E+00  0.20438459681E+03  0.20880740822E+03  0.00000000000E+00 0.  1.
         11    1    1    2    0    0  0.42310758467E+02  0.18761515962E+02  0.13804111761E+03  0.14559376675E+03  0.00000000000E+00 0. -1.
</event>
<event>
 7    1  0.2900135E-009  0.2558622E+03  0.7561462E-02  0.1109655E+00
         -2   -1    0    0    0  501 -0.00000000000E+00  0.00000000000E+00  0.56507070721E+02  0.56507070721E+02  0.00000000000E+00 0.  1.
          2   -1    0    0  501    0  0.00000000000E+00 -0.00000000000E+00 -0.12543956292E+04  0.12543956292E+04  0.00000000000E+00 0. -1.
         25    2    1    2    0    0  0.13104879333E+03  0.20425267215E+03 -0.63982118879E+03  0.69563368871E+03  0.12506852096E+03 0.  0.
          5    1    3    3  502    0  0.64948584436E+02  0.19043384799E+03 -0.52649589015E+03  0.56364773026E+03  0.41800000000E+01 0.  1.
         -5    1    3    3    0  502  0.66100208895E+02  0.13818824154E+02 -0.11332529863E+03  0.13198595845E+03  0.41800000000E+01 0.  1.
        -11    1    1    2    0    0 -0.11308027516E+03 -0.18119465879E+03 -0.38979044147E+03  0.44447186780E+03  0.00000000000E+00 0.  1.
         11    1    1    2    0    0 -0.17968518173E+02 -0.23058013352E+02 -0.16827692819E+03  0.17079714338E+03  0.00000000000E+00 0. -1.
</event>
<event>
 7    1  0.2900135E-009  0.1125512E+03  0.7561462E-02  0.1255917E+00
         -2   -1    0    0    0  501 -0.00000000000E+00  0.00000000000E+00  0.56697469773E+02  0.56697469773E+02  0.00000000000E+00 0.  1.
          2   -1    0    0  501    0  0.00000000000E+00 -0.00000000000E+00 -0.42785402286E+03  0.42785402286E+03  0.00000000000E+00 0. -1.
         25    2    1    2    0    0 -0.20321359923E+01  0.37519810623E+02 -0.36151347717E+02  0.13552308774E+03  0.12509085339E+03 0.  0.
          5    1    3    3  502    0 -0.60553871422E+02  0.24220615296E+01 -0.27250754953E+02  0.66578628492E+02  0.41800000000E+01 0.  1.
         -5    1    3    3    0  502  0.58521735430E+02  0.35097749094E+02 -0.89005927637E+01  0.68944459246E+02  0.41800000000E+01 0.  1.
        -11    1    1    2    0    0 -0.34622398550E+02  0.99410072494E+01 -0.93750567253E+02  0.10043257921E+03  0.00000000000E+00 0.  1.
         11    1    1    2    0    0  0.36654534542E+02 -0.47460817873E+02 -0.24125463811E+03  0.24859582568E+03  0.00000000000E+00 0. -1.
</event>
<event>
 7    1  0.2900135E-009  0.1041799E+03  0.7561462E-02  0.1271744E+00
         -2   -1    0    0    0  501 -0.00000000000E+00  0.00000000000E+00  0.15187843211E+03  0.15187843211E+03  0.00000000000E+00 0.  1.
          2   -1    0    0  501    0  0.00000000000E+00 -0.00000000000E+00 -0.15168264934E+03  0.15168264934E+03  0.00000000000E+00 0. -1.
         25    2    1    2    0    0  0.96063103841E+02 -0.26648830432E+02  0.38898055187E+02  0.16461649071E+03  0.12508896928E+03 0.  0.
          5    1    3    3  502    0  0.77761165733E+02 -0.19866444434E+02  0.83413444457E+02  0.11583069380E+03  0.41800000000E+01 0.  1.
         -5    1    3    3    0  502  0.18301938107E+02 -0.67823859983E+01 -0.44515389270E+02  0.48785796911E+02  0.41800000000E+01 0.  1.
        -11    1    1    2    0    0 -0.57705711912E+02 -0.55213820083E+01  0.20432407219E+02  0.61464771303E+02  0.00000000000E+00 0.  1.
         11    1    1    2    0    0 -0.38357391929E+02  0.32170212440E+02 -0.59134679631E+02  0.77479819431E+02  0.00000000000E+00 0. -1.
</event>
<event>
 7    1  0.2900135E-009  0.1159079E+03  0.7561462E-02  0.1250005E+00
         -1   -1    0    0    0  501 -0.00000000000E+00  0.00000000000E+00  0.16743755071E+03  0.16743755071E+03  0.00000000000E+00 0.  1.
          1   -1    0    0  501    0  0.00000000000E+00 -0.00000000000E+00 -0.11144698497E+03  0.11144698497E+03  0.00000000000E+00 0. -1.
         25    2    1    2    0    0 -0.57237303855E+02 -0.31625410074E+02 -0.22983403057E+02  0.14301819083E+03  0.12509872332E+03 0.  0.
          5    1    3    3  502    0 -0.60618587141E+02 -0.74764755258E+02 -0.24882220839E+02  0.99503663499E+02  0.41800000000E+01 0.  1.
         -5    1    3    3    0  502  0.33812832862E+01  0.43139345185E+02  0.18988177821E+01  0.43514527328E+02  0.41800000000E+01 0.  1.
        -11    1    1    2    0    0  0.29044559521E+02  0.50370618574E+02  0.99545307427E+01  0.58990493603E+02  0.00000000000E+00 0. -1.
         11    1    1    2    0    0  0.28192744334E+02 -0.18745208500E+02  0.69019438057E+02  0.76875851244E+02  0.00000000000E+00 0.  1.
</event>
<event>
 7    1  0.2900135E-009  0.1155970E+03  0.7561462E-02  0.1250543E+00
          2   -1    0    0  501    0  0.00000000000E+00  0.00000000000E+00  0.44307001980E+03  0.44307001980E+03  0.00000000000E+00 0. -1.
         -2   -1    0    0    0  501 -0.00000000000E+00 -0.00000000000E+00 -0.40559393534E+02  0.40559393534E+02  0.00000000000E+00 0.  1.
         25    2    1    2    0    0 -0.72242984581E+02 -0.16382087978E+02  0.18979881116E+03  0.23907856533E+03  0.12509016769E+03 0.  0.
          5    1    3    3  502    0 -0.21419910176E+02 -0.46734763807E+02  0.13871841000E+02  0.53412087328E+02  0.41800000000E+01 0. -1.
         -5    1    3    3    0  502 -0.50823074404E+02  0.30352675829E+02  0.17592697016E+03  0.18566647800E+03  0.41800000000E+01 0. -1.
        -11    1    1    2    0    0  0.85824500075E+02  0.38698876500E+02  0.15801335936E+03  0.18393387287E+03  0.00000000000E+00 0. -1.
         11    1    1    2    0    0 -0.13581515494E+02 -0.22316788522E+02  0.54698455742E+02  0.60616975127E+02  0.00000000000E+00 0.  1.
</event>
<event>
 7    1  0.2900135E-009  0.4913273E+03  0.7561462E-02  0.1016068E+00
          1   -1    0    0  501    0  0.00000000000E+00  0.00000000000E+00  0.63572937917E+03  0.63572937917E+03  0.00000000000E+00 0. -1.
         -1   -1    0    0    0  501 -0.00000000000E+00 -0.00000000000E+00 -0.43869669158E+03  0.43869669158E+03  0.00000000000E+00 0.  1.
         25    2    1    2    0    0  0.39540493407E+03 -0.28413193049E+03 -0.81342077337E+02  0.50925380849E+03  0.12508753777E+03 0.  0.
          5    1    3    3  502    0  0.20748233741E+03 -0.10878888701E+03 -0.92617172029E+02  0.25195109690E+03  0.41800000000E+01 0.  1.
         -5    1    3    3    0  502  0.18792259665E+03 -0.17534304348E+03  0.11275094692E+02  0.25730271159E+03  0.41800000000E+01 0.  1.
        -11    1    1    2    0    0 -0.29419170933E+02  0.46161305606E+02  0.22676432578E+02  0.59250099984E+02  0.00000000000E+00 0.  1.
         11    1    1    2    0    0 -0.36598576313E+03  0.23797062489E+03  0.25569833235E+03  0.50592216229E+03  0.00000000000E+00 0. -1.
</event>
<event>
 7    1  0.2900135E-009  0.1242419E+03  0.7561462E-02  0.1236259E+00
         -2   -1    0    0    0  501 -0.00000000000E+00  0.00000000000E+00  0.40821638341E+02  0.40821638341E+02  0.00000000000E+00 0.  1.
          2   -1    0    0  501    0  0.00000000000E+00 -0.00000000000E+00 -0.38645343118E+03  0.38645343118E+03  0.00000000000E+00 0. -1.
         25    2    1    2    0    0  0.16663899809E+02  0.69192977020E+02 -0.19827294185E+03  0.24500108739E+03  0.12509204501E+03 0.  0.
          5    1    3    3  502    0  0.62111982989E+02  0.28851328285E+01 -0.71679754633E+02  0.94982535481E+02  0.41800000000E+01 0. -1.
         -5    1    3    3    0  502 -0.45448083180E+02  0.66307844191E+02 -0.12659318722E+03  0.15001855191E+03  0.41800000000E+01 0. -1.
        -11    1    1    2    0    0 -0.16971336627E+01 -0.84349746829E+02 -0.10360443799E+03  0.13361002816E+03  0.00000000000E+00 0. -1.
         11    1    1    2    0    0 -0.14966766146E+02  0.15156769810E+02 -0.43754412994E+02  0.48663953974E+02  0.00000000000E+00 0.  1.
</event>
<event>
 7    1  0.2900135E-009  0.1371388E+03  0.7561462E-02  0.1217232E+00
         -2   -1    0    0    0  501 -0.00000000000E+00  0.00000000000E+00  0.57568394922E+03  0.57568394922E+03  0.00000000000E+00 0.  1.
          2   -1    0    0  501    0  0.00000000000E+00 -0.00000000000E+00 -0.50169476459E+02  0.50169476459E+02  0.00000000000E+00 0. -1.
         25    2    1    2    0    0  0.70356955526E+02  0.72795048695E+02  0.12711712738E+03  0.20507464171E+03  0.12509046444E+03 0.  0.
          5    1    3    3  502    0  0.94800400421E+02  0.42788454387E+02  0.12941025316E+03  0.16607966092E+03  0.41800000000E+01 0. -1.
         -5    1    3    3    0  502 -0.24443444895E+02  0.30006594308E+02 -0.22931257882E+01  0.38994980782E+02  0.41800000000E+01 0. -1.
        -11    1    1    2    0    0 -0.59207297260E+02 -0.16365265358E+01  0.23239255103E+03  0.23982176724E+03  0.00000000000E+00 0.  1.
         11    1    1    2    0    0 -0.11149658266E+02 -0.71158522159E+02  0.16600479435E+03  0.18095701672E+03  0.00000000000E+00 0. -1.
</event>
<event>
 7    1  0.2900135E-009  0.1522664E+03  0.7561462E-02  0.1197715E+00
          2   -1    0    0  501    0  0.00000000000E+00  0.00000000000E+00  0.26165605843E+03  0.26165605843E+03  0.00000000000E+00 0. -1.
         -2   -1    0    0    0  501 -0.00000000000E+00 -0.00000000000E+00 -0.10847016996E+03  0.10847016996E+03  0.00000000000E+00 0.  1.
         25    2    1    2    0    0  0.25333916911E+02  0.12396465516E+03  0.55513916144E+02  0.18638530933E+03  0.12509454654E+03 0.  0.
          5    1    3    3  502    0 -0.55264619741E+01 -0.24753752308E+02  0.44327732685E+01  0.26084706518E+02  0.41800000000E+01 0. -1.
         -5    1    3    3    0  502  0.30860378885E+02  0.14871840747E+03  0.51081142875E+02  0.16030060282E+03  0.41800000000E+01 0. -1.
        -11    1    1    2    0    0 -0.15418055030E+02 -0.51958157730E+02  0.96927673318E+02  0.11105107127E+03  0.00000000000E+00 0. -1.
         11    1    1    2    0    0 -0.99158618806E+01 -0.72006497434E+02  0.74429901072E+00  0.72689847782E+02  0.00000000000E+00 0.  1.
</event>
<event>
 7    1  0.2900135E-009  0.1120872E+03  0.7561462E-02  0.1256753E+00
          2   -1    0    0  501    0  0.00000000000E+00  0.00000000000E+00  0.28078334262E+03  0.28078334262E+03  0.00000000000E+00 0. -1.
         -2   -1    0    0    0  501 -0.00000000000E+00 -0.00000000000E+00 -0.67410382572E+02  0.67410382572E+02  0.00000000000E+00 0.  1.
         25    2    1    2    0    0  0.62069778276E+02  0.25606503118E+02  0.51973838056E+02  0.15118542683E+03  0.12508958017E+03 0.  0.
          5    1    3    3  502    0  0.29703122897E+01 -0.43666652816E+02  0.39645852267E+02  0.59201903055E+02  0.41800000000E+01 0.  1.
         -5    1    3    3    0  502  0.59099465986E+02  0.69273155935E+02  0.12327985789E+02  0.91983523778E+02  0.41800000000E+01 0.  1.
        -11    1    1    2    0    0  0.23502451735E+01 -0.24512265028E+02  0.11500915826E+03  0.11761582067E+03  0.00000000000E+00 0. -1.
         11    1    1    2    0    0 -0.64420023450E+02 -0.10942380907E+01  0.46389963735E+02  0.79392477689E+02  0.00000000000E+00 0.  1.
</event>
<event>
 7    1  0.2900135E-009  0.1338201E+03  0.7561462E-02  0.1221895E+00
         -3   -1    0    0    0  501 -0.00000000000E+00  0.00000000000E+00  0.14830206124E+03  0.14830206124E+03  0.00000000000E+00 0.  1.
          3   -1    0    0  501    0  0.00000000000E+00 -0.00000000000E+00 -0.19255371859E+03  0.19255371859E+03  0.00000000000E+00 0. -1.
         25    2    1    2    0    0  0.78464055387E+02  0.93634087383E+02  0.20891131510E+02  0.17609013774E+03  0.12508935577E+03 0.  0.
          5    1    3    3  502    0  0.28943167468E+02  0.55024192863E+02 -0.51016467851E+02  0.80532733316E+02  0.41800000000E+01 0. -1.
         -5    1    3    3    0  502  0.49520887919E+02  0.38609894520E+02  0.71907599361E+02  0.95557404428E+02  0.41800000000E+01 0. -1.
        -11    1    1    2    0    0  0.28104537993E+01 -0.50132010262E+02  0.27377660149E+01  0.50285310640E+02  0.00000000000E+00 0.  1.
         11    1    1    2    0    0 -0.81274509186E+02 -0.43502077122E+02 -0.67880554881E+02  0.11448033145E+03  0.00000000000E+00 0. -1.
</event>
<event>
 7    1  0.2900135E-009  0.1305674E+03  0.7561462E-02  0.1226616E+00
         -1   -1    0    0    0  501 -0.00000000000E+00  0.00000000000E+00  0.10403742592E+04  0.10403742592E+04  0.00000000000E+00 0.  1.
          1   -1    0    0  501    0  0.00000000000E+00 -0.00000000000E+00 -0.19681572583E+02  0.19681572583E+02  0.00000000000E+00 0. -1.
         25    2    1    2    0    0 -0.93351201858E+02 -0.62537274265E+01  0.62289686036E+03  0.64217383066E+03  0.12503269230E+03 0.  0.
          5    1    3    3  502    0 -0.94753826476E+02 -0.48347293169E+02  0.34436896517E+03  0.36044861626E+03  0.41800000000E+01 0. -1.
         -5    1    3    3    0  502  0.14026246178E+01  0.42093565742E+02  0.27852789519E+03  0.28172521440E+03  0.41800000000E+01 0. -1.
        -11    1    1    2    0    0  0.84476829338E+02  0.27894900772E+02  0.37430559286E+03  0.38473255260E+03  0.00000000000E+00 0.  1.
         11    1    1    2    0    0  0.88743725193E+01 -0.21641173345E+02  0.23490233353E+02  0.33149448477E+02  0.00000000000E+00 0. -1.
</event>
<event>
 7    1  0.2900135E-009  0.1161374E+03  0.7561462E-02  0.1249609E+00
         -1   -1    0    0    0  501 -0.00000000000E+00  0.00000000000E+00  0.35739547014E+03  0.35739547014E+03  0.00000000000E+00 0.  1.
          1   -1    0    0  501    0  0.00000000000E+00 -0.00000000000E+00 -0.38781274243E+02  0.38781274243E+02  0.00000000000E+00 0. -1.
         25    2    1    2    0    0 -0.15652808917E+02 -0.43411185308E+02  0.18593541063E+03  0.22880107109E+03  0.12509361202E+03 0.  0.
          5    1    3    3  502    0  0.53243447879E+02 -0.29140753870E+02  0.10608880283E+03  0.12229617641E+03  0.41800000000E+01 0. -1.
         -5    1    3    3    0  502 -0.68896256796E+02 -0.14270431438E+02  0.79846607803E+02  0.10650489468E+03  0.41800000000E+01 0. -1.
        -11    1    1    2    0    0 -0.30220850022E+02 -0.87757017976E+01  0.30605908383E+02  0.43897999340E+02  0.00000000000E+00 0.  1.
         11    1    1    2    0    0  0.45873658939E+02  0.52186887106E+02  0.10207287688E+03  0.12347767396E+03  0.00000000000E+00 0. -1.
</event>
<event>
 7    1  0.2900135E-009  0.9217170E+02  0.7561462E-02  0.1297676E+00
         -2   -1    0    0    0  501 -0.00000000000E+00  0.00000000000E+00  0.44564622997E+02  0.44564622997E+02  0.00000000000E+00 0.  1.
          2   -1    0    0  501    0  0.00000000000E+00 -0.00000000000E+00 -0.29216669276E+03  0.29216669276E+03  0.00000000000E+00 0. -1.
         25    2    1    2    0    0 -0.18344429706E+02 -0.57687811008E+02 -0.12400740934E+03  0.18625228739E+03  0.12509066850E+03 0.  0.
          5    1    3    3  502    0 -0.19949609753E+02  0.16044426117E+02  0.14178508802E+02  0.29562020408E+02  0.41800000000E+01 0.  1.
         -5    1    3    3    0  502  0.16051800473E+01 -0.73732237125E+02 -0.13818591814E+03  0.15669026698E+03  0.41800000000E+01 0.  1.
        -11    1    1    2    0    0 -0.19809520518E+02  0.34799249522E+02 -0.71686570406E+02  0.82111931210E+02  0.00000000000E+00 0. -1.
         11    1    1    2    0    0  0.38153950224E+02  0.22888561486E+02 -0.51908090023E+02  0.68367097162E+02  0.00000000000E+00 0.  1.
</event>
<event>
 7    1  0.2900135E-009  0.9250562E+02  0.7561462E-02  0.1296895E+00
          1   -1    0    0  501    0  0.00000000000E+00  0.00000000000E+00  0.11911426959E+03  0.11911426959E+03  0.00000000000E+00 0. -1.
         -1   -1    0    0    0  501 -0.00000000000E+00 -0.00000000000E+00 -0.14999118857E+03  0.14999118857E+03  0.00000000000E+00 0.  1.
         25    2    1    2    0    0  0.86340165545E+01 -0.79858134810E+01 -0.91855909355E+02  0.15563087090E+03  0.12508053579E+03 0.  0.
          5    1    3    3  502    0  0.19349565627E+02 -0.62592176299E+02 -0.29563071259E+02  0.71997456942E+02  0.41800000000E+01 0. -1.
         -5    1    3    3    0  502 -0.10715549073E+02  0.54606362818E+02 -0.62292838096E+02  0.83633413958E+02  0.41800000000E+01 0. -1.
        -11    1    1    2    0    0 -0.24776462020E+02 -0.19603521659E+02 -0.12004891000E+02  0.33797759387E+02  0.00000000000E+00 0.  1.
         11    1    1    2    0    0  0.16142445465E+02  0.27589335140E+02  0.72983881375E+02  0.79676827871E+02  0.00000000000E+00 0. -1.
</event>
<event>
 7    1  0.2900135E-009  0.1248295E+03  0.7561462E-02  0.1235336E+00
          1   -1    0    0  501    0  0.00000000000E+00  0.00000000000E+00  0.13400302163E+03  0.13400302163E+03  0.00000000000E+00 0. -1.
         -1   -1    0    0    0  501 -0.00000000000E+00 -0.00000000000E+00 -0.15930378410E+03  0.15930378410E+03  0.00000000000E+00 0.  1.
         25    2    1    2    0    0 -0.72331787856E+02 -0.53311134257E+02 -0.50610974286E+02  0.16212611738E+03  0.12509773239E+03 0.  0.
          5    1    3    3  502    0 -0.10457264355E+03 -0.20834899151E+02 -0.25317176245E+02  0.10967206852E+03  0.41800000000E+01 0. -1.
         -5    1    3    3    0  502  0.32240855691E+02 -0.32476235105E+02 -0.25293798041E+02  0.52454048858E+02  0.41800000000E+01 0. -1.
        -11    1    1    2    0    0  0.35616491399E+02  0.48193475696E+02 -0.28083266068E+02  0.66180173710E+02  0.00000000000E+00 0.  1.
         11    1    1    2    0    0  0.36715296457E+02  0.51176585605E+01  0.53393477883E+02  0.65000514640E+02  0.00000000000E+00 0. -1.
</event>
<event>
 7    1  0.2900135E-009  0.1922466E+03  0.7561462E-02  0.1156451E+00
          2   -1    0    0  501    0  0.00000000000E+00  0.00000000000E+00  0.62240374372E+03  0.62240374372E+03  0.00000000000E+00 0. -1.
         -2   -1    0    0    0  501 -0.00000000000E+00 -0.00000000000E+00 -0.10335367937E+03  0.10335367937E+03  0.00000000000E+00 0.  1.
         25    2    1    2    0    0  0.10848534053E+02 -0.18414625415E+03  0.46039891093E+03  0.51151377925E+03  0.12510657684E+03 0.  0.
          5    1    3    3  502    0  0.33542203687E+02 -0.44116852030E+02  0.26048442999E+03  0.26634749243E+03  0.41800000000E+01 0.  1.
         -5    1    3    3    0  502 -0.22693669634E+02 -0.14002940212E+03  0.19991448094E+03  0.24516628681E+03  0.41800000000E+01 0.  1.
        -11    1    1    2    0    0 -0.14633366336E+02  0.36797685322E+02 -0.22945907719E+02  0.45768108290E+02  0.00000000000E+00 0.  1.
         11    1    1    2    0    0  0.37848322832E+01  0.14734856883E+03  0.81597061140E+02  0.16847553555E+03  0.00000000000E+00 0. -1.
</event>
<event>
 7    1  0.2900135E-009  0.1471795E+03  0.7561462E-02  0.1203982E+00
         -3   -1    0    0    0  501 -0.00000000000E+00  0.00000000000E+00  0.55746576906E+02  0.55746576906E+02  0.00000000000E+00 0.  1.
          3   -1    0    0  501    0  0.00000000000E+00 -0.00000000000E+00 -0.12135578324E+04  0.12135578324E+04  0.00000000000E+00 0. -1.
         25    2    1    2    0    0 -0.25174992547E+02  0.11651109012E+03 -0.10914237424E+04  0.11050166205E+04  0.12508929518E+03 0.  0.
          5    1    3    3  502    0 -0.23010436294E+02 -0.21243814917E+02 -0.30218874698E+03  0.30383596076E+03  0.41800000000E+01 0.  1.
         -5    1    3    3    0  502 -0.21645562532E+01  0.13775490504E+03 -0.78923499538E+03  0.80118065971E+03  0.41800000000E+01 0.  1.
        -11    1    1    2    0    0 -0.60872338676E+01 -0.60319746898E+02  0.13122551663E+02  0.62030054362E+02  0.00000000000E+00 0.  1.
         11    1    1    2    0    0  0.31262226415E+02 -0.56191343226E+02 -0.79510064778E+02  0.10225773445E+03  0.00000000000E+00 0. -1.
</event>
<event>
 7    1  0.2900135E-009  0.1378339E+03  0.7561462E-02  0.1216274E+00
         -2   -1    0    0    0  501 -0.00000000000E+00  0.00000000000E+00  0.75746496910E+03  0.75746496910E+03  0.00000000000E+00 0.  1.
          2   -1    0    0  501    0  0.00000000000E+00 -0.00000000000E+00 -0.32528099758E+02  0.32528099758E+02  0.00000000000E+00 0. -1.
         25    2    1    2    0    0 -0.82013632312E+02  0.77789949821E+02  0.36304247037E+03  0.40028615746E+03  0.12510659609E+03 0.  0.
          5    1    3    3  502    0 -0.44139286974E+02 -0.16708074601E+00  0.24203453145E+02  0.50513207329E+02  0.41800000000E+01 0. -1.
         -5    1    3    3    0  502 -0.37874345338E+02  0.77957030567E+02  0.33883901723E+03  0.34977295013E+03  0.41800000000E+01 0. -1.
        -11    1    1    2    0    0  0.29203191969E+02  0.18619128302E+02  0.89662996992E+02  0.96119464155E+02  0.00000000000E+00 0.  1.
         11    1    1    2    0    0  0.52810440343E+02 -0.96409078123E+02  0.27223140198E+03  0.29358744724E+03  0.00000000000E+00 0. -1.
</event>
<event>
 7    1  0.2900135E-009  0.8415352E+02  0.7561462E-02  0.1317661E+00
          2   -1    0    0  501    0  0.00000000000E+00  0.00000000000E+00  0.42559453085E+03  0.42559453085E+03  0.00000000000E+00 0. -1.
         -2   -1    0    0    0  501 -0.00000000000E+00 -0.00000000000E+00 -0.27583287625E+02  0.27583287625E+02  0.00000000000E+00 0.  1.
         25    2    1    2    0    0  0.65455622407E+01 -0.50832624697E+01  0.24536195636E+03  0.27554591406E+03  0.12511745355E+03 0.  0.
          5    1    3    3  502    0 -0.33902213699E+02 -0.20231616794E+02  0.22342136595E+03  0.22692125853E+03  0.41800000000E+01 0.  1.
         -5    1    3    3    0  502  0.40447775940E+02  0.15148354325E+02  0.21940590414E+02  0.48624655525E+02  0.41800000000E+01 0.  1.
        -11    1    1    2    0    0  0.71136343810E+01 -0.38700149677E+02  0.40503183828E+02  0.56469578353E+02  0.00000000000E+00 0. -1.
         11    1    1    2    0    0 -0.13659196622E+02  0.43783412147E+02  0.11214610303E+03  0.12116232606E+03  0.00000000000E+00 0.  1.
</event>
<event>
 7    1  0.2900135E-009  0.1393721E+03  0.7561462E-02  0.1214176E+00
         -1   -1    0    0    0  501 -0.00000000000E+00  0.00000000000E+00  0.27111582580E+02  0.27111582580E+02  0.00000000000E+00 0.  1.
          1   -1    0    0  501    0  0.00000000000E+00 -0.00000000000E+00 -0.73701168831E+03  0.73701168831E+03  0.00000000000E+00 0. -1.
         25    2    1    2    0    0 -0.87961560632E+02  0.14179811767E+02 -0.40072569585E+03  0.42914847885E+03  0.12509608456E+03 0.  0.
          5    1    3    3  502    0 -0.11851436461E+03 -0.12324638797E+01 -0.32439811504E+03  0.34539655909E+03  0.41800000000E+01 0. -1.
         -5    1    3    3    0  502  0.30552803981E+02  0.15412275647E+02 -0.76327580806E+02  0.83751919759E+02  0.41800000000E+01 0. -1.
        -11    1    1    2    0    0  0.65376226784E+02  0.33100047628E+02 -0.14217248318E+03  0.15994586320E+03  0.00000000000E+00 0.  1.
         11    1    1    2    0    0  0.22585333847E+02 -0.47279859395E+02 -0.16700192671E+03  0.17502892885E+03  0.00000000000E+00 0. -1.
</event>
<event>
 7    1  0.2900135E-009  0.1003694E+03  0.7561462E-02  0.1279521E+00
          1   -1    0    0  501    0  0.00000000000E+00  0.00000000000E+00  0.13750891484E+04  0.13750891484E+04  0.00000000000E+00 0. -1.
         -1   -1    0    0    0  501 -0.00000000000E+00 -0.00000000000E+00 -0.11451595125E+02  0.11451595125E+02  0.00000000000E+00 0.  1.
         25    2    1    2    0    0  0.25669308821E+02 -0.13351534692E+02  0.10604557912E+04  0.10681998108E+04  0.12508866353E+03 0.  0.
          5    1    3    3  502    0  0.60661129774E+02  0.24649710560E+02  0.79691476835E+03  0.79961115632E+03  0.41800000000E+01 0. -1.
         -5    1    3    3    0  502 -0.34991820953E+02 -0.38001245252E+02  0.26354102288E+03  0.26858865448E+03  0.41800000000E+01 0. -1.
        -11    1    1    2    0    0 -0.42459772729E+01  0.44936060206E+02  0.79438242194E+02  0.91365815012E+02  0.00000000000E+00 0.  1.
         11    1    1    2    0    0 -0.21423331548E+02 -0.31584525513E+02  0.22374351988E+03  0.22697511774E+03  0.00000000000E+00 0. -1.
</event>
<event>
 7    1  0.2900135E-009  0.1058372E+03  0.7561462E-02  0.1268479E+00
          2   -1    0    0  501    0  0.00000000000E+00  0.00000000000E+00  0.59715912856E+03  0.59715912856E+03  0.00000000000E+00 0. -1.
         -2   -1    0    0    0  501 -0.00000000000E+00 -0.00000000000E+00 -0.22580737083E+02  0.22580737083E+02  0.00000000000E+00 0.  1.
         25    2    1    2    0    0 -0.11504209869E+01  0.44594751660E+02  0.30682208638E+03  0.33432905241E+03  0.12508440050E+03 0.  0.
          5    1    3    3  502    0  0.53743562547E+02 -0.10418843443E+02  0.13224047098E+03  0.14318497609E+03  0.41800000000E+01 0. -1.
         -5    1    3    3    0  502 -0.54893983534E+02  0.55013595102E+02  0.17458161541E+03  0.19114407632E+03  0.41800000000E+01 0. -1.
        -11    1    1    2    0    0  0.21906953942E+02 -0.52377729489E+02  0.25173941990E+03  0.25806215667E+03  0.00000000000E+00 0. -1.
         11    1    1    2    0    0 -0.20756532955E+02  0.77829778297E+01  0.16016885199E+02  0.27348656561E+02  0.00000000000E+00 0.  1.
</event>
<event>
 7    1  0.2900135E-009  0.1101690E+03  0.7561462E-02  0.1260257E+00
         -1   -1    0    0    0  501 -0.00000000000E+00  0.00000000000E+00  0.17210961321E+03  0.17210961321E+03  0.00000000000E+00 0.  1.
          1   -1    0    0  501    0  0.00000000000E+00 -0.00000000000E+00 -0.82529235041E+02  0.82529235041E+02  0.00000000000E+00 0. -1.
         25    2    1    2    0    0 -0.49152238350E+02 -0.21519310916E+01  0.54948108705E+02  0.14520771818E+03  0.12508162706E+03 0.  0.
          5    1    3    3  502    0 -0.40424466928E+02 -0.61420716848E+02  0.22836431336E+02  0.77107826974E+02  0.41800000000E+01 0.  1.
         -5    1    3    3    0  502 -0.87277714223E+01  0.59268785756E+02  0.32111677369E+02  0.68099891207E+02  0.41800000000E+01 0.  1.
        -11    1    1    2    0    0  0.21153506047E+02  0.36582334670E+02  0.47156084303E+02  0.63320094084E+02  0.00000000000E+00 0. -1.
         11    1    1    2    0    0  0.27998732304E+02 -0.34430403579E+02 -0.12523814842E+02  0.46111035983E+02  0.00000000000E+00 0.  1.
</event>
<event>
 7    1  0.2900135E-009  0.1074714E+03  0.7561462E-02  0.1265325E+00
         -2   -1    0    0    0  501 -0.00000000000E+00  0.00000000000E+00  0.30252212858E+02  0.30252212858E+02  0.00000000000E+00 0.  1.
          2   -1    0    0  501    0  0.00000000000E+00 -0.00000000000E+00 -0.41033542153E+03  0.41033542153E+03  0.00000000000E+00 0. -1.
         25    2    1    2    0    0  0.25131025391E+02  0.12557271777E+02 -0.25134324044E+03  0.28214575608E+03  0.12507417657E+03 0.  0.
          5    1    3    3  502    0  0.47358744990E+02  0.56539215017E+02 -0.11091804380E+03  0.13326596866E+03  0.41800000000E+01 0.  1.
         -5    1    3    3    0  502 -0.22227719599E+02 -0.43981943240E+02 -0.14042519664E+03  0.14887978742E+03  0.41800000000E+01 0.  1.
        -11    1    1    2    0    0  0.25886498344E+02  0.18563235857E+02 -0.54634403171E+02  0.63242568985E+02  0.00000000000E+00 0. -1.
         11    1    1    2    0    0 -0.51017523734E+02 -0.31120507634E+02 -0.74105565055E+02  0.95199309322E+02  0.00000000000E+00 0.  1.
</event>
<event>
 7    1  0.2900135E-009  0.1017669E+03  0.7561462E-02  0.1276624E+00
          2   -1    0    0  501    0  0.00000000000E+00  0.00000000000E+00  0.90288445440E+02  0.90288445440E+02  0.00000000000E+00 0. -1.
         -2   -1    0    0    0  501 -0.00000000000E+00 -0.00000000000E+00 -0.14061502575E+03  0.14061502575E+03  0.00000000000E+00 0.  1.
         25    2    1    2    0    0 -0.12522872150E+02 -0.29790861342E+02 -0.19801568609E+02  0.13070459907E+03  0.12508905768E+03 0.  0.
          5    1    3    3  502    0  0.56149222275E+02 -0.19384452952E+02 -0.11217246265E+02  0.60595306684E+02  0.41800000000E+01 0. -1.
         -5    1    3    3    0  502 -0.68672094425E+02 -0.10406408390E+02 -0.85843223434E+01  0.70109292382E+02  0.41800000000E+01 0. -1.
        -11    1    1    2    0    0 -0.27784941784E+02  0.10318243276E+02 -0.44354864442E+02  0.53346256981E+02  0.00000000000E+00 0.  1.
         11    1    1    2    0    0  0.40307813934E+02  0.19472618066E+02  0.13829852745E+02  0.46852615140E+02  0.00000000000E+00 0. -1.
</event>
<event>
 7    1  0.2900135E-009  0.8331511E+02  0.7561462E-02  0.1319898E+00
          2   -1    0    0  501    0  0.00000000000E+00  0.00000000000E+00  0.74845457620E+03  0.74845457620E+03  0.00000000000E+00 0.  1.
         -2   -1    0    0    0  501 -0.00000000000E+00 -0.00000000000E+00 -0.35868373689E+02  0.35868373689E+02  0.00000000000E+00 0. -1.
         25    2    1    2    0    0 -0.45875426412E+02  0.70847985462E+01  0.65157232736E+03  0.66509470608E+03  0.12509884554E+03 0.  0.
          5    1    3    3  502    0 -0.74562226838E+02 -0.11869161330E+02  0.58672041667E+03  0.59157309134E+03  0.41800000000E+01 0. -1.
         -5    1    3    3    0  502  0.28686800426E+02  0.18953959876E+02  0.64851910692E+02  0.73521614740E+02  0.41800000000E+01 0. -1.
        -11    1    1    2    0    0  0.27542387577E+02  0.11884389375E+02  0.80841386755E+02  0.86227325348E+02  0.00000000000E+00 0.  1.
         11    1    1    2    0    0  0.18333038835E+02 -0.18969187921E+02 -0.19827511600E+02  0.33000918465E+02  0.00000000000E+00 0. -1.
</event>
<event>
 7    1  0.2900135E-009  0.1207191E+03  0.7561462E-02  0.1241915E+00
         -2   -1    0    0    0  501 -0.00000000000E+00  0.00000000000E+00  0.20389667263E+03  0.20389667263E+03  0.00000000000E+00 0.  1.
          2   -1    0    0  501    0  0.00000000000E+00 -0.00000000000E+00 -0.30909584756E+03  0.30909584756E+03  0.00000000000E+00 0. -1.
         25    2    1    2    0    0 -0.86918909884E+02 -0.26599038565E+02  0.15723467544E+03  0.22052993079E+03  0.12509317114E+03 0.  0.
          5    1    3    3  502    0  0.13693112652E+02 -0.44193580994E+02  0.79612714612E+02  0.92175000207E+02  0.41800000000E+01 0.  1.
         -5    1    3    3    0  502 -0.10061202254E+03  0.17594542430E+02  0.77621960827E+02  0.12835493058E+03  0.41800000000E+01 0.  1.
        -11    1    1    2    0    0  0.50179472363E+02  0.24805639602E+02 -0.24580015058E+03  0.25209326296E+03  0.00000000000E+00 0. -1.
         11    1    1    2    0    0  0.36739437521E+02  0.17933989634E+01 -0.16633699792E+02  0.40369326450E+02  0.00000000000E+00 0.  1.
</event>
<event>
 7    1  0.2900135E-009  0.1584947E+03  0.7561462E-02  0.1190407E+00
         -1   -1    0    0    0  501 -0.00000000000E+00  0.00000000000E+00  0.51161901377E+02  0.51161901377E+02  0.00000000000E+00 0.  1.
          1   -1    0    0  501    0  0.00000000000E+00 -0.00000000000E+00 -0.88515500008E+03  0.88515500008E+03  0.00000000000E+00 0. -1.
         25    2    1    2    0    0  0.11229585817E+03  0.64371054136E+02 -0.15011020908E+03  0.23438081114E+03  0.12508915776E+03 0.  0.
          5    1    3    3  502    0  0.20881764219E+02  0.66172851852E+02 -0.14882771193E+02  0.71090531560E+02  0.41800000000E+01 0.  1.
         -5    1    3    3    0  502  0.91414093955E+02 -0.18017977163E+01 -0.13522743788E+03  0.16329027958E+03  0.41800000000E+01 0.  1.
        -11    1    1    2    0    0 -0.67199872788E+02 -0.83310808929E+02 -0.52038789066E+03  0.53128153603E+03  0.00000000000E+00 0. -1.
         11    1    1    2    0    0 -0.45095985386E+02  0.18939754793E+02 -0.16349499897E+03  0.17065455429E+03  0.00000000000E+00 0.  1.
</event>
<event>
 7    1  0.2900135E-009  0.9136631E+02  0.7561462E-02  0.1299576E+00
         -1   -1    0    0    0  501 -0.00000000000E+00  0.00000000000E+00  0.17877709986E+03  0.17877709986E+03  0.00000000000E+00 0.  1.
          1   -1    0    0  501    0  0.00000000000E+00 -0.00000000000E+00 -0.16915595544E+03  0.16915595544E+03  0.00000000000E+00 0. -1.
         25    2    1    2    0    0  0.13577775490E+02  0.32808999840E+02 -0.12210254605E+03  0.17837678191E+03  0.12509379727E+03 0.  0.
          5    1    3    3  502    0 -0.22555715622E+02  0.65910488952E+02 -0.34354708336E+02  0.77786060743E+02  0.41800000000E+01 0.  1.
         -5    1    3    3    0  502  0.36133491112E+02 -0.33101489112E+02 -0.87747837709E+02  0.10059072116E+03  0.41800000000E+01 0.  1.
        -11    1    1    2    0    0  0.20474701202E+02 -0.14604410973E+02 -0.65531513737E+01  0.25989344011E+02  0.00000000000E+00 0. -1.
         11    1    1    2    0    0 -0.34052476693E+02 -0.18204588867E+02  0.13827684183E+03  0.14356692938E+03  0.00000000000E+00 0.  1.
</event>
<event>
 7    1  0.2900135E-009  0.9704395E+02  0.7561462E-02  0.1286638E+00
          2   -1    0    0  501    0  0.00000000000E+00  0.00000000000E+00  0.13899967789E+03  0.13899967789E+03  0.00000000000E+00 0. -1.
         -2   -1    0    0    0  501 -0.00000000000E+00 -0.00000000000E+00 -0.13343373843E+03  0.13343373843E+03  0.00000000000E+00 0.  1.
         25    2    1    2    0    0 -0.82258760890E+02  0.10366147786E+01  0.11450865655E+02  0.15015773113E+03  0.12509453857E+03 0.  0.
          5    1    3    3  502    0 -0.74991881382E+02  0.72061921455E+01  0.62550393152E+02  0.98008854508E+02  0.41800000000E+01 0.  1.
         -5    1    3    3    0  502 -0.72668795072E+01 -0.61695773669E+01 -0.51099527497E+02  0.52148876623E+02  0.41800000000E+01 0.  1.
        -11    1    1    2    0    0  0.42832260256E+02  0.34614780801E+02  0.25347348543E+02  0.60624035223E+02  0.00000000000E+00 0. -1.
         11    1    1    2    0    0  0.39426500633E+02 -0.35651395580E+02 -0.31232274734E+02  0.61651649970E+02  0.00000000000E+00 0.  1.
</event>
<event>
 7    1  0.2900135E-009  0.1308416E+03  0.7561462E-02  0.1226212E+00
          1   -1    0    0  501    0  0.00000000000E+00  0.00000000000E+00  0.46228951055E+02  0.46228951055E+02  0.00000000000E+00 0. -1.
         -1   -1    0    0    0  501 -0.00000000000E+00 -0.00000000000E+00 -0.86431886849E+03  0.86431886849E+03  0.00000000000E+00 0.  1.
         25    2    1    2    0    0  0.58419648574E+02  0.65984009434E+02 -0.11573596070E+03  0.19185687260E+03  0.12508997611E+03 0.  0.
          5    1    3    3  502    0  0.57331025022E+02  0.78139007986E+02 -0.24954663744E+02  0.10016365929E+03  0.41800000000E+01 0. -1.
         -5    1    3    3    0  502  0.10886235519E+01 -0.12154998552E+02 -0.90781296952E+02  0.91693213311E+02  0.41800000000E+01 0. -1.
        -11    1    1    2    0    0  0.37131635382E+02 -0.28235852882E+01 -0.20088854431E+03  0.20431088619E+03  0.00000000000E+00 0.  1.
         11    1    1    2    0    0 -0.95551283956E+02 -0.63160424145E+02 -0.50146541243E+03  0.51438006076E+03  0.00000000000E+00 0. -1.
</event>
<event>
 7    1  0.2900135E-009  0.2038660E+03  0.7561462E-02  0.1146518E+00
          2   -1    0    0  501    0  0.00000000000E+00  0.00000000000E+00  0.11464449362E+03  0.11464449362E+03  0.00000000000E+00 0. -1.
         -2   -1    0    0    0  501 -0.00000000000E+00 -0.00000000000E+00 -0.69069230725E+03  0.69069230725E+03  0.00000000000E+00 0.  1.
         25    2    1    2    0    0 -0.19335120260E+03  0.11133873657E+02 -0.54204329529E+03  0.58903966072E+03  0.12509251474E+03 0.  0.
          5    1    3    3  502    0 -0.11982856876E+03  0.12816211641E+02 -0.47282891163E+03  0.48796290151E+03  0.41800000000E+01 0.  1.
         -5    1    3    3    0  502 -0.73522633844E+02 -0.16823379838E+01 -0.69214383656E+02  0.10107675921E+03  0.41800000000E+01 0.  1.
        -11    1    1    2    0    0  0.10810427439E+03 -0.50821386375E+02 -0.22630024926E+02  0.12157905035E+03  0.00000000000E+00 0.  1.
         11    1    1    2    0    0  0.85246928210E+02  0.39687512719E+02 -0.11374493424E+02  0.94718089802E+02  0.00000000000E+00 0. -1.
</event>
<event>
 7    1  0.2900135E-009  0.1068762E+03  0.7561462E-02  0.1266467E+00
          3   -1    0    0  501    0  0.00000000000E+00  0.00000000000E+00  0.22523984624E+03  0.22523984624E+03  0.00000000000E+00 0. -1.
         -3   -1    0    0    0  501 -0.00000000000E+00 -0.00000000000E+00 -0.10657647008E+03  0.10657647008E+03  0.00000000000E+00 0.  1.
         25    2    1    2    0    0  0.32041061478E+02 -0.37386896873E+02 -0.42524651781E+02  0.14096620684E+03  0.12505485109E+03 0.  0.
          5    1    3    3  502    0  0.42258290096E+02  0.32386829803E+02 -0.45647638335E+02  0.70255598439E+02  0.41800000000E+01 0. -1.
         -5    1    3    3    0  502 -0.10217228618E+02 -0.69773726676E+02  0.31229865534E+01  0.70710608397E+02  0.41800000000E+01 0. -1.
        -11    1    1    2    0    0  0.24319025450E+02  0.17413778961E+02  0.16200034700E+02  0.34016111195E+02  0.00000000000E+00 0.  1.
         11    1    1    2    0    0 -0.56360086928E+02  0.19973117912E+02  0.14498799324E+03  0.15683399829E+03  0.00000000000E+00 0. -1.
</event>
<event>
 7    1  0.2900135E-009  0.1258596E+03  0.7561462E-02  0.1233732E+00
         -2   -1    0    0    0  501 -0.00000000000E+00  0.00000000000E+00  0.34273041656E+02  0.34273041656E+02  0.00000000000E+00 0.  1.
          2   -1    0    0  501    0  0.00000000000E+00 -0.00000000000E+00 -0.54932784163E+03  0.54932784163E+03  0.00000000000E+00 0. -1.
         25    2    1    2    0    0 -0.67867775010E+02  0.46369972829E+02 -0.31949895645E+03  0.35281848016E+03  0.12508032421E+03 0.  0.
          5    1    3    3  502    0 -0.49778649487E+01  0.68647322018E+02 -0.87638123379E+02  0.11151299040E+03  0.41800000000E+01 0.  1.
         -5    1    3    3    0  502 -0.62889910061E+02 -0.22277349189E+02 -0.23186083307E+03  0.24130548975E+03  0.41800000000E+01 0.  1.
        -11    1    1    2    0    0  0.78781006597E+02 -0.11795472958E+02 -0.16555775704E+03  0.18372520540E+03  0.00000000000E+00 0. -1.
         11    1    1    2    0    0 -0.10913231588E+02 -0.34574499871E+02 -0.29998086483E+02  0.47057197725E+02  0.00000000000E+00 0.  1.
</event>
<event>
 7    1  0.2900135E-009  0.1320389E+03  0.7561462E-02  0.1224461E+00
         -1   -1    0    0    0  501 -0.00000000000E+00  0.00000000000E+00  0.52058689405E+03  0.52058689405E+03  0.00000000000E+00 0.  1.
          1   -1    0    0  501    0  0.00000000000E+00 -0.00000000000E+00 -0.54744419493E+02  0.54744419493E+02  0.00000000000E+00 0. -1.
         25    2    1    2    0    0  0.40247672336E+02 -0.11454957476E+03  0.32306295447E+03  0.36709433974E+03  0.12508837480E+03 0.  0.
          5    1    3    3  502    0  0.32448873891E+02 -0.11148351726E+03  0.33344849276E+03  0.35311028556E+03  0.41800000000E+01 0.  1.
         -5    1    3    3    0  502  0.77987984448E+01 -0.30660574941E+01 -0.10385538293E+02  0.13984054182E+02  0.41800000000E+01 0.  1.
        -11    1    1    2    0    0 -0.58504471285E+02  0.76329542666E+02  0.55038293351E+02  0.11080697622E+03  0.00000000000E+00 0. -1.
         11    1    1    2    0    0  0.18256798950E+02  0.38220032090E+02  0.87741226739E+02  0.97429997590E+02  0.00000000000E+00 0.  1.
</event>
<event>
 7    1  0.2900135E-009  0.1747367E+03  0.7561462E-02  0.1172996E+00
          4   -1    0    0  501    0  0.00000000000E+00  0.00000000000E+00  0.88689785632E+02  0.88689785632E+02  0.00000000000E+00 0. -1.
         -4   -1    0    0    0  501 -0.00000000000E+00 -0.00000000000E+00 -0.38448076947E+03  0.38448076947E+03  0.00000000000E+00 0.  1.
         25    2    1    2    0    0  0.11537052838E+03  0.74505881867E+02 -0.81064972454E+02  0.20268390056E+03  0.12509096106E+03 0.  0.
          5    1    3    3  502    0  0.55874917749E+02  0.10425661282E+03 -0.42992238273E+02  0.12592558398E+03  0.41800000000E+01 0. -1.
         -5    1    3    3    0  502  0.59495610627E+02 -0.29750730952E+02 -0.38072734181E+02  0.76758316579E+02  0.41800000000E+01 0. -1.
        -11    1    1    2    0    0  0.15611639438E+02 -0.88854349071E+01 -0.22070166036E+02  0.28456395912E+02  0.00000000000E+00 0.  1.
         11    1    1    2    0    0 -0.13098216781E+03 -0.65620446960E+02 -0.19265584534E+03  0.24203025862E+03  0.00000000000E+00 0. -1.
</event>
<event>
 7    1  0.2900135E-009  0.8727086E+02  0.7561462E-02  0.1309599E+00
          2   -1    0    0  501    0  0.00000000000E+00  0.00000000000E+00  0.60712298718E+03  0.60712298718E+03  0.00000000000E+00 0. -1.
         -2   -1    0    0    0  501 -0.00000000000E+00 -0.00000000000E+00 -0.19684469882E+02  0.19684469882E+02  0.00000000000E+00 0.  1.
         25    2    1    2    0    0 -0.98556721770E+01  0.39228589121E+01  0.32234429560E+03  0.34593055585E+03  0.12509828722E+03 0.  0.
          5    1    3    3  502    0  0.56873326951E+01 -0.37038586795E+02  0.24756629405E+02  0.45106161047E+02  0.41800000000E+01 0. -1.
         -5    1    3    3    0  502 -0.15543004872E+02  0.40961445707E+02  0.29758766619E+03  0.30082439480E+03  0.41800000000E+01 0. -1.
        -11    1    1    2    0    0 -0.55700750248E+01  0.43037985208E+02  0.12450238564E+03  0.13184892087E+03  0.00000000000E+00 0.  1.
         11    1    1    2    0    0  0.15425747202E+02 -0.46960844120E+02  0.14059183606E+03  0.14902798034E+03  0.00000000000E+00 0. -1.
</event>
<event>
 7    1  0.2900135E-009  0.9026582E+02  0.7561462E-02  0.1302209E+00
          2   -1    0    0  501    0  0.00000000000E+00  0.00000000000E+00  0.17964448793E+03  0.17964448793E+03  0.00000000000E+00 0. -1.
         -2   -1    0    0    0  501 -0.00000000000E+00 -0.00000000000E+00 -0.14163004417E+03  0.14163004417E+03  0.00000000000E+00 0.  1.
         25    2    1    2    0    0  0.32087967448E+02  0.40325444995E+02  0.12557721002E+03  0.18458663866E+03  0.12508721888E+03 0.  0.
          5    1    3    3  502    0  0.46899149667E+02  0.11311418523E+02 -0.61620480196E+01  0.48815178626E+02  0.41800000000E+01 0.  1.
         -5    1    3    3    0  502 -0.14811182218E+02  0.29014026473E+02  0.13173925804E+03  0.13577146003E+03  0.41800000000E+01 0.  1.
        -11    1    1    2    0    0 -0.27462260698E+02 -0.66885669891E+02 -0.81696286917E+02  0.10909698390E+03  0.00000000000E+00 0.  1.
         11    1    1    2    0    0 -0.46257067500E+01  0.26560224896E+02 -0.58664793379E+01  0.27590909541E+02  0.00000000000E+00 0. -1.
</event>
<event>
 7    1  0.2900135E-009  0.1702912E+03  0.7561462E-02  0.1177545E+00
          1   -1    0    0  501    0  0.00000000000E+00  0.00000000000E+00  0.63078964209E+03  0.63078964209E+03  0.00000000000E+00 0. -1.
         -1   -1    0    0    0  501 -0.00000000000E+00 -0.00000000000E+00 -0.55660286615E+02  0.55660286615E+02  0.00000000000E+00 0.  1.
         25    2    1    2    0    0 -0.10470171660E+03 -0.98325333504E+02  0.39091901568E+03  0.43485084563E+03  0.12508901016E+03 0.  0.
          5    1    3    3  502    0 -0.68878768663E+02  0.10997880096E+02  0.20062482615E+03  0.21244536099E+03  0.41800000000E+01 0.  1.
         -5    1    3    3    0  502 -0.35822947936E+02 -0.10932321360E+03  0.19029418953E+03  0.22240548465E+03  0.41800000000E+01 0.  1.
        -11    1    1    2    0    0  0.58923069376E+02  0.15459864811E+02  0.12733973501E+03  0.14116070146E+03  0.00000000000E+00 0.  1.
         11    1    1    2    0    0  0.45778647223E+02  0.82865468694E+02  0.56870604784E+02  0.11043838161E+03  0.00000000000E+00 0. -1.
</event>
<event>
 7    1  0.2900135E-009  0.1756369E+03  0.7561462E-02  0.1172094E+00
          4   -1    0    0  501    0  0.00000000000E+00  0.00000000000E+00  0.34897018302E+03  0.34897018302E+03  0.00000000000E+00 0. -1.
         -4   -1    0    0    0  501 -0.00000000000E+00 -0.00000000000E+00 -0.95310483283E+02  0.95310483283E+02  0.00000000000E+00 0.  1.
         25    2    1    2    0    0  0.98748774182E+02 -0.10468375106E+03  0.10513404222E+03  0.21774049220E+03  0.12509095480E+03 0.  0.
          5    1    3    3  502    0  0.94121263407E+02 -0.12653913334E+03  0.63014235635E+02  0.16988004822E+03  0.41800000000E+01 0. -1.
         -5    1    3    3    0  502  0.46275107751E+01  0.21855382284E+02  0.42119806584E+02  0.47860443975E+02  0.41800000000E+01 0. -1.
        -11    1    1    2    0    0 -0.90671745757E+02  0.29764615682E+02  0.89304801724E+02  0.13070059463E+03  0.00000000000E+00 0.  1.
         11    1    1    2    0    0 -0.80770284245E+01  0.74919135374E+02  0.59220855794E+02  0.95839579477E+02  0.00000000000E+00 0. -1.
</event>
<event>
 7    1  0.2900135E-009  0.1578758E+03  0.7561462E-02  0.1191116E+00
          1   -1    0    0  501    0  0.00000000000E+00  0.00000000000E+00  0.39627060477E+03  0.39627060477E+03  0.00000000000E+00 0. -1.
         -1   -1    0    0    0  501 -0.00000000000E+00 -0.00000000000E+00 -0.68858378001E+02  0.68858378001E+02  0.00000000000E+00 0.  1.
         25    2    1    2    0    0  0.10536970921E+03 -0.47591100527E+02  0.11076539177E+03  0.20318580486E+03  0.12509120998E+03 0.  0.
          5    1    3    3  502    0 -0.17456898143E+02 -0.43487514941E+02  0.36375113469E+02  0.59468718906E+02  0.41800000000E+01 0. -1.
         -5    1    3    3    0  502  0.12282660735E+03 -0.41035855861E+01  0.74390278300E+02  0.14371708595E+03  0.41800000000E+01 0. -1.
        -11    1    1    2    0    0 -0.48030606702E+02  0.69393807786E+02  0.10671079768E+03  0.13605011607E+03  0.00000000000E+00 0. -1.
         11    1    1    2    0    0 -0.57339102508E+02 -0.21802707259E+02  0.10993603732E+03  0.12589306185E+03  0.00000000000E+00 0.  1.
</event>
<event>
 7    1  0.2900135E-009  0.1029164E+03  0.7561462E-02  0.1274280E+00
          3   -1    0    0  501    0  0.00000000000E+00  0.00000000000E+00  0.37498966920E+02  0.37498966920E+02  0.00000000000E+00 0. -1.
         -3   -1    0    0    0  501 -0.00000000000E+00 -0.00000000000E+00 -0.39922443782E+03  0.39922443782E+03  0.00000000000E+00 0.  1.
         25    2    1    2    0    0 -0.39691643009E+02  0.33968630557E+02 -0.23113164882E+03  0.26795028481E+03  0.12508485782E+03 0.  0.
          5    1    3    3  502    0  0.38905770883E+02  0.28067818209E+02 -0.45567171496E+02  0.66297065886E+02  0.41800000000E+01 0.  1.
         -5    1    3    3    0  502 -0.78597413892E+02  0.59008123484E+01 -0.18556447732E+03  0.20165321892E+03  0.41800000000E+01 0.  1.
        -11    1    1    2    0    0  0.20360793166E+02 -0.49774504602E+02 -0.23293877795E+02  0.58606040213E+02  0.00000000000E+00 0. -1.
         11    1    1    2    0    0  0.19330849843E+02  0.15805874045E+02 -0.10729994429E+03  0.11016707972E+03  0.00000000000E+00 0.  1.
</event>
<event>
 7    1  0.2900135E-009  0.8544743E+02  0.7561462E-02  0.1314267E+00
          2   -1    0    0  501    0  0.00000000000E+00  0.00000000000E+00  0.38611072812E+03  0.38611072812E+03  0.00000000000E+00 0. -1.
         -2   -1    0    0    0  501 -0.00000000000E+00 -0.00000000000E+00 -0.35571647405E+02  0.35571647405E+02  0.00000000000E+00 0.  1.
         25    2    1    2    0    0  0.46179882416E+02 -0.25267912010E+01  0.18256224307E+03  0.22608754934E+03  0.12509053185E+03 0.  0.
          5    1    3    3  502    0  0.60470694252E+02 -0.19968640527E+02  0.19120930967E+03  0.20157858014E+03  0.41800000000E+01 0.  1.
         -5    1    3    3    0  502 -0.14290811836E+02  0.17441849326E+02 -0.86470665922E+01  0.24508969205E+02  0.41800000000E+01 0.  1.
        -11    1    1    2    0    0 -0.61160658273E+02  0.16825842529E+02  0.16209723282E+03  0.17406679174E+03  0.00000000000E+00 0. -1.
         11    1    1    2    0    0  0.14980775858E+02 -0.14299051328E+02  0.58796048189E+01  0.21528034443E+02  0.00000000000E+00 0.  1.
</event>
<event>
 7    1  0.3017934E-009  0.1563609E+03  0.7561462E-02  0.1192868E+00
         -1   -1    0    0    0  501 -0.00000000000E+00  0.00000000000E+00  0.12540054436E+03  0.12540054436E+03  0.00000000000E+00 0.  1.
          1   -1    0    0  501    0  0.00000000000E+00 -0.00000000000E+00 -0.27743889779E+03  0.27743889779E+03  0.00000000000E+00 0. -1.
         25    2    1    2    0    0  0.13865232069E+02  0.12831839387E+03  0.59147084993E+01  0.17983149358E+03  0.12508608013E+03 0.  0.
          5    1    3    3  502    0  0.62070616216E+02  0.32632970178E+02 -0.11553078892E+02  0.71194228502E+02  0.41800000000E+01 0.  1.
         -5    1    3    3    0  502 -0.48205384147E+02  0.95685423687E+02  0.17467787392E+02  0.10863726508E+03  0.41800000000E+01 0.  1.
        -11    1    1    2    0    0  0.12888309802E+02 -0.68740766308E+02 -0.13801395467E+03  0.15472315006E+03  0.00000000000E+00 0. -1.
         11    1    1    2    0    0 -0.26753541872E+02 -0.59577627557E+02 -0.19939107260E+02  0.68284798501E+02  0.00000000000E+00 0.  1.
</event>
<event>
 7    1  0.2900135E-009  0.1386204E+03  0.7561462E-02  0.1215198E+00
          2   -1    0    0  501    0  0.00000000000E+00  0.00000000000E+00  0.10755372156E+03  0.10755372156E+03  0.00000000000E+00 0.  1.
         -2   -1    0    0    0  501 -0.00000000000E+00 -0.00000000000E+00 -0.20499588230E+03  0.20499588230E+03  0.00000000000E+00 0. -1.
         25    2    1    2    0    0 -0.34037009932E+02  0.88451478887E+02 -0.87708683527E+02  0.17978922053E+03  0.12509663660E+03 0.  0.
          5    1    3    3  502    0 -0.67017248674E+01 -0.29139510709E+02  0.52911365546E+00  0.30195638125E+02  0.41800000000E+01 0.  1.
         -5    1    3    3    0  502 -0.27335285065E+02  0.11759098960E+03 -0.88237797183E+02  0.14959358240E+03  0.41800000000E+01 0.  1.
        -11    1    1    2    0    0  0.45740193501E+02 -0.99903613424E+02  0.60158365983E+01  0.11004129937E+03  0.00000000000E+00 0.  1.
         11    1    1    2    0    0 -0.11703183569E+02  0.11452134537E+02 -0.15749313807E+02  0.22719083971E+02  0.00000000000E+00 0. -1.
</event>
<event>
 7    1  0.2900135E-009  0.1748251E+03  0.7561462E-02  0.1172907E+00
          3   -1    0    0  501    0  0.00000000000E+00  0.00000000000E+00  0.23224541415E+02  0.23224541415E+02  0.00000000000E+00 0. -1.
         -3   -1    0    0    0  501 -0.00000000000E+00 -0.00000000000E+00 -0.18147595665E+04  0.18147595665E+04  0.00000000000E+00 0.  1.
         25    2    1    2    0    0 -0.94298377852E+01 -0.15975724741E+03 -0.12497877450E+04  0.12661865561E+04  0.12509071589E+03 0.  0.
          5    1    3    3  502    0 -0.10460095822E+02 -0.16940662421E+03 -0.12406618798E+04  0.12522249759E+04  0.41800000000E+01 0.  1.
         -5    1    3    3    0  502  0.10302580369E+01  0.96493768051E+01 -0.91258652643E+01  0.13961580182E+02  0.41800000000E+01 0.  1.
        -11    1    1    2    0    0  0.32704584224E+02  0.97393283426E+02 -0.21431793159E+03  0.23767039632E+03  0.00000000000E+00 0.  1.
         11    1    1    2    0    0 -0.23274746439E+02  0.62363963980E+02 -0.32742934848E+03  0.33412715554E+03  0.00000000000E+00 0. -1.
</event>
<event>
 7    1  0.2900135E-009  0.1133068E+03  0.7561462E-02  0.1254566E+00
          2   -1    0    0  501    0  0.00000000000E+00  0.00000000000E+00  0.26729808333E+03  0.26729808333E+03  0.00000000000E+00 0.  1.
         -2   -1    0    0    0  501 -0.00000000000E+00 -0.00000000000E+00 -0.56600597860E+02  0.56600597860E+02  0.00000000000E+00 0. -1.
         25    2    1    2    0    0  0.44393873302E+02 -0.36036821217E+02  0.10413612930E+03  0.17251433187E+03  0.12508953915E+03 0.  0.
          5    1    3    3  502    0  0.79895678612E+02 -0.33549468856E+02  0.32918745473E+02  0.92790099283E+02  0.41800000000E+01 0.  1.
         -5    1    3    3    0  502 -0.35501805311E+02 -0.24873523608E+01  0.71217383832E+02  0.79724232589E+02  0.41800000000E+01 0.  1.
        -11    1    1    2    0    0 -0.15711400540E+02  0.62836679642E+02  0.46903426217E+02  0.79970168227E+02  0.00000000000E+00 0. -1.
         11    1    1    2    0    0 -0.28682472761E+02 -0.26799858425E+02  0.59657929947E+02  0.71414181091E+02  0.00000000000E+00 0.  1.
</event>
<event>
 7    1  0.2900135E-009  0.2034731E+03  0.7561462E-02  0.1146841E+00
          1   -1    0    0  501    0  0.00000000000E+00  0.00000000000E+00  0.33181776519E+03  0.33181776519E+03  0.00000000000E+00 0. -1.
         -1   -1    0    0    0  501 -0.00000000000E+00 -0.00000000000E+00 -0.14840292923E+03  0.14840292923E+03  0.00000000000E+00 0.  1.
         25    2    1    2    0    0 -0.14740741784E+03  0.12192606973E+03  0.12259268515E+03  0.25935742674E+03  0.12506956080E+03 0.  0.
          5    1    3    3  502    0 -0.21219756180E+02  0.21858228633E+01  0.76245348791E+02  0.79283551170E+02  0.41800000000E+01 0. -1.
         -5    1    3    3    0  502 -0.12618766166E+03  0.11974024687E+03  0.46347336357E+02  0.18007387557E+03  0.41800000000E+01 0. -1.
        -11    1    1    2    0    0  0.33276579397E+02 -0.84942075013E+02  0.15081126186E+02  0.92465816445E+02  0.00000000000E+00 0.  1.
         11    1    1    2    0    0  0.11413083845E+03 -0.36983994718E+02  0.45741024627E+02  0.12839745124E+03  0.00000000000E+00 0. -1.
</event>
<event>
 7    1  0.2900135E-009  0.6690537E+02  0.7561462E-02  0.1370944E+00
          1   -1    0    0  501    0  0.00000000000E+00  0.00000000000E+00  0.48405405747E+03  0.48405405747E+03  0.00000000000E+00 0. -1.
         -1   -1    0    0    0  501 -0.00000000000E+00 -0.00000000000E+00 -0.36733972570E+02  0.36733972570E+02  0.00000000000E+00 0.  1.
         25    2    1    2    0    0  0.99091538929E+01 -0.31189098247E+02  0.36550122734E+03  0.38769750166E+03  0.12508898603E+03 0.  0.
          5    1    3    3  502    0 -0.37935970939E+02 -0.22895770112E+01  0.33003316966E+02  0.50508131867E+02  0.41800000000E+01 0. -1.
         -5    1    3    3    0  502  0.47845124832E+02 -0.28899521236E+02  0.33249791037E+03  0.33718936979E+03  0.41800000000E+01 0. -1.
        -11    1    1    2    0    0  0.70745667949E+01  0.11711436416E+02 -0.22107700801E+02  0.25999186006E+02  0.00000000000E+00 0.  1.
         11    1    1    2    0    0 -0.16983720688E+02  0.19477661831E+02  0.10392655836E+03  0.10709134237E+03  0.00000000000E+00 0. -1.
</event>
<event>
 7    1  0.2900135E-009  0.1626693E+03  0.7561462E-02  0.1185716E+00
          1   -1    0    0  501    0  0.00000000000E+00  0.00000000000E+00  0.28619999827E+03  0.28619999827E+03  0.00000000000E+00 0. -1.
         -1   -1    0    0    0  501 -0.00000000000E+00 -0.00000000000E+00 -0.10566657054E+03  0.10566657054E+03  0.00000000000E+00 0.  1.
         25    2    1    2    0    0 -0.13299579946E+03 -0.60967796166E+00  0.79610151888E+02  0.19918162167E+03  0.12508911921E+03 0.  0.
          5    1    3    3  502    0 -0.11711506795E+02  0.45020197975E+02  0.45303954989E+02  0.65068412880E+02  0.41800000000E+01 0. -1.
         -5    1    3    3    0  502 -0.12128429267E+03 -0.45629875937E+02  0.34306196899E+02  0.13411320879E+03  0.41800000000E+01 0. -1.
        -11    1    1    2    0    0  0.62270790035E+02 -0.33224545893E+02  0.78868479336E+01  0.71019181294E+02  0.00000000000E+00 0.  1.
         11    1    1    2    0    0  0.70725009429E+02  0.33834223855E+02  0.93036427903E+02  0.12166576585E+03  0.00000000000E+00 0. -1.
</event>
<event>
 7    1  0.2900135E-009  0.2177400E+03  0.7561462E-02  0.1135579E+00
          2   -1    0    0  501    0  0.00000000000E+00  0.00000000000E+00  0.15069034087E+04  0.15069034087E+04  0.00000000000E+00 0. -1.
         -2   -1    0    0    0  501 -0.00000000000E+00 -0.00000000000E+00 -0.37483111239E+02  0.37483111239E+02  0.00000000000E+00 0.  1.
         25    2    1    2    0    0 -0.71533197265E+02  0.18971610004E+03  0.57104560588E+03  0.61874587811E+03  0.12507669948E+03 0.  0.
          5    1    3    3  502    0 -0.77982570798E+02  0.50521236876E+02  0.29788870417E+03  0.31207183339E+03  0.41800000000E+01 0. -1.
         -5    1    3    3    0  502  0.64493735338E+01  0.13919486316E+03  0.27315690171E+03  0.30667404472E+03  0.41800000000E+01 0. -1.
        -11    1    1    2    0    0  0.66178352063E+02 -0.16509445480E+03  0.86865231184E+03  0.88667502060E+03  0.00000000000E+00 0. -1.
         11    1    1    2    0    0  0.53548452015E+01 -0.24621645233E+02  0.29722379755E+02  0.38965621250E+02  0.00000000000E+00 0.  1.
</event>
<event>
 7    1  0.2900135E-009  0.1046713E+03  0.7561462E-02  0.1270769E+00
          2   -1    0    0  501    0  0.00000000000E+00  0.00000000000E+00  0.86592269328E+03  0.86592269328E+03  0.00000000000E+00 0. -1.
         -2   -1    0    0    0  501 -0.00000000000E+00 -0.00000000000E+00 -0.24060659076E+02  0.24060659076E+02  0.00000000000E+00 0.  1.
         25    2    1    2    0    0 -0.13280253116E+02 -0.34125416918E+02  0.72061494343E+03  0.73230825859E+03  0.12509428323E+03 0.  0.
          5    1    3    3  502    0 -0.49597680424E+02 -0.65173475379E+02  0.48093888443E+03  0.48788030781E+03  0.41800000000E+01 0.  1.
         -5    1    3    3    0  502  0.36317427308E+02  0.31048058461E+02  0.23967605900E+03  0.24442795077E+03  0.41800000000E+01 0.  1.
        -11    1    1    2    0    0 -0.28647579578E+02  0.71775930575E+01  0.34079433278E+01  0.29729038590E+02  0.00000000000E+00 0.  1.
         11    1    1    2    0    0  0.41927832694E+02  0.26947823861E+02  0.11783914745E+03  0.12794605518E+03  0.00000000000E+00 0. -1.
</event>
<event>
 7    1  0.2900135E-009  0.7675510E+02  0.7561462E-02  0.1338521E+00
         -2   -1    0    0    0  501 -0.00000000000E+00  0.00000000000E+00  0.17881891454E+02  0.17881891454E+02  0.00000000000E+00 0. -1.
          2   -1    0    0  501    0  0.00000000000E+00 -0.00000000000E+00 -0.75356707972E+03  0.75356707972E+03  0.00000000000E+00 0.  1.
         25    2    1    2    0    0  0.33709991171E+02  0.14391574905E+02 -0.48708494491E+03  0.50422305607E+03  0.12508263584E+03 0.  0.
          5    1    3    3  502    0  0.31274230496E+02  0.39835155134E+02 -0.70887613399E+02  0.87220658167E+02  0.41800000000E+01 0. -1.
         -5    1    3    3    0  502  0.24357606755E+01 -0.25443580229E+02 -0.41619733151E+03  0.41700239791E+03  0.41800000000E+01 0. -1.
        -11    1    1    2    0    0  0.15723233018E+02  0.12890216665E+02 -0.11217741392E+02  0.23221013418E+02  0.00000000000E+00 0. -1.
         11    1    1    2    0    0 -0.49433224189E+02 -0.27281791570E+02 -0.23738250196E+03  0.24400490168E+03  0.00000000000E+00 0.  1.
</event>
<event>
 7    1  0.2900135E-009  0.1286315E+03  0.7561462E-02  0.1229501E+00
         -1   -1    0    0    0  501 -0.00000000000E+00  0.00000000000E+00  0.31111337761E+03  0.31111337761E+03  0.00000000000E+00 0.  1.
          1   -1    0    0  501    0  0.00000000000E+00 -0.00000000000E+00 -0.12134958541E+03  0.12134958541E+03  0.00000000000E+00 0. -1.
         25    2    1    2    0    0  0.86717922930E+02 -0.21871260165E+02 -0.49536778778E+02  0.16155519540E+03  0.12509132076E+03 0.  0.
          5    1    3    3  502    0  0.11512560277E+03 -0.13891115597E+02 -0.59148545013E+02  0.13024166109E+03  0.41800000000E+01 0. -1.
         -5    1    3    3    0  502 -0.28407679837E+02 -0.79801445678E+01  0.96117662354E+01  0.31313534314E+02  0.41800000000E+01 0. -1.
        -11    1    1    2    0    0 -0.45992615726E+02  0.45204994668E+02  0.19851375461E+03  0.20872595194E+03  0.00000000000E+00 0.  1.
         11    1    1    2    0    0 -0.40725307203E+02 -0.23333734502E+02  0.40786816369E+02  0.62181815687E+02  0.00000000000E+00 0. -1.
</event>
<event>
 7    1  0.2900135E-009  0.1190548E+03  0.7561462E-02  0.1244664E+00
         -2   -1    0    0    0  501 -0.00000000000E+00  0.00000000000E+00  0.66012283626E+02  0.66012283626E+02  0.00000000000E+00 0.  1.
          2   -1    0    0  501    0  0.00000000000E+00 -0.00000000000E+00 -0.27255451517E+03  0.27255451517E+03  0.00000000000E+00 0. -1.
         25    2    1    2    0    0 -0.62180197315E+02 -0.24300111927E+02 -0.16896979756E+03  0.22057995725E+03  0.12509137731E+03 0.  0.
          5    1    3    3  502    0 -0.63699294532E+02 -0.67691199941E+02 -0.14042052814E+03  0.16844908962E+03  0.41800000000E+01 0. -1.
         -5    1    3    3    0  502  0.15190972173E+01  0.43391088013E+02 -0.28549269420E+02  0.52130867629E+02  0.41800000000E+01 0. -1.
        -11    1    1    2    0    0  0.14062482059E+02 -0.27413610217E+02  0.10492417525E+02  0.32547661241E+02  0.00000000000E+00 0.  1.
         11    1    1    2    0    0  0.48117715256E+02  0.51713722144E+02 -0.48064851512E+02  0.85439180300E+02  0.00000000000E+00 0. -1.
</event>
<event>
 7    1  0.2900135E-009  0.1211701E+03  0.7561462E-02  0.1241179E+00
         -2   -1    0    0    0  501 -0.00000000000E+00  0.00000000000E+00  0.11202425635E+02  0.11202425635E+02  0.00000000000E+00 0.  1.
          2   -1    0    0  501    0  0.00000000000E+00 -0.00000000000E+00 -0.14354757924E+04  0.14354757924E+04  0.00000000000E+00 0. -1.
         25    2    1    2    0    0 -0.66958457146E+02  0.12811652670E+02 -0.82611889768E+03  0.83831189217E+03  0.12508725764E+03 0.  0.
          5    1    3    3  502    0  0.31358443306E+02  0.89166955560E+01 -0.93617906689E+02  0.99220180805E+02  0.41800000000E+01 0. -1.
         -5    1    3    3    0  502 -0.98316900453E+02  0.38949571138E+01 -0.73250099099E+03  0.73909171136E+03  0.41800000000E+01 0. -1.
        -11    1    1    2    0    0  0.81197278511E+01 -0.43760433975E+02 -0.24388931692E+03  0.24791713227E+03  0.00000000000E+00 0.  1.
         11    1    1    2    0    0  0.58838729295E+02  0.30948781305E+02 -0.35426515221E+03  0.36044919364E+03  0.00000000000E+00 0. -1.
</event>
<event>
 7    1  0.2900135E-009  0.7921384E+02  0.7561462E-02  0.1331297E+00
         -1   -1    0    0    0  501 -0.00000000000E+00  0.00000000000E+00  0.88668875185E+02  0.88668875185E+02  0.00000000000E+00 0.  1.
          1   -1    0    0  501    0  0.00000000000E+00 -0.00000000000E+00 -0.16402184298E+03  0.16402184298E+03  0.00000000000E+00 0. -1.
         25    2    1    2    0    0  0.27068025686E+01 -0.41932295065E+02 -0.42694678930E+02  0.13869622234E+03  0.12509261503E+03 0.  0.
          5    1    3    3  502    0 -0.50869879251E+02 -0.25634951760E+02 -0.57055961674E+02  0.80732586539E+02  0.41800000000E+01 0. -1.
         -5    1    3    3    0  502  0.53576681820E+02 -0.16297343306E+02  0.14361282744E+02  0.57963635804E+02  0.41800000000E+01 0. -1.
        -11    1    1    2    0    0  0.62097681983E+01  0.83355853636E+01  0.35766823790E+02  0.37246595663E+02  0.00000000000E+00 0.  1.
         11    1    1    2    0    0 -0.89165707669E+01  0.33596709702E+02 -0.68425112655E+02  0.76747900159E+02  0.00000000000E+00 0. -1.
</event>
<event>
 7    1  0.2900135E-009  0.1029860E+03  0.7561462E-02  0.1274139E+00
          2   -1    0    0  501    0  0.00000000000E+00  0.00000000000E+00  0.93907524540E+02  0.93907524540E+02  0.00000000000E+00 0. -1.
         -2   -1    0    0    0  501 -0.00000000000E+00 -0.00000000000E+00 -0.13916066338E+03  0.13916066338E+03  0.00000000000E+00 0.  1.
         25    2    1    2    0    0 -0.32140571539E+02  0.10267404539E+02 -0.32929067466E+02  0.13367988366E+03  0.12509017498E+03 0.  0.
          5    1    3    3  502    0 -0.28148990631E+02  0.65995507671E+02 -0.78537340210E+01  0.72297484357E+02  0.41800000000E+01 0.  1.
         -5    1    3    3    0  502 -0.39915809078E+01 -0.55728103132E+02 -0.25075333445E+02  0.61382399303E+02  0.41800000000E+01 0.  1.
        -11    1    1    2    0    0  0.42875853025E+02 -0.32223862376E+02 -0.36606003864E+02  0.64936242561E+02  0.00000000000E+00 0.  1.
         11    1    1    2    0    0 -0.10735281486E+02  0.21956457838E+02  0.24281932494E+02  0.34452061695E+02  0.00000000000E+00 0. -1.
</event>
<event>
 7    1  0.2900135E-009  0.1017429E+03  0.7561462E-02  0.1276673E+00
         -2   -1    0    0    0  501 -0.00000000000E+00  0.00000000000E+00  0.18070024797E+03  0.18070024797E+03  0.00000000000E+00 0.  1.
          2   -1    0    0  501    0  0.00000000000E+00 -0.00000000000E+00 -0.81206137610E+02  0.81206137610E+02  0.00000000000E+00 0. -1.
         25    2    1    2    0    0  0.63524958024E+01 -0.47656775323E+02  0.78950001983E+02  0.15553316055E+03  0.12508372708E+03 0.  0.
          5    1    3    3  502    0 -0.14769325628E+02 -0.78253152557E+02  0.14559597769E+02  0.81062587868E+02  0.41800000000E+01 0.  1.
         -5    1    3    3    0  502  0.21121821431E+02  0.30596377234E+02  0.64390404214E+02  0.74470572680E+02  0.41800000000E+01 0.  1.
        -11    1    1    2    0    0  0.14306840885E+02  0.60389106630E+02  0.41211280025E+02  0.74497647594E+02  0.00000000000E+00 0.  1.
         11    1    1    2    0    0 -0.20659336687E+02 -0.12732331308E+02 -0.20667171650E+02  0.31875577436E+02  0.00000000000E+00 0. -1.
</event>
<event>
 7    1  0.2900135E-009  0.1171324E+03  0.7561462E-02  0.1247904E+00
          1   -1    0    0  501    0  0.00000000000E+00  0.00000000000E+00  0.75755152633E+02  0.75755152633E+02  0.00000000000E+00 0. -1.
         -1   -1    0    0    0  501 -0.00000000000E+00 -0.00000000000E+00 -0.20619173716E+03  0.20619173716E+03  0.00000000000E+00 0.  1.
         25    2    1    2    0    0 -0.45755683298E+02 -0.94441756317E+01 -0.11399068986E+03  0.17556903312E+03  0.12509129869E+03 0.  0.
          5    1    3    3  502    0  0.37710756817E+02  0.17024001433E+02 -0.58659679223E+02  0.71905133134E+02  0.41800000000E+01 0. -1.
         -5    1    3    3    0  502 -0.83466440115E+02 -0.26468177065E+02 -0.55331010640E+02  0.10366389999E+03  0.41800000000E+01 0. -1.
        -11    1    1    2    0    0  0.24556294366E+02 -0.42404377695E+02 -0.97756812761E+01  0.49967056999E+02  0.00000000000E+00 0. -1.
         11    1    1    2    0    0  0.21199388931E+02  0.51848553327E+02 -0.66702133906E+01  0.56410799673E+02  0.00000000000E+00 0.  1.
</event>
<event>
 7    1  0.2900135E-009  0.9236195E+02  0.7561462E-02  0.1297231E+00
          1   -1    0    0  501    0  0.00000000000E+00  0.00000000000E+00  0.34776472830E+02  0.34776472830E+02  0.00000000000E+00 0. -1.
         -1   -1    0    0    0  501 -0.00000000000E+00 -0.00000000000E+00 -0.55924777914E+03  0.55924777914E+03  0.00000000000E+00 0.  1.
         25    2    1    2    0    0 -0.44202755288E+02  0.13223800976E+02 -0.44834554476E+03  0.46775115547E+03  0.12509461799E+03 0.  0.
          5    1    3    3  502    0  0.40494294136E+02 -0.15182463130E+02 -0.12906012850E+03  0.13617739979E+03  0.41800000000E+01 0.  1.
         -5    1    3    3    0  502 -0.84697049424E+02  0.28406264106E+02 -0.31928541626E+03  0.33157375568E+03  0.41800000000E+01 0.  1.
        -11    1    1    2    0    0  0.19798101811E+02 -0.18250953322E+02 -0.92578028971E+02  0.96414488437E+02  0.00000000000E+00 0.  1.
         11    1    1    2    0    0  0.24404653477E+02  0.50271523458E+01  0.16452267422E+02  0.29858608062E+02  0.00000000000E+00 0. -1.
</event>
<event>
 7    1  0.2900135E-009  0.9804764E+02  0.7561462E-02  0.1284456E+00
          2   -1    0    0  501    0  0.00000000000E+00  0.00000000000E+00  0.12082935146E+04  0.12082935146E+04  0.00000000000E+00 0. -1.
         -2   -1    0    0    0  501 -0.00000000000E+00 -0.00000000000E+00 -0.27421392445E+02  0.27421392445E+02  0.00000000000E+00 0.  1.
         25    2    1    2    0    0 -0.20556698909E+02 -0.45864193515E+02  0.10810452451E+04  0.10894185934E+04  0.12509175624E+03 0.  0.
          5    1    3    3  502    0  0.42648548828E+02 -0.60924291668E+01  0.17430391701E+03  0.17959772909E+03  0.41800000000E+01 0.  1.
         -5    1    3    3    0  502 -0.63205247737E+02 -0.39771764348E+02  0.90674132814E+03  0.90982086431E+03  0.41800000000E+01 0.  1.
        -11    1    1    2    0    0 -0.16939329408E+02 -0.21734973247E+01  0.80609699450E+02  0.82398960047E+02  0.00000000000E+00 0. -1.
         11    1    1    2    0    0  0.37496028316E+02  0.48037690840E+02  0.19217177530E+02  0.63897353568E+02  0.00000000000E+00 0.  1.
</event>
<event>
 7    1  0.2900135E-009  0.1632153E+03  0.7561462E-02  0.1185114E+00
         -2   -1    0    0    0  501 -0.00000000000E+00  0.00000000000E+00  0.14599296855E+03  0.14599296855E+03  0.00000000000E+00 0.  1.
          2   -1    0    0  501    0  0.00000000000E+00 -0.00000000000E+00 -0.24961217332E+03  0.24961217332E+03  0.00000000000E+00 0. -1.
         25    2    1    2    0    0  0.45256606114E+02 -0.14949846403E+03 -0.46657905972E+02  0.20548233276E+03  0.12509227692E+03 0.  0.
          5    1    3    3  502    0  0.25269743928E+02 -0.14161394459E+03  0.10482621683E+02  0.14429285158E+03  0.41800000000E+01 0. -1.
         -5    1    3    3    0  502  0.19986862186E+02 -0.78845194433E+01 -0.57140527655E+02  0.61189481184E+02  0.41800000000E+01 0. -1.
        -11    1    1    2    0    0 -0.11576398011E+02  0.10054893393E+03  0.86787057723E+01  0.10158455118E+03  0.00000000000E+00 0. -1.
         11    1    1    2    0    0 -0.33680208103E+02  0.48949530104E+02 -0.65640004569E+02  0.88538257917E+02  0.00000000000E+00 0.  1.
</event>
<event>
 7    1  0.2900135E-009  0.1053202E+03  0.7561462E-02  0.1269490E+00
          1   -1    0    0  501    0  0.00000000000E+00  0.00000000000E+00  0.12313911034E+03  0.12313911034E+03  0.00000000000E+00 0. -1.
         -1   -1    0    0    0  501 -0.00000000000E+00 -0.00000000000E+00 -0.11152328703E+03  0.11152328703E+03  0.00000000000E+00 0.  1.
         25    2    1    2    0    0  0.40316497869E+02 -0.71198669905E+01  0.29971032399E+02  0.13498899289E+03  0.12509057884E+03 0.  0.
          5    1    3    3  502    0  0.77384178174E+02 -0.18644973769E+02  0.46846580205E+02  0.92455505814E+02  0.41800000000E+01 0.  1.
         -5    1    3    3    0  502 -0.37067680305E+02  0.11525106778E+02 -0.16875547806E+02  0.42533487080E+02  0.41800000000E+01 0.  1.
        -11    1    1    2    0    0 -0.96527804430E+01  0.43357691154E+02  0.83641878866E+01  0.45199836189E+02  0.00000000000E+00 0. -1.
         11    1    1    2    0    0 -0.30663717426E+02 -0.36237824163E+02 -0.26719396976E+02  0.54473568281E+02  0.00000000000E+00 0.  1.
</event>
<event>
 7    1  0.2900135E-009  0.1286258E+03  0.7561462E-02  0.1229509E+00
          1   -1    0    0  501    0  0.00000000000E+00  0.00000000000E+00  0.10777052186E+03  0.10777052186E+03  0.00000000000E+00 0. -1.
         -1   -1    0    0    0  501 -0.00000000000E+00 -0.00000000000E+00 -0.20742995037E+03  0.20742995037E+03  0.00000000000E+00 0.  1.
         25    2    1    2    0    0 -0.40490700511E+02 -0.90913459867E+02 -0.83438039523E+02  0.18031590730E+03  0.12508863246E+03 0.  0.
          5    1    3    3  502    0 -0.65274820163E+02 -0.73159879964E+02 -0.10424469366E+03  0.14316982483E+03  0.41800000000E+01 0.  1.
         -5    1    3    3    0  502  0.24784119652E+02 -0.17753579903E+02  0.20806654141E+02  0.37146082469E+02  0.41800000000E+01 0.  1.
        -11    1    1    2    0    0  0.27522513238E+02 -0.79386992479E+01  0.12318305915E+02  0.31180961199E+02  0.00000000000E+00 0.  1.
         11    1    1    2    0    0  0.12968187274E+02  0.98852159115E+02 -0.28539694897E+02  0.10370360374E+03  0.00000000000E+00 0. -1.
</event>
<event>
 7    1  0.2900135E-009  0.1423553E+03  0.7561462E-02  0.1210194E+00
          1   -1    0    0  501    0  0.00000000000E+00  0.00000000000E+00  0.35632829160E+03  0.35632829160E+03  0.00000000000E+00 0. -1.
         -1   -1    0    0    0  501 -0.00000000000E+00 -0.00000000000E+00 -0.79118226933E+02  0.79118226933E+02  0.00000000000E+00 0.  1.
         25    2    1    2    0    0 -0.72168465120E+02  0.86139926791E+02  0.22203804733E+03  0.27853021968E+03  0.12509921850E+03 0.  0.
          5    1    3    3  502    0 -0.62843416918E+02 -0.92723299007E+01  0.13378595143E+03  0.14816013077E+03  0.41800000000E+01 0. -1.
         -5    1    3    3    0  502 -0.93250482026E+01  0.95412256692E+02  0.88252095897E+02  0.13037008891E+03  0.41800000000E+01 0. -1.
        -11    1    1    2    0    0  0.38229787211E+02 -0.68436015015E+01 -0.18927358232E+02  0.43204124819E+02  0.00000000000E+00 0.  1.
         11    1    1    2    0    0  0.33938677910E+02 -0.79296325289E+02  0.74099375572E+02  0.11371217403E+03  0.00000000000E+00 0. -1.
</event>
<event>
 7    1  0.2900135E-009  0.1530410E+03  0.7561462E-02  0.1196785E+00
          2   -1    0    0  501    0  0.00000000000E+00  0.00000000000E+00  0.12737637223E+04  0.12737637223E+04  0.00000000000E+00 0. -1.
         -2   -1    0    0    0  501 -0.00000000000E+00 -0.00000000000E+00 -0.22200655743E+02  0.22200655743E+02  0.00000000000E+00 0.  1.
         25    2    1    2    0    0  0.81546588107E+02 -0.10047526998E+03  0.68135210158E+03  0.70472574338E+03  0.12511019599E+03 0.  0.
          5    1    3    3  502    0  0.15720866870E+02  0.13015097660E+02  0.31284260969E+03  0.31353549920E+03  0.41800000000E+01 0. -1.
         -5    1    3    3    0  502  0.65825721237E+02 -0.11349036764E+03  0.36850949189E+03  0.39119024418E+03  0.41800000000E+01 0. -1.
        -11    1    1    2    0    0 -0.80370339965E+02  0.33621112461E+02  0.27148094169E+03  0.28511694522E+03  0.00000000000E+00 0.  1.
         11    1    1    2    0    0 -0.11762481418E+01  0.66854157523E+02  0.29873002327E+03  0.30612168944E+03  0.00000000000E+00 0. -1.
</event>
<event>
 7    1  0.2900135E-009  0.1791358E+03  0.7561462E-02  0.1168642E+00
          4   -1    0    0  501    0  0.00000000000E+00  0.00000000000E+00  0.31506892486E+03  0.31506892486E+03  0.00000000000E+00 0. -1.
         -4   -1    0    0    0  501 -0.00000000000E+00 -0.00000000000E+00 -0.11895035818E+03  0.11895035818E+03  0.00000000000E+00 0.  1.
         25    2    1    2    0    0  0.14693044421E+03 -0.15757353222E+02  0.33967681483E+02  0.19656601455E+03  0.12509014778E+03 0.  0.
          5    1    3    3  502    0 -0.22648573375E+02  0.93519428670E+00  0.19233236627E+01  0.23130154306E+02  0.41800000000E+01 0. -1.
         -5    1    3    3    0  502  0.16957901759E+03 -0.16692547509E+02  0.32044357820E+02  0.17343586024E+03  0.41800000000E+01 0. -1.
        -11    1    1    2    0    0 -0.26007099843E+02  0.33653233828E+02  0.12719503794E+02  0.44392512500E+02  0.00000000000E+00 0.  1.
         11    1    1    2    0    0 -0.12092334437E+03 -0.17895880606E+02  0.14943138140E+03  0.19306075599E+03  0.00000000000E+00 0. -1.
</event>
<event>
 7    1  0.2900135E-009  0.1075490E+03  0.7561462E-02  0.1265177E+00
         -2   -1    0    0    0  501 -0.00000000000E+00  0.00000000000E+00  0.38522212972E+02  0.38522212972E+02  0.00000000000E+00 0.  1.
          2   -1    0    0  501    0  0.00000000000E+00 -0.00000000000E+00 -0.44338129011E+03  0.44338129011E+03  0.00000000000E+00 0. -1.
         25    2    1    2    0    0  0.48666492921E-01 -0.71541982151E+02 -0.22237621789E+03  0.26498490555E+03  0.12509020868E+03 0.  0.
          5    1    3    3  502    0  0.26160742716E+02  0.26300432841E+02 -0.95894493955E+02  0.10290443916E+03  0.41800000000E+01 0.  1.
         -5    1    3    3    0  502 -0.26112076223E+02 -0.97842414992E+02 -0.12648172393E+03  0.16208046639E+03  0.41800000000E+01 0.  1.
        -11    1    1    2    0    0  0.13388762410E+02  0.34108186279E+02 -0.74083988500E+01  0.37383307821E+02  0.00000000000E+00 0.  1.
         11    1    1    2    0    0 -0.13437428903E+02  0.37433795872E+02 -0.17507446040E+03  0.17953528971E+03  0.00000000000E+00 0. -1.
</event>
<event>
 7    1  0.2900135E-009  0.2152955E+03  0.7561462E-02  0.1137440E+00
         -1   -1    0    0    0  501 -0.00000000000E+00  0.00000000000E+00  0.33171599184E+02  0.33171599184E+02  0.00000000000E+00 0.  1.
          1   -1    0    0  501    0  0.00000000000E+00 -0.00000000000E+00 -0.15468043277E+04  0.15468043277E+04  0.00000000000E+00 0. -1.
         25    2    1    2    0    0 -0.15721843839E+03  0.10677198787E+03 -0.58791509150E+03  0.63040512951E+03  0.12509427539E+03 0.  0.
          5    1    3    3  502    0 -0.16781129653E+03  0.12172969514E+03 -0.55541985429E+03  0.59286375910E+03  0.41800000000E+01 0. -1.
         -5    1    3    3    0  502  0.10592858143E+02 -0.14957707272E+02 -0.32495237215E+02  0.37541370408E+02  0.41800000000E+01 0. -1.
        -11    1    1    2    0    0  0.96886531040E+02 -0.10667270949E+03 -0.75178554718E+03  0.76547212607E+03  0.00000000000E+00 0. -1.
         11    1    1    2    0    0  0.60331907348E+02 -0.99278380200E-01 -0.17393208983E+03  0.18409867130E+03  0.00000000000E+00 0.  1.
</event>
<event>
 7    1  0.2900135E-009  0.9603785E+02  0.7561462E-02  0.1288856E+00
          2   -1    0    0  501    0  0.00000000000E+00  0.00000000000E+00  0.33324421035E+02  0.33324421035E+02  0.00000000000E+00 0. -1.
         -2   -1    0    0    0  501 -0.00000000000E+00 -0.00000000000E+00 -0.42086167019E+03  0.42086167019E+03  0.00000000000E+00 0.  1.
         25    2    1    2    0    0  0.19954727046E+02  0.41958428364E+02 -0.19463564503E+03  0.23598645070E+03  0.12509144557E+03 0.  0.
          5    1    3    3  502    0  0.70793657138E+02  0.41995608806E+02 -0.12176251809E+03  0.14703386094E+03  0.41800000000E+01 0. -1.
         -5    1    3    3    0  502 -0.50838930092E+02 -0.37180442778E-01 -0.72873126941E+02  0.88952589763E+02  0.41800000000E+01 0. -1.
        -11    1    1    2    0    0 -0.30041693662E+02 -0.36161948033E+02 -0.19940462202E+03  0.20487165037E+03  0.00000000000E+00 0.  1.
         11    1    1    2    0    0  0.10086966617E+02 -0.57964803311E+01  0.65030178969E+01  0.13327990153E+02  0.00000000000E+00 0. -1.
</event>
<event>
 7    1  0.2900135E-009  0.1344982E+03  0.7561462E-02  0.1220930E+00
         -2   -1    0    0    0  501 -0.00000000000E+00  0.00000000000E+00  0.27525888188E+02  0.27525888188E+02  0.00000000000E+00 0. -1.
          2   -1    0    0  501    0  0.00000000000E+00 -0.00000000000E+00 -0.93476265554E+03  0.93476265554E+03  0.00000000000E+00 0.  1.
         25    2    1    2    0    0  0.11036252643E+03  0.41680139042E+02 -0.51783425271E+03  0.54563445113E+03  0.12509004658E+03 0.  0.
          5    1    3    3  502    0  0.10732603073E+03 -0.13890687284E+01 -0.22183055271E+03  0.24646921288E+03  0.41800000000E+01 0.  1.
         -5    1    3    3    0  502  0.30364957082E+01  0.43069207770E+02 -0.29600370000E+03  0.29916523825E+03  0.41800000000E+01 0.  1.
        -11    1    1    2    0    0 -0.98458501792E+02 -0.34652676086E+02 -0.38906849804E+03  0.40282648957E+03  0.00000000000E+00 0.  1.
         11    1    1    2    0    0 -0.11904024641E+02 -0.70274629561E+01 -0.33401660478E+00  0.13827603023E+02  0.00000000000E+00 0. -1.
</event>
<event>
 7    1  0.2900135E-009  0.1278166E+03  0.7561462E-02  0.1230732E+00
         -2   -1    0    0    0  501 -0.00000000000E+00  0.00000000000E+00  0.32954694491E+02  0.32954694491E+02  0.00000000000E+00 0.  1.
          2   -1    0    0  501    0  0.00000000000E+00 -0.00000000000E+00 -0.10759160764E+04  0.10759160764E+04  0.00000000000E+00 0. -1.
         25    2    1    2    0    0 -0.68277595659E+02  0.22862507132E+02 -0.94951674108E+03  0.96042357751E+03  0.12508749879E+03 0.  0.
          5    1    3    3  502    0  0.27511296757E+02 -0.24595338028E+02 -0.22269310298E+03  0.22576867058E+03  0.41800000000E+01 0. -1.
         -5    1    3    3    0  502 -0.95788892416E+02  0.47457845160E+02 -0.72682363810E+03  0.73465490693E+03  0.41800000000E+01 0. -1.
        -11    1    1    2    0    0  0.43260000053E+02 -0.55513488514E+02 -0.39818306112E+02  0.80862058552E+02  0.00000000000E+00 0.  1.
         11    1    1    2    0    0  0.25017595606E+02  0.32650981382E+02 -0.53626334753E+02  0.67585134861E+02  0.00000000000E+00 0. -1.
</event>
<event>
 7    1  0.2900135E-009  0.1336509E+03  0.7561462E-02  0.1222137E+00
         -1   -1    0    0    0  501 -0.00000000000E+00  0.00000000000E+00  0.29364611822E+02  0.29364611822E+02  0.00000000000E+00 0.  1.
          1   -1    0    0  501    0  0.00000000000E+00 -0.00000000000E+00 -0.71784693402E+03  0.71784693402E+03  0.00000000000E+00 0. -1.
         25    2    1    2    0    0  0.82800105475E+02  0.46480431315E+02 -0.33045700829E+03  0.36587760851E+03  0.12509317375E+03 0.  0.
          5    1    3    3  502    0  0.92981010375E+02  0.75531694887E+02 -0.21331314015E+03  0.24468443634E+03  0.41800000000E+01 0. -1.
         -5    1    3    3    0  502 -0.10180904900E+02 -0.29051263572E+02 -0.11714386814E+03  0.12119317218E+03  0.41800000000E+01 0. -1.
        -11    1    1    2    0    0 -0.22736862887E+02 -0.51300076492E+02 -0.85801317698E+02  0.10252087056E+03  0.00000000000E+00 0.  1.
         11    1    1    2    0    0 -0.60063242588E+02  0.48196451768E+01 -0.27222399621E+03  0.27881306677E+03  0.00000000000E+00 0. -1.
</event>
<event>
 7    1  0.3600410E-009  0.1319651E+03  0.7561462E-02  0.1224569E+00
         -1   -1    0    0    0  501 -0.00000000000E+00  0.00000000000E+00  0.19576605004E+02  0.19576605004E+02  0.00000000000E+00 0.  1.
          1   -1    0    0  501    0  0.00000000000E+00 -0.00000000000E+00 -0.10719323038E+04  0.10719323038E+04  0.00000000000E+00 0. -1.
         25    2    1    2    0    0 -0.24392915679E+02  0.82371582191E+02 -0.72950908622E+03  0.74512462897E+03  0.12508842445E+03 0.  0.
          5    1    3    3  502    0  0.30521249432E+02 -0.10739154941E+02 -0.75764977095E+02  0.82490485936E+02  0.41800000000E+01 0. -1.
         -5    1    3    3    0  502 -0.54914165111E+02  0.93110737132E+02 -0.65374410912E+03  0.66263414303E+03  0.41800000000E+01 0. -1.
        -11    1    1    2    0    0  0.51593235881E+02 -0.20456763611E+02 -0.17953846177E+03  0.18792126122E+03  0.00000000000E+00 0.  1.
         11    1    1    2    0    0 -0.27200320202E+02 -0.61914818580E+02 -0.14330815081E+03  0.15846301861E+03  0.00000000000E+00 0. -1.
</event>
<event>
 7    1  0.2900135E-009  0.1234026E+03  0.7561462E-02  0.1237587E+00
         -2   -1    0    0    0  501 -0.00000000000E+00  0.00000000000E+00  0.31241377477E+03  0.31241377477E+03  0.00000000000E+00 0.  1.
          2   -1    0    0  501    0  0.00000000000E+00 -0.00000000000E+00 -0.71352870904E+02  0.71352870904E+02  0.00000000000E+00 0. -1.
         25    2    1    2    0    0 -0.17647497742E+02 -0.68616373195E+02  0.35046148512E+02  0.14796486929E+03  0.12508288921E+03 0.  0.
          5    1    3    3  502    0  0.19785885545E+02 -0.93950118702E+02  0.11381275984E+02  0.96773508327E+02  0.41800000000E+01 0. -1.
         -5    1    3    3    0  502 -0.37433383287E+02  0.25333745507E+02  0.23664872528E+02  0.51191360965E+02  0.41800000000E+01 0. -1.
        -11    1    1    2    0    0 -0.23686808226E+02  0.57976468631E+02  0.16549748584E+03  0.17695127470E+03  0.00000000000E+00 0.  1.
         11    1    1    2    0    0  0.41334305969E+02  0.10639904564E+02  0.40517269514E+02  0.58850501679E+02  0.00000000000E+00 0. -1.
</event>
<event>
 7    1  0.2900135E-009  0.1082563E+03  0.7561462E-02  0.1263833E+00
          1   -1    0    0  501    0  0.00000000000E+00  0.00000000000E+00  0.32396914199E+03  0.32396914199E+03  0.00000000000E+00 0. -1.
         -1   -1    0    0    0  501 -0.00000000000E+00 -0.00000000000E+00 -0.40860200310E+02  0.40860200310E+02  0.00000000000E+00 0.  1.
         25    2    1    2    0    0  0.18733291923E+02  0.12101569184E+02  0.22214596631E+03  0.25591791753E+03  0.12509103071E+03 0.  0.
          5    1    3    3  502    0 -0.41070942913E+02 -0.31713810500E+02  0.78112398850E+02  0.93870162364E+02  0.41800000000E+01 0.  1.
         -5    1    3    3    0  502  0.59804234835E+02  0.43815379684E+02  0.14403356746E+03  0.16204775517E+03  0.41800000000E+01 0.  1.
        -11    1    1    2    0    0 -0.48840577138E+02 -0.27848933212E+02  0.36207765480E+02  0.66872769774E+02  0.00000000000E+00 0.  1.
         11    1    1    2    0    0  0.30107285215E+02  0.15747364028E+02  0.24755209896E+02  0.42038654996E+02  0.00000000000E+00 0. -1.
</event>
<event>
 7    1  0.2900135E-009  0.9421793E+02  0.7561462E-02  0.1292947E+00
         -1   -1    0    0    0  501 -0.00000000000E+00  0.00000000000E+00  0.10718681846E+04  0.10718681846E+04  0.00000000000E+00 0.  1.
          1   -1    0    0  501    0  0.00000000000E+00 -0.00000000000E+00 -0.13837295807E+02  0.13837295807E+02  0.00000000000E+00 0. -1.
         25    2    1    2    0    0 -0.33005620103E+02 -0.38595097390E+02  0.67817137922E+03  0.69147854205E+03  0.12508877656E+03 0.  0.
          5    1    3    3  502    0 -0.27569920043E+01 -0.50153914892E+02  0.63672211479E+03  0.63871397358E+03  0.41800000000E+01 0. -1.
         -5    1    3    3    0  502 -0.30248628099E+02  0.11558817502E+02  0.41449264425E+02  0.52764568465E+02  0.41800000000E+01 0. -1.
        -11    1    1    2    0    0  0.17215391161E+02  0.69003372758E+02  0.24919595050E+03  0.25914562873E+03  0.00000000000E+00 0.  1.
         11    1    1    2    0    0  0.15790228942E+02 -0.30408275368E+02  0.13066355908E+03  0.13508130963E+03  0.00000000000E+00 0. -1.
</event>
<event>
 7    1  0.2900135E-009  0.1152180E+03  0.7561462E-02  0.1251201E+00
         -3   -1    0    0    0  501 -0.00000000000E+00  0.00000000000E+00  0.28147248440E+03  0.28147248440E+03  0.00000000000E+00 0.  1.
          3   -1    0    0  501    0  0.00000000000E+00 -0.00000000000E+00 -0.64361191981E+02  0.64361191981E+02  0.00000000000E+00 0. -1.
         25    2    1    2    0    0  0.32043564122E+02 -0.60988458471E+02  0.67478339558E+02  0.15793298582E+03  0.12507245752E+03 0.  0.
          5    1    3    3  502    0  0.23145707892E+02 -0.99714077424E+02  0.43239214752E+02  0.11120127303E+03  0.41800000000E+01 0.  1.
         -5    1    3    3    0  502  0.88978562299E+01  0.38725618953E+02  0.24239124806E+02  0.46731712789E+02  0.41800000000E+01 0.  1.
        -11    1    1    2    0    0 -0.18702317726E+02 -0.60671041178E+01  0.10366816824E+03  0.10551623357E+03  0.00000000000E+00 0.  1.
         11    1    1    2    0    0 -0.13341246396E+02  0.67055562589E+02  0.45964784626E+02  0.82384457001E+02  0.00000000000E+00 0. -1.
</event>
<event>
 7    1  0.2900135E-009  0.1078117E+03  0.7561462E-02  0.1264677E+00
         -1   -1    0    0    0  501 -0.00000000000E+00  0.00000000000E+00  0.25265756372E+03  0.25265756372E+03  0.00000000000E+00 0.  1.
          1   -1    0    0  501    0  0.00000000000E+00 -0.00000000000E+00 -0.65200296545E+02  0.65200296545E+02  0.00000000000E+00 0. -1.
         25    2    1    2    0    0  0.31871960923E+01 -0.31855802617E+02  0.18057592465E+03  0.22199359708E+03  0.12509413336E+03 0.  0.
          5    1    3    3  502    0  0.98571144505E+01  0.43217735101E+02  0.30396217280E+02  0.53910460557E+02  0.41800000000E+01 0. -1.
         -5    1    3    3    0  502 -0.66699183581E+01 -0.75073537719E+02  0.15017970737E+03  0.16808313652E+03  0.41800000000E+01 0. -1.
        -11    1    1    2    0    0 -0.45015637451E+02  0.29292727878E+02  0.42289110963E+01  0.53873511216E+02  0.00000000000E+00 0. -1.
         11    1    1    2    0    0  0.41828441359E+02  0.25630747390E+01  0.26524314280E+01  0.41990751971E+02  0.00000000000E+00 0.  1.
</event>
<event>
 7    1  0.2900135E-009  0.1458366E+03  0.7561462E-02  0.1205684E+00
         -1   -1    0    0    0  501 -0.00000000000E+00  0.00000000000E+00  0.85629561201E+02  0.85629561201E+02  0.00000000000E+00 0.  1.
          1   -1    0    0  501    0  0.00000000000E+00 -0.00000000000E+00 -0.33565482164E+03  0.33565482164E+03  0.00000000000E+00 0. -1.
         25    2    1    2    0    0 -0.93113395141E+02  0.87709719847E+02 -0.16040021140E+03  0.24028972194E+03  0.12509126007E+03 0.  0.
          5    1    3    3  502    0 -0.85071918802E+02  0.91178781542E+02 -0.17965184213E+03  0.21873056109E+03  0.41800000000E+01 0.  1.
         -5    1    3    3    0  502 -0.80414763399E+01 -0.34690616948E+01  0.19251630737E+02  0.21559160855E+02  0.41800000000E+01 0.  1.
        -11    1    1    2    0    0 -0.85463421936E+01 -0.46865158228E+02 -0.29273882802E+02  0.55913712405E+02  0.00000000000E+00 0. -1.
         11    1    1    2    0    0  0.10165973734E+03 -0.40844561619E+02 -0.60351166239E+02  0.12508094849E+03  0.00000000000E+00 0.  1.
</event>
<event>
 7    1  0.2900135E-009  0.2194279E+03  0.7561462E-02  0.1134310E+00
         -1   -1    0    0    0  501 -0.00000000000E+00  0.00000000000E+00  0.43596054020E+02  0.43596054020E+02  0.00000000000E+00 0.  1.
          1   -1    0    0  501    0  0.00000000000E+00 -0.00000000000E+00 -0.12548387822E+04  0.12548387822E+04  0.00000000000E+00 0. -1.
         25    2    1    2    0    0 -0.75460625431E+02  0.18511514913E+03 -0.78871087663E+03  0.82320969686E+03  0.12508970249E+03 0.  0.
          5    1    3    3  502    0 -0.10265188207E+03  0.16056027353E+03 -0.56018277099E+03  0.59172562869E+03  0.41800000000E+01 0. -1.
         -5    1    3    3    0  502  0.27191256642E+02  0.24554875600E+02 -0.22852810563E+03  0.23148406817E+03  0.41800000000E+01 0. -1.
        -11    1    1    2    0    0  0.69992969799E+02 -0.80775684510E+02 -0.15749912654E+03  0.19034101473E+03  0.00000000000E+00 0. -1.
         11    1    1    2    0    0  0.54676556314E+01 -0.10433946462E+03 -0.26503272506E+03  0.28488412467E+03  0.00000000000E+00 0.  1.
</event>
<event>
 7    1  0.2900135E-009  0.1952946E+03  0.7561462E-02  0.1153771E+00
          2   -1    0    0  501    0  0.00000000000E+00  0.00000000000E+00  0.30838906091E+03  0.30838906091E+03  0.00000000000E+00 0. -1.
         -2   -1    0    0    0  501 -0.00000000000E+00 -0.00000000000E+00 -0.15788648370E+03  0.15788648370E+03  0.00000000000E+00 0.  1.
         25    2    1    2    0    0  0.15183475610E+03 -0.79658450350E+02 -0.85553255422E+01  0.21241247964E+03  0.12508639429E+03 0.  0.
          5    1    3    3  502    0  0.13387387365E+03 -0.11210010357E+03 -0.30085565848E+01  0.17468592124E+03  0.41800000000E+01 0.  1.
         -5    1    3    3    0  502  0.17960882457E+02  0.32441653224E+02 -0.55467689574E+01  0.37726558396E+02  0.41800000000E+01 0.  1.
        -11    1    1    2    0    0 -0.81627943041E+02  0.14653609526E+02  0.12939439779E+03  0.15369046664E+03  0.00000000000E+00 0. -1.
         11    1    1    2    0    0 -0.70206813062E+02  0.65004840823E+02  0.29663504971E+02  0.10017259834E+03  0.00000000000E+00 0.  1.
</event>
<event>
 7    1  0.2900135E-009  0.1031463E+03  0.7561462E-02  0.1273816E+00
         -1   -1    0    0    0  501 -0.00000000000E+00  0.00000000000E+00  0.81365764604E+02  0.81365764604E+02  0.00000000000E+00 0.  1.
          1   -1    0    0  501    0  0.00000000000E+00 -0.00000000000E+00 -0.17491748813E+03  0.17491748813E+03  0.00000000000E+00 0. -1.
         25    2    1    2    0    0  0.32461936608E+02  0.35716823788E+02 -0.63594165447E+02  0.14839035360E+03  0.12508401310E+03 0.  0.
          5    1    3    3  502    0  0.22827808061E+02 -0.30488569408E+02 -0.71272262723E+02  0.80918907056E+02  0.41800000000E+01 0. -1.
         -5    1    3    3    0  502  0.96341285473E+01  0.66205393197E+02  0.76780972758E+01  0.67471446546E+02  0.41800000000E+01 0. -1.
        -11    1    1    2    0    0 -0.46428587918E+02 -0.58215121734E+02 -0.32589359024E+02  0.81281489259E+02  0.00000000000E+00 0. -1.
         11    1    1    2    0    0  0.13966651309E+02  0.22498297945E+02  0.26318009454E+01  0.26611409874E+02  0.00000000000E+00 0.  1.
</event>
<event>
 7    1  0.2900135E-009  0.2665325E+03  0.7561462E-02  0.1103281E+00
          2   -1    0    0  501    0  0.00000000000E+00  0.00000000000E+00  0.31473103152E+03  0.31473103152E+03  0.00000000000E+00 0.  1.
         -2   -1    0    0    0  501 -0.00000000000E+00 -0.00000000000E+00 -0.30471208645E+03  0.30471208645E+03  0.00000000000E+00 0. -1.
         25    2    1    2    0    0 -0.20882516019E+03 -0.13033388158E+03  0.15816278408E+03  0.31819899552E+03  0.12506105014E+03 0.  0.
          5    1    3    3  502    0 -0.22016185543E+03 -0.13872459422E+03  0.14251265884E+03  0.29672055197E+03  0.41800000000E+01 0. -1.
         -5    1    3    3    0  502  0.11336695238E+02  0.83907126348E+01  0.15650125237E+02  0.21478443551E+02  0.41800000000E+01 0. -1.
        -11    1    1    2    0    0  0.13976454358E+03  0.41932724966E+02 -0.11007622504E+03  0.18278199141E+03  0.00000000000E+00 0. -1.
         11    1    1    2    0    0  0.69060616619E+02  0.88401156615E+02 -0.38067613961E+02  0.11846213104E+03  0.00000000000E+00 0.  1.
</event>
<event>
 7    1  0.2900135E-009  0.7939900E+02  0.7561462E-02  0.1330766E+00
         -2   -1    0    0    0  501 -0.00000000000E+00  0.00000000000E+00  0.10446933709E+03  0.10446933709E+03  0.00000000000E+00 0.  1.
          2   -1    0    0  501    0  0.00000000000E+00 -0.00000000000E+00 -0.16227237462E+03  0.16227237462E+03  0.00000000000E+00 0. -1.
         25    2    1    2    0    0 -0.67388356042E+01  0.46759598957E+02 -0.88040183234E+02  0.16009546806E+03  0.12509041941E+03 0.  0.
          5    1    3    3  502    0  0.11487223198E+02  0.10782007215E+02  0.30625925891E+02  0.34693338165E+02  0.41800000000E+01 0.  1.
         -5    1    3    3    0  502 -0.18226058802E+02  0.35977591741E+02 -0.11866610913E+03  0.12540212989E+03  0.41800000000E+01 0.  1.
        -11    1    1    2    0    0 -0.25502532062E+02  0.16899231743E+02  0.52546440894E+01  0.31041495769E+02  0.00000000000E+00 0.  1.
         11    1    1    2    0    0  0.32241367666E+02 -0.63658830700E+02  0.24982501617E+02  0.75604747881E+02  0.00000000000E+00 0. -1.
</event>
<event>
 7    1  0.2900135E-009  0.1564395E+03  0.7561462E-02  0.1192776E+00
          2   -1    0    0  501    0  0.00000000000E+00  0.00000000000E+00  0.69711370556E+03  0.69711370556E+03  0.00000000000E+00 0. -1.
         -2   -1    0    0    0  501 -0.00000000000E+00 -0.00000000000E+00 -0.44718253547E+02  0.44718253547E+02  0.00000000000E+00 0.  1.
         25    2    1    2    0    0  0.80401022484E+02  0.92519165963E+02  0.20619666226E+03  0.27053437800E+03  0.12509062980E+03 0.  0.
          5    1    3    3  502    0 -0.92350939769E+01  0.68413010574E+02  0.39377331895E+02  0.79584380652E+02  0.41800000000E+01 0. -1.
         -5    1    3    3    0  502  0.89636116461E+02  0.24106155388E+02  0.16681933037E+03  0.19094999735E+03  0.41800000000E+01 0. -1.
        -11    1    1    2    0    0 -0.10800073652E+02 -0.79208777894E+02  0.21013979155E+03  0.22483194630E+03  0.00000000000E+00 0. -1.
         11    1    1    2    0    0 -0.69600948832E+02 -0.13310388068E+02  0.23605899820E+03  0.24646563481E+03  0.00000000000E+00 0.  1.
</event>
<event>
 7    1  0.2900135E-009  0.7429213E+02  0.7561462E-02  0.1346077E+00
          4   -1    0    0  501    0  0.00000000000E+00  0.00000000000E+00  0.11125696744E+03  0.11125696744E+03  0.00000000000E+00 0. -1.
         -4   -1    0    0    0  501 -0.00000000000E+00 -0.00000000000E+00 -0.12036616486E+03  0.12036616486E+03  0.00000000000E+00 0.  1.
         25    2    1    2    0    0 -0.12067742207E+02 -0.17164813424E+01  0.29561946742E+02  0.12911327616E+03  0.12509097760E+03 0.  0.
          5    1    3    3  502    0  0.10128100846E+02 -0.43644338715E+02 -0.29073651254E+02  0.53573839939E+02  0.41800000000E+01 0.  1.
         -5    1    3    3    0  502 -0.22195843053E+02  0.41927857372E+02  0.58635597996E+02  0.75539436224E+02  0.41800000000E+01 0.  1.
        -11    1    1    2    0    0  0.18402470329E+02  0.25444747028E+02 -0.61452829212E+02  0.69011131593E+02  0.00000000000E+00 0.  1.
         11    1    1    2    0    0 -0.63347281225E+01 -0.23728265686E+02  0.22781685051E+02  0.33498724552E+02  0.00000000000E+00 0. -1.
</event>
<event>
 7    1  0.2900135E-009  0.1356583E+03  0.7561462E-02  0.1219293E+00
         -1   -1    0    0    0  501 -0.00000000000E+00  0.00000000000E+00  0.10360236712E+03  0.10360236712E+03  0.00000000000E+00 0.  1.
          1   -1    0    0  501    0  0.00000000000E+00 -0.00000000000E+00 -0.20195861567E+03  0.20195861567E+03  0.00000000000E+00 0. -1.
         25    2    1    2    0    0  0.53151925471E+02 -0.71524403792E+02 -0.19403173902E+02  0.15480884490E+03  0.12509367603E+03 0.  0.
          5    1    3    3  502    0  0.15030911493E+02 -0.10253482561E+03 -0.19270442535E+02  0.10549000483E+03  0.41800000000E+01 0.  1.
         -5    1    3    3    0  502  0.38121013978E+02  0.31010421821E+02 -0.13273136706E+00  0.49318840070E+02  0.41800000000E+01 0.  1.
        -11    1    1    2    0    0 -0.24783846357E+02  0.83788778180E+02 -0.81831135676E+02  0.11971271092E+03  0.00000000000E+00 0. -1.
         11    1    1    2    0    0 -0.28368079114E+02 -0.12264374388E+02  0.28780610317E+01  0.31039426977E+02  0.00000000000E+00 0.  1.
</event>
<event>
 7    1  0.2900135E-009  0.7299670E+02  0.7561462E-02  0.1350189E+00
         -1   -1    0    0    0  501 -0.00000000000E+00  0.00000000000E+00  0.96110100712E+02  0.96110100712E+02  0.00000000000E+00 0. -1.
          1   -1    0    0  501    0  0.00000000000E+00 -0.00000000000E+00 -0.18446956602E+03  0.18446956602E+03  0.00000000000E+00 0.  1.
         25    2    1    2    0    0 -0.39237227440E+02 -0.34698987616E+02 -0.10880762467E+03  0.17387217479E+03  0.12509538050E+03 0.  0.
          5    1    3    3  502    0 -0.11066695093E+02 -0.19187232747E+02 -0.13205881515E+03  0.13396874524E+03  0.41800000000E+01 0.  1.
         -5    1    3    3    0  502 -0.28170532347E+02 -0.15511754868E+02  0.23251190481E+02  0.39903429560E+02  0.41800000000E+01 0.  1.
        -11    1    1    2    0    0  0.60818782350E+02  0.17104246687E+02 -0.11619541168E+02  0.64237786996E+02  0.00000000000E+00 0.  1.
         11    1    1    2    0    0 -0.21581554910E+02  0.17594740929E+02  0.32067700529E+02  0.42469704942E+02  0.00000000000E+00 0. -1.
</event>
<event>
 7    1  0.2900135E-009  0.2146374E+03  0.7561462E-02  0.1137945E+00
         -3   -1    0    0    0  501 -0.00000000000E+00  0.00000000000E+00  0.37794868264E+04  0.37794868264E+04  0.00000000000E+00 0.  1.
          3   -1    0    0  501    0  0.00000000000E+00 -0.00000000000E+00 -0.16093358400E+02  0.16093358400E+02  0.00000000000E+00 0. -1.
         25    2    1    2    0    0 -0.39746400425E+02  0.18834143449E+03  0.27792826121E+04  0.27887471480E+04  0.12508615115E+03 0.  0.
          5    1    3    3  502    0  0.30112971420E+02  0.26532802781E+02  0.98458567631E+03  0.98541220161E+03  0.41800000000E+01 0. -1.
         -5    1    3    3    0  502 -0.69859371845E+02  0.16180863171E+03  0.17946969358E+04  0.18033349464E+04  0.41800000000E+01 0. -1.
        -11    1    1    2    0    0  0.68220459180E+02 -0.11189883917E+03  0.61861733706E+03  0.63234704947E+03  0.00000000000E+00 0.  1.
         11    1    1    2    0    0 -0.28474058755E+02 -0.76442595322E+02  0.36549351886E+03  0.37448598736E+03  0.00000000000E+00 0. -1.
</event>
<event>
 7    1  0.2900135E-009  0.1200944E+03  0.7561462E-02  0.1242941E+00
          2   -1    0    0  501    0  0.00000000000E+00  0.00000000000E+00  0.26065365811E+03  0.26065365811E+03  0.00000000000E+00 0. -1.
         -2   -1    0    0    0  501 -0.00000000000E+00 -0.00000000000E+00 -0.63440938573E+02  0.63440938573E+02  0.00000000000E+00 0.  1.
         25    2    1    2    0    0 -0.35213805314E+02 -0.52611423222E+02  0.73034327045E+02  0.15809740323E+03  0.12511115874E+03 0.  0.
          5    1    3    3  502    0 -0.47073818385E+01 -0.88523923415E+02  0.28722968742E+02  0.93279825224E+02  0.41800000000E+01 0.  1.
         -5    1    3    3    0  502 -0.30506423476E+02  0.35912500193E+02  0.44311358303E+02  0.64817578002E+02  0.41800000000E+01 0.  1.
        -11    1    1    2    0    0  0.14192336792E+02 -0.22243226819E+02  0.10776114717E+02  0.28501021233E+02  0.00000000000E+00 0.  1.
         11    1    1    2    0    0  0.21021468522E+02  0.74854650041E+02  0.11340227778E+03  0.13749617222E+03  0.00000000000E+00 0. -1.
</event>
<event>
 7    1  0.2900135E-009  0.8759653E+02  0.7561462E-02  0.1308779E+00
          1   -1    0    0  501    0  0.00000000000E+00  0.00000000000E+00  0.19377859989E+03  0.19377859989E+03  0.00000000000E+00 0. -1.
         -1   -1    0    0    0  501 -0.00000000000E+00 -0.00000000000E+00 -0.69159710355E+02  0.69159710355E+02  0.00000000000E+00 0.  1.
         25    2    1    2    0    0  0.22195043569E+02 -0.12302092137E+02  0.11223862979E+03  0.16996636670E+03  0.12508834622E+03 0.  0.
          5    1    3    3  502    0  0.22126099182E+01 -0.68074689388E+02  0.60839181703E+02  0.91421755661E+02  0.41800000000E+01 0.  1.
         -5    1    3    3    0  502  0.19982433651E+02  0.55772597251E+02  0.51399448089E+02  0.78544611035E+02  0.41800000000E+01 0.  1.
        -11    1    1    2    0    0 -0.34748332001E+01  0.24807601286E+02  0.46077352622E+02  0.52446296075E+02  0.00000000000E+00 0. -1.
         11    1    1    2    0    0 -0.18720210369E+02 -0.12505509149E+02 -0.33697092874E+02  0.40525647478E+02  0.00000000000E+00 0.  1.
</event>
<event>
 7    1  0.2900135E-009  0.1489233E+03  0.7561462E-02  0.1201802E+00
          1   -1    0    0  501    0  0.00000000000E+00  0.00000000000E+00  0.52450713970E+03  0.52450713970E+03  0.00000000000E+00 0. -1.
         -1   -1    0    0    0  501 -0.00000000000E+00 -0.00000000000E+00 -0.45126098993E+02  0.45126098993E+02  0.00000000000E+00 0.  1.
         25    2    1    2    0    0 -0.98291417406E+01  0.10484398244E+03  0.21002959696E+03  0.26617361536E+03  0.12508832573E+03 0.  0.
          5    1    3    3  502    0 -0.55426474309E+02  0.98348890304E+02  0.11907575299E+03  0.16413745955E+03  0.41800000000E+01 0.  1.
         -5    1    3    3    0  502  0.45597332568E+02  0.64950921356E+01  0.90953843976E+02  0.10203615581E+03  0.41800000000E+01 0.  1.
        -11    1    1    2    0    0 -0.39805105301E+02 -0.58259572137E+02  0.15644313148E+03  0.17161898945E+03  0.00000000000E+00 0.  1.
         11    1    1    2    0    0  0.49634247041E+02 -0.46584410302E+02  0.11290831226E+03  0.13184063387E+03  0.00000000000E+00 0. -1.
</event>
<event>
 7    1  0.2900135E-009  0.1263398E+03  0.7561462E-02  0.1232990E+00
          1   -1    0    0  501    0  0.00000000000E+00  0.00000000000E+00  0.74897901430E+03  0.74897901430E+03  0.00000000000E+00 0. -1.
         -1   -1    0    0    0  501 -0.00000000000E+00 -0.00000000000E+00 -0.33938392066E+02  0.33938392066E+02  0.00000000000E+00 0.  1.
         25    2    1    2    0    0 -0.11623309977E+02 -0.86450754034E+02  0.50502850537E+03  0.52755124684E+03  0.12509073746E+03 0.  0.
          5    1    3    3  502    0 -0.64179038569E+02 -0.50020514037E+02  0.35815869473E+03  0.36730930267E+03  0.41800000000E+01 0. -1.
         -5    1    3    3    0  502  0.52555728592E+02 -0.36430239997E+02  0.14686981063E+03  0.16024194416E+03  0.41800000000E+01 0. -1.
        -11    1    1    2    0    0 -0.18248575727E+02  0.30138323512E+01 -0.79074896081E+01  0.20115220442E+02  0.00000000000E+00 0.  1.
         11    1    1    2    0    0  0.29871885704E+02  0.83436921683E+02  0.21791960648E+03  0.23525093909E+03  0.00000000000E+00 0. -1.
</event>
<event>
 7    1  0.2900135E-009  0.1846065E+03  0.7561462E-02  0.1163418E+00
          1   -1    0    0  501    0  0.00000000000E+00  0.00000000000E+00  0.14352739740E+04  0.14352739740E+04  0.00000000000E+00 0. -1.
         -1   -1    0    0    0  501 -0.00000000000E+00 -0.00000000000E+00 -0.24819131291E+02  0.24819131291E+02  0.00000000000E+00 0.  1.
         25    2    1    2    0    0 -0.15247227526E+02  0.15239023481E+03  0.75370041341E+03  0.77920930924E+03  0.12509025869E+03 0.  0.
          5    1    3    3  502    0  0.23698524086E+02 -0.12843167455E+02  0.12806952024E+03  0.13094213000E+03  0.41800000000E+01 0. -1.
         -5    1    3    3    0  502 -0.38945751612E+02  0.16523340227E+03  0.62563089317E+03  0.64826717924E+03  0.41800000000E+01 0. -1.
        -11    1    1    2    0    0  0.36528980919E+02 -0.28266418498E+02  0.27613814320E+03  0.27997433988E+03  0.00000000000E+00 0.  1.
         11    1    1    2    0    0 -0.21281753393E+02 -0.12412381631E+03  0.38061628611E+03  0.40090945619E+03  0.00000000000E+00 0. -1.
</event>
<event>
 7    1  0.2900135E-009  0.1012907E+03  0.7561462E-02  0.1277605E+00
          1   -1    0    0  501    0  0.00000000000E+00  0.00000000000E+00  0.32375020540E+03  0.32375020540E+03  0.00000000000E+00 0.  1.
         -1   -1    0    0    0  501 -0.00000000000E+00 -0.00000000000E+00 -0.38212339633E+02  0.38212339633E+02  0.00000000000E+00 0. -1.
         25    2    1    2    0    0 -0.24079644401E+01  0.94458423044E+00  0.21590510420E+03  0.24953687841E+03  0.12508776573E+03 0.  0.
          5    1    3    3  502    0 -0.46867840655E+01  0.61217616753E+02  0.81193492418E+02  0.10187942951E+03  0.41800000000E+01 0. -1.
         -5    1    3    3    0  502  0.22788196254E+01 -0.60273032523E+02  0.13471161178E+03  0.14765744890E+03  0.41800000000E+01 0. -1.
        -11    1    1    2    0    0  0.12200823903E+02  0.38267406848E+02  0.57665272917E+02  0.70274733947E+02  0.00000000000E+00 0.  1.
         11    1    1    2    0    0 -0.97928594625E+01 -0.39211991078E+02  0.11967488654E+02  0.42150932676E+02  0.00000000000E+00 0. -1.
</event>
<event>
 7    1  0.2900135E-009  0.1229801E+03  0.7561462E-02  0.1238260E+00
          2   -1    0    0  501    0  0.00000000000E+00  0.00000000000E+00  0.40369162783E+02  0.40369162783E+02  0.00000000000E+00 0. -1.
         -2   -1    0    0    0  501 -0.00000000000E+00 -0.00000000000E+00 -0.52690484211E+03  0.52690484211E+03  0.00000000000E+00 0.  1.
         25    2    1    2    0    0 -0.34725472304E+02 -0.90929196618E+02 -0.25502056975E+03  0.30026229545E+03  0.12509187763E+03 0.  0.
          5    1    3    3  502    0 -0.17664529280E+02  0.59009708181E+01 -0.16743861288E+03  0.16852305045E+03  0.41800000000E+01 0.  1.
         -5    1    3    3    0  502 -0.17060943024E+02 -0.96830167436E+02 -0.87581956869E+02  0.13173924499E+03  0.41800000000E+01 0.  1.
        -11    1    1    2    0    0 -0.11581003883E+02  0.80065208057E+02 -0.11020483966E+03  0.13671014548E+03  0.00000000000E+00 0. -1.
         11    1    1    2    0    0  0.46306476187E+02  0.10863988561E+02 -0.12131026992E+03  0.13030156397E+03  0.00000000000E+00 0.  1.
</event>
<event>
 7    1  0.2900135E-009  0.7093164E+02  0.7561462E-02  0.1356953E+00
          3   -1    0    0  501    0  0.00000000000E+00  0.00000000000E+00  0.46897884267E+03  0.46897884267E+03  0.00000000000E+00 0.  1.
         -3   -1    0    0    0  501 -0.00000000000E+00 -0.00000000000E+00 -0.29897307764E+02  0.29897307764E+02  0.00000000000E+00 0. -1.
         25    2    1    2    0    0 -0.42506720363E+02 -0.28028863568E+01  0.30925780700E+03  0.33630684215E+03  0.12508886218E+03 0.  0.
          5    1    3    3  502    0 -0.33515515530E+02  0.49043012496E+01  0.31874542744E+03  0.32056740612E+03  0.41800000000E+01 0. -1.
         -5    1    3    3    0  502 -0.89912048336E+01 -0.77071876064E+01 -0.94876204385E+01  0.15739436036E+02  0.41800000000E+01 0. -1.
        -11    1    1    2    0    0  0.79134919410E+01  0.42090783442E+02  0.77554210578E+02  0.88594091134E+02  0.00000000000E+00 0.  1.
         11    1    1    2    0    0  0.34593228422E+02 -0.39287897086E+02  0.52269517329E+02  0.73975217147E+02  0.00000000000E+00 0. -1.
</event>
<event>
 7    1  0.2900135E-009  0.1585613E+03  0.7561462E-02  0.1190331E+00
         -1   -1    0    0    0  501 -0.00000000000E+00  0.00000000000E+00  0.23168535722E+03  0.23168535722E+03  0.00000000000E+00 0.  1.
          1   -1    0    0  501    0  0.00000000000E+00 -0.00000000000E+00 -0.15764722591E+03  0.15764722591E+03  0.00000000000E+00 0. -1.
         25    2    1    2    0    0 -0.87693690899E+02 -0.11240348784E+03 -0.29104410507E+02  0.19188475383E+03  0.12509182443E+03 0.  0.
          5    1    3    3  502    0 -0.54302402521E+02 -0.12657955616E+03 -0.53662173633E+02  0.14787912712E+03  0.41800000000E+01 0.  1.
         -5    1    3    3    0  502 -0.33391288378E+02  0.14176068321E+02  0.24557763126E+02  0.44005626712E+02  0.41800000000E+01 0.  1.
        -11    1    1    2    0    0  0.31852439096E+02  0.34472463730E+02 -0.11177636612E+02  0.48247986406E+02  0.00000000000E+00 0.  1.
         11    1    1    2    0    0  0.55841251803E+02  0.77931024113E+02  0.11432017843E+03  0.14919984289E+03  0.00000000000E+00 0. -1.
</event>
<event>
 7    1  0.2900135E-009  0.9613498E+02  0.7561462E-02  0.1288640E+00
          1   -1    0    0  501    0  0.00000000000E+00  0.00000000000E+00  0.32404542287E+03  0.32404542287E+03  0.00000000000E+00 0. -1.
         -1   -1    0    0    0  501 -0.00000000000E+00 -0.00000000000E+00 -0.43433457799E+02  0.43433457799E+02  0.00000000000E+00 0.  1.
         25    2    1    2    0    0 -0.43424659600E+02 -0.83016248905E+01  0.13675516894E+03  0.19053699624E+03  0.12509097756E+03 0.  0.
          5    1    3    3  502    0 -0.20025572162E+02  0.53196885119E+02  0.28350298455E+02  0.63656452534E+02  0.41800000000E+01 0. -1.
         -5    1    3    3    0  502 -0.23399087438E+02 -0.61498510009E+02  0.10840487049E+03  0.12688054371E+03  0.41800000000E+01 0. -1.
        -11    1    1    2    0    0  0.21615874693E+02 -0.22760536349E+02  0.13414062814E+03  0.13776427756E+03  0.00000000000E+00 0. -1.
         11    1    1    2    0    0  0.21808784906E+02  0.31062161239E+02  0.97161679959E+01  0.39177606875E+02  0.00000000000E+00 0.  1.
</event>
<event>
 7    1  0.2900135E-009  0.1026922E+03  0.7561462E-02  0.1274734E+00
         -1   -1    0    0    0  501 -0.00000000000E+00  0.00000000000E+00  0.25980550792E+02  0.25980550792E+02  0.00000000000E+00 0.  1.
          1   -1    0    0  501    0  0.00000000000E+00 -0.00000000000E+00 -0.80851204864E+03  0.80851204864E+03  0.00000000000E+00 0. -1.
         25    2    1    2    0    0 -0.89710326296E+02 -0.13439266680E+02 -0.53636194577E+03  0.55817570167E+03  0.12508964997E+03 0.  0.
          5    1    3    3  502    0 -0.45883300079E+02 -0.15037685301E+02 -0.49620170053E+03  0.49856294408E+03  0.41800000000E+01 0. -1.
         -5    1    3    3    0  502 -0.43827026217E+02  0.15984186211E+01 -0.40160245239E+02  0.59612757584E+02  0.41800000000E+01 0. -1.
        -11    1    1    2    0    0  0.29129231060E+02 -0.27248900275E+02 -0.35612995606E+02  0.53472423962E+02  0.00000000000E+00 0.  1.
         11    1    1    2    0    0  0.60581095236E+02  0.40688166955E+02 -0.21055655647E+03  0.22284447380E+03  0.00000000000E+00 0. -1.
</event>
<event>
 7    1  0.2900135E-009  0.1480723E+03  0.7561462E-02  0.1202862E+00
         -1   -1    0    0    0  501 -0.00000000000E+00  0.00000000000E+00  0.12910045131E+03  0.12910045131E+03  0.00000000000E+00 0.  1.
          1   -1    0    0  501    0  0.00000000000E+00 -0.00000000000E+00 -0.20857380043E+03  0.20857380043E+03  0.00000000000E+00 0. -1.
         25    2    1    2    0    0 -0.11425522783E+03 -0.40217638817E+02 -0.53514823422E+02  0.18216125861E+03  0.12508865757E+03 0.  0.
          5    1    3    3  502    0 -0.11281735798E+03  0.19214960650E+02 -0.36031863740E+02  0.12005306568E+03  0.41800000000E+01 0.  1.
         -5    1    3    3    0  502 -0.14378698477E+01 -0.59432599468E+02 -0.17482959683E+02  0.62108192925E+02  0.41800000000E+01 0.  1.
        -11    1    1    2    0    0  0.47714621496E+02  0.24590364290E+02  0.34873672305E+02  0.64012062461E+02  0.00000000000E+00 0.  1.
         11    1    1    2    0    0  0.66540606333E+02  0.15627274527E+02 -0.60832198001E+02  0.91500930672E+02  0.00000000000E+00 0. -1.
</event>
<event>
 7    1  0.2900135E-009  0.1309484E+03  0.7561462E-02  0.1226055E+00
         -1   -1    0    0    0  501 -0.00000000000E+00  0.00000000000E+00  0.14254078400E+03  0.14254078400E+03  0.00000000000E+00 0.  1.
          1   -1    0    0  501    0  0.00000000000E+00 -0.00000000000E+00 -0.14573426162E+03  0.14573426162E+03  0.00000000000E+00 0. -1.
         25    2    1    2    0    0  0.93083308035E+02  0.33468662253E+01  0.15665862279E+02  0.15674490260E+03  0.12509133264E+03 0.  0.
          5    1    3    3  502    0  0.11268485968E+03 -0.23162992059E+02  0.32325832261E+02  0.11956936746E+03  0.41800000000E+01 0.  1.
         -5    1    3    3    0  502 -0.19601551647E+02  0.26509858285E+02 -0.16659969982E+02  0.37175535141E+02  0.41800000000E+01 0.  1.
        -11    1    1    2    0    0 -0.38534321515E+02 -0.33638578593E+02 -0.40757656808E+02  0.65403627521E+02  0.00000000000E+00 0. -1.
         11    1    1    2    0    0 -0.54548986520E+02  0.30291712368E+02  0.21898316913E+02  0.66126515500E+02  0.00000000000E+00 0.  1.
</event>
<event>
 7    1  0.2900135E-009  0.9896345E+02  0.7561462E-02  0.1282491E+00
          2   -1    0    0  501    0  0.00000000000E+00  0.00000000000E+00  0.12367909706E+03  0.12367909706E+03  0.00000000000E+00 0. -1.
         -2   -1    0    0    0  501 -0.00000000000E+00 -0.00000000000E+00 -0.10236697772E+03  0.10236697772E+03  0.00000000000E+00 0.  1.
         25    2    1    2    0    0  0.28169106996E+02 -0.67856023619E+01 -0.43538253222E+01  0.12847919131E+03  0.12509358023E+03 0.  0.
          5    1    3    3  502    0  0.75884752912E+02  0.20486376839E+01 -0.17529915883E+02  0.78022195508E+02  0.41800000000E+01 0. -1.
         -5    1    3    3    0  502 -0.47715645917E+02 -0.88342400457E+01  0.13176090561E+02  0.50456995798E+02  0.41800000000E+01 0. -1.
        -11    1    1    2    0    0 -0.46819256585E+02  0.19398168513E+02 -0.13450914490E+02  0.52433375148E+02  0.00000000000E+00 0.  1.
         11    1    1    2    0    0  0.18650149589E+02 -0.12612566151E+02  0.39116859147E+02  0.45133508329E+02  0.00000000000E+00 0. -1.
</event>
<event>
 7    1  0.2900135E-009  0.2084768E+03  0.7561462E-02  0.1142778E+00
         -1   -1    0    0    0  501 -0.00000000000E+00  0.00000000000E+00  0.33241134383E+02  0.33241134383E+02  0.00000000000E+00 0.  1.
          1   -1    0    0  501    0  0.00000000000E+00 -0.00000000000E+00 -0.13430579840E+04  0.13430579840E+04  0.00000000000E+00 0. -1.
         25    2    1    2    0    0  0.69461547940E+02 -0.16595248649E+03 -0.59509475830E+03  0.63415381129E+03  0.12509256814E+03 0.  0.
          5    1    3    3  502    0  0.85729675743E+02 -0.45785886087E+02 -0.24358316672E+03  0.26229021365E+03  0.41800000000E+01 0. -1.
         -5    1    3    3    0  502 -0.16268127803E+02 -0.12016660040E+03 -0.35151159158E+03  0.37186359764E+03  0.41800000000E+01 0. -1.
        -11    1    1    2    0    0 -0.13455740903E+02  0.13233682274E+03 -0.43419427068E+03  0.45411315364E+03  0.00000000000E+00 0.  1.
         11    1    1    2    0    0 -0.56005807037E+02  0.33615663752E+02 -0.28052782060E+03  0.28803215342E+03  0.00000000000E+00 0. -1.
</event>
<event>
 7    1  0.2900135E-009  0.1404971E+03  0.7561462E-02  0.1212662E+00
          2   -1    0    0  501    0  0.00000000000E+00  0.00000000000E+00  0.11699135920E+04  0.11699135920E+04  0.00000000000E+00 0. -1.
         -2   -1    0    0    0  501 -0.00000000000E+00 -0.00000000000E+00 -0.19635856714E+02  0.19635856714E+02  0.00000000000E+00 0.  1.
         25    2    1    2    0    0 -0.60666794084E+02  0.80224926058E+02  0.74493625738E+03  0.76203157456E+03  0.12508235051E+03 0.  0.
          5    1    3    3  502    0  0.12275200265E+02 -0.26390635206E+02  0.18866172493E+03  0.19093942762E+03  0.41800000000E+01 0. -1.
         -5    1    3    3    0  502 -0.72941994349E+02  0.10661556126E+03  0.55627453245E+03  0.57109214694E+03  0.41800000000E+01 0. -1.
        -11    1    1    2    0    0 -0.15744155470E+02 -0.10704699787E+02  0.16518334591E+02  0.25205642358E+02  0.00000000000E+00 0.  1.
         11    1    1    2    0    0  0.76410949554E+02 -0.69520226271E+02  0.38882314335E+03  0.40231223182E+03  0.00000000000E+00 0. -1.
</event>
<event>
 7    1  0.2900135E-009  0.8883192E+02  0.7561462E-02  0.1305705E+00
          2   -1    0    0  501    0  0.00000000000E+00  0.00000000000E+00  0.61123459751E+03  0.61123459751E+03  0.00000000000E+00 0. -1.
         -2   -1    0    0    0  501 -0.00000000000E+00 -0.00000000000E+00 -0.21188237787E+02  0.21188237787E+02  0.00000000000E+00 0.  1.
         25    2    1    2    0    0  0.18384453825E+02  0.14946010011E+02  0.40361348592E+03  0.42321684816E+03  0.12508910099E+03 0.  0.
          5    1    3    3  502    0  0.51151959643E+02 -0.95681379491E+01  0.35803162883E+03  0.36181789879E+03  0.41800000000E+01 0. -1.
         -5    1    3    3    0  502 -0.32767505818E+02  0.24514147960E+02  0.45581857090E+02  0.61398949368E+02  0.41800000000E+01 0. -1.
        -11    1    1    2    0    0 -0.65483195299E+01 -0.48397190972E+02  0.15242179293E+03  0.16005490165E+03  0.00000000000E+00 0. -1.
         11    1    1    2    0    0 -0.11836134296E+02  0.33451180961E+02  0.34011080871E+02  0.49151085489E+02  0.00000000000E+00 0.  1.
</event>
<event>
 6    1  0.2900135E-009  0.1419054E+03  0.7561462E-02  0.1210788E+00
         -3   -1    0    0    0  501 -0.00000000000E+00  0.00000000000E+00  0.18607586028E+03  0.18607586028E+03  0.00000000000E+00 0.  1.
          3   -1    0    0  501    0  0.00000000000E+00 -0.00000000000E+00 -0.16897360773E+03  0.16897360773E+03  0.00000000000E+00 0. -1.
          5    1    1    2  502    0  0.83390921381E+01  0.86702423101E+02  0.14975591039E+02  0.88479327281E+02  0.41800000000E+01 0.  1.
         -5    1    1    2    0  502  0.73445672553E+02  0.14138842910E+01  0.82855346648E+02  0.11080950660E+03  0.41800000000E+01 0.  1.
        -11    1    1    2    0    0 -0.52442303173E+02 -0.73384608982E+02 -0.29472085778E+02  0.94889935387E+02  0.00000000000E+00 0.  1.
         11    1    1    2    0    0 -0.29342461518E+02 -0.14731698410E+02 -0.51256599359E+02  0.60870698729E+02  0.00000000000E+00 0. -1.
</event>
<event>
 7    1  0.2900135E-009  0.1985213E+03  0.7561462E-02  0.1150993E+00
          2   -1    0    0  501    0  0.00000000000E+00  0.00000000000E+00  0.27884776753E+03  0.27884776753E+03  0.00000000000E+00 0. -1.
         -2   -1    0    0    0  501 -0.00000000000E+00 -0.00000000000E+00 -0.35953702933E+03  0.35953702933E+03  0.00000000000E+00 0.  1.
         25    2    1    2    0    0 -0.15703754813E+03  0.85850138118E+02 -0.28091358625E+03  0.35579542878E+03  0.12508759515E+03 0.  0.
          5    1    3    3  502    0 -0.16171856178E+03  0.34624163451E+02 -0.22982703842E+03  0.28317779911E+03  0.41800000000E+01 0.  1.
         -5    1    3    3    0  502  0.46810136499E+01  0.51225974666E+02 -0.51086547827E+02  0.72617629665E+02  0.41800000000E+01 0.  1.
        -11    1    1    2    0    0  0.64005728970E+02 -0.24380048651E+02  0.14000805521E+03  0.15586332357E+03  0.00000000000E+00 0. -1.
         11    1    1    2    0    0  0.93031819165E+02 -0.61470089467E+02  0.60216269241E+02  0.12672604451E+03  0.00000000000E+00 0.  1.
</event>
<event>
 7    1  0.2900135E-009  0.1024929E+03  0.7561462E-02  0.1275139E+00
          2   -1    0    0  501    0  0.00000000000E+00  0.00000000000E+00  0.63114599083E+03  0.63114599083E+03  0.00000000000E+00 0. -1.
         -2   -1    0    0    0  501 -0.00000000000E+00 -0.00000000000E+00 -0.26883687565E+02  0.26883687565E+02  0.00000000000E+00 0.  1.
         25    2    1    2    0    0 -0.53480022102E+02  0.49350497296E+02  0.34507447904E+03  0.37419208499E+03  0.12509091109E+03 0.  0.
          5    1    3    3  502    0  0.31297406770E+02 -0.30196475247E+01  0.29814422721E+02  0.43531806118E+02  0.41800000000E+01 0. -1.
         -5    1    3    3    0  502 -0.84777428872E+02  0.52370144821E+02  0.31526005632E+03  0.33066027887E+03  0.41800000000E+01 0. -1.
        -11    1    1    2    0    0  0.19036166044E+02 -0.11012301975E+02  0.26233883089E+01  0.22147879778E+02  0.00000000000E+00 0.  1.
         11    1    1    2    0    0  0.34443856059E+02 -0.38338195321E+02  0.25656443591E+03  0.26168971362E+03  0.00000000000E+00 0. -1.
</event>
<event>
 7    1  0.2900135E-009  0.9445933E+02  0.7561462E-02  0.1292398E+00
          1   -1    0    0  501    0  0.00000000000E+00  0.00000000000E+00  0.23291921139E+03  0.23291921139E+03  0.00000000000E+00 0. -1.
         -1   -1    0    0    0  501 -0.00000000000E+00 -0.00000000000E+00 -0.68481224481E+02  0.68481224481E+02  0.00000000000E+00 0.  1.
         25    2    1    2    0    0  0.23161451106E+02  0.34221535524E+02  0.15021758241E+03  0.19980010891E+03  0.12508874907E+03 0.  0.
          5    1    3    3  502    0  0.66976750638E+02 -0.11134140366E+02  0.69056315081E+02  0.96933488848E+02  0.41800000000E+01 0. -1.
         -5    1    3    3    0  502 -0.43815299532E+02  0.45355675890E+02  0.81161267330E+02  0.10286662006E+03  0.41800000000E+01 0. -1.
        -11    1    1    2    0    0 -0.16029347579E+02 -0.43286281177E+02 -0.30559942643E+02  0.55358397884E+02  0.00000000000E+00 0.  1.
         11    1    1    2    0    0 -0.71321035276E+01  0.90647456530E+01  0.44780347137E+02  0.46241929071E+02  0.00000000000E+00 0. -1.
</event>
<event>
 7    1  0.2900135E-009  0.1244738E+03  0.7561462E-02  0.1235894E+00
          2   -1    0    0  501    0  0.00000000000E+00  0.00000000000E+00  0.71870397488E+03  0.71870397488E+03  0.00000000000E+00 0. -1.
         -2   -1    0    0    0  501 -0.00000000000E+00 -0.00000000000E+00 -0.28911246756E+02  0.28911246756E+02  0.00000000000E+00 0.  1.
         25    2    1    2    0    0 -0.94231652289E+02 -0.73705450789E+01  0.38202466492E+03  0.41294605423E+03  0.12509064661E+03 0.  0.
          5    1    3    3  502    0 -0.55164006791E+02 -0.46337127886E+02  0.32714841099E+03  0.33501306285E+03  0.41800000000E+01 0.  1.
         -5    1    3    3    0  502 -0.39067645499E+02  0.38966582807E+02  0.54876253929E+02  0.77932991382E+02  0.41800000000E+01 0.  1.
        -11    1    1    2    0    0  0.33384382331E+02  0.40242864780E+02  0.19917155083E+03  0.20592064445E+03  0.00000000000E+00 0. -1.
         11    1    1    2    0    0  0.60847269958E+02 -0.32872319702E+02  0.10859651237E+03  0.12874852296E+03  0.00000000000E+00 0.  1.
</event>
<event>
 7    1  0.2900135E-009  0.2593079E+03  0.7561462E-02  0.1107560E+00
         -2   -1    0    0    0  501 -0.00000000000E+00  0.00000000000E+00  0.40097094250E+03  0.40097094250E+03  0.00000000000E+00 0.  1.
          2   -1    0    0  501    0  0.00000000000E+00 -0.00000000000E+00 -0.18432722418E+03  0.18432722418E+03  0.00000000000E+00 0. -1.
         25    2    1    2    0    0 -0.63021092964E+02 -0.24085351558E+03  0.10952372578E+03  0.29937424400E+03  0.12508963722E+03 0.  0.
          5    1    3    3  502    0 -0.69045084716E+02 -0.11315716416E+03  0.10867808709E+03  0.17146476762E+03  0.41800000000E+01 0. -1.
         -5    1    3    3    0  502  0.60239917522E+01 -0.12769635142E+03  0.84563869300E+00  0.12790947638E+03  0.41800000000E+01 0. -1.
        -11    1    1    2    0    0  0.43907109052E+01  0.14931440889E+03  0.93843379244E+02  0.17641046135E+03  0.00000000000E+00 0. -1.
         11    1    1    2    0    0  0.58630382058E+02  0.91539106688E+02  0.13276613294E+02  0.10951346134E+03  0.00000000000E+00 0.  1.
</event>
<event>
 7    1  0.2900135E-009  0.3061593E+03  0.7561462E-02  0.1082202E+00
          2   -1    0    0  501    0  0.00000000000E+00  0.00000000000E+00  0.20861565970E+04  0.20861565970E+04  0.00000000000E+00 0. -1.
         -2   -1    0    0    0  501 -0.00000000000E+00 -0.00000000000E+00 -0.46412565856E+02  0.46412565856E+02  0.00000000000E+00 0.  1.
         25    2    1    2    0    0  0.17950664072E+03  0.23044596114E+03  0.10283047127E+04  0.10762836475E+04  0.12509169725E+03 0.  0.
          5    1    3    3  502    0 -0.17241468622E+02  0.48596879141E+01  0.57333860156E+02  0.60212363575E+02  0.41800000000E+01 0. -1.
         -5    1    3    3    0  502  0.19674810934E+03  0.22558627323E+03  0.97097085254E+03  0.10160712840E+04  0.41800000000E+01 0. -1.
        -11    1    1    2    0    0 -0.41452197647E+02 -0.81764769996E+02  0.45171160239E+03  0.46091987811E+03  0.00000000000E+00 0. -1.
         11    1    1    2    0    0 -0.13805444307E+03 -0.14868119115E+03  0.55972771604E+03  0.59536563720E+03  0.00000000000E+00 0.  1.
</event>
<event>
 7    1  0.2900135E-009  0.1123128E+03  0.7561462E-02  0.1256346E+00
         -2   -1    0    0    0  501 -0.00000000000E+00  0.00000000000E+00  0.14030814047E+02  0.14030814047E+02  0.00000000000E+00 0.  1.
          2   -1    0    0  501    0  0.00000000000E+00 -0.00000000000E+00 -0.11385273304E+04  0.11385273304E+04  0.00000000000E+00 0. -1.
         25    2    1    2    0    0  0.12201988614E+02 -0.60917601814E+02 -0.71270625532E+03  0.72626231204E+03  0.12508755648E+03 0.  0.
          5    1    3    3  502    0  0.58876893228E+02 -0.67364850485E+02 -0.53095355393E+03  0.53845488248E+03  0.41800000000E+01 0.  1.
         -5    1    3    3    0  502 -0.46674904613E+02  0.64472486711E+01 -0.18175270139E+03  0.18780742956E+03  0.41800000000E+01 0.  1.
        -11    1    1    2    0    0  0.45149699741E+01 -0.12066150582E+02 -0.70454954873E+01  0.14683867011E+02  0.00000000000E+00 0.  1.
         11    1    1    2    0    0 -0.16716958589E+02  0.72983752396E+02 -0.40474476560E+03  0.41161196544E+03  0.00000000000E+00 0. -1.
</event>
<event>
 7    1  0.2900135E-009  0.1032617E+03  0.7561462E-02  0.1273583E+00
          2   -1    0    0  501    0  0.00000000000E+00  0.00000000000E+00  0.12614508581E+03  0.12614508581E+03  0.00000000000E+00 0. -1.
         -2   -1    0    0    0  501 -0.00000000000E+00 -0.00000000000E+00 -0.15889579209E+03  0.15889579209E+03  0.00000000000E+00 0.  1.
         25    2    1    2    0    0  0.66165066525E+02  0.31465391875E+02  0.40159317960E+02  0.15042635406E+03  0.12508968888E+03 0.  0.
          5    1    3    3  502    0 -0.13177847770E+02  0.48763954364E+02  0.46607024947E+02  0.68856852175E+02  0.41800000000E+01 0. -1.
         -5    1    3    3    0  502  0.79342914295E+02 -0.17298562489E+02 -0.64477069877E+01  0.81569501889E+02  0.41800000000E+01 0. -1.
        -11    1    1    2    0    0 -0.45793448504E+02 -0.14565047137E+02 -0.90754769305E+02  0.10269181406E+03  0.00000000000E+00 0.  1.
         11    1    1    2    0    0 -0.20371618021E+02 -0.16900344738E+02  0.17844745065E+02  0.31922709777E+02  0.00000000000E+00 0. -1.
</event>
<event>
 7    1  0.2900135E-009  0.1107338E+03  0.7561462E-02  0.1259217E+00
          1   -1    0    0  501    0  0.00000000000E+00  0.00000000000E+00  0.33545741337E+03  0.33545741337E+03  0.00000000000E+00 0. -1.
         -1   -1    0    0    0  501 -0.00000000000E+00 -0.00000000000E+00 -0.47267551044E+02  0.47267551044E+02  0.00000000000E+00 0.  1.
         25    2    1    2    0    0 -0.12452274329E+01 -0.55200377420E+02  0.14330455851E+03  0.19807147597E+03  0.12508989106E+03 0.  0.
          5    1    3    3  502    0  0.51047463458E+02 -0.18045721136E+02  0.11628431665E+03  0.12833941825E+03  0.41800000000E+01 0.  1.
         -5    1    3    3    0  502 -0.52292690890E+02 -0.37154656284E+02  0.27020241857E+02  0.69732057722E+02  0.41800000000E+01 0.  1.
        -11    1    1    2    0    0 -0.36695959385E+02  0.53530829913E+02  0.12711272114E+03  0.14272276294E+03  0.00000000000E+00 0. -1.
         11    1    1    2    0    0  0.37941186818E+02  0.16695475074E+01  0.17772582674E+02  0.41930725500E+02  0.00000000000E+00 0.  1.
</event>
<event>
 7    1  0.2900135E-009  0.1062652E+03  0.7561462E-02  0.1267647E+00
          2   -1    0    0  501    0  0.00000000000E+00  0.00000000000E+00  0.24158625218E+03  0.24158625218E+03  0.00000000000E+00 0. -1.
         -2   -1    0    0    0  501 -0.00000000000E+00 -0.00000000000E+00 -0.65596191173E+02  0.65596191173E+02  0.00000000000E+00 0.  1.
         25    2    1    2    0    0  0.44559025040E+02  0.23829200540E+02  0.48856887252E+02  0.14347714544E+03  0.12508140678E+03 0.  0.
          5    1    3    3  502    0 -0.37835988782E+02 -0.88920948873E+01  0.37199075659E+02  0.53961792302E+02  0.41800000000E+01 0.  1.
         -5    1    3    3    0  502  0.82395013822E+02  0.32721295427E+02  0.11657811594E+02  0.89515353143E+02  0.41800000000E+01 0.  1.
        -11    1    1    2    0    0 -0.25488332008E+02 -0.47730281796E+02  0.12096056423E+03  0.13251148240E+03  0.00000000000E+00 0. -1.
         11    1    1    2    0    0 -0.19070693032E+02  0.23901081256E+02  0.61726095299E+01  0.31193815515E+02  0.00000000000E+00 0.  1.
</event>
<event>
 7    1  0.2900135E-009  0.1680682E+03  0.7561462E-02  0.1179878E+00
          1   -1    0    0  501    0  0.00000000000E+00  0.00000000000E+00  0.16151233482E+03  0.16151233482E+03  0.00000000000E+00 0. -1.
         -1   -1    0    0    0  501 -0.00000000000E+00 -0.00000000000E+00 -0.21056597223E+03  0.21056597223E+03  0.00000000000E+00 0.  1.
         25    2    1    2    0    0 -0.13354359081E+03  0.65018065925E+02 -0.17089495051E+02  0.19490426617E+03  0.12503752471E+03 0.  0.
          5    1    3    3  502    0 -0.28418073996E+02  0.72285477505E+02  0.24484837876E+02  0.81546041434E+02  0.41800000000E+01 0. -1.
         -5    1    3    3    0  502 -0.10512551681E+03 -0.72674115795E+01 -0.41574332927E+02  0.11335822473E+03  0.41800000000E+01 0. -1.
        -11    1    1    2    0    0  0.30404515903E+02  0.10250339650E+01  0.27518513747E+02  0.41021383214E+02  0.00000000000E+00 0. -1.
         11    1    1    2    0    0  0.10313907490E+03 -0.66043099890E+02 -0.59482656104E+02  0.13615265768E+03  0.00000000000E+00 0.  1.
</event>
<event>
 7    1  0.2900135E-009  0.1311356E+03  0.7561462E-02  0.1225780E+00
         -2   -1    0    0    0  501 -0.00000000000E+00  0.00000000000E+00  0.13039197423E+03  0.13039197423E+03  0.00000000000E+00 0. -1.
          2   -1    0    0  501    0  0.00000000000E+00 -0.00000000000E+00 -0.22431927190E+03  0.22431927190E+03  0.00000000000E+00 0.  1.
         25    2    1    2    0    0  0.97428412336E+02 -0.30583916487E+02  0.36517242006E+02  0.16555627350E+03  0.12509076407E+03 0.  0.
          5    1    3    3  502    0  0.11560762941E+03  0.57655073717E+01  0.87489134656E+01  0.11615670854E+03  0.41800000000E+01 0.  1.
         -5    1    3    3    0  502 -0.18179217074E+02 -0.36349423859E+02  0.27768328540E+02  0.49399564960E+02  0.41800000000E+01 0.  1.
        -11    1    1    2    0    0 -0.15826918697E+02  0.16348230669E+02 -0.97317983494E+02  0.99942713155E+02  0.00000000000E+00 0.  1.
         11    1    1    2    0    0 -0.81601493639E+02  0.14235685819E+02 -0.33126556178E+02  0.89212259466E+02  0.00000000000E+00 0. -1.
</event>
<event>
 7    1  0.2900135E-009  0.9014895E+02  0.7561462E-02  0.1302491E+00
         -1   -1    0    0    0  501 -0.00000000000E+00  0.00000000000E+00  0.69979676843E+02  0.69979676843E+02  0.00000000000E+00 0. -1.
          1   -1    0    0  501    0  0.00000000000E+00 -0.00000000000E+00 -0.18880549373E+03  0.18880549373E+03  0.00000000000E+00 0.  1.
         25    2    1    2    0    0 -0.31346510780E+02  0.65407443226E+01 -0.10366878335E+03  0.16558970134E+03  0.12508935796E+03 0.  0.
          5    1    3    3  502    0 -0.54905088162E+01 -0.40472071605E+02  0.78176072604E+01  0.41793799186E+02  0.41800000000E+01 0.  1.
         -5    1    3    3    0  502 -0.25856001964E+02  0.47012815928E+02 -0.11148639061E+03  0.12379590215E+03  0.41800000000E+01 0.  1.
        -11    1    1    2    0    0 -0.21578312276E+02  0.17029999785E+02  0.11025451909E+02  0.29617647495E+02  0.00000000000E+00 0. -1.
         11    1    1    2    0    0  0.52924823056E+02 -0.23570744108E+02 -0.26182485453E+02  0.63577821744E+02  0.00000000000E+00 0.  1.
</event>
<event>
 7    1  0.2900135E-009  0.1305662E+03  0.7561462E-02  0.1226618E+00
         -2   -1    0    0    0  501 -0.00000000000E+00  0.00000000000E+00  0.42198976564E+02  0.42198976564E+02  0.00000000000E+00 0. -1.
          2   -1    0    0  501    0  0.00000000000E+00 -0.00000000000E+00 -0.55666519164E+03  0.55666519164E+03  0.00000000000E+00 0.  1.
         25    2    1    2    0    0  0.95379622941E+02  0.27569185019E+02 -0.20274795804E+03  0.25809043612E+03  0.12508639532E+03 0.  0.
          5    1    3    3  502    0  0.67724292875E+02  0.62177414247E+02 -0.19107986821E+03  0.21208865864E+03  0.41800000000E+01 0.  1.
         -5    1    3    3    0  502  0.27655330067E+02 -0.34608229228E+02 -0.11668089826E+02  0.46001777483E+02  0.41800000000E+01 0.  1.
        -11    1    1    2    0    0 -0.37279546084E+02 -0.49960614095E+02 -0.83428022008E+02  0.10414443035E+03  0.00000000000E+00 0. -1.
         11    1    1    2    0    0 -0.58100076857E+02  0.22391429076E+02 -0.22829023503E+03  0.23662930173E+03  0.00000000000E+00 0.  1.
</event>
<event>
 7    1  0.2900135E-009  0.1437995E+03  0.7561462E-02  0.1208306E+00
         -1   -1    0    0    0  501 -0.00000000000E+00  0.00000000000E+00  0.96521864550E+02  0.96521864550E+02  0.00000000000E+00 0.  1.
          1   -1    0    0  501    0  0.00000000000E+00 -0.00000000000E+00 -0.26394046427E+03  0.26394046427E+03  0.00000000000E+00 0. -1.
         25    2    1    2    0    0  0.45457572653E+02  0.10282950746E+03 -0.12279705055E+03  0.20824739727E+03  0.12509022477E+03 0.  0.
          5    1    3    3  502    0  0.27362698331E+01  0.12115142845E+03 -0.83359748985E+02  0.14714440505E+03  0.41800000000E+01 0. -1.
         -5    1    3    3    0  502  0.42721302820E+02 -0.18321920992E+02 -0.39437301563E+02  0.61102992218E+02  0.41800000000E+01 0. -1.
        -11    1    1    2    0    0 -0.29505948684E+02 -0.98950669114E+02 -0.68009070776E+02  0.12364088981E+03  0.00000000000E+00 0. -1.
         11    1    1    2    0    0 -0.15951623969E+02 -0.38788383436E+01  0.23387521604E+02  0.28574041733E+02  0.00000000000E+00 0.  1.
</event>
<event>
 7    1  0.2900135E-009  0.1217127E+03  0.7561462E-02  0.1240298E+00
         -2   -1    0    0    0  501 -0.00000000000E+00  0.00000000000E+00  0.35278868597E+03  0.35278868597E+03  0.00000000000E+00 0.  1.
          2   -1    0    0  501    0  0.00000000000E+00 -0.00000000000E+00 -0.57847975407E+02  0.57847975407E+02  0.00000000000E+00 0. -1.
         25    2    1    2    0    0  0.44341169650E+02  0.62599444266E+02  0.23065779989E+03  0.27338307008E+03  0.12510176901E+03 0.  0.
          5    1    3    3  502    0  0.71728620292E+02  0.64239535860E+02  0.22539295431E+03  0.24513500197E+03  0.41800000000E+01 0.  1.
         -5    1    3    3    0  502 -0.27387450642E+02 -0.16400915945E+01  0.52648455763E+01  0.28248068112E+02  0.41800000000E+01 0.  1.
        -11    1    1    2    0    0  0.19716218808E+02 -0.50351448626E+02  0.41526752535E+02  0.68179680543E+02  0.00000000000E+00 0.  1.
         11    1    1    2    0    0 -0.64057388458E+02 -0.12247995639E+02  0.22756158137E+02  0.69073910750E+02  0.00000000000E+00 0. -1.
</event>
<event>
 7    1  0.2900135E-009  0.8220249E+02  0.7561462E-02  0.1322915E+00
         -1   -1    0    0    0  501 -0.00000000000E+00  0.00000000000E+00  0.41671209165E+03  0.41671209165E+03  0.00000000000E+00 0.  1.
          1   -1    0    0  501    0  0.00000000000E+00 -0.00000000000E+00 -0.46210660788E+02  0.46210660788E+02  0.00000000000E+00 0. -1.
         25    2    1    2    0    0 -0.10100825897E+02 -0.43097552160E+02  0.79143750392E+02  0.15450067595E+03  0.12508916803E+03 0.  0.
          5    1    3    3  502    0 -0.32450980623E+02 -0.20381039056E+02 -0.24709623315E+02  0.45787452220E+02  0.41800000000E+01 0.  1.
         -5    1    3    3    0  502  0.22350154727E+02 -0.22716513103E+02  0.10385337371E+03  0.10871322373E+03  0.41800000000E+01 0.  1.
        -11    1    1    2    0    0 -0.30453584268E+02 -0.49374110735E+01  0.15807677455E+03  0.16105919867E+03  0.00000000000E+00 0.  1.
         11    1    1    2    0    0  0.40554410165E+02  0.48034963233E+02  0.13328090592E+03  0.14736287782E+03  0.00000000000E+00 0. -1.
</event>
<event>
 7    1  0.2900135E-009  0.1030535E+03  0.7561462E-02  0.1274003E+00
          2   -1    0    0  501    0  0.00000000000E+00  0.00000000000E+00  0.35935476103E+03  0.35935476103E+03  0.00000000000E+00 0. -1.
         -2   -1    0    0    0  501 -0.00000000000E+00 -0.00000000000E+00 -0.36006191393E+02  0.36006191393E+02  0.00000000000E+00 0.  1.
         25    2    1    2    0    0  0.98573553772E+00  0.38389375480E+02  0.19755731726E+03  0.23696237459E+03  0.12509019762E+03 0.  0.
          5    1    3    3  502    0 -0.32792887023E+02  0.62841785757E+02  0.59360216506E+02  0.92550371042E+02  0.41800000000E+01 0. -1.
         -5    1    3    3    0  502  0.33778622560E+02 -0.24452410276E+02  0.13819710076E+03  0.14441200354E+03  0.41800000000E+01 0. -1.
        -11    1    1    2    0    0  0.51030744254E+01 -0.65351262817E+02  0.68628031723E+02  0.94903296352E+02  0.00000000000E+00 0.  1.
         11    1    1    2    0    0 -0.60888099631E+01  0.26961887337E+02  0.57163220657E+02  0.63495281490E+02  0.00000000000E+00 0. -1.
</event>
<event>
 7    1  0.2900135E-009  0.1485411E+03  0.7561462E-02  0.1202277E+00
         -2   -1    0    0    0  501 -0.00000000000E+00  0.00000000000E+00  0.35631006792E+02  0.35631006792E+02  0.00000000000E+00 0.  1.
          2   -1    0    0  501    0  0.00000000000E+00 -0.00000000000E+00 -0.86457924126E+03  0.86457924126E+03  0.00000000000E+00 0. -1.
         25    2    1    2    0    0  0.29573001488E+01 -0.12303364589E+03 -0.28070071156E+03  0.33103702278E+03  0.12508635951E+03 0.  0.
          5    1    3    3  502    0  0.52852405106E+00 -0.14825576976E+03 -0.25295801478E+03  0.29323247134E+03  0.41800000000E+01 0. -1.
         -5    1    3    3    0  502  0.24287760978E+01  0.25222123863E+02 -0.27742696773E+02  0.37804551442E+02  0.41800000000E+01 0. -1.
        -11    1    1    2    0    0 -0.93091859464E+00  0.13142799260E+02 -0.37576842724E+01  0.13701093859E+02  0.00000000000E+00 0.  1.
         11    1    1    2    0    0 -0.20263815542E+01  0.10989084663E+03 -0.54448983864E+03  0.55547213141E+03  0.00000000000E+00 0. -1.
</event>
<event>
 7    1  0.2900135E-009  0.1109008E+03  0.7561462E-02  0.1258911E+00
         -2   -1    0    0    0  501 -0.00000000000E+00  0.00000000000E+00  0.60001268093E+02  0.60001268093E+02  0.00000000000E+00 0.  1.
          2   -1    0    0  501    0  0.00000000000E+00 -0.00000000000E+00 -0.28263147157E+03  0.28263147157E+03  0.00000000000E+00 0. -1.
         25    2    1    2    0    0  0.18082044486E+02 -0.56907378893E+02 -0.19766406637E+03  0.24144116546E+03  0.12512930567E+03 0.  0.
          5    1    3    3  502    0  0.21183380541E+02  0.34421388123E+02 -0.98374361055E+02  0.10643568426E+03  0.41800000000E+01 0. -1.
         -5    1    3    3    0  502 -0.31013360552E+01 -0.91328767016E+02 -0.99289705319E+02  0.13500548119E+03  0.41800000000E+01 0. -1.
        -11    1    1    2    0    0 -0.15265842790E+02 -0.12803240661E+02  0.10936387371E+02  0.22728253260E+02  0.00000000000E+00 0.  1.
         11    1    1    2    0    0 -0.28162016959E+01  0.69710619553E+02 -0.35902524473E+02  0.78463320947E+02  0.00000000000E+00 0. -1.
</event>
<event>
 7    1  0.2900135E-009  0.4179748E+03  0.7561462E-02  0.1037727E+00
          2   -1    0    0  501    0  0.00000000000E+00  0.00000000000E+00  0.36499543773E+03  0.36499543773E+03  0.00000000000E+00 0. -1.
         -2   -1    0    0    0  501 -0.00000000000E+00 -0.00000000000E+00 -0.54504990609E+03  0.54504990609E+03  0.00000000000E+00 0.  1.
         25    2    1    2    0    0 -0.50379051281E+02  0.40498633080E+03  0.52926603678E+02  0.43011785586E+03  0.12509263611E+03 0.  0.
          5    1    3    3  502    0 -0.87698966137E+02  0.34212830952E+03  0.50946958614E+02  0.35686965944E+03  0.41800000000E+01 0. -1.
         -5    1    3    3    0  502  0.37319914856E+02  0.62858021277E+02  0.19796450647E+01  0.73248196416E+02  0.41800000000E+01 0. -1.
        -11    1    1    2    0    0  0.39566574796E+01 -0.16673559434E+03 -0.44517817840E+02  0.17262169523E+03  0.00000000000E+00 0.  1.
         11    1    1    2    0    0  0.46422393802E+02 -0.23825073646E+03 -0.18846325419E+03  0.30730579274E+03  0.00000000000E+00 0. -1.
</event>
<event>
 7    1  0.2900135E-009  0.1669282E+03  0.7561462E-02  0.1181090E+00
         -2   -1    0    0    0  501 -0.00000000000E+00  0.00000000000E+00  0.82883644009E+02  0.82883644009E+02  0.00000000000E+00 0.  1.
          2   -1    0    0  501    0  0.00000000000E+00 -0.00000000000E+00 -0.55680308067E+03  0.55680308067E+03  0.00000000000E+00 0. -1.
         25    2    1    2    0    0  0.12985753644E+03  0.81697398873E+02 -0.39988006241E+03  0.44618799512E+03  0.12506885274E+03 0.  0.
          5    1    3    3  502    0  0.41482579280E+02  0.81522579606E+02 -0.29547514027E+03  0.30933762507E+03  0.41800000000E+01 0. -1.
         -5    1    3    3    0  502  0.88374957163E+02  0.17481926772E+00 -0.10440492214E+03  0.13685037005E+03  0.41800000000E+01 0. -1.
        -11    1    1    2    0    0 -0.72305136647E+02 -0.51938748802E+02  0.75121158431E+01  0.89342589492E+02  0.00000000000E+00 0.  1.
         11    1    1    2    0    0 -0.57552399797E+02 -0.29758650071E+02 -0.81551490096E+02  0.10415614007E+03  0.00000000000E+00 0. -1.
</event>
<event>
 7    1  0.2900135E-009  0.3641341E+03  0.7561462E-02  0.1056959E+00
         -2   -1    0    0    0  501 -0.00000000000E+00  0.00000000000E+00  0.57294460924E+02  0.57294460924E+02  0.00000000000E+00 0.  1.
          2   -1    0    0  501    0  0.00000000000E+00 -0.00000000000E+00 -0.27773860539E+04  0.27773860539E+04  0.00000000000E+00 0. -1.
         25    2    1    2    0    0  0.32541087929E+03 -0.13011630678E+03 -0.19195676587E+04  0.19553030369E+04  0.12508987251E+03 0.  0.
          5    1    3    3  502    0  0.31187306588E+02  0.24230634779E+02 -0.18984075328E+03  0.19395039510E+03  0.41800000000E+01 0.  1.
         -5    1    3    3    0  502  0.29422357270E+03 -0.15434694156E+03 -0.17297269054E+04  0.17613526418E+04  0.41800000000E+01 0.  1.
        -11    1    1    2    0    0 -0.15583369012E+03  0.28006941938E+02 -0.26828631897E+03  0.31152219298E+03  0.00000000000E+00 0.  1.
         11    1    1    2    0    0 -0.16957718917E+03  0.10210936485E+03 -0.53223761538E+03  0.56785528500E+03  0.00000000000E+00 0. -1.
</event>
<event>
 7    1  0.2900135E-009  0.1005862E+03  0.7561462E-02  0.1279068E+00
         -2   -1    0    0    0  501 -0.00000000000E+00  0.00000000000E+00  0.27694484422E+02  0.27694484422E+02  0.00000000000E+00 0.  1.
          2   -1    0    0  501    0  0.00000000000E+00 -0.00000000000E+00 -0.64891784124E+03  0.64891784124E+03  0.00000000000E+00 0. -1.
         25    2    1    2    0    0 -0.37426898210E+02  0.50764341457E+02 -0.47035013405E+03  0.49076940059E+03  0.12509022696E+03 0.  0.
          5    1    3    3  502    0  0.33875398898E+01  0.52183124268E+02 -0.65851541177E+02  0.84192943649E+02  0.41800000000E+01 0. -1.
         -5    1    3    3    0  502 -0.40814438099E+02 -0.14187828102E+01 -0.40449859287E+03  0.40657645694E+03  0.41800000000E+01 0. -1.
        -11    1    1    2    0    0 -0.72098315662E+01 -0.61360781821E+02 -0.97902372783E+02  0.11576701522E+03  0.00000000000E+00 0.  1.
         11    1    1    2    0    0  0.44636729776E+02  0.10596440363E+02 -0.52970849988E+02  0.70075909854E+02  0.00000000000E+00 0. -1.
</event>
<event>
 7    1  0.2900135E-009  0.9678202E+02  0.7561462E-02  0.1287212E+00
          1   -1    0    0  501    0  0.00000000000E+00  0.00000000000E+00  0.17282797864E+03  0.17282797864E+03  0.00000000000E+00 0. -1.
         -1   -1    0    0    0  501 -0.00000000000E+00 -0.00000000000E+00 -0.97846630681E+02  0.97846630681E+02  0.00000000000E+00 0.  1.
         25    2    1    2    0    0  0.41033969632E+02 -0.29412564214E+02 -0.41514678351E+01  0.13495871935E+03  0.12509090952E+03 0.  0.
          5    1    3    3  502    0  0.50011138042E+02 -0.50331814666E+02 -0.47729845721E+02  0.85615513013E+02  0.41800000000E+01 0.  1.
         -5    1    3    3    0  502 -0.89771684095E+01  0.20919250453E+02  0.43578377886E+02  0.49343206334E+02  0.41800000000E+01 0.  1.
        -11    1    1    2    0    0  0.16500271327E+02  0.37758513748E+02  0.50040272534E+01  0.41509090608E+02  0.00000000000E+00 0.  1.
         11    1    1    2    0    0 -0.57534240959E+02 -0.83459495347E+01  0.74128788544E+02  0.94206799369E+02  0.00000000000E+00 0. -1.
</event>
<event>
 7    1  0.2900135E-009  0.1695779E+03  0.7561462E-02  0.1178289E+00
          1   -1    0    0  501    0  0.00000000000E+00  0.00000000000E+00  0.65530178656E+03  0.65530178656E+03  0.00000000000E+00 0. -1.
         -1   -1    0    0    0  501 -0.00000000000E+00 -0.00000000000E+00 -0.49992149319E+02  0.49992149319E+02  0.00000000000E+00 0.  1.
         25    2    1    2    0    0 -0.84664141434E+02 -0.11649087150E+03  0.34918555986E+03  0.39789034701E+03  0.12509209824E+03 0.  0.
          5    1    3    3  502    0 -0.13791699815E+02  0.23486408510E+02  0.22940826705E+02  0.35854934087E+02  0.41800000000E+01 0. -1.
         -5    1    3    3    0  502 -0.70872441619E+02 -0.13997728001E+03  0.32624473316E+03  0.36203541293E+03  0.41800000000E+01 0. -1.
        -11    1    1    2    0    0  0.41459004962E+02  0.10026196401E+03  0.11141972957E+03  0.15551741593E+03  0.00000000000E+00 0.  1.
         11    1    1    2    0    0  0.43205136472E+02  0.16228907494E+02  0.14470434781E+03  0.15188617294E+03  0.00000000000E+00 0. -1.
</event>
<event>
 7    1  0.2900135E-009  0.1469496E+03  0.7561462E-02  0.1204272E+00
          2   -1    0    0  501    0  0.00000000000E+00  0.00000000000E+00  0.47841447608E+02  0.47841447608E+02  0.00000000000E+00 0. -1.
         -2   -1    0    0    0  501 -0.00000000000E+00 -0.00000000000E+00 -0.52407194862E+03  0.52407194862E+03  0.00000000000E+00 0.  1.
         25    2    1    2    0    0  0.29978893584E+02 -0.10257243808E+03 -0.18217320515E+03  0.24546858660E+03  0.12509161130E+03 0.  0.
          5    1    3    3  502    0  0.40800552102E+02 -0.12378386830E+03 -0.17843307718E+03  0.22100444913E+03  0.41800000000E+01 0.  1.
         -5    1    3    3    0  502 -0.10821658519E+02  0.21211430215E+02 -0.37401279690E+01  0.24464137468E+02  0.41800000000E+01 0.  1.
        -11    1    1    2    0    0  0.31537191548E+02  0.45822189160E+02 -0.14798229388E+03  0.15809183019E+03  0.00000000000E+00 0. -1.
         11    1    1    2    0    0 -0.61516085132E+02  0.56750248924E+02 -0.14607500198E+03  0.16835297944E+03  0.00000000000E+00 0.  1.
</event>
<event>
 7    1  0.2900135E-009  0.9419523E+02  0.7561462E-02  0.1292999E+00
          1   -1    0    0  501    0  0.00000000000E+00  0.00000000000E+00  0.12507220178E+03  0.12507220178E+03  0.00000000000E+00 0. -1.
         -1   -1    0    0    0  501 -0.00000000000E+00 -0.00000000000E+00 -0.12536524292E+03  0.12536524292E+03  0.00000000000E+00 0.  1.
         25    2    1    2    0    0 -0.14523892673E+02  0.61399119186E+02  0.88855330296E+01  0.14038223882E+03  0.12508966777E+03 0.  0.
          5    1    3    3  502    0 -0.49443136509E+02  0.15981497114E+02  0.48020042097E+02  0.70876151425E+02  0.41800000000E+01 0. -1.
         -5    1    3    3    0  502  0.34919243836E+02  0.45417622071E+02 -0.39134509068E+02  0.69506087393E+02  0.41800000000E+01 0. -1.
        -11    1    1    2    0    0  0.31969865263E+02 -0.39121717912E+02  0.32211212494E+02  0.59917804596E+02  0.00000000000E+00 0. -1.
         11    1    1    2    0    0 -0.17445972590E+02 -0.22277401273E+02 -0.41389786662E+02  0.50137401279E+02  0.00000000000E+00 0.  1.
</event>
<event>
 7    1  0.2900135E-009  0.9445750E+02  0.7561462E-02  0.1292403E+00
         -1   -1    0    0    0  501 -0.00000000000E+00  0.00000000000E+00  0.18775657871E+02  0.18775657871E+02  0.00000000000E+00 0.  1.
          1   -1    0    0  501    0  0.00000000000E+00 -0.00000000000E+00 -0.20604804643E+04  0.20604804643E+04  0.00000000000E+00 0. -1.
         25    2    1    2    0    0  0.80005518528E+02  0.33884799651E+02 -0.18007205958E+04  0.18071504111E+04  0.12509548986E+03 0.  0.
          5    1    3    3  502    0  0.55162649367E+02 -0.35542917060E+01 -0.26351975821E+03  0.26928736740E+03  0.41800000000E+01 0. -1.
         -5    1    3    3    0  502  0.24842869162E+02  0.37439091357E+02 -0.15372008376E+04  0.15378630437E+04  0.41800000000E+01 0. -1.
        -11    1    1    2    0    0 -0.18254596808E+02 -0.73775248653E+00  0.27679531789E+01  0.18477990912E+02  0.00000000000E+00 0.  1.
         11    1    1    2    0    0 -0.61750921720E+02 -0.33147047165E+02 -0.24375216385E+03  0.25362772020E+03  0.00000000000E+00 0. -1.
</event>
<event>
 7    1  0.2900135E-009  0.1860478E+03  0.7561462E-02  0.1162075E+00
          2   -1    0    0  501    0  0.00000000000E+00  0.00000000000E+00  0.12695672714E+04  0.12695672714E+04  0.00000000000E+00 0. -1.
         -2   -1    0    0    0  501 -0.00000000000E+00 -0.00000000000E+00 -0.49514913100E+02  0.49514913100E+02  0.00000000000E+00 0.  1.
         25    2    1    2    0    0 -0.16550649495E+03  0.59638823510E+02  0.99974160491E+03  0.10227806757E+04  0.12509134635E+03 0.  0.
          5    1    3    3  502    0 -0.59029409595E+02  0.21069837590E+01  0.64952030383E+03  0.65221392814E+03  0.41800000000E+01 0. -1.
         -5    1    3    3    0  502 -0.10647708536E+03  0.57531839751E+02  0.35022130108E+03  0.37056674759E+03  0.41800000000E+01 0. -1.
        -11    1    1    2    0    0  0.10852414790E+03  0.10583438278E+01  0.86846383074E+02  0.13899965835E+03  0.00000000000E+00 0.  1.
         11    1    1    2    0    0  0.56982347053E+02 -0.60697167338E+02  0.13346437029E+03  0.15730185039E+03  0.00000000000E+00 0. -1.
</event>
<event>
 7    1  0.2900135E-009  0.1585338E+03  0.7561462E-02  0.1190362E+00
          1   -1    0    0  501    0  0.00000000000E+00  0.00000000000E+00  0.20885860473E+03  0.20885860473E+03  0.00000000000E+00 0. -1.
         -1   -1    0    0    0  501 -0.00000000000E+00 -0.00000000000E+00 -0.18873031506E+03  0.18873031506E+03  0.00000000000E+00 0.  1.
         25    2    1    2    0    0  0.50961892803E+02 -0.13138907219E+03  0.98784722319E+02  0.21275815623E+03  0.12508960337E+03 0.  0.
          5    1    3    3  502    0  0.43497531202E+02 -0.41419789046E+02  0.10619922193E+03  0.12207940565E+03  0.41800000000E+01 0. -1.
         -5    1    3    3    0  502  0.74643616002E+01 -0.89969283142E+02 -0.74144996107E+01  0.90678750585E+02  0.41800000000E+01 0. -1.
        -11    1    1    2    0    0  0.25583608221E+02  0.29575793775E+02 -0.11118907924E+02  0.40655610934E+02  0.00000000000E+00 0.  1.
         11    1    1    2    0    0 -0.76545501024E+02  0.10181327841E+03 -0.67537524719E+02  0.14417515262E+03  0.00000000000E+00 0. -1.
</event>
<event>
 7    1  0.2900135E-009  0.1081191E+03  0.7561462E-02  0.1264093E+00
          2   -1    0    0  501    0  0.00000000000E+00  0.00000000000E+00  0.49118396755E+03  0.49118396755E+03  0.00000000000E+00 0. -1.
         -2   -1    0    0    0  501 -0.00000000000E+00 -0.00000000000E+00 -0.24810576952E+02  0.24810576952E+02  0.00000000000E+00 0.  1.
         25    2    1    2    0    0 -0.42399166720E+02  0.41564883136E+02  0.25140917486E+03  0.28701299769E+03  0.12507821070E+03 0.  0.
          5    1    3    3  502    0 -0.54134253257E+02 -0.32516014224E+02  0.11869266247E+03  0.13451107419E+03  0.41800000000E+01 0. -1.
         -5    1    3    3    0  502  0.11735086537E+02  0.74080897359E+02  0.13271651239E+03  0.15250192350E+03  0.41800000000E+01 0. -1.
        -11    1    1    2    0    0  0.61980223123E+01 -0.41162540078E+02  0.96148946481E+02  0.10477304088E+03  0.00000000000E+00 0.  1.
         11    1    1    2    0    0  0.36201144408E+02 -0.40234305730E+00  0.11881526926E+03  0.12420850593E+03  0.00000000000E+00 0. -1.
</event>
<event>
 7    1  0.2900135E-009  0.8035710E+02  0.7561462E-02  0.1328041E+00
         -2   -1    0    0    0  501 -0.00000000000E+00  0.00000000000E+00  0.35688868182E+02  0.35688868182E+02  0.00000000000E+00 0.  1.
          2   -1    0    0  501    0  0.00000000000E+00 -0.00000000000E+00 -0.40525355159E+03  0.40525355159E+03  0.00000000000E+00 0. -1.
         25    2    1    2    0    0 -0.81752178173E+01  0.42663123470E+01 -0.11057389537E+03  0.16720809763E+03  0.12508767313E+03 0.  0.
          5    1    3    3  502    0  0.30797132835E+02 -0.60281649733E+01  0.15162475154E+02  0.35102353434E+02  0.41800000000E+01 0. -1.
         -5    1    3    3    0  502 -0.38972350653E+02  0.10294477320E+02 -0.12573637052E+03  0.13210574420E+03  0.41800000000E+01 0. -1.
        -11    1    1    2    0    0 -0.29650318911E+02  0.26504318424E+02 -0.12263976090E+03  0.12892684461E+03  0.00000000000E+00 0. -1.
         11    1    1    2    0    0  0.37825536728E+02 -0.30770630771E+02 -0.13635102713E+03  0.14480747753E+03  0.00000000000E+00 0.  1.
</event>
<event>
 7    1  0.2900135E-009  0.1425007E+03  0.7561462E-02  0.1210003E+00
          3   -1    0    0  501    0  0.00000000000E+00  0.00000000000E+00  0.29037065118E+03  0.29037065118E+03  0.00000000000E+00 0. -1.
         -3   -1    0    0    0  501 -0.00000000000E+00 -0.00000000000E+00 -0.10511803157E+03  0.10511803157E+03  0.00000000000E+00 0.  1.
         25    2    1    2    0    0  0.13566391155E+03 -0.80791464641E+01  0.81649425172E+02  0.20195261766E+03  0.12509301197E+03 0.  0.
          5    1    3    3  502    0  0.72762591961E+02 -0.28979364956E+02 -0.19618625167E+02  0.80849002687E+02  0.41800000000E+01 0. -1.
         -5    1    3    3    0  502  0.62901319591E+02  0.20900218492E+02  0.10126805034E+03  0.12110361497E+03  0.41800000000E+01 0. -1.
        -11    1    1    2    0    0 -0.10812049044E+02 -0.90928214171E+01 -0.14908829004E+02  0.20539060059E+02  0.00000000000E+00 0.  1.
         11    1    1    2    0    0 -0.12485186251E+03  0.17171967881E+02  0.11851202344E+03  0.17299700504E+03  0.00000000000E+00 0. -1.
</event>
<event>
 7    1  0.2900135E-009  0.1578561E+03  0.7561462E-02  0.1191139E+00
          2   -1    0    0  501    0  0.00000000000E+00  0.00000000000E+00  0.68869348537E+02  0.68869348537E+02  0.00000000000E+00 0. -1.
         -2   -1    0    0    0  501 -0.00000000000E+00 -0.00000000000E+00 -0.45496301439E+03  0.45496301439E+03  0.00000000000E+00 0.  1.
         25    2    1    2    0    0  0.94724381714E+02  0.67060873464E+02 -0.90542419222E+02  0.19317271569E+03  0.12509156313E+03 0.  0.
          5    1    3    3  502    0  0.40982042278E+02 -0.34087720652E+02 -0.44835273631E+02  0.69779471552E+02  0.41800000000E+01 0. -1.
         -5    1    3    3    0  502  0.53742339436E+02  0.10114859412E+03 -0.45707145592E+02  0.12339324413E+03  0.41800000000E+01 0. -1.
        -11    1    1    2    0    0 -0.46115221894E+02 -0.84269073711E+02 -0.17721048703E+03  0.20157243658E+03  0.00000000000E+00 0.  1.
         11    1    1    2    0    0 -0.48609159820E+02  0.17208200247E+02 -0.11834075960E+03  0.12908721066E+03  0.00000000000E+00 0. -1.
</event>
<event>
 7    1  0.2900135E-009  0.1537480E+03  0.7561462E-02  0.1195942E+00
         -4   -1    0    0    0  501 -0.00000000000E+00  0.00000000000E+00  0.33496629344E+03  0.33496629344E+03  0.00000000000E+00 0.  1.
          4   -1    0    0  501    0  0.00000000000E+00 -0.00000000000E+00 -0.83785074858E+02  0.83785074858E+02  0.00000000000E+00 0. -1.
         25    2    1    2    0    0 -0.11600124246E+03  0.33464126001E+02  0.82617865824E+02  0.19247828166E+03  0.12508413639E+03 0.  0.
          5    1    3    3  502    0 -0.13168353453E+03 -0.35071637530E+01  0.74148678695E+02  0.15122285679E+03  0.41800000000E+01 0.  1.
         -5    1    3    3    0  502  0.15682292070E+02  0.36971289754E+02  0.84691871289E+01  0.41255424871E+02  0.41800000000E+01 0.  1.
        -11    1    1    2    0    0  0.10306152084E+03 -0.39961272702E+01  0.16404430894E+03  0.19377353123E+03  0.00000000000E+00 0.  1.
         11    1    1    2    0    0  0.12939721616E+02 -0.29467998731E+02  0.45190438237E+01  0.32499555409E+02  0.00000000000E+00 0. -1.
</event>
<event>
 7    1  0.2900135E-009  0.8210217E+02  0.7561462E-02  0.1323189E+00
          2   -1    0    0  501    0  0.00000000000E+00  0.00000000000E+00  0.51546762673E+03  0.51546762673E+03  0.00000000000E+00 0. -1.
         -2   -1    0    0    0  501 -0.00000000000E+00 -0.00000000000E+00 -0.34832320781E+02  0.34832320781E+02  0.00000000000E+00 0.  1.
         25    2    1    2    0    0  0.16471819362E+02 -0.36544035628E+02  0.39121901181E+03  0.41268428752E+03  0.12509683684E+03 0.  0.
          5    1    3    3  502    0  0.35772989972E+02  0.34808864215E+01  0.25535600546E+02  0.44287274437E+02  0.41800000000E+01 0. -1.
         -5    1    3    3    0  502 -0.19301170610E+02 -0.40024922049E+02  0.36568341127E+03  0.36839701308E+03  0.41800000000E+01 0. -1.
        -11    1    1    2    0    0 -0.32608711259E+02 -0.10015090143E+02  0.80647685480E+02  0.87565285666E+02  0.00000000000E+00 0. -1.
         11    1    1    2    0    0  0.16136891898E+02  0.46559125770E+02  0.87686086595E+01  0.50050374329E+02  0.00000000000E+00 0.  1.
</event>
<event>
 7    1  0.2900135E-009  0.8328671E+02  0.7561462E-02  0.1319975E+00
          1   -1    0    0  501    0  0.00000000000E+00  0.00000000000E+00  0.45320729814E+03  0.45320729814E+03  0.00000000000E+00 0. -1.
         -1   -1    0    0    0  501 -0.00000000000E+00 -0.00000000000E+00 -0.33244678743E+02  0.33244678743E+02  0.00000000000E+00 0.  1.
         25    2    1    2    0    0  0.17177730087E+02 -0.16830619541E+02  0.32941302642E+03  0.35318416971E+03  0.12509105323E+03 0.  0.
          5    1    3    3  502    0 -0.11315932959E+02 -0.44841806193E+02  0.29954601542E+03  0.30312394441E+03  0.41800000000E+01 0. -1.
         -5    1    3    3    0  502  0.28493663046E+02  0.28011186653E+02  0.29867010999E+02  0.50060225304E+02  0.41800000000E+01 0. -1.
        -11    1    1    2    0    0  0.29181823082E+02 -0.34041887136E+01 -0.19153108889E+00  0.29380333275E+02  0.00000000000E+00 0.  1.
         11    1    1    2    0    0 -0.46359553169E+02  0.20234808254E+02  0.90741124071E+02  0.10388747390E+03  0.00000000000E+00 0. -1.
</event>
<event>
 7    1  0.2900135E-009  0.1062190E+03  0.7561462E-02  0.1267736E+00
         -2   -1    0    0    0  501 -0.00000000000E+00  0.00000000000E+00  0.27740286297E+02  0.27740286297E+02  0.00000000000E+00 0.  1.
          2   -1    0    0  501    0  0.00000000000E+00 -0.00000000000E+00 -0.46615339007E+03  0.46615339007E+03  0.00000000000E+00 0. -1.
         25    2    1    2    0    0  0.35021297986E+01  0.83918703992E+01 -0.29889017050E+03  0.32413821883E+03  0.12509021738E+03 0.  0.
          5    1    3    3  502    0 -0.31357579574E+02 -0.48621694375E+02 -0.12504416917E+03  0.13784369266E+03  0.41800000000E+01 0.  1.
         -5    1    3    3    0  502  0.34859709373E+02  0.57013564775E+02 -0.17384600133E+03  0.18629452618E+03  0.41800000000E+01 0.  1.
        -11    1    1    2    0    0 -0.45138250882E+02 -0.76376680046E+00 -0.35437847053E+02  0.57392386570E+02  0.00000000000E+00 0.  1.
         11    1    1    2    0    0  0.41636121084E+02 -0.76281035987E+01 -0.10408508622E+03  0.11236307096E+03  0.00000000000E+00 0. -1.
</event>
<event>
 7    1  0.2900135E-009  0.8422757E+02  0.7561462E-02  0.1317465E+00
         -1   -1    0    0    0  501 -0.00000000000E+00  0.00000000000E+00  0.13118897362E+03  0.13118897362E+03  0.00000000000E+00 0.  1.
          1   -1    0    0  501    0  0.00000000000E+00 -0.00000000000E+00 -0.99428995569E+02  0.99428995569E+02  0.00000000000E+00 0. -1.
         25    2    1    2    0    0  0.14002771034E+01 -0.34615372074E+02  0.77529692607E+01  0.13001196829E+03  0.12507125411E+03 0.  0.
          5    1    3    3  502    0 -0.26348238203E+02 -0.48672584088E+02  0.51804074418E+02  0.75923544599E+02  0.41800000000E+01 0. -1.
         -5    1    3    3    0  502  0.27748515306E+02  0.14057212015E+02 -0.44051105157E+02  0.54088423686E+02  0.41800000000E+01 0. -1.
        -11    1    1    2    0    0 -0.26373986816E+02  0.46844067014E+02 -0.12030065567E+02  0.55087895880E+02  0.00000000000E+00 0. -1.
         11    1    1    2    0    0  0.24973709713E+02 -0.12228694940E+02  0.36037074358E+02  0.45518105025E+02  0.00000000000E+00 0.  1.
</event>
<event>
 7    1  0.2900135E-009  0.9791855E+02  0.7561462E-02  0.1284735E+00
         -3   -1    0    0    0  501 -0.00000000000E+00  0.00000000000E+00  0.10882620591E+03  0.10882620591E+03  0.00000000000E+00 0.  1.
          3   -1    0    0  501    0  0.00000000000E+00 -0.00000000000E+00 -0.14251038962E+03  0.14251038962E+03  0.00000000000E+00 0. -1.
         25    2    1    2    0    0 -0.62837742886E+01 -0.61001928492E+02 -0.49735321536E+00  0.13931709654E+03  0.12509310504E+03 0.  0.
          5    1    3    3  502    0 -0.26869803632E+02 -0.13994340548E+01  0.50988335639E+02  0.57803352275E+02  0.41800000000E+01 0.  1.
         -5    1    3    3    0  502  0.20586029344E+02 -0.59602494438E+02 -0.51485688855E+02  0.81513744266E+02  0.41800000000E+01 0.  1.
        -11    1    1    2    0    0  0.29911418501E+02 -0.92374801729E+01 -0.18837973684E+02  0.36536190951E+02  0.00000000000E+00 0. -1.
         11    1    1    2    0    0 -0.23627644213E+02  0.70239408665E+02 -0.14348856817E+02  0.75483308040E+02  0.00000000000E+00 0.  1.
</event>
<event>
 7    1  0.2900135E-009  0.9686449E+02  0.7561462E-02  0.1287031E+00
         -3   -1    0    0    0  501 -0.00000000000E+00  0.00000000000E+00  0.86521858239E+02  0.86521858239E+02  0.00000000000E+00 0.  1.
          3   -1    0    0  501    0  0.00000000000E+00 -0.00000000000E+00 -0.17228246112E+03  0.17228246112E+03  0.00000000000E+00 0. -1.
         25    2    1    2    0    0 -0.41886469109E+02 -0.22087838397E+02 -0.66723891803E+02  0.14948434201E+03  0.12510452377E+03 0.  0.
          5    1    3    3  502    0 -0.29384204283E+02 -0.50890399909E+02  0.15879705317E+02  0.61015585757E+02  0.41800000000E+01 0.  1.
         -5    1    3    3    0  502 -0.12502264826E+02  0.28802561512E+02 -0.82603597120E+02  0.88468756251E+02  0.41800000000E+01 0.  1.
        -11    1    1    2    0    0  0.12748351130E+01 -0.33927661634E+02 -0.21325834690E+02  0.40093673487E+02  0.00000000000E+00 0.  1.
         11    1    1    2    0    0  0.40611633996E+02  0.56015500030E+02  0.22891236146E+01  0.69226303862E+02  0.00000000000E+00 0. -1.
</event>
<event>
 7    1  0.2900135E-009  0.1222719E+03  0.7561462E-02  0.1239395E+00
          1   -1    0    0  501    0  0.00000000000E+00  0.00000000000E+00  0.71705527951E+02  0.71705527951E+02  0.00000000000E+00 0. -1.
         -1   -1    0    0    0  501 -0.00000000000E+00 -0.00000000000E+00 -0.33709427670E+03  0.33709427670E+03  0.00000000000E+00 0.  1.
         25    2    1    2    0    0  0.10997034730E+03  0.40643316809E+01 -0.11606685475E+03  0.20305073864E+03  0.12509233236E+03 0.  0.
          5    1    3    3  502    0  0.76916464500E+02  0.36086219332E+02 -0.12948938702E+03  0.15493008581E+03  0.41800000000E+01 0. -1.
         -5    1    3    3    0  502  0.33053882797E+02 -0.32021887651E+02  0.13422532275E+02  0.48120652836E+02  0.41800000000E+01 0. -1.
        -11    1    1    2    0    0 -0.52386837240E+02 -0.15352012317E+02 -0.13460327790E+03  0.14525187579E+03  0.00000000000E+00 0. -1.
         11    1    1    2    0    0 -0.57583510056E+02  0.11287680636E+02 -0.14718616101E+02  0.60497190219E+02  0.00000000000E+00 0.  1.
</event>
<event>
 7    1  0.2900135E-009  0.4199616E+03  0.7561462E-02  0.1037079E+00
         -2   -1    0    0    0  501 -0.00000000000E+00  0.00000000000E+00  0.11176502403E+03  0.11176502403E+03  0.00000000000E+00 0.  1.
          2   -1    0    0  501    0  0.00000000000E+00 -0.00000000000E+00 -0.17980949237E+04  0.17980949237E+04  0.00000000000E+00 0. -1.
         25    2    1    2    0    0 -0.25600451956E+03 -0.33123426424E+03 -0.11023964597E+04  0.11858245676E+04  0.12508996306E+03 0.  0.
          5    1    3    3  502    0 -0.14831000651E+03 -0.15628361431E+03 -0.72204288925E+03  0.75351432133E+03  0.41800000000E+01 0.  1.
         -5    1    3    3    0  502 -0.10769451304E+03 -0.17495064993E+03 -0.38035357043E+03  0.43231024622E+03  0.41800000000E+01 0.  1.
        -11    1    1    2    0    0  0.64636208082E+02  0.72488265548E+02 -0.78676317740E+02  0.12498940359E+03  0.00000000000E+00 0. -1.
         11    1    1    2    0    0  0.19136831147E+03  0.25874599869E+03 -0.50525712228E+03  0.59904597661E+03  0.00000000000E+00 0.  1.
</event>
<event>
 7    1  0.2900135E-009  0.8150428E+02  0.7561462E-02  0.1324836E+00
         -1   -1    0    0    0  501 -0.00000000000E+00  0.00000000000E+00  0.15461689796E+03  0.15461689796E+03  0.00000000000E+00 0.  1.
          1   -1    0    0  501    0  0.00000000000E+00 -0.00000000000E+00 -0.97211030355E+02  0.97211030355E+02  0.00000000000E+00 0. -1.
         25    2    1    2    0    0 -0.37578761248E+02 -0.26381934962E+01  0.46046700839E+02  0.13851627554E+03  0.12508931437E+03 0.  0.
          5    1    3    3  502    0 -0.46100038686E+02 -0.32407890721E+02 -0.24324950822E+02  0.61519595092E+02  0.41800000000E+01 0. -1.
         -5    1    3    3    0  502  0.85212774375E+01  0.29769697225E+02  0.70371651661E+02  0.76996680445E+02  0.41800000000E+01 0. -1.
        -11    1    1    2    0    0  0.37495061502E+02 -0.26628952774E+02 -0.35477245206E+02  0.58082834730E+02  0.00000000000E+00 0. -1.
         11    1    1    2    0    0  0.83699746603E-01  0.29267146271E+02  0.46836411971E+02  0.55228818046E+02  0.00000000000E+00 0.  1.
</event>
<event>
 7    1  0.2900135E-009  0.1175252E+03  0.7561462E-02  0.1247236E+00
          2   -1    0    0  501    0  0.00000000000E+00  0.00000000000E+00  0.38743814310E+02  0.38743814310E+02  0.00000000000E+00 0. -1.
         -2   -1    0    0    0  501 -0.00000000000E+00 -0.00000000000E+00 -0.45315933840E+03  0.45315933840E+03  0.00000000000E+00 0.  1.
         25    2    1    2    0    0 -0.71571996136E+02  0.25199067023E+02 -0.21154695041E+03  0.25720953966E+03  0.12508833461E+03 0.  0.
          5    1    3    3  502    0 -0.72336192555E+01 -0.47733759561E+02 -0.60551725509E+02  0.77555276491E+02  0.41800000000E+01 0. -1.
         -5    1    3    3    0  502 -0.64338376880E+02  0.72932826584E+02 -0.15099522490E+03  0.17965426317E+03  0.41800000000E+01 0. -1.
        -11    1    1    2    0    0  0.23946369856E+02  0.13845710331E+02 -0.58483395772E+01  0.28272520222E+02  0.00000000000E+00 0. -1.
         11    1    1    2    0    0  0.47625626280E+02 -0.39044777354E+02 -0.19702023411E+03  0.20642109283E+03  0.00000000000E+00 0.  1.
</event>
<event>
 7    1  0.2900135E-009  0.1290773E+03  0.7561462E-02  0.1228831E+00
         -1   -1    0    0    0  501 -0.00000000000E+00  0.00000000000E+00  0.80872324778E+02  0.80872324778E+02  0.00000000000E+00 0. -1.
          1   -1    0    0  501    0  0.00000000000E+00 -0.00000000000E+00 -0.43946016261E+03  0.43946016261E+03  0.00000000000E+00 0.  1.
         25    2    1    2    0    0 -0.58730010488E+01 -0.94171174084E+02 -0.39032821763E+02  0.16144912246E+03  0.12505820964E+03 0.  0.
          5    1    3    3  502    0  0.44210088545E+02 -0.22330172251E+02 -0.53008296059E+02  0.72667189108E+02  0.41800000000E+01 0. -1.
         -5    1    3    3    0  502 -0.50083089594E+02 -0.71841001834E+02  0.13975474296E+02  0.88781933351E+02  0.41800000000E+01 0. -1.
        -11    1    1    2    0    0  0.39966987400E+02  0.38511440333E+02 -0.27331242900E+03  0.27889097325E+03  0.00000000000E+00 0.  1.
         11    1    1    2    0    0 -0.34093986351E+02  0.55659733752E+02 -0.46242587071E+02  0.79992391673E+02  0.00000000000E+00 0. -1.
</event>
<event>
 7    1  0.2900135E-009  0.2779124E+03  0.7561462E-02  0.1096835E+00
         -3   -1    0    0    0  501 -0.00000000000E+00  0.00000000000E+00  0.58977804168E+03  0.58977804168E+03  0.00000000000E+00 0.  1.
          3   -1    0    0  501    0  0.00000000000E+00 -0.00000000000E+00 -0.20797248797E+03  0.20797248797E+03  0.00000000000E+00 0. -1.
         25    2    1    2    0    0 -0.17390486987E+03 -0.19653223543E+03 -0.39386591158E+02  0.29337109852E+03  0.12508986593E+03 0.  0.
          5    1    3    3  502    0 -0.19352020591E+03 -0.17632737904E+03 -0.30842035823E+02  0.26364771622E+03  0.41800000000E+01 0.  1.
         -5    1    3    3    0  502  0.19615336040E+02 -0.20204856388E+02 -0.85445553355E+01  0.29723382303E+02  0.41800000000E+01 0.  1.
        -11    1    1    2    0    0  0.86118636101E+02  0.12741266001E+03  0.31354215181E+03  0.34922641134E+03  0.00000000000E+00 0.  1.
         11    1    1    2    0    0  0.87786233771E+02  0.69119575413E+02  0.10764999306E+03  0.15515301979E+03  0.00000000000E+00 0. -1.
</event>
<event>
 7    1  0.2900135E-009  0.1337488E+03  0.7561462E-02  0.1221997E+00
         -2   -1    0    0    0  501 -0.00000000000E+00  0.00000000000E+00  0.15906829825E+02  0.15906829825E+02  0.00000000000E+00 0.  1.
          2   -1    0    0  501    0  0.00000000000E+00 -0.00000000000E+00 -0.13556080756E+04  0.13556080756E+04  0.00000000000E+00 0. -1.
         25    2    1    2    0    0 -0.28223935199E+02 -0.91042596144E+02 -0.85723171157E+03  0.87153815424E+03  0.12508877705E+03 0.  0.
          5    1    3    3  502    0  0.46513259431E+02 -0.58777485742E+02 -0.37061947970E+03  0.37814619827E+03  0.41800000000E+01 0.  1.
         -5    1    3    3    0  502 -0.74737194630E+02 -0.32265110401E+02 -0.48661223186E+03  0.49339195596E+03  0.41800000000E+01 0.  1.
        -11    1    1    2    0    0  0.12040683436E+02 -0.53476955731E+01 -0.77189468865E+01  0.15269513633E+02  0.00000000000E+00 0.  1.
         11    1    1    2    0    0  0.16183251763E+02  0.96390291717E+02 -0.47475058728E+03  0.48470723751E+03  0.00000000000E+00 0. -1.
</event>
<event>
 7    1  0.2900135E-009  0.1105117E+03  0.7561462E-02  0.1259625E+00
          2   -1    0    0  501    0  0.00000000000E+00  0.00000000000E+00  0.10510759962E+04  0.10510759962E+04  0.00000000000E+00 0. -1.
         -2   -1    0    0    0  501 -0.00000000000E+00 -0.00000000000E+00 -0.15745868704E+02  0.15745868704E+02  0.00000000000E+00 0.  1.
         25    2    1    2    0    0  0.77753727298E+01 -0.61857440874E+02  0.70487611799E+03  0.71859846073E+03  0.12508639670E+03 0.  0.
          5    1    3    3  502    0  0.64252672726E+02 -0.40877466946E+02  0.31680620630E+03  0.32585735837E+03  0.41800000000E+01 0. -1.
         -5    1    3    3    0  502 -0.56477299996E+02 -0.20979973928E+02  0.38806991169E+03  0.39274110236E+03  0.41800000000E+01 0. -1.
        -11    1    1    2    0    0  0.13531606333E+02  0.61584273535E+02  0.31657526173E+03  0.32279346873E+03  0.00000000000E+00 0. -1.
         11    1    1    2    0    0 -0.21306979063E+02  0.27316733853E+00  0.13878747797E+02  0.25429935462E+02  0.00000000000E+00 0.  1.
</event>
<event>
 7    1  0.2900135E-009  0.8878603E+02  0.7561462E-02  0.1305818E+00
          1   -1    0    0  501    0  0.00000000000E+00  0.00000000000E+00  0.32962767976E+03  0.32962767976E+03  0.00000000000E+00 0. -1.
         -1   -1    0    0    0  501 -0.00000000000E+00 -0.00000000000E+00 -0.45000112023E+02  0.45000112023E+02  0.00000000000E+00 0.  1.
         25    2    1    2    0    0 -0.16237810226E+02 -0.56191894543E+02  0.97312168147E+02  0.16892992484E+03  0.12508583430E+03 0.  0.
          5    1    3    3  502    0 -0.42994228335E+02 -0.56447300526E+02  0.33669682569E+01  0.71159049193E+02  0.41800000000E+01 0. -1.
         -5    1    3    3    0  502  0.26756418109E+02  0.25540598298E+00  0.93945199890E+02  0.97770875646E+02  0.41800000000E+01 0. -1.
        -11    1    1    2    0    0 -0.19614553098E+02  0.14314297025E+02  0.96075115946E+02  0.99096204249E+02  0.00000000000E+00 0. -1.
         11    1    1    2    0    0  0.35852363324E+02  0.41877597518E+02  0.91240283643E+02  0.10660166269E+03  0.00000000000E+00 0.  1.
</event>
<event>
 7    1  0.2900135E-009  0.2950128E+03  0.7561462E-02  0.1087761E+00
          1   -1    0    0  501    0  0.00000000000E+00  0.00000000000E+00  0.88448700253E+02  0.88448700253E+02  0.00000000000E+00 0. -1.
         -1   -1    0    0    0  501 -0.00000000000E+00 -0.00000000000E+00 -0.11042827873E+04  0.11042827873E+04  0.00000000000E+00 0.  1.
         25    2    1    2    0    0  0.25702352404E+03  0.10299762965E+03 -0.69794053711E+03  0.76120594120E+03  0.12507552897E+03 0.  0.
          5    1    3    3  502    0  0.12278344092E+03 -0.12161861429E+02 -0.23188802513E+03  0.26270365973E+03  0.41800000000E+01 0.  1.
         -5    1    3    3    0  502  0.13424008312E+03  0.11515949108E+03 -0.46605251199E+03  0.49850228147E+03  0.41800000000E+01 0.  1.
        -11    1    1    2    0    0 -0.12187435189E+03 -0.94533009603E+02 -0.19530256656E+03  0.24886329592E+03  0.00000000000E+00 0.  1.
         11    1    1    2    0    0 -0.13514917215E+03 -0.84646200477E+01 -0.12259098335E+03  0.18266225041E+03  0.00000000000E+00 0. -1.
</event>
<event>
 7    1  0.2900135E-009  0.8462346E+02  0.7561462E-02  0.1316420E+00
         -1   -1    0    0    0  501 -0.00000000000E+00  0.00000000000E+00  0.23042757786E+02  0.23042757786E+02  0.00000000000E+00 0.  1.
          1   -1    0    0  501    0  0.00000000000E+00 -0.00000000000E+00 -0.51910929519E+03  0.51910929519E+03  0.00000000000E+00 0. -1.
         25    2    1    2    0    0  0.92460145181E+01  0.39855907535E+01 -0.33405789017E+03  0.35685157983E+03  0.12508797832E+03 0.  0.
          5    1    3    3  502    0 -0.17559299993E+02  0.40165684481E+02 -0.40488901156E+02  0.59820019583E+02  0.41800000000E+01 0. -1.
         -5    1    3    3    0  502  0.26805314512E+02 -0.36180093728E+02 -0.29356898902E+03  0.29703156025E+03  0.41800000000E+01 0. -1.
        -11    1    1    2    0    0  0.22862404254E+02 -0.30661178234E+02 -0.12053164202E+03  0.12645423720E+03  0.00000000000E+00 0. -1.
         11    1    1    2    0    0 -0.32108418772E+02  0.26675587481E+02 -0.41477005209E+02  0.58846235942E+02  0.00000000000E+00 0.  1.
</event>
<event>
 7    1  0.2900135E-009  0.1902486E+03  0.7561462E-02  0.1158237E+00
         -1   -1    0    0    0  501 -0.00000000000E+00  0.00000000000E+00  0.89354304070E+02  0.89354304070E+02  0.00000000000E+00 0. -1.
          1   -1    0    0  501    0  0.00000000000E+00 -0.00000000000E+00 -0.50267600338E+03  0.50267600338E+03  0.00000000000E+00 0.  1.
         25    2    1    2    0    0 -0.11088984965E+03  0.14361354113E+03 -0.23776190758E+03  0.32418989746E+03  0.12508779705E+03 0.  0.
          5    1    3    3  502    0 -0.63727083920E+02  0.45235213124E+02 -0.18910427568E+03  0.20465889966E+03  0.41800000000E+01 0.  1.
         -5    1    3    3    0  502 -0.47162765731E+02  0.98378328010E+02 -0.48657631902E+02  0.11953099780E+03  0.41800000000E+01 0.  1.
        -11    1    1    2    0    0  0.99407077810E+02 -0.77755005514E+02 -0.15058009727E+03  0.19647384990E+03  0.00000000000E+00 0.  1.
         11    1    1    2    0    0  0.11482771841E+02 -0.65858535619E+02 -0.24979694464E+02  0.71366560086E+02  0.00000000000E+00 0. -1.
</event>
<event>
 7    1  0.2900135E-009  0.2001984E+03  0.7561462E-02  0.1149572E+00
         -1   -1    0    0    0  501 -0.00000000000E+00  0.00000000000E+00  0.77593822179E+02  0.77593822179E+02  0.00000000000E+00 0.  1.
          1   -1    0    0  501    0  0.00000000000E+00 -0.00000000000E+00 -0.58005532918E+03  0.58005532918E+03  0.00000000000E+00 0. -1.
         25    2    1    2    0    0  0.49066027992E+02  0.17543993797E+03 -0.24879161947E+03  0.33276219037E+03  0.12508700367E+03 0.  0.
          5    1    3    3  502    0  0.16546848084E+02 -0.16011621630E+02 -0.47968762454E+02  0.53372696954E+02  0.41800000000E+01 0.  1.
         -5    1    3    3    0  502  0.32519179908E+02  0.19145155960E+03 -0.20082285701E+03  0.27938949342E+03  0.41800000000E+01 0.  1.
        -11    1    1    2    0    0 -0.69019579613E+01 -0.48703363766E+02 -0.15070883621E+02  0.51446926040E+02  0.00000000000E+00 0.  1.
         11    1    1    2    0    0 -0.42164070031E+02 -0.12673657420E+03 -0.23859900391E+03  0.27344003495E+03  0.00000000000E+00 0. -1.
</event>
<event>
 7    1  0.2900135E-009  0.1157895E+03  0.7561462E-02  0.1250209E+00
         -4   -1    0    0    0  501 -0.00000000000E+00  0.00000000000E+00  0.12049995123E+03  0.12049995123E+03  0.00000000000E+00 0.  1.
          4   -1    0    0  501    0  0.00000000000E+00 -0.00000000000E+00 -0.18268709812E+03  0.18268709812E+03  0.00000000000E+00 0. -1.
         25    2    1    2    0    0  0.96466140270E+02  0.18102540708E+02 -0.33561616699E+02  0.16251121390E+03  0.12510033705E+03 0.  0.
          5    1    3    3  502    0  0.32184125629E+02  0.27025833365E+02 -0.74519490931E+02  0.85655359086E+02  0.41800000000E+01 0.  1.
         -5    1    3    3    0  502  0.64282014641E+02 -0.89232926572E+01  0.40957874232E+02  0.76855854818E+02  0.41800000000E+01 0.  1.
        -11    1    1    2    0    0 -0.99743362906E+02 -0.36057623370E+02  0.78324662516E+00  0.10606367956E+03  0.00000000000E+00 0.  1.
         11    1    1    2    0    0  0.32772226364E+01  0.17955082662E+02 -0.29408776816E+02  0.34612155891E+02  0.00000000000E+00 0. -1.
</event>
<event>
 7    1  0.3357700E-009  0.9281544E+02  0.7561462E-02  0.1296173E+00
         -4   -1    0    0    0  501 -0.00000000000E+00  0.00000000000E+00  0.19885265112E+02  0.19885265112E+02  0.00000000000E+00 0.  1.
          4   -1    0    0  501    0  0.00000000000E+00 -0.00000000000E+00 -0.75892884398E+03  0.75892884398E+03  0.00000000000E+00 0. -1.
         25    2    1    2    0    0  0.22986059259E+02  0.22462109560E+02 -0.26247599006E+03  0.29253024270E+03  0.12508953693E+03 0.  0.
          5    1    3    3  502    0 -0.28183817202E+02 -0.90174037493E+01 -0.21158267922E+03  0.21368281088E+03  0.41800000000E+01 0.  1.
         -5    1    3    3    0  502  0.51169876461E+02  0.31479513309E+02 -0.50893310843E+02  0.78847431815E+02  0.41800000000E+01 0.  1.
        -11    1    1    2    0    0 -0.22764370625E+02  0.32983756074E+02 -0.23858433906E+03  0.24192691371E+03  0.00000000000E+00 0. -1.
         11    1    1    2    0    0 -0.22168863417E+00 -0.55445865634E+02 -0.23798324975E+03  0.24435695268E+03  0.00000000000E+00 0.  1.
</event>
<event>
 7    1  0.2900135E-009  0.3614645E+03  0.7561462E-02  0.1058005E+00
         -2   -1    0    0    0  501 -0.00000000000E+00  0.00000000000E+00  0.18504514979E+03  0.18504514979E+03  0.00000000000E+00 0.  1.
          2   -1    0    0  501    0  0.00000000000E+00 -0.00000000000E+00 -0.72526751410E+03  0.72526751410E+03  0.00000000000E+00 0. -1.
         25    2    1    2    0    0  0.22333410281E+03 -0.26559444018E+03 -0.32480468479E+03  0.49149213425E+03  0.12509159298E+03 0.  0.
          5    1    3    3  502    0  0.15026070875E+03 -0.25311549006E+03 -0.26632187764E+03  0.39697675852E+03  0.41800000000E+01 0.  1.
         -5    1    3    3    0  502  0.73073394057E+02 -0.12478950120E+02 -0.58482807157E+02  0.94515375723E+02  0.41800000000E+01 0.  1.
        -11    1    1    2    0    0 -0.10920012826E+03  0.18410458635E+03 -0.95875051864E+02  0.23454464884E+03  0.00000000000E+00 0.  1.
         11    1    1    2    0    0 -0.11413397454E+03  0.81489853828E+02 -0.11954262765E+03  0.18427588081E+03  0.00000000000E+00 0. -1.
</event>
<event>
 7    1  0.2900135E-009  0.8423927E+02  0.7561462E-02  0.1317434E+00
          1   -1    0    0  501    0  0.00000000000E+00  0.00000000000E+00  0.18710929848E+03  0.18710929848E+03  0.00000000000E+00 0. -1.
         -1   -1    0    0    0  501 -0.00000000000E+00 -0.00000000000E+00 -0.88325185286E+02  0.88325185286E+02  0.00000000000E+00 0.  1.
         25    2    1    2    0    0 -0.11829389106E+02 -0.20262950578E+02 -0.15386273657E+02  0.12819548082E+03  0.12508725863E+03 0.  0.
          5    1    3    3  502    0  0.32752862445E+02 -0.77679934228E+01 -0.56654452725E+02  0.66032500587E+02  0.41800000000E+01 0.  1.
         -5    1    3    3    0  502 -0.44582251551E+02 -0.12494957155E+02  0.41268179069E+02  0.62162980232E+02  0.41800000000E+01 0.  1.
        -11    1    1    2    0    0 -0.34279459280E+02  0.23945168598E+02  0.30932349537E+02  0.52012139695E+02  0.00000000000E+00 0.  1.
         11    1    1    2    0    0  0.46108848386E+02 -0.36822180202E+01  0.83238037311E+02  0.95226863250E+02  0.00000000000E+00 0. -1.
</event>
<event>
 7    1  0.2900135E-009  0.1241189E+03  0.7561462E-02  0.1236453E+00
         -2   -1    0    0    0  501 -0.00000000000E+00  0.00000000000E+00  0.18841715963E+02  0.18841715963E+02  0.00000000000E+00 0.  1.
          2   -1    0    0  501    0  0.00000000000E+00 -0.00000000000E+00 -0.10440055512E+04  0.10440055512E+04  0.00000000000E+00 0. -1.
         25    2    1    2    0    0  0.18211207956E+02  0.86962459784E+02 -0.55133866697E+03  0.57228991713E+03  0.12508919238E+03 0.  0.
          5    1    3    3  502    0  0.54042228416E+02  0.44355896664E+02 -0.45955343207E+03  0.46486001909E+03  0.41800000000E+01 0. -1.
         -5    1    3    3    0  502 -0.35831020461E+02  0.42606563120E+02 -0.91785234897E+02  0.10742989804E+03  0.41800000000E+01 0. -1.
        -11    1    1    2    0    0 -0.23313314747E+02  0.99335398376E+01 -0.53788448046E+02  0.59459086786E+02  0.00000000000E+00 0.  1.
         11    1    1    2    0    0  0.51021067914E+01 -0.96895999622E+02 -0.42003672021E+03  0.43109826323E+03  0.00000000000E+00 0. -1.
</event>
<event>
 7    1  0.2900135E-009  0.7768550E+02  0.7561462E-02  0.1335751E+00
          2   -1    0    0  501    0  0.00000000000E+00  0.00000000000E+00  0.28523591660E+03  0.28523591660E+03  0.00000000000E+00 0. -1.
         -2   -1    0    0    0  501 -0.00000000000E+00 -0.00000000000E+00 -0.46822359515E+02  0.46822359515E+02  0.00000000000E+00 0.  1.
         25    2    1    2    0    0  0.62201333696E+01 -0.42898312870E+02  0.12390722636E+03  0.18130693180E+03  0.12506097501E+03 0.  0.
          5    1    3    3  502    0  0.18083423269E+02 -0.60299650925E+02  0.81973004412E+01  0.63621743401E+02  0.41800000000E+01 0. -1.
         -5    1    3    3    0  502 -0.11863289899E+02  0.17401338055E+02  0.11570992592E+03  0.11768518840E+03  0.41800000000E+01 0. -1.
        -11    1    1    2    0    0  0.24750746120E+02  0.24281757351E+02  0.10877092378E+03  0.11416355388E+03  0.00000000000E+00 0. -1.
         11    1    1    2    0    0 -0.30970879489E+02  0.18616555520E+02  0.57354069383E+01  0.36587790430E+02  0.00000000000E+00 0.  1.
</event>
<event>
 7    1  0.2900135E-009  0.1242831E+03  0.7561462E-02  0.1236194E+00
         -1   -1    0    0    0  501 -0.00000000000E+00  0.00000000000E+00  0.25146838949E+03  0.25146838949E+03  0.00000000000E+00 0.  1.
          1   -1    0    0  501    0  0.00000000000E+00 -0.00000000000E+00 -0.92440864316E+02  0.92440864316E+02  0.00000000000E+00 0. -1.
         25    2    1    2    0    0  0.25840732757E+02  0.97914980141E+02  0.45594637931E+02  0.16727942572E+03  0.12509375866E+03 0.  0.
          5    1    3    3  502    0 -0.16737244003E+02  0.38038812297E+02 -0.37606406426E+02  0.56203209713E+02  0.41800000000E+01 0.  1.
         -5    1    3    3    0  502  0.42577976760E+02  0.59876167845E+02  0.83201044357E+02  0.11107621601E+03  0.41800000000E+01 0.  1.
        -11    1    1    2    0    0  0.18544234889E+02  0.65802838533E+01  0.66475610983E+01  0.20769661812E+02  0.00000000000E+00 0. -1.
         11    1    1    2    0    0 -0.44384967646E+02 -0.10449526399E+03  0.10678532614E+03  0.15586016627E+03  0.00000000000E+00 0.  1.
</event>
<event>
 7    1  0.2900135E-009  0.3171778E+03  0.7561462E-02  0.1076956E+00
         -2   -1    0    0    0  501 -0.00000000000E+00  0.00000000000E+00  0.86864589663E+02  0.86864589663E+02  0.00000000000E+00 0.  1.
          2   -1    0    0  501    0  0.00000000000E+00 -0.00000000000E+00 -0.12165117918E+04  0.12165117918E+04  0.00000000000E+00 0. -1.
         25    2    1    2    0    0 -0.30174113531E+03  0.36613088867E+02 -0.50478079911E+03  0.60236154881E+03  0.12509016476E+03 0.  0.
          5    1    3    3  502    0 -0.25128508798E+03  0.74150968842E+02 -0.36798286567E+03  0.45174265180E+03  0.41800000000E+01 0. -1.
         -5    1    3    3    0  502 -0.50456047327E+02 -0.37537879975E+02 -0.13679793344E+03  0.15061889701E+03  0.41800000000E+01 0. -1.
        -11    1    1    2    0    0  0.19253087116E+03  0.45587353173E+01 -0.46302399500E+03  0.50147795402E+03  0.00000000000E+00 0.  1.
         11    1    1    2    0    0  0.10921026415E+03 -0.41171824184E+02 -0.16184240805E+03  0.19953687867E+03  0.00000000000E+00 0. -1.
</event>
<event>
 7    1  0.4164733E-009  0.1075829E+03  0.7561462E-02  0.1265112E+00
          2   -1    0    0  501    0  0.00000000000E+00  0.00000000000E+00  0.67911206561E+03  0.67911206561E+03  0.00000000000E+00 0. -1.
         -2   -1    0    0    0  501 -0.00000000000E+00 -0.00000000000E+00 -0.28188113693E+02  0.28188113693E+02  0.00000000000E+00 0.  1.
         25    2    1    2    0    0  0.33537576025E+02 -0.75908120246E+02  0.30545376710E+03  0.34033719365E+03  0.12506234375E+03 0.  0.
          5    1    3    3  502    0  0.63419782191E+02 -0.52940611758E+02  0.92739105441E+02  0.12426902762E+03  0.41800000000E+01 0.  1.
         -5    1    3    3    0  502 -0.29882206166E+02 -0.22967508488E+02  0.21271466166E+03  0.21606816604E+03  0.41800000000E+01 0.  1.
        -11    1    1    2    0    0  0.11378974302E+02  0.13973353604E+02  0.60225353854E+01  0.19000173673E+02  0.00000000000E+00 0.  1.
         11    1    1    2    0    0 -0.44916550327E+02  0.61934766642E+02  0.33944764944E+03  0.34796281198E+03  0.00000000000E+00 0. -1.
</event>
<event>
 7    1  0.2900135E-009  0.1274718E+03  0.7561462E-02  0.1231256E+00
          2   -1    0    0  501    0  0.00000000000E+00  0.00000000000E+00  0.71653989011E+03  0.71653989011E+03  0.00000000000E+00 0. -1.
         -2   -1    0    0    0  501 -0.00000000000E+00 -0.00000000000E+00 -0.32056320435E+02  0.32056320435E+02  0.00000000000E+00 0.  1.
         25    2    1    2    0    0 -0.15625240168E+02 -0.90217263681E+02  0.24422326175E+03  0.28927013986E+03  0.12509560120E+03 0.  0.
          5    1    3    3  502    0  0.51153097542E+02 -0.39485491766E+02  0.67091951880E+02  0.93244548662E+02  0.41800000000E+01 0.  1.
         -5    1    3    3    0  502 -0.66778337710E+02 -0.50731771915E+02  0.17713130987E+03  0.19602559120E+03  0.41800000000E+01 0.  1.
        -11    1    1    2    0    0 -0.15490002897E+02  0.63020420201E+01  0.92275967534E+01  0.19099855110E+02  0.00000000000E+00 0.  1.
         11    1    1    2    0    0  0.31115243065E+02  0.83915221661E+02  0.43103271117E+03  0.44022621557E+03  0.00000000000E+00 0. -1.
</event>
<event>
 7    1  0.2900135E-009  0.9002368E+02  0.7561462E-02  0.1302794E+00
          1   -1    0    0  501    0  0.00000000000E+00  0.00000000000E+00  0.72493436202E+03  0.72493436202E+03  0.00000000000E+00 0. -1.
         -1   -1    0    0    0  501 -0.00000000000E+00 -0.00000000000E+00 -0.16951701650E+02  0.16951701650E+02  0.00000000000E+00 0.  1.
         25    2    1    2    0    0 -0.38814128827E+01 -0.11496750144E+02  0.48362616895E+03  0.49968909391E+03  0.12509068173E+03 0.  0.
          5    1    3    3  502    0  0.43824259788E+02 -0.16401756966E+02  0.40341516041E+03  0.40614141309E+03  0.41800000000E+01 0.  1.
         -5    1    3    3    0  502 -0.47705672671E+02  0.49050068218E+01  0.80211008533E+02  0.93547680820E+02  0.41800000000E+01 0.  1.
        -11    1    1    2    0    0 -0.84776434675E+01  0.46780971167E+02  0.79844164757E+02  0.92926962438E+02  0.00000000000E+00 0.  1.
         11    1    1    2    0    0  0.12359056350E+02 -0.35284221023E+02  0.14451232667E+03  0.14927000732E+03  0.00000000000E+00 0. -1.
</event>
<event>
 7    1  0.2900135E-009  0.1007741E+03  0.7561462E-02  0.1278677E+00
          3   -1    0    0  501    0  0.00000000000E+00  0.00000000000E+00  0.84030615766E+02  0.84030615766E+02  0.00000000000E+00 0. -1.
         -3   -1    0    0    0  501 -0.00000000000E+00 -0.00000000000E+00 -0.20105833894E+03  0.20105833894E+03  0.00000000000E+00 0.  1.
         25    2    1    2    0    0  0.22871548292E+02 -0.64835887212E+02 -0.78530747279E+02  0.16293648780E+03  0.12511762785E+03 0.  0.
          5    1    3    3  502    0 -0.37247268480E+02 -0.47910603444E+02  0.20932360324E+01  0.60865745446E+02  0.41800000000E+01 0.  1.
         -5    1    3    3    0  502  0.60118816771E+02 -0.16925283768E+02 -0.80623983311E+02  0.10207074236E+03  0.41800000000E+01 0.  1.
        -11    1    1    2    0    0 -0.27285242577E+02  0.21971762206E+02  0.26668955189E+02  0.44028127008E+02  0.00000000000E+00 0. -1.
         11    1    1    2    0    0  0.44136942851E+01  0.42864125006E+02 -0.65165931079E+02  0.78124339890E+02  0.00000000000E+00 0.  1.
</event>
<event>
 7    1  0.2901311E-009  0.9099515E+02  0.7561462E-02  0.1300460E+00
         -2   -1    0    0    0  501 -0.00000000000E+00  0.00000000000E+00  0.14898920925E+03  0.14898920925E+03  0.00000000000E+00 0.  1.
          2   -1    0    0  501    0  0.00000000000E+00 -0.00000000000E+00 -0.13955842669E+03  0.13955842669E+03  0.00000000000E+00 0. -1.
         25    2    1    2    0    0  0.37355569225E+02  0.69908075389E+02 -0.46447650722E+02  0.15520010029E+03  0.12508840599E+03 0.  0.
          5    1    3    3  502    0  0.21651968489E+02  0.77224176919E+02  0.22970050051E+02  0.83531292577E+02  0.41800000000E+01 0. -1.
         -5    1    3    3    0  502  0.15703600735E+02 -0.73161015295E+01 -0.69417700774E+02  0.71668807708E+02  0.41800000000E+01 0. -1.
        -11    1    1    2    0    0 -0.33479633541E+02 -0.33912899726E+02  0.77646387753E+02  0.91103963475E+02  0.00000000000E+00 0.  1.
         11    1    1    2    0    0 -0.38759356838E+01 -0.35995175663E+02 -0.21767954466E+02  0.42243572175E+02  0.00000000000E+00 0. -1.
</event>
<event>
 7    1  0.2900135E-009  0.1209429E+03  0.7561462E-02  0.1241550E+00
         -2   -1    0    0    0  501 -0.00000000000E+00  0.00000000000E+00  0.53921970699E+02  0.53921970699E+02  0.00000000000E+00 0.  1.
          2   -1    0    0  501    0  0.00000000000E+00 -0.00000000000E+00 -0.45793906749E+03  0.45793906749E+03  0.00000000000E+00 0. -1.
         25    2    1    2    0    0 -0.52083913110E+02  0.61445472700E+02 -0.34897572653E+03  0.37936872008E+03  0.12509311711E+03 0.  0.
          5    1    3    3  502    0 -0.30480303786E+02  0.98451534667E+02 -0.27593298137E+03  0.29458145938E+03  0.41800000000E+01 0.  1.
         -5    1    3    3    0  502 -0.21603609324E+02 -0.37006061967E+02 -0.73042745156E+02  0.84787260706E+02  0.41800000000E+01 0.  1.
        -11    1    1    2    0    0  0.35345369841E+00 -0.39484971409E+02  0.15396784302E+02  0.42382176248E+02  0.00000000000E+00 0.  1.
         11    1    1    2    0    0  0.51730459412E+02 -0.21960501291E+02 -0.70438154565E+02  0.90110141862E+02  0.00000000000E+00 0. -1.
</event>
<event>
 7    1  0.2900135E-009  0.1345862E+03  0.7561462E-02  0.1220805E+00
         -1   -1    0    0    0  501 -0.00000000000E+00  0.00000000000E+00  0.23310512634E+02  0.23310512634E+02  0.00000000000E+00 0.  1.
          1   -1    0    0  501    0  0.00000000000E+00 -0.00000000000E+00 -0.94234960982E+03  0.94234960982E+03  0.00000000000E+00 0. -1.
         25    2    1    2    0    0  0.65083106147E+02 -0.78404730330E+02 -0.52387864170E+03  0.54816041421E+03  0.12509155064E+03 0.  0.
          5    1    3    3  502    0  0.98466845446E+02 -0.42433093595E+02 -0.29156486057E+03  0.31068284054E+03  0.41800000000E+01 0. -1.
         -5    1    3    3    0  502 -0.33383739300E+02 -0.35971636735E+02 -0.23231378113E+03  0.23747757368E+03  0.41800000000E+01 0. -1.
        -11    1    1    2    0    0 -0.54607322111E+02  0.28447439888E+02 -0.32473842366E+03  0.33052422039E+03  0.00000000000E+00 0. -1.
         11    1    1    2    0    0 -0.10475784036E+02  0.49957290442E+02 -0.70422031833E+02  0.86975487851E+02  0.00000000000E+00 0.  1.
</event>
<event>
 7    1  0.2900135E-009  0.2354458E+03  0.7561462E-02  0.1122864E+00
          1   -1    0    0  501    0  0.00000000000E+00  0.00000000000E+00  0.72865565342E+03  0.72865565342E+03  0.00000000000E+00 0. -1.
         -1   -1    0    0    0  501 -0.00000000000E+00 -0.00000000000E+00 -0.12420011937E+03  0.12420011937E+03  0.00000000000E+00 0.  1.
         25    2    1    2    0    0 -0.35849459330E+02  0.21017232842E+03  0.56366476116E+03  0.61548599687E+03  0.12508979977E+03 0.  0.
          5    1    3    3  502    0 -0.23391719171E+02 -0.29073670733E+01  0.19280028968E+02  0.30737879336E+02  0.41800000000E+01 0.  1.
         -5    1    3    3    0  502 -0.12457740160E+02  0.21307969549E+03  0.54438473219E+03  0.58474811754E+03  0.41800000000E+01 0.  1.
        -11    1    1    2    0    0  0.68616056056E+02 -0.15010519299E+03  0.34895142960E+02  0.16869322190E+03  0.00000000000E+00 0.  1.
         11    1    1    2    0    0 -0.32766596726E+02 -0.60067135424E+02  0.58956299372E+01  0.68676554016E+02  0.00000000000E+00 0. -1.
</event>
<event>
 7    1  0.2900135E-009  0.1110311E+03  0.7561462E-02  0.1258672E+00
          2   -1    0    0  501    0  0.00000000000E+00  0.00000000000E+00  0.38231297501E+03  0.38231297501E+03  0.00000000000E+00 0. -1.
         -2   -1    0    0    0  501 -0.00000000000E+00 -0.00000000000E+00 -0.40123265473E+02  0.40123265473E+02  0.00000000000E+00 0.  1.
         25    2    1    2    0    0 -0.40626523020E+01  0.59466333674E+02  0.22557432013E+03  0.26473400404E+03  0.12509024345E+03 0.  0.
          5    1    3    3  502    0 -0.22554429782E+02 -0.33555977738E+02  0.94687157319E+02  0.10304288479E+03  0.41800000000E+01 0. -1.
         -5    1    3    3    0  502  0.18491777480E+02  0.93022311411E+02  0.13088716281E+03  0.16169111925E+03  0.41800000000E+01 0. -1.
        -11    1    1    2    0    0  0.19431000447E+02 -0.66716089090E+02  0.12154739208E+03  0.14000845989E+03  0.00000000000E+00 0. -1.
         11    1    1    2    0    0 -0.15368348145E+02  0.72497554161E+01 -0.49320026690E+01  0.17693776551E+02  0.00000000000E+00 0.  1.
</event>
<event>
 7    1  0.2900135E-009  0.1271447E+03  0.7561462E-02  0.1231755E+00
         -2   -1    0    0    0  501 -0.00000000000E+00  0.00000000000E+00  0.40419053450E+02  0.40419053450E+02  0.00000000000E+00 0.  1.
          2   -1    0    0  501    0  0.00000000000E+00 -0.00000000000E+00 -0.61022344967E+03  0.61022344967E+03  0.00000000000E+00 0. -1.
         25    2    1    2    0    0  0.54361490448E+02  0.78007959950E+02 -0.42698928398E+03  0.45498007750E+03  0.12508640543E+03 0.  0.
          5    1    3    3  502    0  0.63012011508E+02  0.10760213236E+03 -0.36266016937E+03  0.38352132056E+03  0.41800000000E+01 0.  1.
         -5    1    3    3    0  502 -0.86505210602E+01 -0.29594172407E+02 -0.64329114618E+02  0.71458756934E+02  0.41800000000E+01 0.  1.
        -11    1    1    2    0    0 -0.19069339917E+02 -0.94069974601E+01  0.10736525409E+02  0.23820249871E+02  0.00000000000E+00 0.  1.
         11    1    1    2    0    0 -0.35292150531E+02 -0.68600962490E+02 -0.15355163765E+03  0.17184217575E+03  0.00000000000E+00 0. -1.
</event>
<event>
 7    1  0.2900135E-009  0.2588210E+03  0.7561462E-02  0.1107854E+00
          2   -1    0    0  501    0  0.00000000000E+00  0.00000000000E+00  0.19009868013E+04  0.19009868013E+04  0.00000000000E+00 0.  1.
         -2   -1    0    0    0  501 -0.00000000000E+00 -0.00000000000E+00 -0.54233457381E+02  0.54233457381E+02  0.00000000000E+00 0. -1.
         25    2    1    2    0    0  0.23563741737E+03  0.53913428357E+02  0.14942186674E+04  0.15188049495E+04  0.12508956175E+03 0.  0.
          5    1    3    3  502    0  0.20002839253E+03 -0.32756998498E+01  0.98385885819E+03  0.10040009030E+04  0.41800000000E+01 0.  1.
         -5    1    3    3    0  502  0.35609024836E+02  0.57189128207E+02  0.51035980919E+03  0.51480404648E+03  0.41800000000E+01 0.  1.
        -11    1    1    2    0    0 -0.58362344026E+02 -0.42889436996E+02  0.59409359260E+02  0.93675711760E+02  0.00000000000E+00 0. -1.
         11    1    1    2    0    0 -0.17727507334E+03 -0.11023991361E+02  0.29312531732E+03  0.34273959746E+03  0.00000000000E+00 0.  1.
</event>
<event>
 7    1  0.3182061E-009  0.1241857E+03  0.7561462E-02  0.1236347E+00
         -1   -1    0    0    0  501 -0.00000000000E+00  0.00000000000E+00  0.65308630134E+02  0.65308630134E+02  0.00000000000E+00 0.  1.
          1   -1    0    0  501    0  0.00000000000E+00 -0.00000000000E+00 -0.40252009568E+03  0.40252009568E+03  0.00000000000E+00 0. -1.
         25    2    1    2    0    0  0.10238737808E+03  0.43975903202E+02 -0.24531806639E+03  0.29706807357E+03  0.12510568086E+03 0.  0.
          5    1    3    3  502    0  0.10713206272E+03  0.22304660800E+02 -0.94727608546E+02  0.14479492041E+03  0.41800000000E+01 0.  1.
         -5    1    3    3    0  502 -0.47446846338E+01  0.21671242402E+02 -0.15059045784E+03  0.15227315316E+03  0.41800000000E+01 0.  1.
        -11    1    1    2    0    0 -0.27515512608E+02 -0.28916941925E+02 -0.85211983869E+02  0.94097689447E+02  0.00000000000E+00 0. -1.
         11    1    1    2    0    0 -0.74871865476E+02 -0.15058961277E+02 -0.66814152865E+01  0.76662962797E+02  0.00000000000E+00 0.  1.
</event>
<event>
 7    1  0.2900135E-009  0.6103898E+02  0.7561462E-02  0.1393523E+00
          2   -1    0    0  501    0  0.00000000000E+00  0.00000000000E+00  0.69824512033E+03  0.69824512033E+03  0.00000000000E+00 0. -1.
         -2   -1    0    0    0  501 -0.00000000000E+00 -0.00000000000E+00 -0.17591110711E+02  0.17591110711E+02  0.00000000000E+00 0.  1.
         25    2    1    2    0    0 -0.10207944973E+02  0.21359053390E+02  0.38687934355E+03  0.40728707073E+03  0.12508685072E+03 0.  0.
          5    1    3    3  502    0 -0.12712233731E+02  0.14463764734E+02  0.39504796261E+03  0.39553908345E+03  0.41800000000E+01 0. -1.
         -5    1    3    3    0  502  0.25042887579E+01  0.68952886559E+01 -0.81686190623E+01  0.11747987284E+02  0.41800000000E+01 0. -1.
        -11    1    1    2    0    0 -0.37631845741E+02 -0.26187886453E+02  0.12915116428E+03  0.13704738030E+03  0.00000000000E+00 0.  1.
         11    1    1    2    0    0  0.47839790714E+02  0.48288330636E+01  0.16462350179E+03  0.17150178001E+03  0.00000000000E+00 0. -1.
</event>
<event>
 7    1  0.2900135E-009  0.1236413E+03  0.7561462E-02  0.1237208E+00
          2   -1    0    0  501    0  0.00000000000E+00  0.00000000000E+00  0.14549941666E+04  0.14549941666E+04  0.00000000000E+00 0. -1.
         -2   -1    0    0    0  501 -0.00000000000E+00 -0.00000000000E+00 -0.13170753754E+02  0.13170753754E+02  0.00000000000E+00 0.  1.
         25    2    1    2    0    0 -0.51808187831E+02  0.49049243558E+02  0.10416618082E+04  0.10515687893E+04  0.12509068392E+03 0.  0.
          5    1    3    3  502    0 -0.82085213189E+02  0.36903637020E+00  0.73363308691E+03  0.73822293179E+03  0.41800000000E+01 0. -1.
         -5    1    3    3    0  502  0.30277025358E+02  0.48680207188E+02  0.30802872133E+03  0.31334585748E+03  0.41800000000E+01 0. -1.
        -11    1    1    2    0    0  0.62914261958E+02 -0.60550602396E+01  0.15407478769E+03  0.16653500627E+03  0.00000000000E+00 0.  1.
         11    1    1    2    0    0 -0.11106074127E+02 -0.42994183319E+02  0.24608681690E+03  0.25006112479E+03  0.00000000000E+00 0. -1.
</event>
<event>
 7    1  0.2900135E-009  0.4387289E+03  0.7561462E-02  0.1031138E+00
         -2   -1    0    0    0  501 -0.00000000000E+00  0.00000000000E+00  0.90529254276E+03  0.90529254276E+03  0.00000000000E+00 0.  1.
          2   -1    0    0  501    0  0.00000000000E+00 -0.00000000000E+00 -0.25272935744E+03  0.25272935744E+03  0.00000000000E+00 0. -1.
         25    2    1    2    0    0 -0.16911204354E+03  0.40197521079E+03  0.13181755610E+03  0.47244739732E+03  0.12509085409E+03 0.  0.
          5    1    3    3  502    0 -0.13501408182E+03  0.29554372610E+03  0.39331074157E+02  0.32732140493E+03  0.41800000000E+01 0. -1.
         -5    1    3    3    0  502 -0.34097961721E+02  0.10643148469E+03  0.92486481941E+02  0.14512599239E+03  0.41800000000E+01 0. -1.
        -11    1    1    2    0    0  0.12387239559E+03 -0.21342637807E+03  0.23884907298E+03  0.34342986025E+03  0.00000000000E+00 0.  1.
         11    1    1    2    0    0  0.45239647949E+02 -0.18854883272E+03  0.28189655624E+03  0.34214464264E+03  0.00000000000E+00 0. -1.
</event>
<event>
 7    1  0.2900135E-009  0.1085585E+03  0.7561462E-02  0.1263263E+00
         -2   -1    0    0    0  501 -0.00000000000E+00  0.00000000000E+00  0.87384779941E+02  0.87384779941E+02  0.00000000000E+00 0.  1.
          2   -1    0    0  501    0  0.00000000000E+00 -0.00000000000E+00 -0.15996221987E+03  0.15996221987E+03  0.00000000000E+00 0. -1.
         25    2    1    2    0    0  0.23842249612E+02  0.22470740190E+02 -0.74029230566E+02  0.14904034490E+03  0.12513716634E+03 0.  0.
          5    1    3    3  502    0 -0.17627189037E+02  0.63235507119E+02 -0.18038762616E+02  0.68207891851E+02  0.41800000000E+01 0.  1.
         -5    1    3    3    0  502  0.41469438650E+02 -0.40764766929E+02 -0.55990467950E+02  0.80832453049E+02  0.41800000000E+01 0.  1.
        -11    1    1    2    0    0  0.12930600543E+02 -0.47057699688E+02  0.16602489975E+02  0.51548716799E+02  0.00000000000E+00 0.  1.
         11    1    1    2    0    0 -0.36772850155E+02  0.24586959497E+02 -0.15150699335E+02  0.46757938109E+02  0.00000000000E+00 0. -1.
</event>
<event>
 7    1  0.2900135E-009  0.2019721E+03  0.7561462E-02  0.1148086E+00
         -2   -1    0    0    0  501 -0.00000000000E+00  0.00000000000E+00  0.31458131278E+03  0.31458131278E+03  0.00000000000E+00 0.  1.
          2   -1    0    0  501    0  0.00000000000E+00 -0.00000000000E+00 -0.20901274960E+03  0.20901274960E+03  0.00000000000E+00 0. -1.
         25    2    1    2    0    0 -0.58903898876E+02  0.18809385983E+03  0.17902975678E+03  0.29418897292E+03  0.12508608463E+03 0.  0.
          5    1    3    3  502    0 -0.51279300033E+02  0.90345580997E+02  0.17856453142E+02  0.10549035945E+03  0.41800000000E+01 0.  1.
         -5    1    3    3    0  502 -0.76245988429E+01  0.97748278830E+02  0.16117330364E+03  0.18869861348E+03  0.41800000000E+01 0.  1.
        -11    1    1    2    0    0  0.65998746668E+02 -0.16608660703E+03 -0.31470545701E+02  0.18146898039E+03  0.00000000000E+00 0.  1.
         11    1    1    2    0    0 -0.70948477924E+01 -0.22007252798E+02 -0.41990647907E+02  0.47936109068E+02  0.00000000000E+00 0. -1.
</event>
<event>
 7    1  0.2900135E-009  0.8010867E+02  0.7561462E-02  0.1328743E+00
          2   -1    0    0  501    0  0.00000000000E+00  0.00000000000E+00  0.27864862296E+03  0.27864862296E+03  0.00000000000E+00 0. -1.
         -2   -1    0    0    0  501 -0.00000000000E+00 -0.00000000000E+00 -0.52104316852E+02  0.52104316852E+02  0.00000000000E+00 0.  1.
         25    2    1    2    0    0  0.45539926642E+02 -0.11498357239E+01  0.15711857000E+03  0.20593466239E+03  0.12509049963E+03 0.  0.
          5    1    3    3  502    0  0.28917413813E+02  0.38060893648E+02  0.15590770920E+03  0.16312429198E+03  0.41800000000E+01 0. -1.
         -5    1    3    3    0  502  0.16622512829E+02 -0.39210729372E+02  0.12108607936E+01  0.42810370408E+02  0.41800000000E+01 0. -1.
        -11    1    1    2    0    0 -0.51408487176E+02 -0.13928101465E+02 -0.27674130275E+00  0.53262568000E+02  0.00000000000E+00 0.  1.
         11    1    1    2    0    0  0.58685605348E+01  0.15077937188E+02  0.69702477417E+02  0.71555709421E+02  0.00000000000E+00 0. -1.
</event>
<event>
 7    1  0.2900135E-009  0.1051066E+03  0.7561462E-02  0.1269910E+00
          4   -1    0    0  501    0  0.00000000000E+00  0.00000000000E+00  0.70794642871E+02  0.70794642871E+02  0.00000000000E+00 0.  1.
         -4   -1    0    0    0  501 -0.00000000000E+00 -0.00000000000E+00 -0.34601952875E+03  0.34601952875E+03  0.00000000000E+00 0. -1.
         25    2    1    2    0    0  0.81223580248E+02  0.47902088622E+01 -0.25198941164E+03  0.29286020803E+03  0.12509285264E+03 0.  0.
          5    1    3    3  502    0  0.58644946201E+02  0.36932017805E+02 -0.46395225227E+02  0.83505646384E+02  0.41800000000E+01 0. -1.
         -5    1    3    3    0  502  0.22578634047E+02 -0.32141808943E+02 -0.20559418641E+03  0.20935456165E+03  0.41800000000E+01 0. -1.
        -11    1    1    2    0    0 -0.25758244675E+02 -0.30689493087E+02  0.23937130703E+02  0.46672458485E+02  0.00000000000E+00 0.  1.
         11    1    1    2    0    0 -0.55465335573E+02  0.25899284225E+02 -0.47172604944E+02  0.77281505102E+02  0.00000000000E+00 0. -1.
</event>
<event>
 7    1  0.2900135E-009  0.1182461E+03  0.7561462E-02  0.1246019E+00
         -3   -1    0    0    0  501 -0.00000000000E+00  0.00000000000E+00  0.11610833368E+03  0.11610833368E+03  0.00000000000E+00 0.  1.
          3   -1    0    0  501    0  0.00000000000E+00 -0.00000000000E+00 -0.18263943825E+03  0.18263943825E+03  0.00000000000E+00 0. -1.
         25    2    1    2    0    0 -0.96043859766E+02 -0.34232078408E+01 -0.56572476159E+02  0.16761728899E+03  0.12513580287E+03 0.  0.
          5    1    3    3  502    0 -0.61867293219E+02 -0.38192171279E+02  0.21095537415E+02  0.75820168927E+02  0.41800000000E+01 0. -1.
         -5    1    3    3    0  502 -0.34176566547E+02  0.34768963438E+02 -0.77668013575E+02  0.91797120065E+02  0.41800000000E+01 0. -1.
        -11    1    1    2    0    0  0.36321217796E+02 -0.29270567044E+02  0.26756286624E+02  0.53776350110E+02  0.00000000000E+00 0.  1.
         11    1    1    2    0    0  0.59722641970E+02  0.32693774885E+02 -0.36714915037E+02  0.77354132832E+02  0.00000000000E+00 0. -1.
</event>
<event>
 7    1  0.2900135E-009  0.1011772E+03  0.7561462E-02  0.1277840E+00
         -1   -1    0    0    0  501 -0.00000000000E+00  0.00000000000E+00  0.23681953339E+02  0.23681953339E+02  0.00000000000E+00 0.  1.
          1   -1    0    0  501    0  0.00000000000E+00 -0.00000000000E+00 -0.54035711536E+03  0.54035711536E+03  0.00000000000E+00 0. -1.
         25    2    1    2    0    0 -0.19654413959E+02 -0.46032575618E+01 -0.22931876505E+03  0.26199653317E+03  0.12509037301E+03 0.  0.
          5    1    3    3  502    0 -0.50671241748E+02  0.32831834523E+02 -0.57861505714E+02  0.83731298460E+02  0.41800000000E+01 0. -1.
         -5    1    3    3    0  502  0.31016827788E+02 -0.37435092085E+02 -0.17145725934E+03  0.17826523471E+03  0.41800000000E+01 0. -1.
        -11    1    1    2    0    0  0.17883367389E+02 -0.42391523307E+02 -0.14183226650E+03  0.14910817515E+03  0.00000000000E+00 0.  1.
         11    1    1    2    0    0  0.17710465704E+01  0.46994780869E+02 -0.14552413048E+03  0.15293436038E+03  0.00000000000E+00 0. -1.
</event>
<event>
 6    1  0.2900135E-009  0.7880162E+02  0.7561462E-02  0.1332487E+00
         -1   -1    0    0    0  501 -0.00000000000E+00  0.00000000000E+00  0.22230140820E+03  0.22230140820E+03  0.00000000000E+00 0.  1.
          1   -1    0    0  501    0  0.00000000000E+00 -0.00000000000E+00 -0.64791685333E+02  0.64791685333E+02  0.00000000000E+00 0. -1.
          5    1    1    2  502    0 -0.13039574334E+02 -0.59679059756E+02  0.96811317394E+01  0.61990462040E+02  0.41800000000E+01 0.  1.
         -5    1    1    2    0  502  0.32526458281E+02  0.16566398711E+02  0.11647031202E+03  0.12212789214E+03  0.41800000000E+01 0.  1.
        -11    1    1    2    0    0  0.65011562519E+01  0.29669548657E+02  0.56663516981E+02  0.64290755998E+02  0.00000000000E+00 0.  1.
         11    1    1    2    0    0 -0.25988040198E+02  0.13443112388E+02 -0.25305237880E+02  0.38683983355E+02  0.00000000000E+00 0. -1.
</event>
<event>
 7    1  0.2900135E-009  0.1234830E+03  0.7561462E-02  0.1237459E+00
          2   -1    0    0  501    0  0.00000000000E+00  0.00000000000E+00  0.71833142053E+03  0.71833142053E+03  0.00000000000E+00 0. -1.
         -2   -1    0    0    0  501 -0.00000000000E+00 -0.00000000000E+00 -0.23733926430E+02  0.23733926430E+02  0.00000000000E+00 0.  1.
         25    2    1    2    0    0 -0.28090294744E+02  0.60770329745E+01  0.24521166903E+03  0.27678011657E+03  0.12510985299E+03 0.  0.
          5    1    3    3  502    0 -0.57911972333E+02  0.47990575090E+02  0.16525540679E+03  0.18161418917E+03  0.41800000000E+01 0. -1.
         -5    1    3    3    0  502  0.29821677588E+02 -0.41913542115E+02  0.79956262240E+02  0.95165927402E+02  0.41800000000E+01 0. -1.
        -11    1    1    2    0    0 -0.18615892334E+02 -0.51570342160E+02  0.22787069315E+03  0.23437385613E+03  0.00000000000E+00 0.  1.
         11    1    1    2    0    0  0.46706187078E+02  0.45493309185E+02  0.22151513192E+03  0.23091137426E+03  0.00000000000E+00 0. -1.
</event>
<event>
 7    1  0.2900135E-009  0.8872142E+02  0.7561462E-02  0.1305978E+00
         -2   -1    0    0    0  501 -0.00000000000E+00  0.00000000000E+00  0.44944799102E+02  0.44944799102E+02  0.00000000000E+00 0.  1.
          2   -1    0    0  501    0  0.00000000000E+00 -0.00000000000E+00 -0.41167554401E+03  0.41167554401E+03  0.00000000000E+00 0. -1.
         25    2    1    2    0    0  0.37544238612E+02  0.31906109290E+02 -0.31302927315E+03  0.34068043588E+03  0.12509302091E+03 0.  0.
          5    1    3    3  502    0  0.43197346833E+02 -0.37066700120E+02 -0.85311277917E+02  0.10264227965E+03  0.41800000000E+01 0.  1.
         -5    1    3    3    0  502 -0.56531082208E+01  0.68972809410E+02 -0.22771799523E+03  0.23803815623E+03  0.41800000000E+01 0.  1.
        -11    1    1    2    0    0 -0.29864639294E+02 -0.17239577770E+02  0.20363551731E+02  0.40047146727E+02  0.00000000000E+00 0.  1.
         11    1    1    2    0    0 -0.76795993179E+01 -0.14666531520E+02 -0.74065023484E+02  0.75892760500E+02  0.00000000000E+00 0. -1.
</event>
<event>
 7    1  0.2900135E-009  0.1043199E+03  0.7561462E-02  0.1271465E+00
          1   -1    0    0  501    0  0.00000000000E+00  0.00000000000E+00  0.35700729010E+03  0.35700729010E+03  0.00000000000E+00 0. -1.
         -1   -1    0    0    0  501 -0.00000000000E+00 -0.00000000000E+00 -0.38163630941E+02  0.38163630941E+02  0.00000000000E+00 0.  1.
         25    2    1    2    0    0  0.30791775503E+01 -0.41924313447E+02  0.18629419282E+03  0.22829835481E+03  0.12508990022E+03 0.  0.
          5    1    3    3  502    0  0.55152827276E+02 -0.50609855404E+02  0.80590431122E+02  0.11007034936E+03  0.41800000000E+01 0. -1.
         -5    1    3    3    0  502 -0.52073649726E+02  0.86855419572E+01  0.10570376170E+03  0.11822800544E+03  0.41800000000E+01 0. -1.
        -11    1    1    2    0    0  0.31174763100E+02  0.32822461420E+02  0.21139025962E+02  0.49960366759E+02  0.00000000000E+00 0.  1.
         11    1    1    2    0    0 -0.34253940650E+02  0.91018520261E+01  0.11141044038E+03  0.11691219947E+03  0.00000000000E+00 0. -1.
</event>
<event>
 7    1  0.2900135E-009  0.1138553E+03  0.7561462E-02  0.1253593E+00
          2   -1    0    0  501    0  0.00000000000E+00  0.00000000000E+00  0.24574884597E+03  0.24574884597E+03  0.00000000000E+00 0. -1.
         -2   -1    0    0    0  501 -0.00000000000E+00 -0.00000000000E+00 -0.10804173220E+03  0.10804173220E+03  0.00000000000E+00 0.  1.
         25    2    1    2    0    0  0.71230157896E+02  0.20085180587E+02  0.18249837132E+03  0.23330167565E+03  0.12508743525E+03 0.  0.
          5    1    3    3  502    0 -0.22891601393E+02  0.42064455363E+02  0.70133024544E+02  0.85026803721E+02  0.41800000000E+01 0.  1.
         -5    1    3    3    0  502  0.94121759289E+02 -0.21979274777E+02  0.11236534677E+03  0.14827487193E+03  0.41800000000E+01 0.  1.
        -11    1    1    2    0    0 -0.54357196272E+02 -0.31213823322E+02 -0.66116670542E+02  0.91106650013E+02  0.00000000000E+00 0.  1.
         11    1    1    2    0    0 -0.16872961624E+02  0.11128642735E+02  0.21325412992E+02  0.29382252507E+02  0.00000000000E+00 0. -1.
</event>
<event>
 7    1  0.2900135E-009  0.1133863E+03  0.7561462E-02  0.1254424E+00
          1   -1    0    0  501    0  0.00000000000E+00  0.00000000000E+00  0.45091959793E+03  0.45091959793E+03  0.00000000000E+00 0. -1.
         -1   -1    0    0    0  501 -0.00000000000E+00 -0.00000000000E+00 -0.65580744655E+02  0.65580744655E+02  0.00000000000E+00 0.  1.
         25    2    1    2    0    0 -0.17622067366E+01  0.50752029685E+02  0.39183184663E+03  0.41443674530E+03  0.12508695349E+03 0.  0.
          5    1    3    3  502    0  0.43120207191E+02  0.67286622018E+02  0.17616733928E+03  0.19349223654E+03  0.41800000000E+01 0.  1.
         -5    1    3    3    0  502 -0.44882413928E+02 -0.16534592333E+02  0.21566450735E+03  0.22094450876E+03  0.41800000000E+01 0.  1.
        -11    1    1    2    0    0  0.43167659227E+02 -0.23319599694E+02  0.93151990590E+01  0.49940198903E+02  0.00000000000E+00 0. -1.
         11    1    1    2    0    0 -0.41405452490E+02 -0.27432429991E+02 -0.15808192415E+02  0.52123398379E+02  0.00000000000E+00 0.  1.
</event>
<event>
 7    1  0.2900135E-009  0.1039543E+03  0.7561462E-02  0.1272194E+00
          2   -1    0    0  501    0  0.00000000000E+00  0.00000000000E+00  0.47774493582E+03  0.47774493582E+03  0.00000000000E+00 0. -1.
         -2   -1    0    0    0  501 -0.00000000000E+00 -0.00000000000E+00 -0.26544201536E+02  0.26544201536E+02  0.00000000000E+00 0.  1.
         25    2    1    2    0    0  0.34335174204E+02 -0.12548959320E+02  0.27370256434E+03  0.30314564788E+03  0.12509120488E+03 0.  0.
          5    1    3    3  502    0 -0.27065342727E+02 -0.38328159700E+02  0.19182142604E+03  0.19752091659E+03  0.41800000000E+01 0. -1.
         -5    1    3    3    0  502  0.61400516931E+02  0.25779200380E+02  0.81881138302E+02  0.10562473130E+03  0.41800000000E+01 0. -1.
        -11    1    1    2    0    0 -0.63470945191E+02  0.34917975990E+01  0.12965548521E+03  0.14439978663E+03  0.00000000000E+00 0.  1.
         11    1    1    2    0    0  0.29135770988E+02  0.90571617206E+01  0.47842684728E+02  0.56743702835E+02  0.00000000000E+00 0. -1.
</event>
<event>
 7    1  0.2900135E-009  0.9256810E+02  0.7561462E-02  0.1296749E+00
          3   -1    0    0  501    0  0.00000000000E+00  0.00000000000E+00  0.96056678275E+02  0.96056678275E+02  0.00000000000E+00 0. -1.
         -3   -1    0    0    0  501 -0.00000000000E+00 -0.00000000000E+00 -0.13995342065E+03  0.13995342065E+03  0.00000000000E+00 0.  1.
         25    2    1    2    0    0 -0.59082754588E+01 -0.31208876104E+02 -0.47561107302E+02  0.13754425458E+03  0.12508981323E+03 0.  0.
          5    1    3    3  502    0 -0.51107524931E+01 -0.70160948440E+02  0.65067926425E+01  0.70770680565E+02  0.41800000000E+01 0. -1.
         -5    1    3    3    0  502 -0.79752296572E+00  0.38952072337E+02 -0.54067899944E+02  0.66773574014E+02  0.41800000000E+01 0. -1.
        -11    1    1    2    0    0  0.29815842201E+02  0.40103632684E+02 -0.28410531642E+02  0.57484294453E+02  0.00000000000E+00 0.  1.
         11    1    1    2    0    0 -0.23907566742E+02 -0.88947565800E+01  0.32074896566E+02  0.40981549896E+02  0.00000000000E+00 0. -1.
</event>
<event>
 7    1  0.3323698E-009  0.1184194E+03  0.7561462E-02  0.1245728E+00
          1   -1    0    0  501    0  0.00000000000E+00  0.00000000000E+00  0.60248235953E+03  0.60248235953E+03  0.00000000000E+00 0. -1.
         -1   -1    0    0    0  501 -0.00000000000E+00 -0.00000000000E+00 -0.25796535910E+02  0.25796535910E+02  0.00000000000E+00 0.  1.
         25    2    1    2    0    0 -0.86358899125E+01  0.59908187595E+02  0.32771055967E+03  0.35595540412E+03  0.12508584760E+03 0.  0.
          5    1    3    3  502    0  0.13605065794E+02 -0.36442870442E+02  0.11160631147E+03  0.11826504886E+03  0.41800000000E+01 0. -1.
         -5    1    3    3    0  502 -0.22240955706E+02  0.96351058037E+02  0.21610424819E+03  0.23769035526E+03  0.41800000000E+01 0. -1.
        -11    1    1    2    0    0  0.36176754384E+02 -0.39728077440E+01  0.15730380403E+03  0.16145905834E+03  0.00000000000E+00 0. -1.
         11    1    1    2    0    0 -0.27540864471E+02 -0.55935379851E+02  0.91671459923E+02  0.11086443298E+03  0.00000000000E+00 0.  1.
</event>
<event>
 7    1  0.2922830E-009  0.1002976E+03  0.7561462E-02  0.1279671E+00
         -2   -1    0    0    0  501 -0.00000000000E+00  0.00000000000E+00  0.25662182710E+02  0.25662182710E+02  0.00000000000E+00 0.  1.
          2   -1    0    0  501    0  0.00000000000E+00 -0.00000000000E+00 -0.72588294112E+03  0.72588294112E+03  0.00000000000E+00 0. -1.
         25    2    1    2    0    0  0.50448157551E+02  0.53639363646E+02 -0.48640674363E+03  0.50760294240E+03  0.12508808479E+03 0.  0.
          5    1    3    3  502    0  0.49126789296E+02  0.69637482577E+02 -0.48324062487E+03  0.49071559414E+03  0.41800000000E+01 0.  1.
         -5    1    3    3    0  502  0.13213682551E+01 -0.15998118931E+02 -0.31661187591E+01  0.16887348264E+02  0.41800000000E+01 0.  1.
        -11    1    1    2    0    0  0.93760706288E+01 -0.34681526123E+02 -0.15075655632E+03  0.15497825082E+03  0.00000000000E+00 0. -1.
         11    1    1    2    0    0 -0.59824228180E+02 -0.18957837523E+02 -0.63057458459E+02  0.88963930602E+02  0.00000000000E+00 0.  1.
</event>
<event>
 7    1  0.2900135E-009  0.7910980E+02  0.7561462E-02  0.1331597E+00
         -2   -1    0    0    0  501 -0.00000000000E+00  0.00000000000E+00  0.85231422006E+02  0.85231422006E+02  0.00000000000E+00 0.  1.
          2   -1    0    0  501    0  0.00000000000E+00 -0.00000000000E+00 -0.15003768863E+03  0.15003768863E+03  0.00000000000E+00 0. -1.
         25    2    1    2    0    0  0.67420202054E+01  0.18569921275E+01 -0.29064306913E+01  0.12531843421E+03  0.12508940546E+03 0.  0.
          5    1    3    3  502    0 -0.37622203136E+02 -0.40875058264E+02 -0.23173580910E+02  0.60338112409E+02  0.41800000000E+01 0. -1.
         -5    1    3    3    0  502  0.44364223342E+02  0.42732050392E+02  0.20267150219E+02  0.64980321801E+02  0.41800000000E+01 0. -1.
        -11    1    1    2    0    0 -0.16744398869E+02  0.14131556360E+02  0.17687767291E+02  0.28159064089E+02  0.00000000000E+00 0.  1.
         11    1    1    2    0    0  0.10002378663E+02 -0.15988548488E+02 -0.79587603223E+02  0.81791612335E+02  0.00000000000E+00 0. -1.
</event>
<event>
 7    1  0.2900135E-009  0.8801241E+02  0.7561462E-02  0.1307738E+00
         -1   -1    0    0    0  501 -0.00000000000E+00  0.00000000000E+00  0.89085388398E+02  0.89085388398E+02  0.00000000000E+00 0.  1.
          1   -1    0    0  501    0  0.00000000000E+00 -0.00000000000E+00 -0.16790707006E+03  0.16790707006E+03  0.00000000000E+00 0. -1.
         25    2    1    2    0    0 -0.14815413419E+02  0.36236455583E+02 -0.21320111253E+01  0.13109418565E+03  0.12509421590E+03 0.  0.
          5    1    3    3  502    0 -0.91753569083E+01  0.81973961365E+02 -0.12878020255E+02  0.83589672340E+02  0.41800000000E+01 0.  1.
         -5    1    3    3    0  502 -0.56400565110E+01 -0.45737505782E+02  0.10746009130E+02  0.47504513310E+02  0.41800000000E+01 0.  1.
        -11    1    1    2    0    0 -0.67526631561E+01 -0.16876842398E+02  0.18773970106E+02  0.26132130081E+02  0.00000000000E+00 0.  1.
         11    1    1    2    0    0  0.21568076575E+02 -0.19359613185E+02 -0.95463640643E+02  0.99766142727E+02  0.00000000000E+00 0. -1.
</event>
<event>
 7    1  0.3496863E-009  0.1069008E+03  0.7561462E-02  0.1266419E+00
          2   -1    0    0  501    0  0.00000000000E+00  0.00000000000E+00  0.31007997315E+03  0.31007997315E+03  0.00000000000E+00 0. -1.
         -2   -1    0    0    0  501 -0.00000000000E+00 -0.00000000000E+00 -0.59057509993E+02  0.59057509993E+02  0.00000000000E+00 0.  1.
         25    2    1    2    0    0 -0.67789937338E+02 -0.37247517579E+02  0.16835206859E+03  0.22354566244E+03  0.12508953204E+03 0.  0.
          5    1    3    3  502    0 -0.15957392943E+02  0.31352263183E+02  0.11934373306E+03  0.12449097083E+03  0.41800000000E+01 0.  1.
         -5    1    3    3    0  502 -0.51832544395E+02 -0.68599780762E+02  0.49008335528E+02  0.99054691612E+02  0.41800000000E+01 0.  1.
        -11    1    1    2    0    0  0.57408171779E+02  0.40961115708E+01  0.18072601642E+01  0.57582484371E+02  0.00000000000E+00 0.  1.
         11    1    1    2    0    0  0.10381765559E+02  0.33151406008E+02  0.80863134401E+02  0.88009336332E+02  0.00000000000E+00 0. -1.
</event>
<event>
 7    1  0.2900135E-009  0.1674068E+03  0.7561462E-02  0.1180579E+00
         -1   -1    0    0    0  501 -0.00000000000E+00  0.00000000000E+00  0.25397529699E+03  0.25397529699E+03  0.00000000000E+00 0.  1.
          1   -1    0    0  501    0  0.00000000000E+00 -0.00000000000E+00 -0.13113589132E+03  0.13113589132E+03  0.00000000000E+00 0. -1.
         25    2    1    2    0    0 -0.50698755130E+02  0.13371819268E+03  0.95747776151E+02  0.21275754295E+03  0.12508883491E+03 0.  0.
          5    1    3    3  502    0 -0.58652586436E+02  0.14264705616E+03  0.11307794141E+03  0.19129140535E+03  0.41800000000E+01 0. -1.
         -5    1    3    3    0  502  0.79538313064E+01 -0.89288634841E+01 -0.17330165258E+02  0.21466137600E+02  0.41800000000E+01 0. -1.
        -11    1    1    2    0    0  0.16069184219E+02  0.10724503530E+02 -0.58958468610E+01  0.20198877880E+02  0.00000000000E+00 0.  1.
         11    1    1    2    0    0  0.34629570911E+02 -0.14444269621E+03  0.32987476375E+02  0.15215476748E+03  0.00000000000E+00 0. -1.
</event>
<event>
 7    1  0.2900135E-009  0.2121918E+03  0.7561462E-02  0.1139842E+00
          1   -1    0    0  501    0  0.00000000000E+00  0.00000000000E+00  0.51307848863E+03  0.51307848863E+03  0.00000000000E+00 0. -1.
         -1   -1    0    0    0  501 -0.00000000000E+00 -0.00000000000E+00 -0.10693338526E+03  0.10693338526E+03  0.00000000000E+00 0.  1.
         25    2    1    2    0    0  0.17819712512E+03 -0.72270803081E+02  0.31202565259E+03  0.38727973923E+03  0.12509318193E+03 0.  0.
          5    1    3    3  502    0  0.40793681496E+02 -0.80027630247E+02  0.14742851153E+03  0.17268811327E+03  0.41800000000E+01 0. -1.
         -5    1    3    3    0  502  0.13740344363E+03  0.77568271664E+01  0.16459714106E+03  0.21459162596E+03  0.41800000000E+01 0. -1.
        -11    1    1    2    0    0 -0.13009867933E+03  0.31831679347E+02  0.10340757368E+03  0.16921007200E+03  0.00000000000E+00 0. -1.
         11    1    1    2    0    0 -0.48098445795E+02  0.40439123734E+02 -0.92881228987E+01  0.63522062649E+02  0.00000000000E+00 0.  1.
</event>
<event>
 7    1  0.2900135E-009  0.1666031E+03  0.7561462E-02  0.1181437E+00
         -2   -1    0    0    0  501 -0.00000000000E+00  0.00000000000E+00  0.40021624988E+02  0.40021624988E+02  0.00000000000E+00 0.  1.
          2   -1    0    0  501    0  0.00000000000E+00 -0.00000000000E+00 -0.94491651285E+03  0.94491651285E+03  0.00000000000E+00 0. -1.
         25    2    1    2    0    0  0.13455386559E+03  0.22773953397E+02 -0.68835775646E+03  0.71281639470E+03  0.12508963177E+03 0.  0.
          5    1    3    3  502    0  0.14498046962E+03  0.45506407162E+02 -0.49534134408E+03  0.51814157256E+03  0.41800000000E+01 0. -1.
         -5    1    3    3    0  502 -0.10426604027E+02 -0.22732453765E+02 -0.19301641238E+03  0.19467482214E+03  0.41800000000E+01 0. -1.
        -11    1    1    2    0    0 -0.64611692098E+02  0.26965457192E+02 -0.54373149262E+02  0.88646748378E+02  0.00000000000E+00 0.  1.
         11    1    1    2    0    0 -0.69942173491E+02 -0.49739410589E+02 -0.16216398213E+03  0.18347499475E+03  0.00000000000E+00 0. -1.
</event>
<event>
 7    1  0.2900135E-009  0.1293059E+03  0.7561462E-02  0.1228489E+00
          1   -1    0    0  501    0  0.00000000000E+00  0.00000000000E+00  0.10033627999E+04  0.10033627999E+04  0.00000000000E+00 0. -1.
         -1   -1    0    0    0  501 -0.00000000000E+00 -0.00000000000E+00 -0.18371924325E+02  0.18371924325E+02  0.00000000000E+00 0.  1.
         25    2    1    2    0    0  0.85054681783E+02  0.88890637266E+01  0.54949140282E+03  0.57000181500E+03  0.12509177826E+03 0.  0.
          5    1    3    3  502    0  0.97942730847E+02  0.44714521394E+02  0.32860333723E+03  0.34581757125E+03  0.41800000000E+01 0. -1.
         -5    1    3    3    0  502 -0.12888049063E+02 -0.35825457667E+02  0.22088806559E+03  0.22418424375E+03  0.41800000000E+01 0. -1.
        -11    1    1    2    0    0 -0.98041951079E+00  0.22720644673E+02  0.38637229855E+02  0.44833296195E+02  0.00000000000E+00 0.  1.
         11    1    1    2    0    0 -0.84074262272E+02 -0.31609708400E+02  0.39686224292E+03  0.40689961305E+03  0.00000000000E+00 0. -1.
</event>
<event>
 7    1  0.2900135E-009  0.1169456E+03  0.7561462E-02  0.1248223E+00
         -1   -1    0    0    0  501 -0.00000000000E+00  0.00000000000E+00  0.12421578896E+02  0.12421578896E+02  0.00000000000E+00 0.  1.
          1   -1    0    0  501    0  0.00000000000E+00 -0.00000000000E+00 -0.17725310920E+04  0.17725310920E+04  0.00000000000E+00 0. -1.
         25    2    1    2    0    0 -0.20132956232E+02  0.75902994350E+02 -0.13487986354E+04  0.13568610833E+04  0.12509052658E+03 0.  0.
          5    1    3    3  502    0  0.43056350380E+02  0.36231236852E+02 -0.90976159138E+03  0.91150983395E+03  0.41800000000E+01 0. -1.
         -5    1    3    3    0  502 -0.63189306612E+02  0.39671757498E+02 -0.43903704407E+03  0.44535124932E+03  0.41800000000E+01 0. -1.
        -11    1    1    2    0    0 -0.24461687798E+02 -0.30474727517E+02 -0.63940868453E+02  0.74936758976E+02  0.00000000000E+00 0.  1.
         11    1    1    2    0    0  0.44594644030E+02 -0.45428266833E+02 -0.34737000923E+03  0.35315482868E+03  0.00000000000E+00 0. -1.
</event>
<event>
 7    1  0.2900135E-009  0.1279405E+03  0.7561462E-02  0.1230544E+00
          1   -1    0    0  501    0  0.00000000000E+00  0.00000000000E+00  0.84549572848E+02  0.84549572848E+02  0.00000000000E+00 0. -1.
         -1   -1    0    0    0  501 -0.00000000000E+00 -0.00000000000E+00 -0.24810272723E+03  0.24810272723E+03  0.00000000000E+00 0.  1.
         25    2    1    2    0    0 -0.78223698618E+02  0.29973646822E+02 -0.12825937143E+03  0.19777498150E+03  0.12508841040E+03 0.  0.
          5    1    3    3  502    0 -0.95013648823E+02 -0.20405403484E+02 -0.83952660458E+02  0.12848928186E+03  0.41800000000E+01 0. -1.
         -5    1    3    3    0  502  0.16789950205E+02  0.50379050306E+02 -0.44306710969E+02  0.69285699640E+02  0.41800000000E+01 0. -1.
        -11    1    1    2    0    0  0.76729595591E+02 -0.45858044085E+02 -0.58416673919E+02  0.10678435671E+03  0.00000000000E+00 0.  1.
         11    1    1    2    0    0  0.14941030271E+01  0.15884397263E+02  0.23122890962E+02  0.28092961871E+02  0.00000000000E+00 0. -1.
</event>
<event>
 7    1  0.2900135E-009  0.8245471E+02  0.7561462E-02  0.1322226E+00
          2   -1    0    0  501    0  0.00000000000E+00  0.00000000000E+00  0.14344304268E+03  0.14344304268E+03  0.00000000000E+00 0.  1.
         -2   -1    0    0    0  501 -0.00000000000E+00 -0.00000000000E+00 -0.10055070436E+03  0.10055070436E+03  0.00000000000E+00 0. -1.
         25    2    1    2    0    0 -0.48960725264E+02  0.25616096227E+02  0.22950487055E+02  0.13866138999E+03  0.12508764613E+03 0.  0.
          5    1    3    3  502    0 -0.43014025228E+02 -0.15773567582E+02 -0.41343078023E+02  0.61852520571E+02  0.41800000000E+01 0. -1.
         -5    1    3    3    0  502 -0.59467000359E+01  0.41389663809E+02  0.64293565077E+02  0.76808869422E+02  0.41800000000E+01 0. -1.
        -11    1    1    2    0    0 -0.10489693103E+02 -0.11910719708E+02  0.38433649816E+02  0.41581778985E+02  0.00000000000E+00 0.  1.
         11    1    1    2    0    0  0.59450418367E+02 -0.13705376520E+02 -0.18491798546E+02  0.63750578061E+02  0.00000000000E+00 0. -1.
</event>
<event>
 7    1  0.2900135E-009  0.1585879E+03  0.7561462E-02  0.1190300E+00
          1   -1    0    0  501    0  0.00000000000E+00  0.00000000000E+00  0.19338873670E+03  0.19338873670E+03  0.00000000000E+00 0. -1.
         -1   -1    0    0    0  501 -0.00000000000E+00 -0.00000000000E+00 -0.20344520165E+03  0.20344520165E+03  0.00000000000E+00 0.  1.
         25    2    1    2    0    0  0.24993138976E+02 -0.15384661314E+03  0.19803449379E+02  0.20083181607E+03  0.12509118421E+03 0.  0.
          5    1    3    3  502    0 -0.66118150682E+01 -0.80154375079E+02 -0.49699588548E+02  0.94635941611E+02  0.41800000000E+01 0. -1.
         -5    1    3    3    0  502  0.31604954044E+02 -0.73692238066E+02  0.69503037926E+02  0.10619587446E+03  0.41800000000E+01 0. -1.
        -11    1    1    2    0    0 -0.60165804093E+01  0.75366609097E+02 -0.72450560531E+02  0.10471584755E+03  0.00000000000E+00 0.  1.
         11    1    1    2    0    0 -0.18976558567E+02  0.78480004048E+02  0.42590646204E+02  0.91286274732E+02  0.00000000000E+00 0. -1.
</event>
<event>
 7    1  0.2900135E-009  0.1867768E+03  0.7561462E-02  0.1161401E+00
         -2   -1    0    0    0  501 -0.00000000000E+00  0.00000000000E+00  0.34554757638E+02  0.34554757638E+02  0.00000000000E+00 0.  1.
          2   -1    0    0  501    0  0.00000000000E+00 -0.00000000000E+00 -0.12794239108E+04  0.12794239108E+04  0.00000000000E+00 0. -1.
         25    2    1    2    0    0 -0.57610285289E+02 -0.16904788361E+03 -0.59252100128E+03  0.63136506862E+03  0.12507829948E+03 0.  0.
          5    1    3    3  502    0 -0.50943274240E+02 -0.16057895672E+03 -0.34885477524E+03  0.38742476062E+03  0.41800000000E+01 0.  1.
         -5    1    3    3    0  502 -0.66670110488E+01 -0.84689268850E+01 -0.24366622603E+03  0.24394030800E+03  0.41800000000E+01 0.  1.
        -11    1    1    2    0    0  0.75600658918E+02  0.12801699013E+03 -0.56764495439E+03  0.58679178900E+03  0.00000000000E+00 0.  1.
         11    1    1    2    0    0 -0.17990373629E+02  0.41030893476E+02 -0.84703197510E+02  0.95821810832E+02  0.00000000000E+00 0. -1.
</event>
<event>
 7    1  0.2900135E-009  0.7262864E+02  0.7561462E-02  0.1351376E+00
         -1   -1    0    0    0  501 -0.00000000000E+00  0.00000000000E+00  0.43090668044E+02  0.43090668044E+02  0.00000000000E+00 0.  1.
          1   -1    0    0  501    0  0.00000000000E+00 -0.00000000000E+00 -0.38617360827E+03  0.38617360827E+03  0.00000000000E+00 0. -1.
         25    2    1    2    0    0  0.79592812096E+01  0.62768670928E+02 -0.24313540507E+03  0.28065165184E+03  0.12508904138E+03 0.  0.
          5    1    3    3  502    0  0.28899830528E+02  0.40430423357E+02 -0.17415321466E+02  0.52825989429E+02  0.41800000000E+01 0.  1.
         -5    1    3    3    0  502 -0.20940549319E+02  0.22338247570E+02 -0.22572008361E+03  0.22782566241E+03  0.41800000000E+01 0.  1.
        -11    1    1    2    0    0 -0.10650856501E+02 -0.35043465943E+02  0.76936203621E+01  0.37425620152E+02  0.00000000000E+00 0.  1.
         11    1    1    2    0    0  0.26915752919E+01 -0.27725204985E+02 -0.10764115551E+03  0.11118700432E+03  0.00000000000E+00 0. -1.
</event>
<event>
 7    1  0.2900135E-009  0.2130075E+03  0.7561462E-02  0.1139206E+00
          2   -1    0    0  501    0  0.00000000000E+00  0.00000000000E+00  0.15781785800E+03  0.15781785800E+03  0.00000000000E+00 0. -1.
         -2   -1    0    0    0  501 -0.00000000000E+00 -0.00000000000E+00 -0.29108468167E+03  0.29108468167E+03  0.00000000000E+00 0.  1.
         25    2    1    2    0    0 -0.67397333844E+02  0.17348716675E+03 -0.72542673290E+02  0.23569189354E+03  0.12509209246E+03 0.  0.
          5    1    3    3  502    0 -0.97218350888E+02  0.16284432123E+03 -0.48752558057E+02  0.19586721274E+03  0.41800000000E+01 0. -1.
         -5    1    3    3    0  502  0.29821017044E+02  0.10642845514E+02 -0.23790115233E+02  0.39824680802E+02  0.41800000000E+01 0. -1.
        -11    1    1    2    0    0  0.32794969919E+02 -0.16568981816E+03 -0.50813611944E+02  0.17638211092E+03  0.00000000000E+00 0.  1.
         11    1    1    2    0    0  0.34602363925E+02 -0.77973485888E+01 -0.99105384299E+01  0.36828535216E+02  0.00000000000E+00 0. -1.
</event>
<event>
 7    1  0.3503983E-009  0.1263581E+03  0.7561462E-02  0.1232962E+00
         -1   -1    0    0    0  501 -0.00000000000E+00  0.00000000000E+00  0.38645832089E+02  0.38645832089E+02  0.00000000000E+00 0.  1.
          1   -1    0    0  501    0  0.00000000000E+00 -0.00000000000E+00 -0.53252556621E+03  0.53252556621E+03  0.00000000000E+00 0. -1.
         25    2    1    2    0    0 -0.60965049214E+02 -0.22718796561E+02 -0.13538339505E+03  0.19547285113E+03  0.12509232962E+03 0.  0.
          5    1    3    3  502    0  0.30111394636E+02  0.23405027338E+02 -0.30135520493E+02  0.48786405761E+02  0.41800000000E+01 0. -1.
         -5    1    3    3    0  502 -0.91076443850E+02 -0.46123823899E+02 -0.10524787456E+03  0.14668644537E+03  0.41800000000E+01 0. -1.
        -11    1    1    2    0    0  0.78521038471E+01  0.51274290341E+02 -0.15444463621E+03  0.16292284689E+03  0.00000000000E+00 0.  1.
         11    1    1    2    0    0  0.53112945367E+02 -0.28555493780E+02 -0.20405170285E+03  0.21277570028E+03  0.00000000000E+00 0. -1.
</event>
<event>
 7    1  0.2900135E-009  0.1343808E+03  0.7561462E-02  0.1221096E+00
         -1   -1    0    0    0  501 -0.00000000000E+00  0.00000000000E+00  0.78441323598E+02  0.78441323598E+02  0.00000000000E+00 0.  1.
          1   -1    0    0  501    0  0.00000000000E+00 -0.00000000000E+00 -0.30754381111E+03  0.30754381111E+03  0.00000000000E+00 0. -1.
         25    2    1    2    0    0  0.87642952157E+02  0.24645858398E+02 -0.44281398428E+02  0.16092947091E+03  0.12509495178E+03 0.  0.
          5    1    3    3  502    0 -0.24642046896E+02 -0.45159600174E+01 -0.36653953053E+02  0.44593822941E+02  0.41800000000E+01 0. -1.
         -5    1    3    3    0  502  0.11228499905E+03  0.29161818415E+02 -0.76274453753E+01  0.11633564797E+03  0.41800000000E+01 0. -1.
        -11    1    1    2    0    0 -0.70887775574E+02  0.24775906113E+02 -0.94024171367E+02  0.12033065715E+03  0.00000000000E+00 0.  1.
         11    1    1    2    0    0 -0.16755176583E+02 -0.49421764511E+02 -0.90796917714E+02  0.10472500664E+03  0.00000000000E+00 0. -1.
</event>
<event>
 7    1  0.2900135E-009  0.2394422E+03  0.7561462E-02  0.1120165E+00
          2   -1    0    0  501    0  0.00000000000E+00  0.00000000000E+00  0.15689639755E+04  0.15689639755E+04  0.00000000000E+00 0. -1.
         -2   -1    0    0    0  501 -0.00000000000E+00 -0.00000000000E+00 -0.43507309357E+02  0.43507309357E+02  0.00000000000E+00 0.  1.
         25    2    1    2    0    0 -0.17344654165E+03  0.14854508309E+03  0.98589669429E+03  0.10197006405E+04  0.12509100638E+03 0.  0.
          5    1    3    3  502    0 -0.16107437496E+03  0.78587726296E+02  0.81674070417E+03  0.83618409172E+03  0.41800000000E+01 0. -1.
         -5    1    3    3    0  502 -0.12372166683E+02  0.69957356799E+02  0.16915599012E+03  0.18351654877E+03  0.41800000000E+01 0. -1.
        -11    1    1    2    0    0  0.37506834829E+02 -0.28814273480E+02  0.41975194789E+02  0.63237188368E+02  0.00000000000E+00 0.  1.
         11    1    1    2    0    0  0.13593970682E+03 -0.11973080961E+03  0.49758477706E+03  0.52953345600E+03  0.00000000000E+00 0. -1.
</event>
<event>
 7    1  0.2900135E-009  0.1206942E+03  0.7561462E-02  0.1241956E+00
         -1   -1    0    0    0  501 -0.00000000000E+00  0.00000000000E+00  0.20047664120E+03  0.20047664120E+03  0.00000000000E+00 0.  1.
          1   -1    0    0  501    0  0.00000000000E+00 -0.00000000000E+00 -0.10553845119E+03  0.10553845119E+03  0.00000000000E+00 0. -1.
         25    2    1    2    0    0  0.72501075426E+02 -0.61674352000E+02  0.38569107678E+02  0.16182965665E+03  0.12506450364E+03 0.  0.
          5    1    3    3  502    0  0.67226797485E+01 -0.46713188719E+02  0.72183942894E+02  0.86344139553E+02  0.41800000000E+01 0.  1.
         -5    1    3    3    0  502  0.65778395677E+02 -0.14961163281E+02 -0.33614835216E+02  0.75485517096E+02  0.41800000000E+01 0.  1.
        -11    1    1    2    0    0  0.33273888107E+01 -0.16900292125E+02 -0.62316300176E+01  0.18317330670E+02  0.00000000000E+00 0. -1.
         11    1    1    2    0    0 -0.75828464237E+02  0.78574644125E+02  0.62600712348E+02  0.12586810507E+03  0.00000000000E+00 0.  1.
</event>
<event>
 7    1  0.2900135E-009  0.1310888E+03  0.7561462E-02  0.1225849E+00
         -2   -1    0    0    0  501 -0.00000000000E+00  0.00000000000E+00  0.32566559047E+02  0.32566559047E+02  0.00000000000E+00 0. -1.
          2   -1    0    0  501    0  0.00000000000E+00 -0.00000000000E+00 -0.64706167108E+03  0.64706167108E+03  0.00000000000E+00 0.  1.
         25    2    1    2    0    0 -0.74369033617E+02  0.55472242846E+02 -0.31409368259E+03  0.35058261755E+03  0.12508160296E+03 0.  0.
          5    1    3    3  502    0 -0.48400718052E+02  0.94381583212E+02 -0.18611957902E+03  0.21426264923E+03  0.41800000000E+01 0. -1.
         -5    1    3    3    0  502 -0.25968315565E+02 -0.38909340365E+02 -0.12797410356E+03  0.13631996832E+03  0.41800000000E+01 0. -1.
        -11    1    1    2    0    0 -0.38792378516E+00 -0.30120058802E+02 -0.16441225997E+02  0.34317376639E+02  0.00000000000E+00 0. -1.
         11    1    1    2    0    0  0.74756957402E+02 -0.25352184044E+02 -0.28396020345E+03  0.29472823594E+03  0.00000000000E+00 0.  1.
</event>
<event>
 7    1  0.2900135E-009  0.1940540E+03  0.7561462E-02  0.1154855E+00
          4   -1    0    0  501    0  0.00000000000E+00  0.00000000000E+00  0.12410780965E+03  0.12410780965E+03  0.00000000000E+00 0. -1.
         -4   -1    0    0    0  501 -0.00000000000E+00 -0.00000000000E+00 -0.40885048850E+03  0.40885048850E+03  0.00000000000E+00 0.  1.
         25    2    1    2    0    0 -0.26737714760E+02 -0.17436608212E+03 -0.25019066371E+03  0.33071235668E+03  0.12512736977E+03 0.  0.
          5    1    3    3  502    0 -0.49583178473E+02 -0.51926513830E+02 -0.30464564366E+02  0.78105163133E+02  0.41800000000E+01 0.  1.
         -5    1    3    3    0  502  0.22845463713E+02 -0.12243956829E+03 -0.21972609935E+03  0.25260719354E+03  0.41800000000E+01 0.  1.
        -11    1    1    2    0    0 -0.11573161812E+02  0.13883080997E+03  0.51984781752E+00  0.13931332353E+03  0.00000000000E+00 0. -1.
         11    1    1    2    0    0  0.38310876573E+02  0.35535272150E+02 -0.35071862955E+02  0.62932617947E+02  0.00000000000E+00 0.  1.
</event>
<event>
 7    1  0.2900135E-009  0.7950320E+02  0.7561462E-02  0.1330467E+00
          2   -1    0    0  501    0  0.00000000000E+00  0.00000000000E+00  0.16950446530E+03  0.16950446530E+03  0.00000000000E+00 0. -1.
         -2   -1    0    0    0  501 -0.00000000000E+00 -0.00000000000E+00 -0.81137983403E+02  0.81137983403E+02  0.00000000000E+00 0.  1.
         25    2    1    2    0    0 -0.32990799599E+02 -0.16167531054E+02  0.24749326887E+02  0.13269468519E+03  0.12508224645E+03 0.  0.
          5    1    3    3  502    0  0.24338446817E+02  0.20134275881E+02 -0.31239939100E+02  0.44622362709E+02  0.41800000000E+01 0. -1.
         -5    1    3    3    0  502 -0.57329246415E+02 -0.36301806935E+02  0.55989265987E+02  0.88072322480E+02  0.41800000000E+01 0. -1.
        -11    1    1    2    0    0  0.35298526521E+02 -0.69082297980E+01 -0.12731298911E+02  0.38154889405E+02  0.00000000000E+00 0.  1.
         11    1    1    2    0    0 -0.23077269225E+01  0.23075760852E+02  0.76348453922E+02  0.79792874110E+02  0.00000000000E+00 0. -1.
</event>
<event>
 7    1  0.2900135E-009  0.1856008E+03  0.7561462E-02  0.1162490E+00
          1   -1    0    0  501    0  0.00000000000E+00  0.00000000000E+00  0.14171069815E+03  0.14171069815E+03  0.00000000000E+00 0. -1.
         -1   -1    0    0    0  501 -0.00000000000E+00 -0.00000000000E+00 -0.29767080307E+03  0.29767080307E+03  0.00000000000E+00 0.  1.
         25    2    1    2    0    0  0.17004540761E+03 -0.28056592616E+02 -0.10804976225E+03  0.23879874899E+03  0.12508988112E+03 0.  0.
          5    1    3    3  502    0  0.10219027251E+03 -0.58959744338E+02 -0.11370536801E+03  0.16390694421E+03  0.41800000000E+01 0.  1.
         -5    1    3    3    0  502  0.67855135107E+02  0.30903151722E+02  0.56556057567E+01  0.74891804780E+02  0.41800000000E+01 0.  1.
        -11    1    1    2    0    0 -0.51892795671E+02 -0.12808859449E+02 -0.53250099298E+02  0.75448672607E+02  0.00000000000E+00 0.  1.
         11    1    1    2    0    0 -0.11815261194E+03  0.40865452065E+02  0.53397566236E+01  0.12513407962E+03  0.00000000000E+00 0. -1.
</event>
<event>
 7    1  0.2900135E-009  0.1561890E+03  0.7561462E-02  0.1193068E+00
          1   -1    0    0  501    0  0.00000000000E+00  0.00000000000E+00  0.13619751553E+04  0.13619751553E+04  0.00000000000E+00 0. -1.
         -1   -1    0    0    0  501 -0.00000000000E+00 -0.00000000000E+00 -0.28099338660E+02  0.28099338660E+02  0.00000000000E+00 0.  1.
         25    2    1    2    0    0 -0.79862406247E+02 -0.13222848510E+03  0.85311602719E+03  0.87596614890E+03  0.12508941588E+03 0.  0.
          5    1    3    3  502    0 -0.77574459853E+02 -0.12935674994E+03  0.48773395813E+03  0.51054172394E+03  0.41800000000E+01 0.  1.
         -5    1    3    3    0  502 -0.22879463949E+01 -0.28717351562E+01  0.36538206906E+03  0.36542442495E+03  0.41800000000E+01 0.  1.
        -11    1    1    2    0    0  0.59226435661E+02  0.78272762868E+02  0.41557797751E+03  0.42701223810E+03  0.00000000000E+00 0. -1.
         11    1    1    2    0    0  0.20635970586E+02  0.53955722228E+02  0.65181811973E+02  0.87096107004E+02  0.00000000000E+00 0.  1.
</event>
<event>
 7    1  0.2900135E-009  0.2904258E+03  0.7561462E-02  0.1090127E+00
          2   -1    0    0  501    0  0.00000000000E+00  0.00000000000E+00  0.76858858172E+03  0.76858858172E+03  0.00000000000E+00 0. -1.
         -2   -1    0    0    0  501 -0.00000000000E+00 -0.00000000000E+00 -0.14982981227E+03  0.14982981227E+03  0.00000000000E+00 0.  1.
         25    2    1    2    0    0  0.19486110448E+03 -0.20344165038E+03  0.52288083497E+03  0.60696871179E+03  0.12508914569E+03 0.  0.
          5    1    3    3  502    0  0.11384189091E+03 -0.63078053739E+02  0.14009655943E+03  0.19126770599E+03  0.41800000000E+01 0.  1.
         -5    1    3    3    0  502  0.81019213570E+02 -0.14036359664E+03  0.38278427553E+03  0.41570100580E+03  0.41800000000E+01 0.  1.
        -11    1    1    2    0    0 -0.75111695510E+01  0.37485178691E+02 -0.10273060721E+02  0.39586513690E+02  0.00000000000E+00 0.  1.
         11    1    1    2    0    0 -0.18734993492E+03  0.16595647169E+03  0.10615099520E+03  0.27186316851E+03  0.00000000000E+00 0. -1.
</event>
<event>
 7    1  0.2900135E-009  0.1136207E+03  0.7561462E-02  0.1254008E+00
         -2   -1    0    0    0  501 -0.00000000000E+00  0.00000000000E+00  0.26970110123E+02  0.26970110123E+02  0.00000000000E+00 0.  1.
          2   -1    0    0  501    0  0.00000000000E+00 -0.00000000000E+00 -0.11739341308E+04  0.11739341308E+04  0.00000000000E+00 0. -1.
         25    2    1    2    0    0 -0.71291089609E+02 -0.53095696181E+02 -0.97747624987E+03  0.98944959716E+03  0.12509641815E+03 0.  0.
          5    1    3    3  502    0  0.79940852726E+01  0.24293728079E+02 -0.43434051098E+03  0.43511290776E+03  0.41800000000E+01 0. -1.
         -5    1    3    3    0  502 -0.79285174882E+02 -0.77389424260E+02 -0.54313573889E+03  0.55433668939E+03  0.41800000000E+01 0. -1.
        -11    1    1    2    0    0  0.31545159388E+02  0.13377161683E+02 -0.14698568289E+03  0.15092659312E+03  0.00000000000E+00 0. -1.
         11    1    1    2    0    0  0.39745930221E+02  0.39718534499E+02 -0.22502087872E+02  0.60528050609E+02  0.00000000000E+00 0.  1.
</event>
<event>
 7    1  0.2900135E-009  0.1448479E+03  0.7561462E-02  0.1206951E+00
         -2   -1    0    0    0  501 -0.00000000000E+00  0.00000000000E+00  0.11343789648E+03  0.11343789648E+03  0.00000000000E+00 0.  1.
          2   -1    0    0  501    0  0.00000000000E+00 -0.00000000000E+00 -0.29146560115E+03  0.29146560115E+03  0.00000000000E+00 0. -1.
         25    2    1    2    0    0  0.11935307731E+03 -0.22885623655E+00 -0.25396433731E+01  0.17291327487E+03  0.12508933367E+03 0.  0.
          5    1    3    3  502    0  0.15802774362E+02  0.47667982060E+02 -0.25472920799E+02  0.56465089084E+02  0.41800000000E+01 0. -1.
         -5    1    3    3    0  502  0.10355030295E+03 -0.47896838297E+02  0.22933277426E+02  0.11644818578E+03  0.41800000000E+01 0. -1.
        -11    1    1    2    0    0 -0.59189980702E+02 -0.18685018094E+02 -0.21666299150E+02  0.65742012713E+02  0.00000000000E+00 0.  1.
         11    1    1    2    0    0 -0.60163096606E+02  0.18913874330E+02 -0.15382176214E+03  0.16624821005E+03  0.00000000000E+00 0. -1.
</event>
<event>
 7    1  0.2900135E-009  0.1156982E+03  0.7561462E-02  0.1250367E+00
         -1   -1    0    0    0  501 -0.00000000000E+00  0.00000000000E+00  0.52023478672E+02  0.52023478672E+02  0.00000000000E+00 0.  1.
          1   -1    0    0  501    0  0.00000000000E+00 -0.00000000000E+00 -0.47896439844E+03  0.47896439844E+03  0.00000000000E+00 0. -1.
         25    2    1    2    0    0  0.24038021763E+02  0.53380367547E+02 -0.57777499540E+02  0.14970923644E+03  0.12508927169E+03 0.  0.
          5    1    3    3  502    0  0.16139524020E+02  0.93720900127E+02 -0.29565459772E+02  0.99677882039E+02  0.41800000000E+01 0. -1.
         -5    1    3    3    0  502  0.78984977432E+01 -0.40340532580E+02 -0.28212039768E+02  0.50031354402E+02  0.41800000000E+01 0. -1.
        -11    1    1    2    0    0  0.70760620194E+01  0.16738946391E+02 -0.56967067692E+02  0.59795566570E+02  0.00000000000E+00 0.  1.
         11    1    1    2    0    0 -0.31114083783E+02 -0.70119313938E+02 -0.31219635254E+03  0.32148307410E+03  0.00000000000E+00 0. -1.
</event>
<event>
 7    1  0.2900135E-009  0.1331787E+03  0.7561462E-02  0.1222814E+00
          1   -1    0    0  501    0  0.00000000000E+00  0.00000000000E+00  0.13800914675E+04  0.13800914675E+04  0.00000000000E+00 0. -1.
         -1   -1    0    0    0  501 -0.00000000000E+00 -0.00000000000E+00 -0.17989273615E+02  0.17989273615E+02  0.00000000000E+00 0.  1.
         25    2    1    2    0    0  0.99352844769E+02  0.42721712070E+01  0.98583710328E+03  0.99870501763E+03  0.12509068244E+03 0.  0.
          5    1    3    3  502    0  0.36220446960E+02 -0.48146593991E+02  0.65654963290E+03  0.65932155141E+03  0.41800000000E+01 0.  1.
         -5    1    3    3    0  502  0.63132397809E+02  0.52418765198E+02  0.32928747037E+03  0.33938346622E+03  0.41800000000E+01 0.  1.
        -11    1    1    2    0    0 -0.82230362466E+02 -0.34407741092E+02  0.32837773222E+03  0.34026116466E+03  0.00000000000E+00 0. -1.
         11    1    1    2    0    0 -0.17122482304E+02  0.30135569885E+02  0.47887358433E+02  0.59114558868E+02  0.00000000000E+00 0.  1.
</event>
<event>
 7    1  0.2900135E-009  0.1711585E+03  0.7561462E-02  0.1176645E+00
         -2   -1    0    0    0  501 -0.00000000000E+00  0.00000000000E+00  0.32511515901E+03  0.32511515901E+03  0.00000000000E+00 0.  1.
          2   -1    0    0  501    0  0.00000000000E+00 -0.00000000000E+00 -0.12105809170E+03  0.12105809170E+03  0.00000000000E+00 0. -1.
         25    2    1    2    0    0 -0.91303034940E+02  0.12631960203E+03  0.44554731549E+02  0.20475740982E+03  0.12509031428E+03 0.  0.
          5    1    3    3  502    0 -0.11719385079E+02  0.68151101766E+02  0.74417749998E+02  0.10167295891E+03  0.41800000000E+01 0. -1.
         -5    1    3    3    0  502 -0.79583649861E+02  0.58168500268E+02 -0.29863018449E+02  0.10308445091E+03  0.41800000000E+01 0. -1.
        -11    1    1    2    0    0  0.45403400798E+02 -0.62500449785E+01  0.15487468118E+02  0.48377613986E+02  0.00000000000E+00 0. -1.
         11    1    1    2    0    0  0.45899634142E+02 -0.12006955706E+03  0.14401486764E+03  0.19303822690E+03  0.00000000000E+00 0.  1.
</event>
<event>
 7    1  0.2900135E-009  0.1703336E+03  0.7561462E-02  0.1177500E+00
          3   -1    0    0  501    0  0.00000000000E+00  0.00000000000E+00  0.14216273868E+03  0.14216273868E+03  0.00000000000E+00 0. -1.
         -3   -1    0    0    0  501 -0.00000000000E+00 -0.00000000000E+00 -0.24817983122E+03  0.24817983122E+03  0.00000000000E+00 0.  1.
         25    2    1    2    0    0 -0.90342653067E+02 -0.11352247621E+03 -0.10527424087E+03  0.21858343701E+03  0.12508759162E+03 0.  0.
          5    1    3    3  502    0 -0.66229012160E+02 -0.56725369649E+01 -0.10384213250E+01  0.66610888346E+02  0.41800000000E+01 0. -1.
         -5    1    3    3    0  502 -0.24113640907E+02 -0.10784993924E+03 -0.10423581954E+03  0.15197254867E+03  0.41800000000E+01 0. -1.
        -11    1    1    2    0    0  0.68257325465E+02  0.25731708027E+02  0.25876974931E+02  0.77400265563E+02  0.00000000000E+00 0. -1.
         11    1    1    2    0    0  0.22085327602E+02  0.87790768182E+02 -0.26619826602E+02  0.94358867318E+02  0.00000000000E+00 0.  1.
</event>
<event>
 7    1  0.2900135E-009  0.1015354E+03  0.7561462E-02  0.1277100E+00
          2   -1    0    0  501    0  0.00000000000E+00  0.00000000000E+00  0.53681237486E+02  0.53681237486E+02  0.00000000000E+00 0. -1.
         -2   -1    0    0    0  501 -0.00000000000E+00 -0.00000000000E+00 -0.27541787068E+03  0.27541787068E+03  0.00000000000E+00 0.  1.
         25    2    1    2    0    0 -0.49183574493E+02  0.80540530615E+01 -0.92887012319E+02  0.16357729989E+03  0.12508254959E+03 0.  0.
          5    1    3    3  502    0 -0.38365609371E+02 -0.39929231252E+02 -0.99324816595E+02  0.11379435435E+03  0.41800000000E+01 0. -1.
         -5    1    3    3    0  502 -0.10817965122E+02  0.47983284314E+02  0.64378042755E+01  0.49782945541E+02  0.41800000000E+01 0. -1.
        -11    1    1    2    0    0  0.19994592034E+02 -0.46083743197E+02 -0.92856690287E+02  0.10557395526E+03  0.00000000000E+00 0.  1.
         11    1    1    2    0    0  0.29188982459E+02  0.38029690136E+02 -0.35992930588E+02  0.59947853015E+02  0.00000000000E+00 0. -1.
</event>
<event>
 7    1  0.2900135E-009  0.1003968E+03  0.7561462E-02  0.1279464E+00
          2   -1    0    0  501    0  0.00000000000E+00  0.00000000000E+00  0.38937290814E+03  0.38937290814E+03  0.00000000000E+00 0. -1.
         -2   -1    0    0    0  501 -0.00000000000E+00 -0.00000000000E+00 -0.38731786717E+02  0.38731786717E+02  0.00000000000E+00 0.  1.
         25    2    1    2    0    0 -0.57587736478E+01 -0.48985658365E+02  0.24702971707E+03  0.28125469894E+03  0.12509103230E+03 0.  0.
          5    1    3    3  502    0 -0.45564316098E+02 -0.32110684933E+02  0.37599814191E+02  0.67367806967E+02  0.41800000000E+01 0.  1.
         -5    1    3    3    0  502  0.39805542451E+02 -0.16874973432E+02  0.20942990288E+03  0.21388689197E+03  0.41800000000E+01 0.  1.
        -11    1    1    2    0    0 -0.39518583670E+02  0.78616587931E+01  0.57674879042E+02  0.70355638060E+02  0.00000000000E+00 0. -1.
         11    1    1    2    0    0  0.45277357318E+02  0.41123999572E+02  0.45936525314E+02  0.76494357860E+02  0.00000000000E+00 0.  1.
</event>
<event>
 7    1  0.2900135E-009  0.1251461E+03  0.7561462E-02  0.1234841E+00
         -2   -1    0    0    0  501 -0.00000000000E+00  0.00000000000E+00  0.29986292863E+02  0.29986292863E+02  0.00000000000E+00 0. -1.
          2   -1    0    0  501    0  0.00000000000E+00 -0.00000000000E+00 -0.57213472436E+03  0.57213472436E+03  0.00000000000E+00 0.  1.
         25    2    1    2    0    0  0.30974662497E+02  0.60286283548E+02 -0.24362314200E+03  0.28212418157E+03  0.12509177754E+03 0.  0.
          5    1    3    3  502    0 -0.43349213092E+02  0.41690385645E+02 -0.14598997054E+03  0.15794868290E+03  0.41800000000E+01 0. -1.
         -5    1    3    3    0  502  0.74323875589E+02  0.18595897903E+02 -0.97633171453E+02  0.12417549867E+03  0.41800000000E+01 0. -1.
        -11    1    1    2    0    0 -0.12566406342E+02  0.23952100851E+02 -0.99180034462E+02  0.10280222244E+03  0.00000000000E+00 0. -1.
         11    1    1    2    0    0 -0.18408256156E+02 -0.84238384399E+02 -0.19934525504E+03  0.21719461321E+03  0.00000000000E+00 0.  1.
</event>
<event>
 7    1  0.2900135E-009  0.7647762E+02  0.7561462E-02  0.1339355E+00
         -3   -1    0    0    0  501 -0.00000000000E+00  0.00000000000E+00  0.14641849205E+03  0.14641849205E+03  0.00000000000E+00 0.  1.
          3   -1    0    0  501    0  0.00000000000E+00 -0.00000000000E+00 -0.80541161859E+02  0.80541161859E+02  0.00000000000E+00 0. -1.
         25    2    1    2    0    0 -0.23134052973E+02  0.31121251812E+01  0.32068482259E+02  0.13122822256E+03  0.12509032382E+03 0.  0.
          5    1    3    3  502    0  0.27214343286E+02  0.86438192605E+01  0.64690789433E+02  0.70835772949E+02  0.41800000000E+01 0.  1.
         -5    1    3    3    0  502 -0.50348396259E+02 -0.55316940793E+01 -0.32622307174E+02  0.60392449615E+02  0.41800000000E+01 0.  1.
        -11    1    1    2    0    0 -0.24858537222E+02  0.23571467545E+01 -0.13272943926E+02  0.28278508696E+02  0.00000000000E+00 0. -1.
         11    1    1    2    0    0  0.47992590195E+02 -0.54692719358E+01  0.47081791853E+02  0.67452922644E+02  0.00000000000E+00 0.  1.
</event>
<event>
 7    1  0.2900135E-009  0.1667072E+03  0.7561462E-02  0.1181326E+00
          3   -1    0    0  501    0  0.00000000000E+00  0.00000000000E+00  0.25102198099E+03  0.25102198099E+03  0.00000000000E+00 0. -1.
         -3   -1    0    0    0  501 -0.00000000000E+00 -0.00000000000E+00 -0.11914865603E+03  0.11914865603E+03  0.00000000000E+00 0.  1.
         25    2    1    2    0    0 -0.33678340211E+02  0.12934001239E+03  0.62635043797E+02  0.19348499590E+03  0.12510086140E+03 0.  0.
          5    1    3    3  502    0  0.10391123698E+01 -0.23596965807E+02  0.19129551306E+02  0.30680754276E+02  0.41800000000E+01 0.  1.
         -5    1    3    3    0  502 -0.34717452581E+02  0.15293697820E+03  0.43505492491E+02  0.16280424163E+03  0.41800000000E+01 0.  1.
        -11    1    1    2    0    0 -0.25695088062E+01 -0.11257922203E+03  0.76445595194E+02  0.13610515285E+03  0.00000000000E+00 0.  1.
         11    1    1    2    0    0  0.36247849017E+02 -0.16760790366E+02 -0.72073140393E+01  0.40580488264E+02  0.00000000000E+00 0. -1.
</event>
<event>
 7    1  0.2900135E-009  0.1305478E+03  0.7561462E-02  0.1226645E+00
         -2   -1    0    0    0  501 -0.00000000000E+00  0.00000000000E+00  0.38816082022E+02  0.38816082022E+02  0.00000000000E+00 0.  1.
          2   -1    0    0  501    0  0.00000000000E+00 -0.00000000000E+00 -0.60655540204E+03  0.60655540204E+03  0.00000000000E+00 0. -1.
         25    2    1    2    0    0  0.59006991510E+02 -0.64163457760E+02 -0.44113923673E+03  0.46674471677E+03  0.12509208647E+03 0.  0.
          5    1    3    3  502    0 -0.31451930757E+02 -0.15414132441E+02 -0.43414287179E+02  0.55938288841E+02  0.41800000000E+01 0.  1.
         -5    1    3    3    0  502  0.90458922267E+02 -0.48749325320E+02 -0.39772494955E+03  0.41080642793E+03  0.41800000000E+01 0.  1.
        -11    1    1    2    0    0 -0.60087461370E+02  0.12965327758E+01 -0.42451565589E+02  0.73582059172E+02  0.00000000000E+00 0.  1.
         11    1    1    2    0    0  0.10804698594E+01  0.62866924985E+02 -0.84148517705E+02  0.10504470812E+03  0.00000000000E+00 0. -1.
</event>
<event>
 7    1  0.2900135E-009  0.1095277E+03  0.7561462E-02  0.1261447E+00
         -4   -1    0    0    0  501 -0.00000000000E+00  0.00000000000E+00  0.25633129865E+02  0.25633129865E+02  0.00000000000E+00 0.  1.
          4   -1    0    0  501    0  0.00000000000E+00 -0.00000000000E+00 -0.52984387801E+03  0.52984387801E+03  0.00000000000E+00 0. -1.
         25    2    1    2    0    0  0.12110421001E+02 -0.72161281073E+02 -0.29769757809E+03  0.33109762415E+03  0.12509147028E+03 0.  0.
          5    1    3    3  502    0 -0.21989029377E+02  0.24945284315E+02 -0.13035508971E+03  0.13459460032E+03  0.41800000000E+01 0. -1.
         -5    1    3    3    0  502  0.34099450379E+02 -0.97106565388E+02 -0.16734248838E+03  0.19650302383E+03  0.41800000000E+01 0. -1.
        -11    1    1    2    0    0 -0.19621147692E+02  0.14525330978E+02 -0.10108166073E+03  0.10398786858E+03  0.00000000000E+00 0. -1.
         11    1    1    2    0    0  0.75107266903E+01  0.57635950095E+02 -0.10543150933E+03  0.12039151514E+03  0.00000000000E+00 0.  1.
</event>
<event>
 7    1  0.2900135E-009  0.1121634E+03  0.7561462E-02  0.1256615E+00
         -4   -1    0    0    0  501 -0.00000000000E+00  0.00000000000E+00  0.45228147656E+02  0.45228147656E+02  0.00000000000E+00 0.  1.
          4   -1    0    0  501    0  0.00000000000E+00 -0.00000000000E+00 -0.37034841913E+03  0.37034841913E+03  0.00000000000E+00 0. -1.
         25    2    1    2    0    0 -0.18347365120E+01  0.48904071678E+02 -0.25906814090E+03  0.29181964629E+03  0.12508968720E+03 0.  0.
          5    1    3    3  502    0  0.34294293881E+02  0.79523082690E+02 -0.17196907570E+03  0.19258986129E+03  0.41800000000E+01 0.  1.
         -5    1    3    3    0  502 -0.36129030393E+02 -0.30619011012E+02 -0.87099065203E+02  0.99229785003E+02  0.41800000000E+01 0.  1.
        -11    1    1    2    0    0  0.11896663137E+02 -0.67712656532E+02 -0.17824912882E+02  0.71022967889E+02  0.00000000000E+00 0.  1.
         11    1    1    2    0    0 -0.10061926625E+02  0.18808584855E+02 -0.48227217692E+02  0.52733952611E+02  0.00000000000E+00 0. -1.
</event>
<event>
 7    1  0.2900135E-009  0.9897783E+02  0.7561462E-02  0.1282460E+00
         -3   -1    0    0    0  501 -0.00000000000E+00  0.00000000000E+00  0.15388680545E+03  0.15388680545E+03  0.00000000000E+00 0.  1.
          3   -1    0    0  501    0  0.00000000000E+00 -0.00000000000E+00 -0.78857500402E+02  0.78857500402E+02  0.00000000000E+00 0. -1.
         25    2    1    2    0    0  0.15335991902E+02  0.90994357500E+01  0.46960939822E+02  0.13479769246E+03  0.12508835136E+03 0.  0.
          5    1    3    3  502    0  0.62368878706E+02  0.26161921989E+02  0.26190363224E+01  0.67813383225E+02  0.41800000000E+01 0. -1.
         -5    1    3    3    0  502 -0.47032886805E+02 -0.17062486239E+02  0.44341903499E+02  0.66984309236E+02  0.41800000000E+01 0. -1.
        -11    1    1    2    0    0  0.32063988145E+02 -0.33238760856E+01  0.37313102051E+02  0.49309381183E+02  0.00000000000E+00 0. -1.
         11    1    1    2    0    0 -0.47399980046E+02 -0.57755596645E+01 -0.92447368247E+01  0.48637232207E+02  0.00000000000E+00 0.  1.
</event>
<event>
 7    1  0.2900135E-009  0.1047565E+03  0.7561462E-02  0.1270600E+00
         -1   -1    0    0    0  501 -0.00000000000E+00  0.00000000000E+00  0.99739703371E+02  0.99739703371E+02  0.00000000000E+00 0.  1.
          1   -1    0    0  501    0  0.00000000000E+00 -0.00000000000E+00 -0.16507304519E+03  0.16507304519E+03  0.00000000000E+00 0. -1.
         25    2    1    2    0    0 -0.20256454591E+02  0.53679822045E+02 -0.81831697012E+02  0.16009710491E+03  0.12507121618E+03 0.  0.
          5    1    3    3  502    0 -0.48879734932E+02  0.72256125741E+02 -0.20379683632E+02  0.89682663314E+02  0.41800000000E+01 0. -1.
         -5    1    3    3    0  502  0.28623280342E+02 -0.18576303695E+02 -0.61452013380E+02  0.70414441593E+02  0.41800000000E+01 0. -1.
        -11    1    1    2    0    0  0.44706817770E+02 -0.38654882776E+02 -0.16130107507E+02  0.61262385570E+02  0.00000000000E+00 0. -1.
         11    1    1    2    0    0 -0.24450363179E+02 -0.15024939269E+02  0.32628462702E+02  0.43453258082E+02  0.00000000000E+00 0.  1.
</event>
<event>
 7    1  0.2900135E-009  0.1800564E+03  0.7561462E-02  0.1167749E+00
          1   -1    0    0  501    0  0.00000000000E+00  0.00000000000E+00  0.30507944605E+02  0.30507944605E+02  0.00000000000E+00 0. -1.
         -1   -1    0    0    0  501 -0.00000000000E+00 -0.00000000000E+00 -0.12139281195E+04  0.12139281195E+04  0.00000000000E+00 0.  1.
         25    2    1    2    0    0 -0.10606419654E+03  0.10619886468E+03 -0.80083612891E+03  0.82432637935E+03  0.12509061382E+03 0.  0.
          5    1    3    3  502    0 -0.13033194607E+03  0.69079827928E+02 -0.54416547045E+03  0.56381909370E+03  0.41800000000E+01 0.  1.
         -5    1    3    3    0  502  0.24267749538E+02  0.37119036753E+02 -0.25667065846E+03  0.26050728564E+03  0.41800000000E+01 0.  1.
        -11    1    1    2    0    0  0.64711269543E+02 -0.10877507969E+03 -0.23618741559E+03  0.26796279901E+03  0.00000000000E+00 0.  1.
         11    1    1    2    0    0  0.41352926993E+02  0.25762150075E+01 -0.14639663036E+03  0.15214688573E+03  0.00000000000E+00 0. -1.
</event>
<event>
 7    1  0.2900135E-009  0.1286179E+03  0.7561462E-02  0.1229521E+00
          1   -1    0    0  501    0  0.00000000000E+00  0.00000000000E+00  0.30224099104E+02  0.30224099104E+02  0.00000000000E+00 0. -1.
         -1   -1    0    0    0  501 -0.00000000000E+00 -0.00000000000E+00 -0.69515198162E+03  0.69515198162E+03  0.00000000000E+00 0.  1.
         25    2    1    2    0    0  0.10293943967E+02 -0.88993274738E+02 -0.44646957835E+03  0.47223743626E+03  0.12508934238E+03 0.  0.
          5    1    3    3  502    0 -0.51500326873E+02 -0.34288649067E+02 -0.27485888070E+03  0.28176740731E+03  0.41800000000E+01 0.  1.
         -5    1    3    3    0  502  0.61794270840E+02 -0.54704625671E+02 -0.17161069766E+03  0.19047002895E+03  0.41800000000E+01 0.  1.
        -11    1    1    2    0    0 -0.11101160129E+02  0.10047102138E+03 -0.21942856042E+03  0.24159171140E+03  0.00000000000E+00 0.  1.
         11    1    1    2    0    0  0.80721616232E+00 -0.11477746637E+02  0.97025625912E+00  0.11546933057E+02  0.00000000000E+00 0. -1.
</event>
<event>
 7    1  0.2900135E-009  0.1071990E+03  0.7561462E-02  0.1265847E+00
         -2   -1    0    0    0  501 -0.00000000000E+00  0.00000000000E+00  0.11686464697E+02  0.11686464697E+02  0.00000000000E+00 0.  1.
          2   -1    0    0  501    0  0.00000000000E+00 -0.00000000000E+00 -0.13956951660E+04  0.13956951660E+04  0.00000000000E+00 0. -1.
         25    2    1    2    0    0  0.60334918107E+01 -0.48031544114E+02 -0.10842831347E+04  0.10925468668E+04  0.12508120405E+03 0.  0.
          5    1    3    3  502    0 -0.49652032309E+02  0.55547034855E+01 -0.60299708470E+03  0.60507779301E+03  0.41800000000E+01 0. -1.
         -5    1    3    3    0  502  0.55685524119E+02 -0.53586247600E+02 -0.48128605004E+03  0.48746907378E+03  0.41800000000E+01 0. -1.
        -11    1    1    2    0    0  0.33164351865E+02  0.22989602131E+02 -0.73230364544E+02  0.83612692410E+02  0.00000000000E+00 0.  1.
         11    1    1    2    0    0 -0.39197843676E+02  0.25041941983E+02 -0.22649520199E+03  0.23122207146E+03  0.00000000000E+00 0. -1.
</event>
<event>
 7    1  0.2900135E-009  0.9922871E+02  0.7561462E-02  0.1281926E+00
         -2   -1    0    0    0  501 -0.00000000000E+00  0.00000000000E+00  0.28483916754E+02  0.28483916754E+02  0.00000000000E+00 0.  1.
          2   -1    0    0  501    0  0.00000000000E+00 -0.00000000000E+00 -0.45343731813E+03  0.45343731813E+03  0.00000000000E+00 0. -1.
         25    2    1    2    0    0  0.39741513291E+02 -0.88991046662E+00 -0.33603177367E+03  0.36075628483E+03  0.12509022465E+03 0.  0.
          5    1    3    3  502    0  0.78254242144E+02  0.39115132272E+00 -0.13564576556E+03  0.15665607402E+03  0.41800000000E+01 0.  1.
         -5    1    3    3    0  502 -0.38512728854E+02 -0.12810617893E+01 -0.20038600811E+03  0.20410021081E+03  0.41800000000E+01 0.  1.
        -11    1    1    2    0    0 -0.56812460110E+02 -0.14184638608E+02 -0.71926699337E+02  0.92748637045E+02  0.00000000000E+00 0.  1.
         11    1    1    2    0    0  0.17070946819E+02  0.15074549074E+02 -0.16994928361E+02  0.28416313010E+02  0.00000000000E+00 0. -1.
</event>
<event>
 7    1  0.3395155E-009  0.1000296E+03  0.7561462E-02  0.1280234E+00
          2   -1    0    0  501    0  0.00000000000E+00  0.00000000000E+00  0.19954991965E+03  0.19954991965E+03  0.00000000000E+00 0. -1.
         -2   -1    0    0    0  501 -0.00000000000E+00 -0.00000000000E+00 -0.11126909512E+03  0.11126909512E+03  0.00000000000E+00 0.  1.
         25    2    1    2    0    0 -0.65713745081E+02  0.35534764116E+02  0.12000018337E+03  0.18875502923E+03  0.12508957310E+03 0.  0.
          5    1    3    3  502    0 -0.91449209308E+02  0.16376659848E+02  0.37745952228E+02  0.10036624024E+03  0.41800000000E+01 0.  1.
         -5    1    3    3    0  502  0.25735464227E+02  0.19158104268E+02  0.82254231143E+02  0.88388788990E+02  0.41800000000E+01 0.  1.
        -11    1    1    2    0    0  0.34318920743E+02 -0.18695253201E+02 -0.63342018721E+02  0.74427898995E+02  0.00000000000E+00 0.  1.
         11    1    1    2    0    0  0.31394824338E+02 -0.16839510915E+02  0.31622659875E+02  0.47636086538E+02  0.00000000000E+00 0. -1.
</event>
<event>
 7    1  0.2900135E-009  0.1424290E+03  0.7561462E-02  0.1210097E+00
         -4   -1    0    0    0  501 -0.00000000000E+00  0.00000000000E+00  0.29767492881E+03  0.29767492881E+03  0.00000000000E+00 0.  1.
          4   -1    0    0  501    0  0.00000000000E+00 -0.00000000000E+00 -0.90429250314E+02  0.90429250314E+02  0.00000000000E+00 0. -1.
         25    2    1    2    0    0  0.10277855673E+03  0.49783200035E+02  0.16616124344E+03  0.23727503435E+03  0.12509230342E+03 0.  0.
          5    1    3    3  502    0 -0.21068362422E+02 -0.87857719314E+01  0.58662765116E+02  0.63086116496E+02  0.41800000000E+01 0. -1.
         -5    1    3    3    0  502  0.12384691915E+03  0.58568971966E+02  0.10749847833E+03  0.17418891786E+03  0.41800000000E+01 0. -1.
        -11    1    1    2    0    0 -0.72305883243E+02 -0.78167450038E+01  0.61349775066E+02  0.95147449544E+02  0.00000000000E+00 0.  1.
         11    1    1    2    0    0 -0.30472673489E+02 -0.41966455031E+02 -0.20265340014E+02  0.55681695227E+02  0.00000000000E+00 0. -1.
</event>
<event>
 7    1  0.2900135E-009  0.2282736E+03  0.7561462E-02  0.1127861E+00
         -1   -1    0    0    0  501 -0.00000000000E+00  0.00000000000E+00  0.17624179072E+03  0.17624179072E+03  0.00000000000E+00 0.  1.
          1   -1    0    0  501    0  0.00000000000E+00 -0.00000000000E+00 -0.35758216893E+03  0.35758216893E+03  0.00000000000E+00 0. -1.
         25    2    1    2    0    0  0.17960376497E+03  0.13586397318E+03 -0.11338058266E+03  0.28145982007E+03  0.12509173510E+03 0.  0.
          5    1    3    3  502    0  0.11904381531E+03  0.57653894464E+02 -0.12467318290E+03  0.18181385108E+03  0.41800000000E+01 0.  1.
         -5    1    3    3    0  502  0.60559949668E+02  0.78210078715E+02  0.11292600242E+02  0.99645968993E+02  0.41800000000E+01 0.  1.
        -11    1    1    2    0    0 -0.10378363440E+03 -0.77709151035E+02 -0.85372470463E+02  0.15523599337E+03  0.00000000000E+00 0.  1.
         11    1    1    2    0    0 -0.75820130571E+02 -0.58154822144E+02  0.17412674914E+02  0.97128146209E+02  0.00000000000E+00 0. -1.
</event>
<event>
 7    1  0.2900135E-009  0.1428593E+03  0.7561462E-02  0.1209533E+00
         -1   -1    0    0    0  501 -0.00000000000E+00  0.00000000000E+00  0.16694277101E+03  0.16694277101E+03  0.00000000000E+00 0.  1.
          1   -1    0    0  501    0  0.00000000000E+00 -0.00000000000E+00 -0.13361339847E+03  0.13361339847E+03  0.00000000000E+00 0. -1.
         25    2    1    2    0    0  0.73768191742E+02  0.69527950355E+02 -0.15500912197E+01  0.16101532830E+03  0.12509057187E+03 0.  0.
          5    1    3    3  502    0  0.25006975523E+02 -0.33418574819E+02  0.17491276519E+02  0.45448510668E+02  0.41800000000E+01 0.  1.
         -5    1    3    3    0  502  0.48761216219E+02  0.10294652517E+03 -0.19041367739E+02  0.11556681763E+03  0.41800000000E+01 0.  1.
        -11    1    1    2    0    0 -0.54967449073E+02  0.28128200208E+01  0.34189094724E+02  0.64793723554E+02  0.00000000000E+00 0. -1.
         11    1    1    2    0    0 -0.18800742669E+02 -0.72340770376E+02  0.69036903928E+00  0.74747117623E+02  0.00000000000E+00 0.  1.
</event>
<event>
 7    1  0.2900135E-009  0.1591592E+03  0.7561462E-02  0.1189649E+00
          1   -1    0    0  501    0  0.00000000000E+00  0.00000000000E+00  0.62990198982E+02  0.62990198982E+02  0.00000000000E+00 0. -1.
         -1   -1    0    0    0  501 -0.00000000000E+00 -0.00000000000E+00 -0.44237363540E+03  0.44237363540E+03  0.00000000000E+00 0.  1.
         25    2    1    2    0    0  0.10565736006E+03 -0.70105765400E+02 -0.19296375320E+03  0.26260434884E+03  0.12509091855E+03 0.  0.
          5    1    3    3  502    0 -0.42451501245E+01  0.29217508447E+02 -0.35790114589E+02  0.46584211936E+02  0.41800000000E+01 0.  1.
         -5    1    3    3    0  502  0.10990251019E+03 -0.99323273848E+02 -0.15717363861E+03  0.21602013690E+03  0.41800000000E+01 0.  1.
        -11    1    1    2    0    0 -0.17049838184E+02  0.45135016972E+02 -0.11972180982E+03  0.12907818749E+03  0.00000000000E+00 0. -1.
         11    1    1    2    0    0 -0.88607521879E+02  0.24970748428E+02 -0.66697873398E+02  0.11368129805E+03  0.00000000000E+00 0.  1.
</event>
<event>
 7    1  0.2900135E-009  0.1724597E+03  0.7561462E-02  0.1175307E+00
          2   -1    0    0  501    0  0.00000000000E+00  0.00000000000E+00  0.11868438714E+04  0.11868438714E+04  0.00000000000E+00 0. -1.
         -2   -1    0    0    0  501 -0.00000000000E+00 -0.00000000000E+00 -0.54394210057E+02  0.54394210057E+02  0.00000000000E+00 0.  1.
         25    2    1    2    0    0  0.77193480258E+02  0.11661963999E+03  0.10267771659E+04  0.10437805907E+04  0.12509036426E+03 0.  0.
          5    1    3    3  502    0  0.25127063830E+02 -0.25250208172E+02  0.23141570704E+03  0.23417865875E+03  0.41800000000E+01 0.  1.
         -5    1    3    3    0  502  0.52066416428E+02  0.14186984816E+03  0.79536145890E+03  0.80960193197E+03  0.41800000000E+01 0.  1.
        -11    1    1    2    0    0 -0.69536031222E+02 -0.38704278992E+02  0.21355322009E+02  0.82397394549E+02  0.00000000000E+00 0.  1.
         11    1    1    2    0    0 -0.76574490367E+01 -0.77915360996E+02  0.84317173361E+02  0.11506009616E+03  0.00000000000E+00 0. -1.
</event>
<event>
 7    1  0.2900135E-009  0.1638491E+03  0.7561462E-02  0.1184418E+00
          2   -1    0    0  501    0  0.00000000000E+00  0.00000000000E+00  0.42189223370E+03  0.42189223370E+03  0.00000000000E+00 0. -1.
         -2   -1    0    0    0  501 -0.00000000000E+00 -0.00000000000E+00 -0.97270901915E+02  0.97270901915E+02  0.00000000000E+00 0.  1.
         25    2    1    2    0    0  0.50830308384E+02  0.14473295169E+03  0.27033550852E+03  0.33504019003E+03  0.12505716377E+03 0.  0.
          5    1    3    3  502    0  0.51787470365E+01 -0.10475898363E+02 -0.67697018118E+01  0.14137366445E+02  0.41800000000E+01 0.  1.
         -5    1    3    3    0  502  0.45651561348E+02  0.15520885006E+03  0.27710521033E+03  0.32090282358E+03  0.41800000000E+01 0.  1.
        -11    1    1    2    0    0 -0.94342614792E+01 -0.22521249520E+02  0.49275379126E+02  0.54993408311E+02  0.00000000000E+00 0. -1.
         11    1    1    2    0    0 -0.41396046905E+02 -0.12221170217E+03  0.50104441378E+01  0.12912953728E+03  0.00000000000E+00 0.  1.
</event>
<event>
 7    1  0.2900135E-009  0.9901320E+02  0.7561462E-02  0.1282385E+00
         -4   -1    0    0    0  501 -0.00000000000E+00  0.00000000000E+00  0.18377177818E+02  0.18377177818E+02  0.00000000000E+00 0.  1.
          4   -1    0    0  501    0  0.00000000000E+00 -0.00000000000E+00 -0.68634133950E+03  0.68634133950E+03  0.00000000000E+00 0. -1.
         25    2    1    2    0    0  0.18750187016E+02 -0.22757651283E+01 -0.34382737889E+03  0.36636750908E+03  0.12510450277E+03 0.  0.
          5    1    3    3  502    0 -0.27018952712E+02 -0.37389115173E+02 -0.26259176029E+03  0.26664559759E+03  0.41800000000E+01 0. -1.
         -5    1    3    3    0  502  0.45769139727E+02  0.35113350045E+02 -0.81235618598E+02  0.99721911493E+02  0.41800000000E+01 0. -1.
        -11    1    1    2    0    0 -0.12864983741E+02 -0.44706144659E+02 -0.11784054855E+03  0.12669073392E+03  0.00000000000E+00 0.  1.
         11    1    1    2    0    0 -0.58852032752E+01  0.46981909787E+02 -0.20629623423E+03  0.21166027432E+03  0.00000000000E+00 0. -1.
</event>
<event>
 7    1  0.2900135E-009  0.2694780E+03  0.7561462E-02  0.1101579E+00
         -1   -1    0    0    0  501 -0.00000000000E+00  0.00000000000E+00  0.16043223129E+03  0.16043223129E+03  0.00000000000E+00 0. -1.
          1   -1    0    0  501    0  0.00000000000E+00 -0.00000000000E+00 -0.73911007246E+03  0.73911007246E+03  0.00000000000E+00 0.  1.
         25    2    1    2    0    0  0.18283670231E+01  0.26320858448E+03 -0.54512189061E+03  0.61813259804E+03  0.12509169143E+03 0.  0.
          5    1    3    3  502    0 -0.13848867839E+02  0.68190743035E+02 -0.28038365762E+03  0.28891908285E+03  0.41800000000E+01 0.  1.
         -5    1    3    3    0  502  0.15677234862E+02  0.19501784144E+03 -0.26473823299E+03  0.32921351519E+03  0.41800000000E+01 0.  1.
        -11    1    1    2    0    0 -0.38154600637E+02 -0.13962576358E+03  0.10870167650E+02  0.14515263673E+03  0.00000000000E+00 0. -1.
         11    1    1    2    0    0  0.36326233614E+02 -0.12358282090E+03 -0.44426118212E+02  0.13625706899E+03  0.00000000000E+00 0.  1.
</event>
<event>
 7    1  0.2900135E-009  0.1044209E+03  0.7561462E-02  0.1271265E+00
          2   -1    0    0  501    0  0.00000000000E+00  0.00000000000E+00  0.24472487893E+03  0.24472487893E+03  0.00000000000E+00 0. -1.
         -2   -1    0    0    0  501 -0.00000000000E+00 -0.00000000000E+00 -0.49474857204E+02  0.49474857204E+02  0.00000000000E+00 0.  1.
         25    2    1    2    0    0 -0.12665888599E+02 -0.17802097272E+02  0.94356630942E+02  0.15820241540E+03  0.12508993178E+03 0.  0.
          5    1    3    3  502    0  0.55267539636E+02 -0.15964834678E+02  0.54241558863E+02  0.79176991554E+02  0.41800000000E+01 0.  1.
         -5    1    3    3    0  502 -0.67933428236E+02 -0.18372625946E+01  0.40115072080E+02  0.79025423844E+02  0.41800000000E+01 0.  1.
        -11    1    1    2    0    0 -0.17991014393E+02 -0.24770216385E+02  0.12211835112E+02  0.32960114311E+02  0.00000000000E+00 0.  1.
         11    1    1    2    0    0  0.30656902992E+02  0.42572313657E+02  0.88681555668E+02  0.10303720642E+03  0.00000000000E+00 0. -1.
</event>
<event>
 7    1  0.2900135E-009  0.1012640E+03  0.7561462E-02  0.1277660E+00
         -2   -1    0    0    0  501 -0.00000000000E+00  0.00000000000E+00  0.56995199035E+03  0.56995199035E+03  0.00000000000E+00 0.  1.
          2   -1    0    0  501    0  0.00000000000E+00 -0.00000000000E+00 -0.37890762898E+02  0.37890762898E+02  0.00000000000E+00 0. -1.
         25    2    1    2    0    0  0.13973826271E+02  0.91696307886E+02  0.36457462794E+03  0.39644151594E+03  0.12509090904E+03 0.  0.
          5    1    3    3  502    0  0.13029338411E+02  0.58010340231E+02  0.35661789898E+03  0.36156432555E+03  0.41800000000E+01 0. -1.
         -5    1    3    3    0  502  0.94448785957E+00  0.33685967656E+02  0.79567289585E+01  0.34877190396E+02  0.41800000000E+01 0. -1.
        -11    1    1    2    0    0  0.20439431520E+02 -0.16488885360E+02  0.10364631275E+03  0.10692152191E+03  0.00000000000E+00 0.  1.
         11    1    1    2    0    0 -0.34413257791E+02 -0.75207422526E+02  0.63840286756E+02  0.10447971539E+03  0.00000000000E+00 0. -1.
</event>
<event>
 7    1  0.3635090E-009  0.1382657E+03  0.7561462E-02  0.1215682E+00
         -1   -1    0    0    0  501 -0.00000000000E+00  0.00000000000E+00  0.19657948284E+02  0.19657948284E+02  0.00000000000E+00 0.  1.
          1   -1    0    0  501    0  0.00000000000E+00 -0.00000000000E+00 -0.11050058895E+04  0.11050058895E+04  0.00000000000E+00 0. -1.
         25    2    1    2    0    0  0.90415423203E+02 -0.32082784306E+02 -0.68377469071E+03  0.70171108884E+03  0.12508545375E+03 0.  0.
          5    1    3    3  502    0  0.66319343079E+02  0.34621676373E+02 -0.21727010054E+03  0.22982751082E+03  0.41800000000E+01 0.  1.
         -5    1    3    3    0  502  0.24096080124E+02 -0.66704460679E+02 -0.46650459017E+03  0.47188357802E+03  0.41800000000E+01 0.  1.
        -11    1    1    2    0    0 -0.23378775722E+02  0.54957923110E+02 -0.22259505997E+03  0.23046800470E+03  0.00000000000E+00 0. -1.
         11    1    1    2    0    0 -0.67036647481E+02 -0.22875138803E+02 -0.17897819053E+03  0.19248474424E+03  0.00000000000E+00 0.  1.
</event>
<event>
 7    1  0.3113670E-009  0.2176229E+03  0.7561462E-02  0.1135668E+00
         -1   -1    0    0    0  501 -0.00000000000E+00  0.00000000000E+00  0.19656600784E+03  0.19656600784E+03  0.00000000000E+00 0.  1.
          1   -1    0    0  501    0  0.00000000000E+00 -0.00000000000E+00 -0.25621386273E+03  0.25621386273E+03  0.00000000000E+00 0. -1.
         25    2    1    2    0    0 -0.18089027443E+03 -0.73445055363E+02 -0.12381402601E+02  0.23219779670E+03  0.12508816939E+03 0.  0.
          5    1    3    3  502    0 -0.96106652829E+02  0.26430540781E+02  0.54685374186E+01  0.99912158948E+02  0.41800000000E+01 0.  1.
         -5    1    3    3    0  502 -0.84783621600E+02 -0.99875596144E+02 -0.17849940020E+02  0.13228563775E+03  0.41800000000E+01 0.  1.
        -11    1    1    2    0    0  0.13812988937E+03  0.26033782829E+02  0.96663204227E+00  0.14056513993E+03  0.00000000000E+00 0.  1.
         11    1    1    2    0    0  0.42760385057E+02  0.47411272534E+02 -0.48233084328E+02  0.80016933941E+02  0.00000000000E+00 0. -1.
</event>
<event>
 7    1  0.2900135E-009  0.8454026E+02  0.7561462E-02  0.1316639E+00
          1   -1    0    0  501    0  0.00000000000E+00  0.00000000000E+00  0.37991312761E+03  0.37991312761E+03  0.00000000000E+00 0. -1.
         -1   -1    0    0    0  501 -0.00000000000E+00 -0.00000000000E+00 -0.32316687764E+02  0.32316687764E+02  0.00000000000E+00 0.  1.
         25    2    1    2    0    0  0.22242733377E+02 -0.22738538105E+02  0.19348977078E+03  0.23259116998E+03  0.12509428705E+03 0.  0.
          5    1    3    3  502    0 -0.35061647882E+02 -0.18081861971E+02  0.16224195946E+03  0.16702155158E+03  0.41800000000E+01 0.  1.
         -5    1    3    3    0  502  0.57304381259E+02 -0.46566761341E+01  0.31247811320E+02  0.65569618394E+02  0.41800000000E+01 0.  1.
        -11    1    1    2    0    0 -0.44963195668E+02  0.11467252027E+02  0.14571320559E+03  0.15292326545E+03  0.00000000000E+00 0. -1.
         11    1    1    2    0    0  0.22720462291E+02  0.11271286078E+02  0.83934634843E+01  0.26715379949E+02  0.00000000000E+00 0.  1.
</event>
<event>
 7    1  0.2900135E-009  0.9903565E+02  0.7561462E-02  0.1282337E+00
          2   -1    0    0  501    0  0.00000000000E+00  0.00000000000E+00  0.47108017393E+02  0.47108017393E+02  0.00000000000E+00 0. -1.
         -2   -1    0    0    0  501 -0.00000000000E+00 -0.00000000000E+00 -0.55752662608E+03  0.55752662608E+03  0.00000000000E+00 0.  1.
         25    2    1    2    0    0  0.82472612866E+02  0.72513739908E+01 -0.46638390911E+03  0.48991437903E+03  0.12509130189E+03 0.  0.
          5    1    3    3  502    0  0.71116147087E+02  0.34610917402E+02 -0.44768068790E+03  0.45463270086E+03  0.41800000000E+01 0.  1.
         -5    1    3    3    0  502  0.11356465779E+02 -0.27359543411E+02 -0.18703221214E+02  0.35281678169E+02  0.41800000000E+01 0.  1.
        -11    1    1    2    0    0 -0.53932887799E+02  0.11045286526E+02 -0.56229527818E+02  0.78692531662E+02  0.00000000000E+00 0.  1.
         11    1    1    2    0    0 -0.28539725068E+02 -0.18296660517E+02  0.12194828245E+02  0.36027732775E+02  0.00000000000E+00 0. -1.
</event>
<event>
 7    1  0.2900135E-009  0.1260703E+03  0.7561462E-02  0.1233406E+00
          1   -1    0    0  501    0  0.00000000000E+00  0.00000000000E+00  0.52372948537E+03  0.52372948537E+03  0.00000000000E+00 0. -1.
         -1   -1    0    0    0  501 -0.00000000000E+00 -0.00000000000E+00 -0.31924541268E+02  0.31924541268E+02  0.00000000000E+00 0.  1.
         25    2    1    2    0    0  0.69077576796E+02 -0.59028885171E+01  0.28061565830E+03  0.31495904204E+03  0.12508994671E+03 0.  0.
          5    1    3    3  502    0  0.95687398590E+02  0.24469145450E+02  0.22795812980E+03  0.24846971379E+03  0.41800000000E+01 0.  1.
         -5    1    3    3    0  502 -0.26609821794E+02 -0.30372033967E+02  0.52657528498E+02  0.66489328247E+02  0.41800000000E+01 0.  1.
        -11    1    1    2    0    0 -0.88716904839E+02  0.16704855541E+02  0.18739458723E+03  0.20800594396E+03  0.00000000000E+00 0.  1.
         11    1    1    2    0    0  0.19639328043E+02 -0.10801967024E+02  0.23794698579E+02  0.32689040641E+02  0.00000000000E+00 0. -1.
</event>
<event>
 7    1  0.2900135E-009  0.1113065E+03  0.7561462E-02  0.1258169E+00
          2   -1    0    0  501    0  0.00000000000E+00  0.00000000000E+00  0.64788788450E+03  0.64788788450E+03  0.00000000000E+00 0. -1.
         -2   -1    0    0    0  501 -0.00000000000E+00 -0.00000000000E+00 -0.20770278127E+02  0.20770278127E+02  0.00000000000E+00 0.  1.
         25    2    1    2    0    0 -0.27592697496E+02 -0.34429188953E+02  0.33435563025E+03  0.35970583281E+03  0.12509145722E+03 0.  0.
          5    1    3    3  502    0 -0.46985447052E+02  0.30666213700E+02  0.90769096015E+02  0.10679208814E+03  0.41800000000E+01 0.  1.
         -5    1    3    3    0  502  0.19392749556E+02 -0.65095402653E+02  0.24358653424E+03  0.25291374467E+03  0.41800000000E+01 0.  1.
        -11    1    1    2    0    0 -0.14668371378E+02  0.50877511764E+02  0.14371309109E+03  0.15315722273E+03  0.00000000000E+00 0. -1.
         11    1    1    2    0    0  0.42261068874E+02 -0.16448322810E+02  0.14904888503E+03  0.15579510709E+03  0.00000000000E+00 0.  1.
</event>
<event>
 7    1  0.2996778E-009  0.1383457E+03  0.7561462E-02  0.1215572E+00
          2   -1    0    0  501    0  0.00000000000E+00  0.00000000000E+00  0.44234045323E+03  0.44234045323E+03  0.00000000000E+00 0. -1.
         -2   -1    0    0    0  501 -0.00000000000E+00 -0.00000000000E+00 -0.50832750611E+02  0.50832750611E+02  0.00000000000E+00 0.  1.
         25    2    1    2    0    0 -0.86522646671E+00  0.95673863276E+02  0.27423764535E+03  0.31624055252E+03  0.12509022424E+03 0.  0.
          5    1    3    3  502    0 -0.58800794485E+02  0.74559789052E+02  0.15210270365E+03  0.17935830182E+03  0.41800000000E+01 0. -1.
         -5    1    3    3    0  502  0.57935568019E+02  0.21114074225E+02  0.12213494170E+03  0.13688225070E+03  0.41800000000E+01 0. -1.
        -11    1    1    2    0    0  0.31619026756E+02 -0.78467633124E+02  0.11340177489E+03  0.14148107594E+03  0.00000000000E+00 0. -1.
         11    1    1    2    0    0 -0.30753800289E+02 -0.17206230153E+02  0.38682823799E+01  0.35451575379E+02  0.00000000000E+00 0.  1.
</event>
<event>
 7    1  0.2900135E-009  0.9089333E+02  0.7561462E-02  0.1300703E+00
          2   -1    0    0  501    0  0.00000000000E+00  0.00000000000E+00  0.39837850963E+02  0.39837850963E+02  0.00000000000E+00 0. -1.
         -2   -1    0    0    0  501 -0.00000000000E+00 -0.00000000000E+00 -0.38731227267E+03  0.38731227267E+03  0.00000000000E+00 0.  1.
         25    2    1    2    0    0  0.45672724703E+02 -0.21946183245E+02 -0.12929089479E+03  0.18689973434E+03  0.12509093683E+03 0.  0.
          5    1    3    3  502    0  0.28634453265E+02 -0.44547115960E+02  0.13743031186E+01  0.53138861139E+02  0.41800000000E+01 0. -1.
         -5    1    3    3    0  502  0.17038271438E+02  0.22600932714E+02 -0.13066519791E+03  0.13376087320E+03  0.41800000000E+01 0. -1.
        -11    1    1    2    0    0 -0.34544631152E+02  0.55127758540E+02 -0.12983260787E+03  0.14522020303E+03  0.00000000000E+00 0.  1.
         11    1    1    2    0    0 -0.11128093551E+02 -0.33181575294E+02 -0.88350919044E+02  0.95030186262E+02  0.00000000000E+00 0. -1.
</event>
<event>
 7    1  0.2900135E-009  0.1084364E+03  0.7561462E-02  0.1263493E+00
          3   -1    0    0  501    0  0.00000000000E+00  0.00000000000E+00  0.87012424540E+02  0.87012424540E+02  0.00000000000E+00 0. -1.
         -3   -1    0    0    0  501 -0.00000000000E+00 -0.00000000000E+00 -0.16652196182E+03  0.16652196182E+03  0.00000000000E+00 0.  1.
         25    2    1    2    0    0  0.46976652696E+02 -0.15904788655E+02 -0.63080603621E+02  0.14862714170E+03  0.12510434243E+03 0.  0.
          5    1    3    3  502    0  0.84030720188E+02  0.32782192387E+01 -0.16225870199E+02  0.85747652565E+02  0.41800000000E+01 0.  1.
         -5    1    3    3    0  502 -0.37054067492E+02 -0.19183007894E+02 -0.46854733423E+02  0.62879489133E+02  0.41800000000E+01 0.  1.
        -11    1    1    2    0    0 -0.61804379867E+02  0.31374559644E+02 -0.33994364949E+02  0.77199489713E+02  0.00000000000E+00 0.  1.
         11    1    1    2    0    0  0.14827727171E+02 -0.15469770988E+02  0.17565431295E+02  0.27707754945E+02  0.00000000000E+00 0. -1.
</event>
<event>
 7    1  0.2900135E-009  0.1350731E+03  0.7561462E-02  0.1220117E+00
         -3   -1    0    0    0  501 -0.00000000000E+00  0.00000000000E+00  0.12331030466E+03  0.12331030466E+03  0.00000000000E+00 0.  1.
          3   -1    0    0  501    0  0.00000000000E+00 -0.00000000000E+00 -0.18512231338E+03  0.18512231338E+03  0.00000000000E+00 0. -1.
         25    2    1    2    0    0  0.78307724683E+02  0.48424560943E+02 -0.82774180553E+02  0.17599920617E+03  0.12508843975E+03 0.  0.
          5    1    3    3  502    0  0.23129279017E+02 -0.41732674491E+02 -0.14295360958E+02  0.49984091598E+02  0.41800000000E+01 0.  1.
         -5    1    3    3    0  502  0.55178445666E+02  0.90157235434E+02 -0.68478819595E+02  0.12601511457E+03  0.41800000000E+01 0.  1.
        -11    1    1    2    0    0 -0.33950150194E+01  0.16798028863E+02 -0.18803725383E+02  0.25441697839E+02  0.00000000000E+00 0. -1.
         11    1    1    2    0    0 -0.74912709663E+02 -0.65222589806E+02  0.39765897218E+02  0.10699171403E+03  0.00000000000E+00 0.  1.
</event>
<event>
 7    1  0.2900135E-009  0.1572765E+03  0.7561462E-02  0.1191806E+00
          1   -1    0    0  501    0  0.00000000000E+00  0.00000000000E+00  0.25036435591E+02  0.25036435591E+02  0.00000000000E+00 0. -1.
         -1   -1    0    0    0  501 -0.00000000000E+00 -0.00000000000E+00 -0.12279461051E+04  0.12279461051E+04  0.00000000000E+00 0.  1.
         25    2    1    2    0    0  0.11009515537E+02 -0.12607389514E+03 -0.47888339672E+03  0.51087422515E+03  0.12508928730E+03 0.  0.
          5    1    3    3  502    0  0.52978492411E+02 -0.53896396315E+02 -0.34366156332E+03  0.35189811693E+03  0.41800000000E+01 0.  1.
         -5    1    3    3    0  502 -0.41968976874E+02 -0.72177498825E+02 -0.13522183341E+03  0.15897610823E+03  0.41800000000E+01 0.  1.
        -11    1    1    2    0    0  0.26747465891E+02  0.11171220404E+03 -0.61925979491E+03  0.62982357613E+03  0.00000000000E+00 0. -1.
         11    1    1    2    0    0 -0.37756981428E+02  0.14361691100E+02 -0.10476647790E+03  0.11228473943E+03  0.00000000000E+00 0.  1.
</event>
<event>
 7    1  0.2900135E-009  0.1317564E+03  0.7561462E-02  0.1224873E+00
         -4   -1    0    0    0  501 -0.00000000000E+00  0.00000000000E+00  0.24145824921E+03  0.24145824921E+03  0.00000000000E+00 0.  1.
          4   -1    0    0  501    0  0.00000000000E+00 -0.00000000000E+00 -0.11441189270E+03  0.11441189270E+03  0.00000000000E+00 0. -1.
         25    2    1    2    0    0 -0.10978133467E+02  0.78163506380E+02  0.17168901099E+03  0.22661545350E+03  0.12508954443E+03 0.  0.
          5    1    3    3  502    0 -0.48480507862E+02 -0.11710058141E+02  0.50635189629E+02  0.71196066837E+02  0.41800000000E+01 0. -1.
         -5    1    3    3    0  502  0.37502374395E+02  0.89873564521E+02  0.12105382136E+03  0.15541938666E+03  0.41800000000E+01 0. -1.
        -11    1    1    2    0    0  0.35010139761E+02 -0.84308971992E+00 -0.31740892221E+02  0.47264203424E+02  0.00000000000E+00 0.  1.
         11    1    1    2    0    0 -0.24032006293E+02 -0.77320416660E+02 -0.12901762254E+02  0.81990484986E+02  0.00000000000E+00 0. -1.
</event>
<event>
 7    1  0.2900135E-009  0.2537212E+03  0.7561462E-02  0.1110975E+00
          1   -1    0    0  501    0  0.00000000000E+00  0.00000000000E+00  0.25279596668E+03  0.25279596668E+03  0.00000000000E+00 0. -1.
         -1   -1    0    0    0  501 -0.00000000000E+00 -0.00000000000E+00 -0.30152991105E+03  0.30152991105E+03  0.00000000000E+00 0.  1.
         25    2    1    2    0    0  0.15993556510E+03 -0.18852015876E+03  0.29004929257E+02  0.27858242498E+03  0.12509055258E+03 0.  0.
          5    1    3    3  502    0  0.84027615097E+02 -0.43913671486E+02 -0.37700348181E+02  0.10211679243E+03  0.41800000000E+01 0. -1.
         -5    1    3    3    0  502  0.75907950008E+02 -0.14460648727E+03  0.66705277438E+02  0.17646563256E+03  0.41800000000E+01 0. -1.
        -11    1    1    2    0    0 -0.15125301222E+03  0.16373326790E+03 -0.35078890010E+02  0.22564703686E+03  0.00000000000E+00 0. -1.
         11    1    1    2    0    0 -0.86825528865E+01  0.24786890861E+02 -0.42659983616E+02  0.50096415893E+02  0.00000000000E+00 0.  1.
</event>
<event>
 7    1  0.2900135E-009  0.1098743E+03  0.7561462E-02  0.1260803E+00
         -2   -1    0    0    0  501 -0.00000000000E+00  0.00000000000E+00  0.40455986852E+02  0.40455986852E+02  0.00000000000E+00 0.  1.
          2   -1    0    0  501    0  0.00000000000E+00 -0.00000000000E+00 -0.42213774123E+03  0.42213774123E+03  0.00000000000E+00 0. -1.
         25    2    1    2    0    0  0.41439731686E+01  0.69662698868E+02 -0.17341468860E+03  0.22492250734E+03  0.12508963171E+03 0.  0.
          5    1    3    3  502    0  0.57803956324E+01 -0.17331068464E+02 -0.12270487641E+03  0.12412790984E+03  0.41800000000E+01 0.  1.
         -5    1    3    3    0  502 -0.16364224637E+01  0.86993767333E+02 -0.50709812188E+02  0.10079459750E+03  0.41800000000E+01 0.  1.
        -11    1    1    2    0    0  0.42700354940E+02 -0.39598980628E+02 -0.94193303267E+02  0.11074194309E+03  0.00000000000E+00 0.  1.
         11    1    1    2    0    0 -0.46844328108E+02 -0.30063718241E+02 -0.11407376251E+03  0.12692927765E+03  0.00000000000E+00 0. -1.
</event>
<event>
 7    1  0.2900135E-009  0.1116054E+03  0.7561462E-02  0.1257626E+00
         -2   -1    0    0    0  501 -0.00000000000E+00  0.00000000000E+00  0.15787680074E+02  0.15787680074E+02  0.00000000000E+00 0.  1.
          2   -1    0    0  501    0  0.00000000000E+00 -0.00000000000E+00 -0.96688689689E+03  0.96688689689E+03  0.00000000000E+00 0. -1.
         25    2    1    2    0    0  0.60861324814E+01 -0.27527673957E+02 -0.74003665510E+03  0.75106369518E+03  0.12509040526E+03 0.  0.
          5    1    3    3  502    0 -0.56941258397E+02  0.40200592212E+01 -0.30258300242E+03  0.30794871901E+03  0.41800000000E+01 0.  1.
         -5    1    3    3    0  502  0.63027390879E+02 -0.31547733178E+02 -0.43745365268E+03  0.44311497618E+03  0.41800000000E+01 0.  1.
        -11    1    1    2    0    0 -0.22522479596E+02  0.57185719234E+02 -0.13489880446E+03  0.14824019703E+03  0.00000000000E+00 0.  1.
         11    1    1    2    0    0  0.16436347115E+02 -0.29658045277E+02 -0.76163757260E+02  0.83370684753E+02  0.00000000000E+00 0. -1.
</event>
<event>
 7    1  0.3501228E-009  0.1417939E+03  0.7561462E-02  0.1210935E+00
         -2   -1    0    0    0  501 -0.00000000000E+00  0.00000000000E+00  0.96524527452E+01  0.96524527452E+01  0.00000000000E+00 0. -1.
          2   -1    0    0  501    0  0.00000000000E+00 -0.00000000000E+00 -0.22184822347E+04  0.22184822347E+04  0.00000000000E+00 0.  1.
         25    2    1    2    0    0  0.52245878467E+02 -0.75283642491E+02 -0.14657186144E+04  0.14738980372E+04  0.12508840313E+03 0.  0.
          5    1    3    3  502    0 -0.40882929071E+02 -0.15351562696E+02 -0.46287535492E+03  0.46494962195E+03  0.41800000000E+01 0.  1.
         -5    1    3    3    0  502  0.93128807538E+02 -0.59932079794E+02 -0.10028432595E+04  0.10089484152E+04  0.41800000000E+01 0.  1.
        -11    1    1    2    0    0  0.25039074505E+02  0.30893594496E+02 -0.21145291018E+03  0.21515971430E+03  0.00000000000E+00 0.  1.
         11    1    1    2    0    0 -0.77284952972E+02  0.44390047995E+02 -0.53165825730E+03  0.53907693595E+03  0.00000000000E+00 0. -1.
</event>
<event>
 7    1  0.2900135E-009  0.1275908E+03  0.7561462E-02  0.1231075E+00
          1   -1    0    0  501    0  0.00000000000E+00  0.00000000000E+00  0.30460354454E+03  0.30460354454E+03  0.00000000000E+00 0. -1.
         -1   -1    0    0    0  501 -0.00000000000E+00 -0.00000000000E+00 -0.70538803285E+02  0.70538803285E+02  0.00000000000E+00 0.  1.
         25    2    1    2    0    0 -0.88773075487E+02  0.39333121454E+02  0.13687833944E+03  0.20931135374E+03  0.12509120521E+03 0.  0.
          5    1    3    3  502    0 -0.69409262150E+02 -0.26868731580E+02  0.11458973067E+03  0.13670352294E+03  0.41800000000E+01 0.  1.
         -5    1    3    3    0  502 -0.19363813337E+02  0.66201853034E+02  0.22288608763E+02  0.72607830795E+02  0.41800000000E+01 0.  1.
        -11    1    1    2    0    0  0.93855422376E+01  0.13303861552E+02 -0.12523456760E+02  0.20540645183E+02  0.00000000000E+00 0.  1.
         11    1    1    2    0    0  0.79387533249E+02 -0.52636983006E+02  0.10970985857E+03  0.14529034890E+03  0.00000000000E+00 0. -1.
</event>
<event>
 7    1  0.2900135E-009  0.8367581E+02  0.7561462E-02  0.1318932E+00
          1   -1    0    0  501    0  0.00000000000E+00  0.00000000000E+00  0.20794456946E+03  0.20794456946E+03  0.00000000000E+00 0. -1.
         -1   -1    0    0    0  501 -0.00000000000E+00 -0.00000000000E+00 -0.74014774530E+02  0.74014774530E+02  0.00000000000E+00 0.  1.
         25    2    1    2    0    0 -0.45615852420E+02  0.24828408927E+01  0.32605991985E+02  0.13710375786E+03  0.12508924501E+03 0.  0.
          5    1    3    3  502    0  0.19310142376E+02  0.20393657648E+01 -0.36894955942E+02  0.41901679982E+02  0.41800000000E+01 0.  1.
         -5    1    3    3    0  502 -0.64925994795E+02  0.44347512788E+00  0.69500947927E+02  0.95202077882E+02  0.41800000000E+01 0.  1.
        -11    1    1    2    0    0  0.42293833195E+02  0.28671613336E+02  0.15352115551E+02  0.53352761779E+02  0.00000000000E+00 0.  1.
         11    1    1    2    0    0  0.33220192250E+01 -0.31154454229E+02  0.85971687390E+02  0.91502824343E+02  0.00000000000E+00 0. -1.
</event>
<event>
 7    1  0.2900135E-009  0.1845350E+03  0.7561462E-02  0.1163485E+00
          2   -1    0    0  501    0  0.00000000000E+00  0.00000000000E+00  0.14667823698E+04  0.14667823698E+04  0.00000000000E+00 0. -1.
         -2   -1    0    0    0  501 -0.00000000000E+00 -0.00000000000E+00 -0.32926747394E+02  0.32926747394E+02  0.00000000000E+00 0.  1.
         25    2    1    2    0    0  0.14618134244E+03  0.39275785983E+02  0.11466883177E+04  0.11633800457E+04  0.12508980975E+03 0.  0.
          5    1    3    3  502    0  0.20621341652E+02  0.62779476980E+02  0.31055751750E+03  0.31753731519E+03  0.41800000000E+01 0. -1.
         -5    1    3    3    0  502  0.12556000079E+03 -0.23503690997E+02  0.83613080021E+03  0.84584273051E+03  0.41800000000E+01 0. -1.
        -11    1    1    2    0    0 -0.72943177823E+02  0.25503305978E+02  0.12375716138E+03  0.14590051679E+03  0.00000000000E+00 0. -1.
         11    1    1    2    0    0 -0.73238164615E+02 -0.64779091961E+02  0.16341014334E+03  0.19042855473E+03  0.00000000000E+00 0.  1.
</event>
<event>
 7    1  0.2900135E-009  0.1128002E+03  0.7561462E-02  0.1255471E+00
         -2   -1    0    0    0  501 -0.00000000000E+00  0.00000000000E+00  0.22145069871E+02  0.22145069871E+02  0.00000000000E+00 0.  1.
          2   -1    0    0  501    0  0.00000000000E+00 -0.00000000000E+00 -0.69587917476E+03  0.69587917476E+03  0.00000000000E+00 0. -1.
         25    2    1    2    0    0  0.16979177175E+02  0.53888652663E+02 -0.31545428746E+03  0.34402232777E+03  0.12509066785E+03 0.  0.
          5    1    3    3  502    0 -0.13008189423E+02  0.79357123464E+02 -0.11940159438E+03  0.14401728777E+03  0.41800000000E+01 0.  1.
         -5    1    3    3    0  502  0.29987366598E+02 -0.25468470801E+02 -0.19605269308E+03  0.20000504000E+03  0.41800000000E+01 0.  1.
        -11    1    1    2    0    0  0.13568273169E+02  0.20790151261E+02 -0.11645817350E+03  0.11907491172E+03  0.00000000000E+00 0. -1.
         11    1    1    2    0    0 -0.30547450344E+02 -0.74678803925E+02 -0.24182164393E+03  0.25492700514E+03  0.00000000000E+00 0.  1.
</event>
<event>
 7    1  0.2900135E-009  0.1161091E+03  0.7561462E-02  0.1249657E+00
         -1   -1    0    0    0  501 -0.00000000000E+00  0.00000000000E+00  0.22513319979E+02  0.22513319979E+02  0.00000000000E+00 0.  1.
          1   -1    0    0  501    0  0.00000000000E+00 -0.00000000000E+00 -0.67010656405E+03  0.67010656405E+03  0.00000000000E+00 0. -1.
         25    2    1    2    0    0  0.25108286871E+02 -0.50387505001E+02 -0.33280336621E+03  0.35996505372E+03  0.12508969826E+03 0.  0.
          5    1    3    3  502    0  0.26035213928E+02  0.33048478305E+02 -0.52120478627E+02  0.67112226717E+02  0.41800000000E+01 0. -1.
         -5    1    3    3    0  502 -0.92692705696E+00 -0.83435983306E+02 -0.28068288758E+03  0.29285282700E+03  0.41800000000E+01 0. -1.
        -11    1    1    2    0    0 -0.58181845187E+02  0.20125012945E+02 -0.15761449753E+03  0.16921132671E+03  0.00000000000E+00 0. -1.
         11    1    1    2    0    0  0.33073558316E+02  0.30262492055E+02 -0.15717538034E+03  0.16344350360E+03  0.00000000000E+00 0.  1.
</event>
<event>
 7    1  0.2906367E-009  0.1003638E+03  0.7561462E-02  0.1279533E+00
         -3   -1    0    0    0  501 -0.00000000000E+00  0.00000000000E+00  0.20901068295E+02  0.20901068295E+02  0.00000000000E+00 0.  1.
          3   -1    0    0  501    0  0.00000000000E+00 -0.00000000000E+00 -0.68351588548E+03  0.68351588548E+03  0.00000000000E+00 0. -1.
         25    2    1    2    0    0 -0.31653589790E+02 -0.34865656261E+02 -0.31740952039E+03  0.34440402562E+03  0.12509102884E+03 0.  0.
          5    1    3    3  502    0 -0.14852829308E+02  0.29382009439E+02 -0.18129163200E+02  0.37815975135E+02  0.41800000000E+01 0. -1.
         -5    1    3    3    0  502 -0.16800760482E+02 -0.64247665699E+02 -0.29928035719E+03  0.30658805049E+03  0.41800000000E+01 0. -1.
        -11    1    1    2    0    0  0.45070909789E+01  0.62266780594E+02 -0.18582042145E+03  0.19602728091E+03  0.00000000000E+00 0. -1.
         11    1    1    2    0    0  0.27146498811E+02 -0.27401124333E+02 -0.15938487535E+03  0.16398564725E+03  0.00000000000E+00 0.  1.
</event>
<event>
 7    1  0.2900135E-009  0.1884893E+03  0.7561462E-02  0.1159831E+00
          2   -1    0    0  501    0  0.00000000000E+00  0.00000000000E+00  0.10078778571E+03  0.10078778571E+03  0.00000000000E+00 0. -1.
         -2   -1    0    0    0  501 -0.00000000000E+00 -0.00000000000E+00 -0.54947278961E+03  0.54947278961E+03  0.00000000000E+00 0.  1.
         25    2    1    2    0    0 -0.16518109255E+03  0.89419327531E+02 -0.10708971898E+03  0.24978139729E+03  0.12506769786E+03 0.  0.
          5    1    3    3  502    0 -0.71480275194E+02  0.33535644410E+02 -0.11583978600E+03  0.14025119467E+03  0.41800000000E+01 0. -1.
         -5    1    3    3    0  502 -0.93700817354E+02  0.55883683121E+02  0.87500670123E+01  0.10953020261E+03  0.41800000000E+01 0. -1.
        -11    1    1    2    0    0  0.43307800510E+02 -0.32918338529E+02 -0.32284319923E+02  0.63257093748E+02  0.00000000000E+00 0.  1.
         11    1    1    2    0    0  0.12187329204E+03 -0.56500989002E+02 -0.30931096499E+03  0.33722208429E+03  0.00000000000E+00 0. -1.
</event>
<event>
 7    1  0.2900135E-009  0.1603489E+03  0.7561462E-02  0.1188303E+00
         -1   -1    0    0    0  501 -0.00000000000E+00  0.00000000000E+00  0.44626825466E+03  0.44626825466E+03  0.00000000000E+00 0.  1.
          1   -1    0    0  501    0  0.00000000000E+00 -0.00000000000E+00 -0.75445509166E+02  0.75445509166E+02  0.00000000000E+00 0. -1.
         25    2    1    2    0    0  0.76046269006E+01 -0.96856136620E+02  0.16395404577E+03  0.22796336352E+03  0.12508966558E+03 0.  0.
          5    1    3    3  502    0 -0.24203918743E+02 -0.54224677525E+02  0.43609305936E+01  0.59687816603E+02  0.41800000000E+01 0.  1.
         -5    1    3    3    0  502  0.31808545644E+02 -0.42631459095E+02  0.15959311517E+03  0.16827554692E+03  0.41800000000E+01 0.  1.
        -11    1    1    2    0    0 -0.56708942815E+01  0.15226596131E+03  0.14040121393E+03  0.20719455323E+03  0.00000000000E+00 0.  1.
         11    1    1    2    0    0 -0.19337326191E+01 -0.55409824690E+02  0.66467485796E+02  0.86555847070E+02  0.00000000000E+00 0. -1.
</event>
<event>
 7    1  0.2900135E-009  0.1305421E+03  0.7561462E-02  0.1226654E+00
          3   -1    0    0  501    0  0.00000000000E+00  0.00000000000E+00  0.14763986560E+03  0.14763986560E+03  0.00000000000E+00 0. -1.
         -3   -1    0    0    0  501 -0.00000000000E+00 -0.00000000000E+00 -0.15388014944E+03  0.15388014944E+03  0.00000000000E+00 0.  1.
         25    2    1    2    0    0 -0.10309295753E+03  0.51941383161E+01  0.14203025988E+02  0.16279640818E+03  0.12508320273E+03 0.  0.
          5    1    3    3  502    0 -0.35049612753E+02 -0.52346965381E+02  0.33574215800E+02  0.71507905194E+02  0.41800000000E+01 0.  1.
         -5    1    3    3    0  502 -0.68043344779E+02  0.57541103697E+02 -0.19371189812E+02  0.91288502990E+02  0.41800000000E+01 0.  1.
        -11    1    1    2    0    0  0.41853136084E+02  0.14682578284E+02 -0.50887338084E+02  0.67503957531E+02  0.00000000000E+00 0.  1.
         11    1    1    2    0    0  0.61239821448E+02 -0.19876716600E+02  0.30444028261E+02  0.71219649328E+02  0.00000000000E+00 0. -1.
</event>
<event>
 7    1  0.2900135E-009  0.1017653E+03  0.7561462E-02  0.1276627E+00
         -2   -1    0    0    0  501 -0.00000000000E+00  0.00000000000E+00  0.17361978887E+03  0.17361978887E+03  0.00000000000E+00 0.  1.
          2   -1    0    0  501    0  0.00000000000E+00 -0.00000000000E+00 -0.97169521400E+02  0.97169521400E+02  0.00000000000E+00 0. -1.
         25    2    1    2    0    0 -0.54577181823E+02  0.12245488932E+01 -0.50319239925E+01  0.13657548011E+03  0.12508946084E+03 0.  0.
          5    1    3    3  502    0  0.59624750489E+01  0.36325811628E+02 -0.43073466047E+02  0.56814712676E+02  0.41800000000E+01 0. -1.
         -5    1    3    3    0  502 -0.60539656872E+02 -0.35101262735E+02  0.38041542055E+02  0.79760767434E+02  0.41800000000E+01 0. -1.
        -11    1    1    2    0    0 -0.17530689771E+02 -0.14872694855E+02  0.48665830535E+02  0.53822720089E+02  0.00000000000E+00 0.  1.
         11    1    1    2    0    0  0.72107871594E+02  0.13648145962E+02  0.32816360927E+02  0.80391110071E+02  0.00000000000E+00 0. -1.
</event>
<event>
 7    1  0.2900135E-009  0.9786007E+02  0.7561462E-02  0.1284861E+00
          1   -1    0    0  501    0  0.00000000000E+00  0.00000000000E+00  0.15328794398E+03  0.15328794398E+03  0.00000000000E+00 0. -1.
         -1   -1    0    0    0  501 -0.00000000000E+00 -0.00000000000E+00 -0.10169368384E+03  0.10169368384E+03  0.00000000000E+00 0.  1.
         25    2    1    2    0    0  0.61757736454E+02  0.13254694899E+02  0.24568861231E+02  0.14226352230E+03  0.12508227647E+03 0.  0.
          5    1    3    3  502    0  0.68209193102E+02  0.52428694604E+02  0.45259276739E+02  0.97299211572E+02  0.41800000000E+01 0. -1.
         -5    1    3    3    0  502 -0.64514566481E+01 -0.39173999705E+02 -0.20690415507E+02  0.44964310732E+02  0.41800000000E+01 0. -1.
        -11    1    1    2    0    0 -0.24251406567E+02  0.92170753557E+01  0.54999815256E+02  0.60811716608E+02  0.00000000000E+00 0. -1.
         11    1    1    2    0    0 -0.37506329887E+02 -0.22471770255E+02 -0.27974416341E+02  0.51906388909E+02  0.00000000000E+00 0.  1.
</event>
<event>
 7    1  0.2900135E-009  0.9660870E+02  0.7561462E-02  0.1287593E+00
         -1   -1    0    0    0  501 -0.00000000000E+00  0.00000000000E+00  0.71102109142E+02  0.71102109142E+02  0.00000000000E+00 0.  1.
          1   -1    0    0  501    0  0.00000000000E+00 -0.00000000000E+00 -0.37082372395E+03  0.37082372395E+03  0.00000000000E+00 0. -1.
         25    2    1    2    0    0 -0.42825207597E+02 -0.66087029900E+02 -0.35898159702E+02  0.15211151752E+03  0.12509093479E+03 0.  0.
          5    1    3    3  502    0 -0.23547262244E+02 -0.49138947883E+02  0.42680362608E+02  0.69341153081E+02  0.41800000000E+01 0.  1.
         -5    1    3    3    0  502 -0.19277945353E+02 -0.16948082017E+02 -0.78578522309E+02  0.82770364439E+02  0.41800000000E+01 0.  1.
        -11    1    1    2    0    0 -0.95445802227E+00  0.68697028515E+02 -0.20655592465E+03  0.21768220581E+03  0.00000000000E+00 0.  1.
         11    1    1    2    0    0  0.43779665619E+02 -0.26099986151E+01 -0.57267530455E+02  0.72132109763E+02  0.00000000000E+00 0. -1.
</event>
<event>
 7    1  0.2900135E-009  0.1134423E+03  0.7561462E-02  0.1254325E+00
         -1   -1    0    0    0  501 -0.00000000000E+00  0.00000000000E+00  0.58957189317E+03  0.58957189317E+03  0.00000000000E+00 0.  1.
          1   -1    0    0  501    0  0.00000000000E+00 -0.00000000000E+00 -0.30367157721E+02  0.30367157721E+02  0.00000000000E+00 0. -1.
         25    2    1    2    0    0 -0.72020355851E+02  0.31553857655E+02  0.32407086681E+03  0.35616205855E+03  0.12508759991E+03 0.  0.
          5    1    3    3  502    0 -0.87872726788E+02  0.11203342679E+02  0.11380329547E+03  0.14427679460E+03  0.41800000000E+01 0. -1.
         -5    1    3    3    0  502  0.15852370938E+02  0.20350514977E+02  0.21026757134E+03  0.21188526395E+03  0.41800000000E+01 0. -1.
        -11    1    1    2    0    0  0.87604996471E+02 -0.37626225306E+02  0.15547446540E+03  0.18238058457E+03  0.00000000000E+00 0.  1.
         11    1    1    2    0    0 -0.15584640620E+02  0.60723676504E+01  0.79659403245E+02  0.81396407768E+02  0.00000000000E+00 0. -1.
</event>
<event>
 7    1  0.2900135E-009  0.9956983E+02  0.7561462E-02  0.1281203E+00
         -2   -1    0    0    0  501 -0.00000000000E+00  0.00000000000E+00  0.28718055098E+02  0.28718055098E+02  0.00000000000E+00 0.  1.
          2   -1    0    0  501    0  0.00000000000E+00 -0.00000000000E+00 -0.46759805970E+03  0.46759805970E+03  0.00000000000E+00 0. -1.
         25    2    1    2    0    0 -0.40633887656E+02  0.28755160803E+01 -0.23750314804E+03  0.27150459685E+03  0.12509044473E+03 0.  0.
          5    1    3    3  502    0 -0.82482205503E+02 -0.77191284027E+01 -0.11688823441E+03  0.14332910002E+03  0.41800000000E+01 0.  1.
         -5    1    3    3    0  502  0.41848317847E+02  0.10594644483E+02 -0.12061491362E+03  0.12817549683E+03  0.41800000000E+01 0.  1.
        -11    1    1    2    0    0 -0.11415835264E+02  0.14036645927E+02 -0.21686338441E+01  0.18222285708E+02  0.00000000000E+00 0.  1.
         11    1    1    2    0    0  0.52049722921E+02 -0.16912162008E+02 -0.19920822272E+03  0.20658923225E+03  0.00000000000E+00 0. -1.
</event>
<event>
 7    1  0.2900135E-009  0.7507189E+02  0.7561462E-02  0.1343649E+00
         -4   -1    0    0    0  501 -0.00000000000E+00  0.00000000000E+00  0.12859445202E+03  0.12859445202E+03  0.00000000000E+00 0. -1.
          4   -1    0    0  501    0  0.00000000000E+00 -0.00000000000E+00 -0.12328435115E+03  0.12328435115E+03  0.00000000000E+00 0.  1.
         25    2    1    2    0    0  0.43754731004E+02  0.13225783165E+02  0.47180540082E+02  0.14129413110E+03  0.12509448547E+03 0.  0.
          5    1    3    3  502    0  0.38701157636E+02  0.24067259578E+02 -0.35330204888E+02  0.57816160054E+02  0.41800000000E+01 0. -1.
         -5    1    3    3    0  502  0.50535733684E+01 -0.10841476413E+02  0.82510744969E+02  0.83477971046E+02  0.41800000000E+01 0. -1.
        -11    1    1    2    0    0  0.12008919896E+02 -0.30947278562E+02 -0.40084846254E+02  0.52045586813E+02  0.00000000000E+00 0. -1.
         11    1    1    2    0    0 -0.55763650900E+02  0.17721495396E+02 -0.17855929616E+01  0.58539085260E+02  0.00000000000E+00 0.  1.
</event>
<event>
 7    1  0.2900135E-009  0.1784345E+03  0.7561462E-02  0.1169327E+00
         -2   -1    0    0    0  501 -0.00000000000E+00  0.00000000000E+00  0.10523055948E+03  0.10523055948E+03  0.00000000000E+00 0.  1.
          2   -1    0    0  501    0  0.00000000000E+00 -0.00000000000E+00 -0.37472949687E+03  0.37472949687E+03  0.00000000000E+00 0. -1.
         25    2    1    2    0    0  0.52718989944E+02 -0.13902291347E+03 -0.23058719713E+03  0.30153626713E+03  0.12508797922E+03 0.  0.
          5    1    3    3  502    0  0.58719981156E+02 -0.82583335566E+01 -0.45796309713E+02  0.75040060258E+02  0.41800000000E+01 0. -1.
         -5    1    3    3    0  502 -0.60009912121E+01 -0.13076457991E+03 -0.18479088742E+03  0.22649620687E+03  0.41800000000E+01 0. -1.
        -11    1    1    2    0    0  0.19383581741E+02  0.27128117182E+02  0.12667020877E+02  0.35666670728E+02  0.00000000000E+00 0.  1.
         11    1    1    2    0    0 -0.72102571685E+02  0.11189479628E+03 -0.51578761139E+02  0.14275711849E+03  0.00000000000E+00 0. -1.
</event>
<event>
 7    1  0.2900135E-009  0.1503209E+03  0.7561462E-02  0.1200079E+00
         -2   -1    0    0    0  501 -0.00000000000E+00  0.00000000000E+00  0.41137533372E+02  0.41137533372E+02  0.00000000000E+00 0.  1.
          2   -1    0    0  501    0  0.00000000000E+00 -0.00000000000E+00 -0.67395305600E+03  0.67395305600E+03  0.00000000000E+00 0. -1.
         25    2    1    2    0    0 -0.43457152806E+02 -0.11506174391E+03 -0.28403327492E+03  0.33383933847E+03  0.12508426603E+03 0.  0.
          5    1    3    3  502    0  0.13313949585E+02 -0.92648513072E+02 -0.88216220226E+02  0.12868792538E+03  0.41800000000E+01 0. -1.
         -5    1    3    3    0  502 -0.56771102391E+02 -0.22413230833E+02 -0.19581705470E+03  0.20515141309E+03  0.41800000000E+01 0. -1.
        -11    1    1    2    0    0  0.43182521685E+02  0.15008595435E+02 -0.17351232449E+03  0.17943387324E+03  0.00000000000E+00 0. -1.
         11    1    1    2    0    0  0.27463112117E+00  0.10005314847E+03 -0.17526992321E+03  0.20181737766E+03  0.00000000000E+00 0.  1.
</event>
<event>
 7    1  0.2900135E-009  0.1716466E+03  0.7561462E-02  0.1176142E+00
         -1   -1    0    0    0  501 -0.00000000000E+00  0.00000000000E+00  0.84351808362E+02  0.84351808362E+02  0.00000000000E+00 0.  1.
          1   -1    0    0  501    0  0.00000000000E+00 -0.00000000000E+00 -0.39010085631E+03  0.39010085631E+03  0.00000000000E+00 0. -1.
         25    2    1    2    0    0  0.14022099112E+03  0.34738936121E+02 -0.17734244875E+03  0.26070871573E+03  0.12509984132E+03 0.  0.
          5    1    3    3  502    0 -0.11555152329E+02 -0.24442751779E+02 -0.34303565472E+02  0.43876835163E+02  0.41800000000E+01 0. -1.
         -5    1    3    3    0  502  0.15177614345E+03  0.59181687900E+02 -0.14303888328E+03  0.21683188057E+03  0.41800000000E+01 0. -1.
        -11    1    1    2    0    0 -0.11407378182E+03 -0.47876638843E+02 -0.56291530733E+02  0.13591812491E+03  0.00000000000E+00 0.  1.
         11    1    1    2    0    0 -0.26147209296E+02  0.13137702722E+02 -0.72115068467E+02  0.77825824035E+02  0.00000000000E+00 0. -1.
</event>
<event>
 7    1  0.2900135E-009  0.1299728E+03  0.7561462E-02  0.1227496E+00
          2   -1    0    0  501    0  0.00000000000E+00  0.00000000000E+00  0.54893962318E+02  0.54893962318E+02  0.00000000000E+00 0. -1.
         -2   -1    0    0    0  501 -0.00000000000E+00 -0.00000000000E+00 -0.47167836592E+03  0.47167836592E+03  0.00000000000E+00 0.  1.
         25    2    1    2    0    0 -0.10321348039E+03 -0.35060824344E+02 -0.14575672228E+03  0.22085038193E+03  0.12509030806E+03 0.  0.
          5    1    3    3  502    0 -0.41248477791E+02 -0.65826157527E+02 -0.12719570616E+03  0.14909976526E+03  0.41800000000E+01 0. -1.
         -5    1    3    3    0  502 -0.61965002599E+02  0.30765333183E+02 -0.18561016122E+02  0.71750616670E+02  0.41800000000E+01 0. -1.
        -11    1    1    2    0    0  0.71694434471E+02  0.96191457514E+01 -0.70024239184E+02  0.10067777298E+03  0.00000000000E+00 0. -1.
         11    1    1    2    0    0  0.31519045920E+02  0.25441678592E+02 -0.20100344214E+03  0.20504417333E+03  0.00000000000E+00 0.  1.
</event>
<event>
 7    1  0.2900135E-009  0.9736232E+02  0.7561462E-02  0.1285942E+00
         -1   -1    0    0    0  501 -0.00000000000E+00  0.00000000000E+00  0.35610811161E+02  0.35610811161E+02  0.00000000000E+00 0.  1.
          1   -1    0    0  501    0  0.00000000000E+00 -0.00000000000E+00 -0.36725847553E+03  0.36725847553E+03  0.00000000000E+00 0. -1.
         25    2    1    2    0    0  0.10673297188E+02  0.47838124547E+01 -0.25551743771E+03  0.28473426951E+03  0.12509052371E+03 0.  0.
          5    1    3    3  502    0  0.17079247482E+02 -0.49931363494E+02 -0.19811016396E+03  0.20506084761E+03  0.41800000000E+01 0.  1.
         -5    1    3    3    0  502 -0.64059502939E+01  0.54715175949E+02 -0.57407273749E+02  0.79673421902E+02  0.41800000000E+01 0.  1.
        -11    1    1    2    0    0 -0.21079502138E+02  0.37487228014E+02 -0.54788272163E+02  0.69651937814E+02  0.00000000000E+00 0. -1.
         11    1    1    2    0    0  0.10406204950E+02 -0.42271040469E+02 -0.21341954495E+02  0.48483079373E+02  0.00000000000E+00 0.  1.
</event>
<event>
 7    1  0.2900135E-009  0.9370724E+02  0.7561462E-02  0.1294115E+00
          1   -1    0    0  501    0  0.00000000000E+00  0.00000000000E+00  0.15941228662E+03  0.15941228662E+03  0.00000000000E+00 0. -1.
         -1   -1    0    0    0  501 -0.00000000000E+00 -0.00000000000E+00 -0.12062238394E+03  0.12062238394E+03  0.00000000000E+00 0.  1.
         25    2    1    2    0    0  0.33896815323E+02  0.50469112095E+02  0.82775123845E+02  0.16184485378E+03  0.12508361285E+03 0.  0.
          5    1    3    3  502    0  0.48008630970E+02 -0.86031845793E+01  0.88045574904E+02  0.10073896512E+03  0.41800000000E+01 0.  1.
         -5    1    3    3    0  502 -0.14111815647E+02  0.59072296674E+02 -0.52704510596E+01  0.61105888665E+02  0.41800000000E+01 0.  1.
        -11    1    1    2    0    0 -0.43920861231E+02 -0.25756743697E+02  0.15314590676E+02  0.53169432804E+02  0.00000000000E+00 0. -1.
         11    1    1    2    0    0  0.10024045908E+02 -0.24712368398E+02 -0.59299811843E+02  0.65020383979E+02  0.00000000000E+00 0.  1.
</event>
<event>
 7    1  0.2900135E-009  0.1477399E+03  0.7561462E-02  0.1203278E+00
         -3   -1    0    0    0  501 -0.00000000000E+00  0.00000000000E+00  0.66800121424E+02  0.66800121424E+02  0.00000000000E+00 0.  1.
          3   -1    0    0  501    0  0.00000000000E+00 -0.00000000000E+00 -0.41815768134E+03  0.41815768134E+03  0.00000000000E+00 0. -1.
         25    2    1    2    0    0  0.10547540761E+03 -0.16567121102E+02 -0.88658125922E+02  0.18683341919E+03  0.12508769772E+03 0.  0.
          5    1    3    3  502    0  0.43038206220E+02  0.48437961719E+02 -0.68490407424E+02  0.94376541784E+02  0.41800000000E+01 0. -1.
         -5    1    3    3    0  502  0.62437201391E+02 -0.65005082821E+02 -0.20167718498E+02  0.92456877405E+02  0.41800000000E+01 0. -1.
        -11    1    1    2    0    0 -0.89148307188E+01 -0.31299954107E+02 -0.49632964226E+02  0.59351431926E+02  0.00000000000E+00 0.  1.
         11    1    1    2    0    0 -0.96560576892E+02  0.47867075209E+02 -0.21306646977E+03  0.23877295164E+03  0.00000000000E+00 0. -1.
</event>
<event>
 7    1  0.2979344E-009  0.9288978E+02  0.7561462E-02  0.1296001E+00
         -2   -1    0    0    0  501 -0.00000000000E+00  0.00000000000E+00  0.10339652357E+03  0.10339652357E+03  0.00000000000E+00 0.  1.
          2   -1    0    0  501    0  0.00000000000E+00 -0.00000000000E+00 -0.14517861829E+03  0.14517861829E+03  0.00000000000E+00 0. -1.
         25    2    1    2    0    0 -0.92966779240E+01  0.11977828919E+02 -0.78564204827E+02  0.14849165957E+03  0.12509013580E+03 0.  0.
          5    1    3    3  502    0 -0.14882573829E+02 -0.39421596566E+02  0.12099075755E+02  0.44038770575E+02  0.41800000000E+01 0. -1.
         -5    1    3    3    0  502  0.55858959048E+01  0.51399425486E+02 -0.90663280582E+02  0.10445288899E+03  0.41800000000E+01 0. -1.
        -11    1    1    2    0    0  0.18438154346E+01  0.39503584385E+02  0.24877100890E+02  0.46720477131E+02  0.00000000000E+00 0. -1.
         11    1    1    2    0    0  0.74528624894E+01 -0.51481413305E+02  0.11905009219E+02  0.53363005159E+02  0.00000000000E+00 0.  1.
</event>
<event>
 7    1  0.2900135E-009  0.1035076E+03  0.7561462E-02  0.1273088E+00
          3   -1    0    0  501    0  0.00000000000E+00  0.00000000000E+00  0.13014532053E+03  0.13014532053E+03  0.00000000000E+00 0. -1.
         -3   -1    0    0    0  501 -0.00000000000E+00 -0.00000000000E+00 -0.15652604968E+03  0.15652604968E+03  0.00000000000E+00 0.  1.
         25    2    1    2    0    0  0.85833928914E+02 -0.52577932679E+01 -0.47567267353E+02  0.15908017109E+03  0.12509495660E+03 0.  0.
          5    1    3    3  502    0  0.32766812397E+02  0.41317438939E+01 -0.86355490703E+02  0.92549870215E+02  0.41800000000E+01 0.  1.
         -5    1    3    3    0  502  0.53067116517E+02 -0.93895371619E+01  0.38788223350E+02  0.66530300873E+02  0.41800000000E+01 0.  1.
        -11    1    1    2    0    0 -0.82683598063E+02  0.34983677604E+02  0.32712269994E+02  0.95553794773E+02  0.00000000000E+00 0. -1.
         11    1    1    2    0    0 -0.31503308507E+01 -0.29725884336E+02 -0.11525731789E+02  0.32037404347E+02  0.00000000000E+00 0.  1.
</event>
<event>
 7    1  0.2900135E-009  0.1294442E+03  0.7561462E-02  0.1228283E+00
          2   -1    0    0  501    0  0.00000000000E+00  0.00000000000E+00  0.15004678613E+04  0.15004678613E+04  0.00000000000E+00 0. -1.
         -2   -1    0    0    0  501 -0.00000000000E+00 -0.00000000000E+00 -0.18055403334E+02  0.18055403334E+02  0.00000000000E+00 0.  1.
         25    2    1    2    0    0 -0.69434130318E+02  0.24926020533E+02  0.12477857918E+04  0.12562082993E+04  0.12508998323E+03 0.  0.
          5    1    3    3  502    0  0.23376353296E+02  0.40973243977E+02  0.55856213131E+03  0.56056613129E+03  0.41800000000E+01 0.  1.
         -5    1    3    3    0  502 -0.92810483614E+02 -0.16047223445E+02  0.68922366053E+03  0.69564216799E+03  0.41800000000E+01 0.  1.
        -11    1    1    2    0    0  0.76217399704E+02  0.14210323240E+02  0.15148337418E+03  0.17017120190E+03  0.00000000000E+00 0. -1.
         11    1    1    2    0    0 -0.67832693861E+01 -0.39136343772E+02  0.83143291936E+02  0.92143763443E+02  0.00000000000E+00 0.  1.
</event>
<event>
 7    1  0.2900135E-009  0.2017547E+03  0.7561462E-02  0.1148267E+00
         -1   -1    0    0    0  501 -0.00000000000E+00  0.00000000000E+00  0.15810274999E+04  0.15810274999E+04  0.00000000000E+00 0.  1.
          1   -1    0    0  501    0  0.00000000000E+00 -0.00000000000E+00 -0.31650720229E+02  0.31650720229E+02  0.00000000000E+00 0. -1.
         25    2    1    2    0    0  0.10773624331E+03 -0.15574980780E+03  0.97467572647E+03  0.10007521909E+04  0.12508826942E+03 0.  0.
          5    1    3    3  502    0  0.65441916556E+02 -0.50196958772E+02  0.67787649073E+03  0.68288826919E+03  0.41800000000E+01 0.  1.
         -5    1    3    3    0  502  0.42294326749E+02 -0.10555284903E+03  0.29679923573E+03  0.31786392174E+03  0.41800000000E+01 0.  1.
        -11    1    1    2    0    0 -0.54942919092E+02  0.15208277095E+02  0.11544236477E+03  0.12875152672E+03  0.00000000000E+00 0.  1.
         11    1    1    2    0    0 -0.52793324213E+02  0.14054153070E+03  0.45925868845E+03  0.48317450248E+03  0.00000000000E+00 0. -1.
</event>
<event>
 7    1  0.2900135E-009  0.1081225E+03  0.7561462E-02  0.1264087E+00
          2   -1    0    0  501    0  0.00000000000E+00  0.00000000000E+00  0.10356171381E+04  0.10356171381E+04  0.00000000000E+00 0. -1.
         -2   -1    0    0    0  501 -0.00000000000E+00 -0.00000000000E+00 -0.12238276937E+02  0.12238276937E+02  0.00000000000E+00 0.  1.
         25    2    1    2    0    0 -0.97054929554E+01 -0.23401088018E+02  0.69995721561E+03  0.71149275506E+03  0.12506010276E+03 0.  0.
          5    1    3    3  502    0 -0.52439676057E+02  0.25759949967E+02  0.41767947672E+03  0.42176665625E+03  0.41800000000E+01 0.  1.
         -5    1    3    3    0  502  0.42734183102E+02 -0.49161037985E+02  0.28227773889E+03  0.28972609881E+03  0.41800000000E+01 0.  1.
        -11    1    1    2    0    0 -0.37653144483E+02 -0.36982515166E+01  0.13078107540E+03  0.13614376973E+03  0.00000000000E+00 0.  1.
         11    1    1    2    0    0  0.47358637439E+02  0.27099339535E+02  0.19264057020E+03  0.20021889029E+03  0.00000000000E+00 0. -1.
</event>
<event>
 7    1  0.2900135E-009  0.1104503E+03  0.7561462E-02  0.1259738E+00
         -1   -1    0    0    0  501 -0.00000000000E+00  0.00000000000E+00  0.12543191212E+03  0.12543191212E+03  0.00000000000E+00 0.  1.
          1   -1    0    0  501    0  0.00000000000E+00 -0.00000000000E+00 -0.20706593423E+03  0.20706593423E+03  0.00000000000E+00 0. -1.
         25    2    1    2    0    0 -0.25555450038E+02  0.73725465549E+02 -0.13615167665E+03  0.20067745326E+03  0.12508251634E+03 0.  0.
          5    1    3    3  502    0  0.45417222806E+02  0.12930018078E+02 -0.75635641277E+02  0.89264394505E+02  0.41800000000E+01 0.  1.
         -5    1    3    3    0  502 -0.70972672843E+02  0.60795447471E+02 -0.60516035372E+02  0.11141305875E+03  0.41800000000E+01 0.  1.
        -11    1    1    2    0    0  0.23173355090E+02 -0.40676270150E+02  0.78165700913E+02  0.91112239236E+02  0.00000000000E+00 0.  1.
         11    1    1    2    0    0  0.23820949484E+01 -0.33049195399E+02 -0.23648046376E+02  0.40708153855E+02  0.00000000000E+00 0. -1.
</event>
<event>
 7    1  0.2900135E-009  0.8531231E+02  0.7561462E-02  0.1314618E+00
         -2   -1    0    0    0  501 -0.00000000000E+00  0.00000000000E+00  0.24814592620E+03  0.24814592620E+03  0.00000000000E+00 0.  1.
          2   -1    0    0  501    0  0.00000000000E+00 -0.00000000000E+00 -0.50384323251E+02  0.50384323251E+02  0.00000000000E+00 0. -1.
         25    2    1    2    0    0  0.92152425810E+00 -0.11537591129E+02  0.14442259915E+03  0.19141459139E+03  0.12509074081E+03 0.  0.
          5    1    3    3  502    0  0.59830886540E+02  0.28831218011E+00  0.44269023173E+02  0.74545535887E+02  0.41800000000E+01 0.  1.
         -5    1    3    3    0  502 -0.58909362282E+02 -0.11825903310E+02  0.10015357598E+03  0.11686905551E+03  0.41800000000E+01 0.  1.
        -11    1    1    2    0    0 -0.92492661949E+00  0.30970552946E+02  0.73103001584E+02  0.79398233479E+02  0.00000000000E+00 0.  1.
         11    1    1    2    0    0  0.34023613863E-02 -0.19432961817E+02 -0.19763997788E+02  0.27717424576E+02  0.00000000000E+00 0. -1.
</event>
<event>
 7    1  0.2900135E-009  0.1021681E+03  0.7561462E-02  0.1275802E+00
         -2   -1    0    0    0  501 -0.00000000000E+00  0.00000000000E+00  0.50414759240E+02  0.50414759240E+02  0.00000000000E+00 0.  1.
          2   -1    0    0  501    0  0.00000000000E+00 -0.00000000000E+00 -0.26421843812E+03  0.26421843812E+03  0.00000000000E+00 0. -1.
         25    2    1    2    0    0  0.31245023440E+02  0.10853957596E+02 -0.91295007808E+02  0.15835117566E+03  0.12508499709E+03 0.  0.
          5    1    3    3  502    0 -0.35483702365E+02 -0.13393287223E+02  0.51671606448E+01  0.38505132454E+02  0.41800000000E+01 0. -1.
         -5    1    3    3    0  502  0.66728725805E+02  0.24247244820E+02 -0.96462168453E+02  0.11984604320E+03  0.41800000000E+01 0. -1.
        -11    1    1    2    0    0  0.11063312234E+02  0.32590514708E+02 -0.60140927111E+02  0.69292637706E+02  0.00000000000E+00 0.  1.
         11    1    1    2    0    0 -0.42308335674E+02 -0.43444472304E+02 -0.62367743958E+02  0.86989383994E+02  0.00000000000E+00 0. -1.
</event>
<event>
 7    1  0.2900135E-009  0.1254734E+03  0.7561462E-02  0.1234331E+00
          1   -1    0    0  501    0  0.00000000000E+00  0.00000000000E+00  0.45082617438E+03  0.45082617438E+03  0.00000000000E+00 0. -1.
         -1   -1    0    0    0  501 -0.00000000000E+00 -0.00000000000E+00 -0.47837890189E+02  0.47837890189E+02  0.00000000000E+00 0.  1.
         25    2    1    2    0    0  0.62797940960E+02  0.13214154059E+02  0.92672224519E+02  0.16838516079E+03  0.12508887208E+03 0.  0.
          5    1    3    3  502    0  0.37627900610E+02 -0.54694054841E+02  0.56737164192E+02  0.87429267066E+02  0.41800000000E+01 0. -1.
         -5    1    3    3    0  502  0.25170040350E+02  0.67908208899E+02  0.35935060327E+02  0.80955893719E+02  0.41800000000E+01 0. -1.
        -11    1    1    2    0    0  0.10508912133E+02  0.26502573814E+02  0.59700050344E+02  0.66158292481E+02  0.00000000000E+00 0.  1.
         11    1    1    2    0    0 -0.73306853092E+02 -0.39716727873E+02  0.25061600933E+03  0.26412061130E+03  0.00000000000E+00 0. -1.
</event>
<event>
 7    1  0.2900135E-009  0.1084631E+03  0.7561462E-02  0.1263443E+00
         -1   -1    0    0    0  501 -0.00000000000E+00  0.00000000000E+00  0.39543508524E+02  0.39543508524E+02  0.00000000000E+00 0.  1.
          1   -1    0    0  501    0  0.00000000000E+00 -0.00000000000E+00 -0.50233440349E+03  0.50233440349E+03  0.00000000000E+00 0. -1.
         25    2    1    2    0    0  0.16038316465E+02 -0.81673622599E+02 -0.18820098806E+03  0.24081421571E+03  0.12507624218E+03 0.  0.
          5    1    3    3  502    0 -0.15718596619E+02 -0.12140448899E+02  0.13966340752E+02  0.24637285832E+02  0.41800000000E+01 0. -1.
         -5    1    3    3    0  502  0.31756913084E+02 -0.69533173700E+02 -0.20216732881E+03  0.21617692988E+03  0.41800000000E+01 0. -1.
        -11    1    1    2    0    0  0.27265492806E+02  0.70150923453E+02 -0.20411679502E+03  0.21755051176E+03  0.00000000000E+00 0.  1.
         11    1    1    2    0    0 -0.43303809271E+02  0.11522699146E+02 -0.70473111891E+02  0.83513184544E+02  0.00000000000E+00 0. -1.
</event>
<event>
 7    1  0.2900135E-009  0.1216015E+03  0.7561462E-02  0.1240478E+00
         -2   -1    0    0    0  501 -0.00000000000E+00  0.00000000000E+00  0.40848485945E+02  0.40848485945E+02  0.00000000000E+00 0. -1.
          2   -1    0    0  501    0  0.00000000000E+00 -0.00000000000E+00 -0.49104594299E+03  0.49104594299E+03  0.00000000000E+00 0.  1.
         25    2    1    2    0    0 -0.47690189733E+02  0.62378999284E+02 -0.15488905965E+03  0.21401857610E+03  0.12509131211E+03 0.  0.
          5    1    3    3  502    0 -0.44549271823E+02 -0.19276394133E+02 -0.11087919582E+03  0.12111104597E+03  0.41800000000E+01 0.  1.
         -5    1    3    3    0  502 -0.31409179100E+01  0.81655393417E+02 -0.44009863835E+02  0.92907530126E+02  0.41800000000E+01 0.  1.
        -11    1    1    2    0    0  0.81109076518E+01 -0.71569358447E+02 -0.14131900771E+03  0.15861595706E+03  0.00000000000E+00 0. -1.
         11    1    1    2    0    0  0.39579282081E+02  0.91903591631E+01 -0.15398938968E+03  0.15925989578E+03  0.00000000000E+00 0.  1.
</event>
<event>
 7    1  0.2980544E-009  0.1010974E+03  0.7561462E-02  0.1278005E+00
          1   -1    0    0  501    0  0.00000000000E+00  0.00000000000E+00  0.56416683189E+03  0.56416683189E+03  0.00000000000E+00 0. -1.
         -1   -1    0    0    0  501 -0.00000000000E+00 -0.00000000000E+00 -0.36052510485E+02  0.36052510485E+02  0.00000000000E+00 0.  1.
         25    2    1    2    0    0  0.63100601102E+02  0.36273275660E+02  0.40605557109E+03  0.43107520412E+03  0.12508904191E+03 0.  0.
          5    1    3    3  502    0  0.37104426569E+02  0.69877619694E+02  0.13383782875E+03  0.15553024467E+03  0.41800000000E+01 0.  1.
         -5    1    3    3    0  502  0.25996174532E+02 -0.33604344034E+02  0.27221774234E+03  0.27554495944E+03  0.41800000000E+01 0.  1.
        -11    1    1    2    0    0 -0.30059322019E+02 -0.36434670601E+02  0.49841278285E+01  0.47496206083E+02  0.00000000000E+00 0.  1.
         11    1    1    2    0    0 -0.33041279083E+02  0.16139494103E+00  0.11707462249E+03  0.12164793218E+03  0.00000000000E+00 0. -1.
</event>
<event>
 7    1  0.2900135E-009  0.7173261E+02  0.7561462E-02  0.1354298E+00
         -2   -1    0    0    0  501 -0.00000000000E+00  0.00000000000E+00  0.34929676944E+02  0.34929676944E+02  0.00000000000E+00 0.  1.
          2   -1    0    0  501    0  0.00000000000E+00 -0.00000000000E+00 -0.42631108244E+03  0.42631108244E+03  0.00000000000E+00 0. -1.
         25    2    1    2    0    0 -0.31096177548E+02 -0.23469265762E+02 -0.29793840203E+03  0.32547231756E+03  0.12508860620E+03 0.  0.
          5    1    3    3  502    0 -0.13112146019E+02 -0.23276935349E+02 -0.78974225097E-01  0.27041130328E+02  0.41800000000E+01 0.  1.
         -5    1    3    3    0  502 -0.17984031528E+02 -0.19233041310E+00 -0.29785942781E+03  0.29843118724E+03  0.41800000000E+01 0.  1.
        -11    1    1    2    0    0 -0.12484622557E+02  0.46862764565E+02 -0.53339943722E+02  0.72091151325E+02  0.00000000000E+00 0.  1.
         11    1    1    2    0    0  0.43580800105E+02 -0.23393498803E+02 -0.40103059739E+02  0.63677290492E+02  0.00000000000E+00 0. -1.
</event>
<event>
 7    1  0.2900135E-009  0.1046184E+03  0.7561462E-02  0.1270873E+00
         -1   -1    0    0    0  501 -0.00000000000E+00  0.00000000000E+00  0.94296320359E+02  0.94296320359E+02  0.00000000000E+00 0.  1.
          1   -1    0    0  501    0  0.00000000000E+00 -0.00000000000E+00 -0.18106928973E+03  0.18106928973E+03  0.00000000000E+00 0. -1.
         25    2    1    2    0    0  0.50917017958E+02  0.28893345392E+02 -0.36533946779E+01  0.13816764707E+03  0.12509829447E+03 0.  0.
          5    1    3    3  502    0  0.68807953240E+02 -0.24264433044E+02  0.22042574595E+02  0.76332461212E+02  0.41800000000E+01 0.  1.
         -5    1    3    3    0  502 -0.17890935281E+02  0.53157778437E+02 -0.25695969273E+02  0.61835185861E+02  0.41800000000E+01 0.  1.
        -11    1    1    2    0    0 -0.51721333298E+02 -0.71811030678E+00 -0.24929566019E+01  0.51786357597E+02  0.00000000000E+00 0.  1.
         11    1    1    2    0    0  0.80431534020E+00 -0.28175235085E+02 -0.80626618091E+02  0.85411605418E+02  0.00000000000E+00 0. -1.
</event>
<event>
 7    1  0.2900135E-009  0.8932405E+02  0.7561462E-02  0.1304497E+00
         -4   -1    0    0    0  501 -0.00000000000E+00  0.00000000000E+00  0.10299941382E+04  0.10299941382E+04  0.00000000000E+00 0. -1.
          4   -1    0    0  501    0  0.00000000000E+00 -0.00000000000E+00 -0.13226350034E+02  0.13226350034E+02  0.00000000000E+00 0.  1.
         25    2    1    2    0    0 -0.20282386050E+02  0.26531911729E+01  0.72392176031E+03  0.73493452651E+03  0.12509048166E+03 0.  0.
          5    1    3    3  502    0  0.36887038783E+02 -0.69012786770E+01  0.80742904796E+02  0.89135685068E+02  0.41800000000E+01 0.  1.
         -5    1    3    3    0  502 -0.57169424833E+02  0.95544698499E+01  0.64317885551E+03  0.64579884144E+03  0.41800000000E+01 0.  1.
        -11    1    1    2    0    0  0.25742039097E+01  0.38180927991E+02  0.21697177261E+03  0.22032058437E+03  0.00000000000E+00 0. -1.
         11    1    1    2    0    0  0.17708182140E+02 -0.40834119164E+02  0.75874255211E+02  0.87965377316E+02  0.00000000000E+00 0.  1.
</event>
<event>
 7    1  0.2900135E-009  0.1511766E+03  0.7561462E-02  0.1199035E+00
          2   -1    0    0  501    0  0.00000000000E+00  0.00000000000E+00  0.18719666881E+03  0.18719666881E+03  0.00000000000E+00 0.  1.
         -2   -1    0    0    0  501 -0.00000000000E+00 -0.00000000000E+00 -0.14273291766E+03  0.14273291766E+03  0.00000000000E+00 0. -1.
         25    2    1    2    0    0  0.95595987686E+02  0.55337282708E+02  0.78331232624E+02  0.18434907280E+03  0.12509192987E+03 0.  0.
          5    1    3    3  502    0  0.10148006717E+03 -0.66065082353E+01  0.64417056814E+02  0.12045281065E+03  0.41800000000E+01 0.  1.
         -5    1    3    3    0  502 -0.58840794890E+01  0.61943790944E+02  0.13914175809E+02  0.63896262147E+02  0.41800000000E+01 0.  1.
        -11    1    1    2    0    0 -0.96261180117E+02 -0.72827671000E+02 -0.39800851727E+02  0.12709914342E+03  0.00000000000E+00 0. -1.
         11    1    1    2    0    0  0.66519243098E+00  0.17490388292E+02  0.59333702489E+01  0.18481370244E+02  0.00000000000E+00 0.  1.
</event>
<event>
 7    1  0.2900135E-009  0.2278086E+03  0.7561462E-02  0.1128192E+00
         -2   -1    0    0    0  501 -0.00000000000E+00  0.00000000000E+00  0.73798892144E+02  0.73798892144E+02  0.00000000000E+00 0. -1.
          2   -1    0    0  501    0  0.00000000000E+00 -0.00000000000E+00 -0.94628001125E+03  0.94628001125E+03  0.00000000000E+00 0.  1.
         25    2    1    2    0    0 -0.16121660996E+02 -0.21827874158E+03 -0.25465990452E+03  0.35833593251E+03  0.12508979406E+03 0.  0.
          5    1    3    3  502    0 -0.17881246479E+01 -0.19321116615E+03 -0.26446436161E+03  0.32755552671E+03  0.41800000000E+01 0. -1.
         -5    1    3    3    0  502 -0.14333536348E+02 -0.25067575428E+02  0.98044570952E+01  0.30780405797E+02  0.41800000000E+01 0. -1.
        -11    1    1    2    0    0 -0.32927976245E+02  0.90753913044E+02 -0.19868455285E+03  0.22089833837E+03  0.00000000000E+00 0. -1.
         11    1    1    2    0    0  0.49049637241E+02  0.12752482854E+03 -0.41913666174E+03  0.44084463252E+03  0.00000000000E+00 0.  1.
</event>
<event>
 7    1  0.2900135E-009  0.8715476E+02  0.7561462E-02  0.1309892E+00
         -1   -1    0    0    0  501 -0.00000000000E+00  0.00000000000E+00  0.16776488252E+03  0.16776488252E+03  0.00000000000E+00 0.  1.
          1   -1    0    0  501    0  0.00000000000E+00 -0.00000000000E+00 -0.70728433741E+02  0.70728433741E+02  0.00000000000E+00 0. -1.
         25    2    1    2    0    0  0.53953680880E+00 -0.14362704257E+01  0.71454432324E+02  0.14405978835E+03  0.12508050507E+03 0.  0.
          5    1    3    3  502    0  0.45146510945E+02  0.60696267426E+01  0.85110625010E+02  0.96624731352E+02  0.41800000000E+01 0. -1.
         -5    1    3    3    0  502 -0.44606974136E+02 -0.75058971684E+01 -0.13656192687E+02  0.47435057000E+02  0.41800000000E+01 0. -1.
        -11    1    1    2    0    0  0.13410908307E+02  0.39968704407E+02 -0.61490915350E+01  0.42604707725E+02  0.00000000000E+00 0. -1.
         11    1    1    2    0    0 -0.13950445116E+02 -0.38532433981E+02  0.31731107991E+02  0.51828820185E+02  0.00000000000E+00 0.  1.
</event>
<event>
 7    1  0.2900135E-009  0.9954324E+02  0.7561462E-02  0.1281259E+00
         -1   -1    0    0    0  501 -0.00000000000E+00  0.00000000000E+00  0.64800043356E+02  0.64800043356E+02  0.00000000000E+00 0.  1.
          1   -1    0    0  501    0  0.00000000000E+00 -0.00000000000E+00 -0.23890244529E+03  0.23890244529E+03  0.00000000000E+00 0. -1.
         25    2    1    2    0    0 -0.17458453706E+02  0.51348782038E+02 -0.67930592997E+02  0.15232805125E+03  0.12509106567E+03 0.  0.
          5    1    3    3  502    0 -0.22782288319E+02  0.74940555555E+02  0.17430959126E+01  0.78457825049E+02  0.41800000000E+01 0. -1.
         -5    1    3    3    0  502  0.53238346130E+01 -0.23591773518E+02 -0.69673688910E+02  0.73870226201E+02  0.41800000000E+01 0. -1.
        -11    1    1    2    0    0  0.48061830361E+02 -0.19303667394E+02 -0.22041878623E+02  0.56288680263E+02  0.00000000000E+00 0.  1.
         11    1    1    2    0    0 -0.30603376655E+02 -0.32045114644E+02 -0.84129930316E+02  0.95085757136E+02  0.00000000000E+00 0. -1.
</event>
<event>
 7    1  0.2900135E-009  0.2393848E+03  0.7561462E-02  0.1120203E+00
         -1   -1    0    0    0  501 -0.00000000000E+00  0.00000000000E+00  0.97836743205E+02  0.97836743205E+02  0.00000000000E+00 0.  1.
          1   -1    0    0  501    0  0.00000000000E+00 -0.00000000000E+00 -0.76407347685E+03  0.76407347685E+03  0.00000000000E+00 0. -1.
         25    2    1    2    0    0  0.21831851914E+03 -0.68066713772E+02 -0.17973914285E+03  0.31662245169E+03  0.12509022393E+03 0.  0.
          5    1    3    3  502    0  0.13095002622E+03 -0.88615357720E+02 -0.15927944361E+03  0.22447272562E+03  0.41800000000E+01 0. -1.
         -5    1    3    3    0  502  0.87368492915E+02  0.20548643948E+02 -0.20459699241E+02  0.92149726073E+02  0.41800000000E+01 0. -1.
        -11    1    1    2    0    0 -0.12393665101E+03  0.54525082616E+02 -0.18626200208E+03  0.23027551219E+03  0.00000000000E+00 0.  1.
         11    1    1    2    0    0 -0.94381868128E+02  0.13541631156E+02 -0.30023558872E+03  0.31501225617E+03  0.00000000000E+00 0. -1.
</event>
<event>
 7    1  0.2900135E-009  0.1271805E+03  0.7561462E-02  0.1231700E+00
          1   -1    0    0  501    0  0.00000000000E+00  0.00000000000E+00  0.34701381033E+03  0.34701381033E+03  0.00000000000E+00 0. -1.
         -1   -1    0    0    0  501 -0.00000000000E+00 -0.00000000000E+00 -0.68446380998E+02  0.68446380998E+02  0.00000000000E+00 0.  1.
         25    2    1    2    0    0  0.94913772727E+02 -0.49206308853E+02  0.12252970261E+03  0.20512899924E+03  0.12503796712E+03 0.  0.
          5    1    3    3  502    0  0.44800189477E+02 -0.48095337464E+02  0.13765901380E+03  0.15260306335E+03  0.41800000000E+01 0. -1.
         -5    1    3    3    0  502  0.50113583249E+02 -0.11109713889E+01 -0.15129311194E+02  0.52525935886E+02  0.41800000000E+01 0. -1.
        -11    1    1    2    0    0 -0.11144879989E+03  0.48787901957E+02  0.12100720224E+03  0.17159206674E+03  0.00000000000E+00 0.  1.
         11    1    1    2    0    0  0.16535027161E+02  0.41840689574E+00  0.35030524486E+02  0.38739125356E+02  0.00000000000E+00 0. -1.
</event>
<event>
 7    1  0.2900135E-009  0.1101221E+03  0.7561462E-02  0.1260344E+00
         -1   -1    0    0    0  501 -0.00000000000E+00  0.00000000000E+00  0.30343399178E+03  0.30343399178E+03  0.00000000000E+00 0.  1.
          1   -1    0    0  501    0  0.00000000000E+00 -0.00000000000E+00 -0.49568902400E+02  0.49568902400E+02  0.00000000000E+00 0. -1.
         25    2    1    2    0    0 -0.29416237751E+02 -0.45545240572E+02  0.17342214236E+03  0.22059627044E+03  0.12509113113E+03 0.  0.
          5    1    3    3  502    0 -0.16037140577E+02  0.42486097434E+02  0.43420469370E+02  0.62968785230E+02  0.41800000000E+01 0.  1.
         -5    1    3    3    0  502 -0.13379097174E+02 -0.88031338006E+02  0.13000167299E+03  0.15762748521E+03  0.41800000000E+01 0.  1.
        -11    1    1    2    0    0 -0.20467509926E+02  0.22909100409E+02 -0.47864693826E+01  0.31091094115E+02  0.00000000000E+00 0. -1.
         11    1    1    2    0    0  0.49883747677E+02  0.22636140163E+02  0.85229416404E+02  0.10131552963E+03  0.00000000000E+00 0.  1.
</event>
<event>
 7    1  0.2900135E-009  0.1029389E+03  0.7561462E-02  0.1274234E+00
          1   -1    0    0  501    0  0.00000000000E+00  0.00000000000E+00  0.41590741813E+03  0.41590741813E+03  0.00000000000E+00 0. -1.
         -1   -1    0    0    0  501 -0.00000000000E+00 -0.00000000000E+00 -0.39346831236E+02  0.39346831236E+02  0.00000000000E+00 0.  1.
         25    2    1    2    0    0 -0.47628789984E+02  0.60767198493E+01  0.12907341518E+03  0.18604568928E+03  0.12509046261E+03 0.  0.
          5    1    3    3  502    0  0.12181576530E+02  0.38968319129E+02  0.12285272317E+01  0.41059741617E+02  0.41800000000E+01 0. -1.
         -5    1    3    3    0  502 -0.59810366515E+02 -0.32891599279E+02  0.12784488795E+03  0.14498594767E+03  0.41800000000E+01 0. -1.
        -11    1    1    2    0    0  0.77430156618E+01  0.36966432556E+02  0.46917323096E+02  0.60230446071E+02  0.00000000000E+00 0.  1.
         11    1    1    2    0    0  0.39885774322E+02 -0.43043152405E+02  0.20056984861E+03  0.20897811401E+03  0.00000000000E+00 0. -1.
</event>
<event>
 7    1  0.2900135E-009  0.1518126E+03  0.7561462E-02  0.1198263E+00
         -1   -1    0    0    0  501 -0.00000000000E+00  0.00000000000E+00  0.13514814469E+03  0.13514814469E+03  0.00000000000E+00 0. -1.
          1   -1    0    0  501    0  0.00000000000E+00 -0.00000000000E+00 -0.26811100886E+03  0.26811100886E+03  0.00000000000E+00 0.  1.
         25    2    1    2    0    0 -0.24122231722E+01  0.14382181287E+03 -0.86073128724E+01  0.19082192894E+03  0.12509352522E+03 0.  0.
          5    1    3    3  502    0  0.19002185966E+02  0.56644654768E+02  0.54526518039E+02  0.80995762573E+02  0.41800000000E+01 0. -1.
         -5    1    3    3    0  502 -0.21414409138E+02  0.87177158100E+02 -0.63133830912E+02  0.10982616637E+03  0.41800000000E+01 0. -1.
        -11    1    1    2    0    0 -0.25404932357E+02 -0.86463436734E+02 -0.23513464775E+02  0.93135490043E+02  0.00000000000E+00 0. -1.
         11    1    1    2    0    0  0.27817155530E+02 -0.57358376134E+02 -0.10084208652E+03  0.11930173456E+03  0.00000000000E+00 0.  1.
</event>
<event>
 7    1  0.2900135E-009  0.1380380E+03  0.7561462E-02  0.1215994E+00
         -2   -1    0    0    0  501 -0.00000000000E+00  0.00000000000E+00  0.18075613203E+03  0.18075613203E+03  0.00000000000E+00 0.  1.
          2   -1    0    0  501    0  0.00000000000E+00 -0.00000000000E+00 -0.11042611517E+03  0.11042611517E+03  0.00000000000E+00 0. -1.
         25    2    1    2    0    0 -0.89175939559E+02  0.41508308626E+01  0.30498490666E+02  0.15667547485E+03  0.12508984329E+03 0.  0.
          5    1    3    3  502    0  0.28229462825E+02 -0.18445611357E+02  0.86533006362E+01  0.35064157791E+02  0.41800000000E+01 0. -1.
         -5    1    3    3    0  502 -0.11740540238E+03  0.22596442220E+02  0.21845190030E+02  0.12161131706E+03  0.41800000000E+01 0. -1.
        -11    1    1    2    0    0  0.11128486172E+02 -0.36364392094E+02  0.32016338988E+02  0.49711750915E+02  0.00000000000E+00 0.  1.
         11    1    1    2    0    0  0.78047453388E+02  0.32213561232E+02  0.78151872091E+01  0.84795021426E+02  0.00000000000E+00 0. -1.
</event>
<event>
 7    1  0.2900135E-009  0.2385606E+03  0.7561462E-02  0.1120755E+00
         -2   -1    0    0    0  501 -0.00000000000E+00  0.00000000000E+00  0.66532387055E+02  0.66532387055E+02  0.00000000000E+00 0.  1.
          2   -1    0    0  501    0  0.00000000000E+00 -0.00000000000E+00 -0.92761310037E+03  0.92761310037E+03  0.00000000000E+00 0. -1.
         25    2    1    2    0    0  0.21851340824E+03 -0.45243909892E+02 -0.44486238884E+03  0.51317205787E+03  0.12509154652E+03 0.  0.
          5    1    3    3  502    0  0.16770482095E+03  0.19805843337E+02 -0.34004681319E+03  0.37969262037E+03  0.41800000000E+01 0.  1.
         -5    1    3    3    0  502  0.50808587283E+02 -0.65049753229E+02 -0.10481557565E+03  0.13347943750E+03  0.41800000000E+01 0.  1.
        -11    1    1    2    0    0 -0.10638935699E+03  0.52831025757E+01 -0.28268540780E+03  0.30208880522E+03  0.00000000000E+00 0. -1.
         11    1    1    2    0    0 -0.11212405124E+03  0.39960807316E+02 -0.13353291667E+03  0.17888462433E+03  0.00000000000E+00 0.  1.
</event>
<event>
 7    1  0.2900135E-009  0.1119767E+03  0.7561462E-02  0.1256953E+00
         -1   -1    0    0    0  501 -0.00000000000E+00  0.00000000000E+00  0.34752766788E+02  0.34752766788E+02  0.00000000000E+00 0.  1.
          1   -1    0    0  501    0  0.00000000000E+00 -0.00000000000E+00 -0.36843507877E+03  0.36843507877E+03  0.00000000000E+00 0. -1.
         25    2    1    2    0    0 -0.33651577213E+01  0.25775785973E+02 -0.17376839286E+03  0.21567973874E+03  0.12508628988E+03 0.  0.
          5    1    3    3  502    0  0.27228272376E+02  0.69111697490E+02 -0.10639584866E+03  0.12982817321E+03  0.41800000000E+01 0. -1.
         -5    1    3    3    0  502 -0.30593430097E+02 -0.43335911518E+02 -0.67372544199E+02  0.85851565531E+02  0.41800000000E+01 0. -1.
        -11    1    1    2    0    0 -0.19192027940E+02 -0.55674325054E+02 -0.11349588659E+03  0.12786430573E+03  0.00000000000E+00 0.  1.
         11    1    1    2    0    0  0.22557185661E+02  0.29898539081E+02 -0.46418032534E+02  0.59643801090E+02  0.00000000000E+00 0. -1.
</event>
<event>
 7    1  0.2900135E-009  0.9009189E+02  0.7561462E-02  0.1302629E+00
          3   -1    0    0  501    0  0.00000000000E+00  0.00000000000E+00  0.22778181562E+03  0.22778181562E+03  0.00000000000E+00 0. -1.
         -3   -1    0    0    0  501 -0.00000000000E+00 -0.00000000000E+00 -0.86100312995E+02  0.86100312995E+02  0.00000000000E+00 0.  1.
         25    2    1    2    0    0 -0.73277156162E+02  0.42903108110E+02  0.47220915045E+02  0.15839212878E+03  0.12509209944E+03 0.  0.
          5    1    3    3  502    0 -0.70632016332E+02  0.31062243805E+02  0.87136460603E+02  0.11646450055E+03  0.41800000000E+01 0.  1.
         -5    1    3    3    0  502 -0.26451398293E+01  0.11840864305E+02 -0.39915545558E+02  0.41927628235E+02  0.41800000000E+01 0.  1.
        -11    1    1    2    0    0  0.38792369380E+02 -0.54614904263E+01  0.96909914515E+02  0.10452850009E+03  0.00000000000E+00 0. -1.
         11    1    1    2    0    0  0.34484786781E+02 -0.37441617684E+02 -0.24493269299E+01  0.50961499748E+02  0.00000000000E+00 0.  1.
</event>
<event>
 7    1  0.2900135E-009  0.9027162E+02  0.7561462E-02  0.1302195E+00
          1   -1    0    0  501    0  0.00000000000E+00  0.00000000000E+00  0.58983802558E+02  0.58983802558E+02  0.00000000000E+00 0. -1.
         -1   -1    0    0    0  501 -0.00000000000E+00 -0.00000000000E+00 -0.21270923290E+03  0.21270923290E+03  0.00000000000E+00 0.  1.
         25    2    1    2    0    0  0.11802498021E+02  0.19893693362E+02 -0.64944506975E+02  0.14283008381E+03  0.12509031081E+03 0.  0.
          5    1    3    3  502    0  0.39325420882E+02 -0.37206536920E+02 -0.34362601496E+01  0.54406758779E+02  0.41800000000E+01 0. -1.
         -5    1    3    3    0  502 -0.27522922861E+02  0.57100230282E+02 -0.61508246825E+02  0.88423325026E+02  0.41800000000E+01 0. -1.
        -11    1    1    2    0    0  0.23510845270E+02 -0.12552066570E+02  0.61144936271E+01  0.27344126477E+02  0.00000000000E+00 0. -1.
         11    1    1    2    0    0 -0.35313343291E+02 -0.73416267922E+01 -0.94895416989E+02  0.10151882517E+03  0.00000000000E+00 0.  1.
</event>
<event>
 7    1  0.2900135E-009  0.1331715E+03  0.7561462E-02  0.1222824E+00
          1   -1    0    0  501    0  0.00000000000E+00  0.00000000000E+00  0.37843005554E+03  0.37843005554E+03  0.00000000000E+00 0. -1.
         -1   -1    0    0    0  501 -0.00000000000E+00 -0.00000000000E+00 -0.57953509854E+02  0.57953509854E+02  0.00000000000E+00 0.  1.
         25    2    1    2    0    0  0.80482805130E+02  0.36038753312E+02  0.24233187628E+03  0.28661768804E+03  0.12509471282E+03 0.  0.
          5    1    3    3  502    0  0.39358963289E+02  0.81162132428E+02  0.16400102896E+03  0.18721706555E+03  0.41800000000E+01 0.  1.
         -5    1    3    3    0  502  0.41123841841E+02 -0.45123379116E+02  0.78330847317E+02  0.99400622493E+02  0.41800000000E+01 0.  1.
        -11    1    1    2    0    0 -0.69196969691E+02  0.77503375650E+01  0.77983832126E+02  0.10454552319E+03  0.00000000000E+00 0.  1.
         11    1    1    2    0    0 -0.11285835439E+02 -0.43789090877E+02  0.16083727746E+00  0.45220354156E+02  0.00000000000E+00 0. -1.
</event>
<event>
 7    1  0.2900135E-009  0.1401281E+03  0.7561462E-02  0.1213157E+00
         -2   -1    0    0    0  501 -0.00000000000E+00  0.00000000000E+00  0.27262388254E+02  0.27262388254E+02  0.00000000000E+00 0.  1.
          2   -1    0    0  501    0  0.00000000000E+00 -0.00000000000E+00 -0.87352838435E+03  0.87352838435E+03  0.00000000000E+00 0. -1.
         25    2    1    2    0    0  0.10397320308E+03  0.17275291968E+02 -0.56715479231E+03  0.59027236732E+03  0.12509215209E+03 0.  0.
          5    1    3    3  502    0 -0.17387818099E+02  0.27897873968E+02 -0.21679783888E+03  0.21931576080E+03  0.41800000000E+01 0.  1.
         -5    1    3    3    0  502  0.12136102118E+03 -0.10622582001E+02 -0.35035695342E+03  0.37095660652E+03  0.41800000000E+01 0.  1.
        -11    1    1    2    0    0 -0.89701611269E+02  0.14053251765E+02 -0.13742877016E+03  0.16471350831E+03  0.00000000000E+00 0.  1.
         11    1    1    2    0    0 -0.14271591809E+02 -0.31328543733E+02 -0.14168243362E+03  0.14580489698E+03  0.00000000000E+00 0. -1.
</event>
<event>
 7    1  0.2900135E-009  0.1947678E+03  0.7561462E-02  0.1154230E+00
         -2   -1    0    0    0  501 -0.00000000000E+00  0.00000000000E+00  0.84076901116E+02  0.84076901116E+02  0.00000000000E+00 0.  1.
          2   -1    0    0  501    0  0.00000000000E+00 -0.00000000000E+00 -0.63825671179E+03  0.63825671179E+03  0.00000000000E+00 0. -1.
         25    2    1    2    0    0 -0.18758280248E+03 -0.22198544390E+02 -0.40842804111E+03  0.46705477700E+03  0.12508643730E+03 0.  0.
          5    1    3    3  502    0 -0.14717001192E+02 -0.23119050009E+02 -0.17155541827E+03  0.17378093835E+03  0.41800000000E+01 0. -1.
         -5    1    3    3    0  502 -0.17286580129E+03  0.92050561861E+00 -0.23687262285E+03  0.29327383865E+03  0.41800000000E+01 0. -1.
        -11    1    1    2    0    0  0.14824344226E+03  0.17152395522E+02 -0.15435016071E+03  0.21469581961E+03  0.00000000000E+00 0. -1.
         11    1    1    2    0    0  0.39339360218E+02  0.50461488681E+01  0.85983911540E+01  0.40583016290E+02  0.00000000000E+00 0.  1.
</event>
<event>
 7    1  0.2900135E-009  0.1080057E+03  0.7561462E-02  0.1264308E+00
         -1   -1    0    0    0  501 -0.00000000000E+00  0.00000000000E+00  0.94279355913E+02  0.94279355913E+02  0.00000000000E+00 0.  1.
          1   -1    0    0  501    0  0.00000000000E+00 -0.00000000000E+00 -0.15034820455E+03  0.15034820455E+03  0.00000000000E+00 0. -1.
         25    2    1    2    0    0 -0.33554794805E+02 -0.20650369340E+02 -0.29078843173E+01  0.13117411813E+03  0.12508329812E+03 0.  0.
          5    1    3    3  502    0  0.35483988690E+02 -0.35525338804E+02  0.23582359077E+02  0.55630595990E+02  0.41800000000E+01 0.  1.
         -5    1    3    3    0  502 -0.69038783494E+02  0.14874969465E+02 -0.26490243395E+02  0.75543522145E+02  0.41800000000E+01 0.  1.
        -11    1    1    2    0    0 -0.33585186363E+01  0.48514487032E+02 -0.45455133671E+02  0.66566540217E+02  0.00000000000E+00 0.  1.
         11    1    1    2    0    0  0.36913313441E+02 -0.27864117693E+02 -0.77058306534E+01  0.46886902116E+02  0.00000000000E+00 0. -1.
</event>
<event>
 7    1  0.2900135E-009  0.8869612E+02  0.7561462E-02  0.1306040E+00
         -2   -1    0    0    0  501 -0.00000000000E+00  0.00000000000E+00  0.43224845567E+02  0.43224845567E+02  0.00000000000E+00 0.  1.
          2   -1    0    0  501    0  0.00000000000E+00 -0.00000000000E+00 -0.32605654085E+03  0.32605654085E+03  0.00000000000E+00 0. -1.
         25    2    1    2    0    0 -0.19356591261E+02 -0.36634046275E+02 -0.19379891115E+03  0.23435439409E+03  0.12508890076E+03 0.  0.
          5    1    3    3  502    0  0.28861427315E+02  0.27666295428E+00 -0.16402038250E+03  0.16659296745E+03  0.41800000000E+01 0.  1.
         -5    1    3    3    0  502 -0.48218018576E+02 -0.36910709230E+02 -0.29778528654E+02  0.67761426638E+02  0.41800000000E+01 0.  1.
        -11    1    1    2    0    0 -0.28054580458E+02  0.27089140814E+02 -0.68868797026E+01  0.39601895747E+02  0.00000000000E+00 0.  1.
         11    1    1    2    0    0  0.47411171719E+02  0.95449054616E+01 -0.82145904426E+02  0.95325096581E+02  0.00000000000E+00 0. -1.
</event>
<event>
 7    1  0.2900135E-009  0.1134339E+03  0.7561462E-02  0.1254340E+00
         -2   -1    0    0    0  501 -0.00000000000E+00  0.00000000000E+00  0.37913876868E+02  0.37913876868E+02  0.00000000000E+00 0.  1.
          2   -1    0    0  501    0  0.00000000000E+00 -0.00000000000E+00 -0.61062481975E+03  0.61062481975E+03  0.00000000000E+00 0. -1.
         25    2    1    2    0    0  0.59165672493E+02 -0.50441328564E+02 -0.46794484747E+03  0.49056911887E+03  0.12506308683E+03 0.  0.
          5    1    3    3  502    0 -0.16187156681E+01 -0.49002656574E+02 -0.57747908748E+02  0.75869453382E+02  0.41800000000E+01 0. -1.
         -5    1    3    3    0  502  0.60784388161E+02 -0.14386719901E+01 -0.41019693872E+03  0.41469966549E+03  0.41800000000E+01 0. -1.
        -11    1    1    2    0    0 -0.47197129874E+02 -0.15515305928E+02 -0.57260382873E+02  0.75809268781E+02  0.00000000000E+00 0. -1.
         11    1    1    2    0    0 -0.11968542619E+02  0.65956634492E+02 -0.47505712548E+02  0.82160308974E+02  0.00000000000E+00 0.  1.
</event>
<event>
 7    1  0.2900135E-009  0.1146122E+03  0.7561462E-02  0.1252259E+00
         -2   -1    0    0    0  501 -0.00000000000E+00  0.00000000000E+00  0.79306278871E+03  0.79306278871E+03  0.00000000000E+00 0.  1.
          2   -1    0    0  501    0  0.00000000000E+00 -0.00000000000E+00 -0.22620318239E+02  0.22620318239E+02  0.00000000000E+00 0. -1.
         25    2    1    2    0    0 -0.20100249381E+02  0.75670878083E+02  0.42487533170E+03  0.44977359406E+03  0.12508851511E+03 0.  0.
          5    1    3    3  502    0 -0.51294206987E+02  0.61879416691E+02  0.39825619301E+03  0.40630730433E+03  0.41800000000E+01 0.  1.
         -5    1    3    3    0  502  0.31193957607E+02  0.13791461392E+02  0.26619138689E+02  0.43466289732E+02  0.41800000000E+01 0.  1.
        -11    1    1    2    0    0 -0.87417563748E+01 -0.83924965203E+02  0.29762372335E+03  0.30935367912E+03  0.00000000000E+00 0.  1.
         11    1    1    2    0    0  0.28842005755E+02  0.82540871197E+01  0.47943415427E+02  0.56555833766E+02  0.00000000000E+00 0. -1.
</event>
<event>
 7    1  0.2900135E-009  0.9487191E+02  0.7561462E-02  0.1291465E+00
         -2   -1    0    0    0  501 -0.00000000000E+00  0.00000000000E+00  0.87761527014E+03  0.87761527014E+03  0.00000000000E+00 0.  1.
          2   -1    0    0  501    0  0.00000000000E+00 -0.00000000000E+00 -0.16376551008E+02  0.16376551008E+02  0.00000000000E+00 0. -1.
         25    2    1    2    0    0  0.88504635951E+01 -0.47202168209E+02  0.54079822793E+03  0.55715027098E+03  0.12508927105E+03 0.  0.
          5    1    3    3  502    0  0.37652492716E+02  0.16286985830E-01  0.44379052463E+03  0.44540454940E+03  0.41800000000E+01 0.  1.
         -5    1    3    3    0  502 -0.28802029121E+02 -0.47218455195E+02  0.97007703299E+02  0.11174572158E+03  0.41800000000E+01 0.  1.
        -11    1    1    2    0    0 -0.30522385204E+02 -0.12421111410E+02  0.56717936644E+02  0.65595917131E+02  0.00000000000E+00 0. -1.
         11    1    1    2    0    0  0.21671921609E+02  0.59623279619E+02  0.26372255456E+03  0.27124563304E+03  0.00000000000E+00 0.  1.
</event>
<event>
 7    1  0.2900135E-009  0.1327007E+03  0.7561462E-02  0.1223503E+00
         -2   -1    0    0    0  501 -0.00000000000E+00  0.00000000000E+00  0.58974861749E+02  0.58974861749E+02  0.00000000000E+00 0.  1.
          2   -1    0    0  501    0  0.00000000000E+00 -0.00000000000E+00 -0.37436444670E+03  0.37436444670E+03  0.00000000000E+00 0. -1.
         25    2    1    2    0    0 -0.90270028817E+00  0.90802701420E+02 -0.10594131662E+03  0.18742215394E+03  0.12513015531E+03 0.  0.
          5    1    3    3  502    0  0.54308545078E+02  0.87456620753E+01 -0.31145929055E+02  0.63351763751E+02  0.41800000000E+01 0. -1.
         -5    1    3    3    0  502 -0.55211245367E+02  0.82057039344E+02 -0.74795387570E+02  0.12407039019E+03  0.41800000000E+01 0. -1.
        -11    1    1    2    0    0  0.27604995237E+02 -0.16201776400E+02 -0.12934166306E+03  0.13324338304E+03  0.00000000000E+00 0.  1.
         11    1    1    2    0    0 -0.26702294949E+02 -0.74600925019E+02 -0.80106605266E+02  0.11267377147E+03  0.00000000000E+00 0. -1.
</event>
<event>
 7    1  0.2900135E-009  0.7670230E+02  0.7561462E-02  0.1338679E+00
         -2   -1    0    0    0  501 -0.00000000000E+00  0.00000000000E+00  0.85454153663E+02  0.85454153663E+02  0.00000000000E+00 0. -1.
          2   -1    0    0  501    0  0.00000000000E+00 -0.00000000000E+00 -0.36908266330E+03  0.36908266330E+03  0.00000000000E+00 0.  1.
         25    2    1    2    0    0  0.20945075045E+02  0.12223680382E+02 -0.32701247828E+03  0.35096087233E+03  0.12509299912E+03 0.  0.
          5    1    3    3  502    0  0.15444171057E+02 -0.27641605893E+02 -0.30137477552E+03  0.30306238387E+03  0.41800000000E+01 0. -1.
         -5    1    3    3    0  502  0.55009039882E+01  0.39865286275E+02 -0.25637702758E+02  0.47898488464E+02  0.41800000000E+01 0. -1.
        -11    1    1    2    0    0 -0.49342618633E+02  0.17159217655E+01  0.51056985907E+02  0.71024321264E+02  0.00000000000E+00 0. -1.
         11    1    1    2    0    0  0.28397543588E+02 -0.13939602148E+02 -0.76730172673E+01  0.32551623368E+02  0.00000000000E+00 0.  1.
</event>
<event>
 7    1  0.2900135E-009  0.1087831E+03  0.7561462E-02  0.1262840E+00
          4   -1    0    0  501    0  0.00000000000E+00  0.00000000000E+00  0.50568185556E+02  0.50568185556E+02  0.00000000000E+00 0. -1.
         -4   -1    0    0    0  501 -0.00000000000E+00 -0.00000000000E+00 -0.61077362406E+03  0.61077362406E+03  0.00000000000E+00 0.  1.
         25    2    1    2    0    0 -0.74369186497E+02  0.68496437905E+01 -0.78784783891E+02  0.16562540687E+03  0.12508812777E+03 0.  0.
          5    1    3    3  502    0 -0.67020045357E+02 -0.21608987006E+02  0.10696369150E+02  0.71347876717E+02  0.41800000000E+01 0.  1.
         -5    1    3    3    0  502 -0.73491411400E+01  0.28458630796E+02 -0.89481153041E+02  0.94277530154E+02  0.41800000000E+01 0.  1.
        -11    1    1    2    0    0  0.79958160357E+02  0.25950481764E+02 -0.37025192643E+03  0.37967515581E+03  0.00000000000E+00 0.  1.
         11    1    1    2    0    0 -0.55889738603E+01 -0.32800125554E+02 -0.11116872818E+03  0.11604124693E+03  0.00000000000E+00 0. -1.
</event>
<event>
 7    1  0.2900135E-009  0.1228903E+03  0.7561462E-02  0.1238404E+00
          2   -1    0    0  501    0  0.00000000000E+00  0.00000000000E+00  0.75840545361E+03  0.75840545361E+03  0.00000000000E+00 0.  1.
         -2   -1    0    0    0  501 -0.00000000000E+00 -0.00000000000E+00 -0.24751374049E+02  0.24751374049E+02  0.00000000000E+00 0. -1.
         25    2    1    2    0    0  0.47928144986E+02 -0.43592445627E+02  0.25592085354E+03  0.29213125194E+03  0.12509107356E+03 0.  0.
          5    1    3    3  502    0 -0.25894878492E+02 -0.52329186580E+02  0.16217350140E+03  0.17241405238E+03  0.41800000000E+01 0.  1.
         -5    1    3    3    0  502  0.73823023478E+02  0.87367409523E+01  0.93747352145E+02  0.11971719957E+03  0.41800000000E+01 0.  1.
        -11    1    1    2    0    0  0.26730253586E+02  0.81102375814E+00  0.13779305843E+03  0.14036413776E+03  0.00000000000E+00 0. -1.
         11    1    1    2    0    0 -0.74658398572E+02  0.42781421869E+02  0.33994016758E+03  0.35066143796E+03  0.00000000000E+00 0.  1.
</event>
<event>
 7    1  0.2900135E-009  0.8659288E+02  0.7561462E-02  0.1311319E+00
          1   -1    0    0  501    0  0.00000000000E+00  0.00000000000E+00  0.22849991623E+03  0.22849991623E+03  0.00000000000E+00 0. -1.
         -1   -1    0    0    0  501 -0.00000000000E+00 -0.00000000000E+00 -0.56278561570E+02  0.56278561570E+02  0.00000000000E+00 0.  1.
         25    2    1    2    0    0  0.27428445183E+02  0.64822082798E+01  0.11955915585E+03  0.17531795432E+03  0.12509058610E+03 0.  0.
          5    1    3    3  502    0 -0.22787190756E+02 -0.13563646978E+02 -0.14638142557E+02  0.30577380519E+02  0.41800000000E+01 0. -1.
         -5    1    3    3    0  502  0.50215635939E+02  0.20045855258E+02  0.13419729840E+03  0.14474057380E+03  0.41800000000E+01 0. -1.
        -11    1    1    2    0    0 -0.56531339603E+02 -0.20073557539E+02  0.18985433648E+02  0.62922068945E+02  0.00000000000E+00 0. -1.
         11    1    1    2    0    0  0.29102894420E+02  0.13591349259E+02  0.33676765165E+02  0.46538454532E+02  0.00000000000E+00 0.  1.
</event>
<event>
 7    1  0.2900135E-009  0.1344315E+03  0.7561462E-02  0.1221024E+00
          2   -1    0    0  501    0  0.00000000000E+00  0.00000000000E+00  0.13875635790E+04  0.13875635790E+04  0.00000000000E+00 0. -1.
         -2   -1    0    0    0  501 -0.00000000000E+00 -0.00000000000E+00 -0.17820217567E+02  0.17820217567E+02  0.00000000000E+00 0.  1.
         25    2    1    2    0    0 -0.11125374914E+03 -0.17128321542E+02  0.77183799302E+03  0.78996958617E+03  0.12508910223E+03 0.  0.
          5    1    3    3  502    0 -0.91981384749E+02 -0.33038221106E+02  0.75048555611E+03  0.75683428934E+03  0.41800000000E+01 0.  1.
         -5    1    3    3    0  502 -0.19272364394E+02  0.15909899564E+02  0.21352436913E+02  0.33135296824E+02  0.41800000000E+01 0.  1.
        -11    1    1    2    0    0  0.11730124133E+03 -0.10169347952E+02  0.48950319140E+03  0.50346436940E+03  0.00000000000E+00 0. -1.
         11    1    1    2    0    0 -0.60474921914E+01  0.27297669494E+02  0.10840217702E+03  0.11194984102E+03  0.00000000000E+00 0.  1.
</event>
<event>
 7    1  0.2900135E-009  0.1592914E+03  0.7561462E-02  0.1189499E+00
          2   -1    0    0  501    0  0.00000000000E+00  0.00000000000E+00  0.44045365161E+03  0.44045365161E+03  0.00000000000E+00 0.  1.
         -2   -1    0    0    0  501 -0.00000000000E+00 -0.00000000000E+00 -0.71707011883E+02  0.71707011883E+02  0.00000000000E+00 0. -1.
         25    2    1    2    0    0 -0.99272381252E+02  0.96256598018E+02  0.16889362687E+03  0.25158166134E+03  0.12509171350E+03 0.  0.
          5    1    3    3  502    0 -0.14865027426E+02  0.55590832598E+02  0.14313068661E+03  0.15432166264E+03  0.41800000000E+01 0. -1.
         -5    1    3    3    0  502 -0.84407353826E+02  0.40665765420E+02  0.25762940256E+02  0.97259998704E+02  0.41800000000E+01 0. -1.
        -11    1    1    2    0    0  0.65730958296E+02 -0.11214373975E+03  0.15935004908E+03  0.20564341805E+03  0.00000000000E+00 0.  1.
         11    1    1    2    0    0  0.33541422956E+02  0.15887141728E+02  0.40502963771E+02  0.54935584100E+02  0.00000000000E+00 0. -1.
</event>
<event>
 7    1  0.2900135E-009  0.1147638E+03  0.7561462E-02  0.1251994E+00
         -1   -1    0    0    0  501 -0.00000000000E+00  0.00000000000E+00  0.10359651207E+03  0.10359651207E+03  0.00000000000E+00 0.  1.
          1   -1    0    0  501    0  0.00000000000E+00 -0.00000000000E+00 -0.15302964835E+03  0.15302964835E+03  0.00000000000E+00 0. -1.
         25    2    1    2    0    0  0.23348278955E+02  0.52287642953E+02  0.17907820168E+01  0.13758671303E+03  0.12509099474E+03 0.  0.
          5    1    3    3  502    0 -0.51605124070E+02  0.16330005629E+02 -0.10955656960E+01  0.54299452837E+02  0.41800000000E+01 0. -1.
         -5    1    3    3    0  502  0.74953403026E+02  0.35957637324E+02  0.28863477128E+01  0.83287260191E+02  0.41800000000E+01 0. -1.
        -11    1    1    2    0    0 -0.48863694537E+02 -0.25930307692E+02 -0.59699780695E+02  0.81388606794E+02  0.00000000000E+00 0. -1.
         11    1    1    2    0    0  0.25515415581E+02 -0.26357335261E+02  0.84758623988E+01  0.37650840599E+02  0.00000000000E+00 0.  1.
</event>
<event>
 7    1  0.2900135E-009  0.1559175E+03  0.7561462E-02  0.1193384E+00
         -2   -1    0    0    0  501 -0.00000000000E+00  0.00000000000E+00  0.56514146554E+03  0.56514146554E+03  0.00000000000E+00 0.  1.
          2   -1    0    0  501    0  0.00000000000E+00 -0.00000000000E+00 -0.10831833499E+03  0.10831833499E+03  0.00000000000E+00 0. -1.
         25    2    1    2    0    0 -0.29385996338E+02  0.11056142166E+03  0.49418771091E+03  0.52245226451E+03  0.12509000895E+03 0.  0.
          5    1    3    3  502    0  0.11968993583E+02 -0.24549059546E+02  0.66599270038E+02  0.72103039475E+02  0.41800000000E+01 0.  1.
         -5    1    3    3    0  502 -0.41354989922E+02  0.13511048121E+03  0.42758844087E+03  0.45034922503E+03  0.41800000000E+01 0.  1.
        -11    1    1    2    0    0 -0.23859213421E+02 -0.46563050606E+01  0.55621104045E+01  0.24937528226E+02  0.00000000000E+00 0.  1.
         11    1    1    2    0    0  0.53245209759E+02 -0.10590511660E+03 -0.42926690761E+02  0.12607000779E+03  0.00000000000E+00 0. -1.
</event>
<event>
 7    1  0.2900135E-009  0.6564391E+02  0.7561462E-02  0.1375566E+00
          1   -1    0    0  501    0  0.00000000000E+00  0.00000000000E+00  0.20967639627E+03  0.20967639627E+03  0.00000000000E+00 0. -1.
         -1   -1    0    0    0  501 -0.00000000000E+00 -0.00000000000E+00 -0.57670951092E+02  0.57670951092E+02  0.00000000000E+00 0.  1.
         25    2    1    2    0    0 -0.17648107819E+02  0.14112564714E+02  0.82834577505E+02  0.15172160254E+03  0.12508899733E+03 0.  0.
          5    1    3    3  502    0 -0.28088539933E+02  0.37840336603E+02 -0.15622203653E+02  0.49823516503E+02  0.41800000000E+01 0. -1.
         -5    1    3    3    0  502  0.10440432113E+02 -0.23727771889E+02  0.98456781157E+02  0.10189808603E+03  0.41800000000E+01 0. -1.
        -11    1    1    2    0    0 -0.19031536257E+02 -0.74566879243E+01 -0.13801644207E+02  0.24663474003E+02  0.00000000000E+00 0.  1.
         11    1    1    2    0    0  0.36679644076E+02 -0.66558767894E+01  0.82972511882E+02  0.90962270823E+02  0.00000000000E+00 0. -1.
</event>
<event>
 7    1  0.2981779E-009  0.1382733E+03  0.7561462E-02  0.1215671E+00
         -2   -1    0    0    0  501 -0.00000000000E+00  0.00000000000E+00  0.11466836715E+03  0.11466836715E+03  0.00000000000E+00 0.  1.
          2   -1    0    0  501    0  0.00000000000E+00 -0.00000000000E+00 -0.23612853309E+03  0.23612853309E+03  0.00000000000E+00 0. -1.
         25    2    1    2    0    0 -0.10561799764E+03  0.20609029572E+02 -0.12944095534E+03  0.20971739838E+03  0.12508610130E+03 0.  0.
          5    1    3    3  502    0 -0.26007990955E+01  0.33498706691E+02  0.10473247045E+02  0.35441343224E+02  0.41800000000E+01 0. -1.
         -5    1    3    3    0  502 -0.10301719854E+03 -0.12889677119E+02 -0.13991420238E+03  0.17427605516E+03  0.41800000000E+01 0. -1.
        -11    1    1    2    0    0  0.49219659183E+02  0.34361499357E+02  0.15409677854E+02  0.61973749763E+02  0.00000000000E+00 0.  1.
         11    1    1    2    0    0  0.56398338455E+02 -0.54970528929E+02 -0.74288884499E+01  0.79105752097E+02  0.00000000000E+00 0. -1.
</event>
<event>
 7    1  0.2900135E-009  0.2387913E+03  0.7561462E-02  0.1120601E+00
         -2   -1    0    0    0  501 -0.00000000000E+00  0.00000000000E+00  0.43031911491E+02  0.43031911491E+02  0.00000000000E+00 0. -1.
          2   -1    0    0  501    0  0.00000000000E+00 -0.00000000000E+00 -0.14080290030E+04  0.14080290030E+04  0.00000000000E+00 0.  1.
         25    2    1    2    0    0 -0.66088229672E+02  0.20204670082E+03 -0.52992820575E+03  0.58451888298E+03  0.12509155807E+03 0.  0.
          5    1    3    3  502    0 -0.81219841221E+00 -0.17266329337E+02 -0.36777747044E+02  0.40851693633E+02  0.41800000000E+01 0. -1.
         -5    1    3    3    0  502 -0.65276031260E+02  0.21931303016E+03 -0.49315045870E+03  0.54366718935E+03  0.41800000000E+01 0. -1.
        -11    1    1    2    0    0  0.61837091040E+02 -0.51894610689E+02 -0.31903759460E+03  0.32909248429E+03  0.00000000000E+00 0. -1.
         11    1    1    2    0    0  0.42511386322E+01 -0.15015209013E+03 -0.51603129111E+03  0.53744954718E+03  0.00000000000E+00 0.  1.
</event>
<event>
 7    1  0.4481574E-009  0.1315182E+03  0.7561462E-02  0.1225220E+00
          1   -1    0    0  501    0  0.00000000000E+00  0.00000000000E+00  0.71877448863E+03  0.71877448863E+03  0.00000000000E+00 0. -1.
         -1   -1    0    0    0  501 -0.00000000000E+00 -0.00000000000E+00 -0.26293253059E+02  0.26293253059E+02  0.00000000000E+00 0.  1.
         25    2    1    2    0    0  0.69252718815E+02 -0.32134144083E+02  0.47384017173E+03  0.49598406121E+03  0.12508852206E+03 0.  0.
          5    1    3    3  502    0 -0.57483647511E+01 -0.62917419368E+02  0.24945116231E+03  0.25736161356E+03  0.41800000000E+01 0.  1.
         -5    1    3    3    0  502  0.75001083566E+02  0.30783275285E+02  0.22438900943E+03  0.23862244765E+03  0.41800000000E+01 0.  1.
        -11    1    1    2    0    0 -0.50310065968E+02 -0.26540833762E+02  0.90699081552E+02  0.10705999248E+03  0.00000000000E+00 0.  1.
         11    1    1    2    0    0 -0.18942652847E+02  0.58674977845E+02  0.12794198229E+03  0.14202368800E+03  0.00000000000E+00 0. -1.
</event>
<event>
 7    1  0.2900135E-009  0.3646637E+03  0.7561462E-02  0.1056752E+00
         -2   -1    0    0    0  501 -0.00000000000E+00  0.00000000000E+00  0.35141821302E+03  0.35141821302E+03  0.00000000000E+00 0.  1.
          2   -1    0    0  501    0  0.00000000000E+00 -0.00000000000E+00 -0.43685189237E+03  0.43685189237E+03  0.00000000000E+00 0. -1.
         25    2    1    2    0    0 -0.23360250235E+03 -0.27231430367E+03 -0.15617271148E+03  0.41080726724E+03  0.12508991135E+03 0.  0.
          5    1    3    3  502    0 -0.20202806085E+03 -0.22414170283E+03 -0.74606982539E+02  0.31086735847E+03  0.41800000000E+01 0.  1.
         -5    1    3    3    0  502 -0.31574441500E+02 -0.48172600835E+02 -0.81565728941E+02  0.99939908769E+02  0.41800000000E+01 0.  1.
        -11    1    1    2    0    0  0.21084806687E+03  0.18808499339E+03  0.65602563466E+02  0.29006304207E+03  0.00000000000E+00 0.  1.
         11    1    1    2    0    0  0.22754435478E+02  0.84229310273E+02  0.51364686641E+01  0.87399796071E+02  0.00000000000E+00 0. -1.
</event>
<event>
 7    1  0.2900135E-009  0.1346134E+03  0.7561462E-02  0.1220766E+00
          2   -1    0    0  501    0  0.00000000000E+00  0.00000000000E+00  0.54327401047E+03  0.54327401047E+03  0.00000000000E+00 0. -1.
         -2   -1    0    0    0  501 -0.00000000000E+00 -0.00000000000E+00 -0.35359830921E+02  0.35359830921E+02  0.00000000000E+00 0.  1.
         25    2    1    2    0    0 -0.66601972522E+02 -0.54047812095E+02  0.35177078275E+03  0.38307602442E+03  0.12509024004E+03 0.  0.
          5    1    3    3  502    0  0.26491322482E+02 -0.51843406060E+02  0.14191877901E+03  0.15345338431E+03  0.41800000000E+01 0. -1.
         -5    1    3    3    0  502 -0.93093295004E+02 -0.22044060350E+01  0.20985200373E+03  0.22962264011E+03  0.41800000000E+01 0. -1.
        -11    1    1    2    0    0 -0.37037921198E+01 -0.17172861082E+02  0.26179734984E+02  0.31527825133E+02  0.00000000000E+00 0.  1.
         11    1    1    2    0    0  0.70305764642E+02  0.71220673176E+02  0.12996366182E+03  0.16402999184E+03  0.00000000000E+00 0. -1.
</event>
<event>
 7    1  0.2900135E-009  0.1838814E+03  0.7561462E-02  0.1164099E+00
         -2   -1    0    0    0  501 -0.00000000000E+00  0.00000000000E+00  0.16974644845E+03  0.16974644845E+03  0.00000000000E+00 0.  1.
          2   -1    0    0  501    0  0.00000000000E+00 -0.00000000000E+00 -0.54584793288E+03  0.54584793288E+03  0.00000000000E+00 0. -1.
         25    2    1    2    0    0  0.68918773719E+02 -0.14972797764E+03  0.80093652505E+02  0.22188118198E+03  0.12509197051E+03 0.  0.
          5    1    3    3  502    0 -0.33083863272E+02 -0.29744875118E+02 -0.10017402222E+01  0.44696481833E+02  0.41800000000E+01 0. -1.
         -5    1    3    3    0  502  0.10200263699E+03 -0.11998310252E+03  0.81095392727E+02  0.17718470014E+03  0.41800000000E+01 0. -1.
        -11    1    1    2    0    0 -0.21881676411E+02  0.32025130911E+02 -0.29902590294E+02  0.48975317035E+02  0.00000000000E+00 0.  1.
         11    1    1    2    0    0 -0.47037097308E+02  0.11770284673E+03 -0.42629254664E+03  0.44473788232E+03  0.00000000000E+00 0. -1.
</event>
<event>
 7    1  0.2900135E-009  0.1110228E+03  0.7561462E-02  0.1258687E+00
         -2   -1    0    0    0  501 -0.00000000000E+00  0.00000000000E+00  0.60162074116E+02  0.60162074116E+02  0.00000000000E+00 0.  1.
          2   -1    0    0  501    0  0.00000000000E+00 -0.00000000000E+00 -0.30002775801E+03  0.30002775801E+03  0.00000000000E+00 0. -1.
         25    2    1    2    0    0  0.56570835439E+02  0.40612863349E+02 -0.17303262953E+03  0.22458195320E+03  0.12508836368E+03 0.  0.
          5    1    3    3  502    0  0.34070071927E+02  0.85466320360E+02 -0.10093127589E+03  0.13663768356E+03  0.41800000000E+01 0.  1.
         -5    1    3    3    0  502  0.22500763512E+02 -0.44853457011E+02 -0.72101353645E+02  0.87944269636E+02  0.41800000000E+01 0.  1.
        -11    1    1    2    0    0 -0.14915212504E+01 -0.21104503682E+02  0.21197673169E+02  0.29949391631E+02  0.00000000000E+00 0.  1.
         11    1    1    2    0    0 -0.55079314189E+02 -0.19508359667E+02 -0.88030727534E+02  0.10565848730E+03  0.00000000000E+00 0. -1.
</event>
<event>
 7    1  0.2900135E-009  0.1459171E+03  0.7561462E-02  0.1205582E+00
          2   -1    0    0  501    0  0.00000000000E+00  0.00000000000E+00  0.10013849132E+04  0.10013849132E+04  0.00000000000E+00 0. -1.
         -2   -1    0    0    0  501 -0.00000000000E+00 -0.00000000000E+00 -0.47150937427E+02  0.47150937427E+02  0.00000000000E+00 0.  1.
         25    2    1    2    0    0  0.81920688949E+02  0.72443240480E+02  0.85884658604E+03  0.87476934134E+03  0.12507965390E+03 0.  0.
          5    1    3    3  502    0  0.41540801498E+02 -0.28343593662E+02  0.16749654964E+03  0.17493302727E+03  0.41800000000E+01 0.  1.
         -5    1    3    3    0  502  0.40379887451E+02  0.10078683414E+03  0.69135003640E+03  0.69983631406E+03  0.41800000000E+01 0.  1.
        -11    1    1    2    0    0 -0.19677138005E+02 -0.67462615305E+02  0.14794463076E+02  0.71814137616E+02  0.00000000000E+00 0.  1.
         11    1    1    2    0    0 -0.62243550943E+02 -0.49806251754E+01  0.80592926624E+02  0.10195237164E+03  0.00000000000E+00 0. -1.
</event>
<event>
 7    1  0.2900135E-009  0.1789812E+03  0.7561462E-02  0.1168793E+00
         -2   -1    0    0    0  501 -0.00000000000E+00  0.00000000000E+00  0.27346557073E+02  0.27346557073E+02  0.00000000000E+00 0.  1.
          2   -1    0    0  501    0  0.00000000000E+00 -0.00000000000E+00 -0.14315608448E+04  0.14315608448E+04  0.00000000000E+00 0. -1.
         25    2    1    2    0    0  0.14833783109E+03 -0.66866251821E+02 -0.66736434462E+03  0.69820972385E+03  0.12508573957E+03 0.  0.
          5    1    3    3  502    0  0.91075470951E+02 -0.14775442956E+02 -0.54901776895E+03  0.55673246550E+03  0.41800000000E+01 0.  1.
         -5    1    3    3    0  502  0.57262360135E+02 -0.52090808864E+02 -0.11834657568E+03  0.14147725835E+03  0.41800000000E+01 0.  1.
        -11    1    1    2    0    0  0.71724880975E+01 -0.11795344405E+02 -0.76671256949E+02  0.77904148653E+02  0.00000000000E+00 0. -1.
         11    1    1    2    0    0 -0.15551031918E+03  0.78661596226E+02 -0.66017868612E+03  0.68279352934E+03  0.00000000000E+00 0.  1.
</event>
<event>
 7    1  0.2900135E-009  0.1322747E+03  0.7561462E-02  0.1224119E+00
         -2   -1    0    0    0  501 -0.00000000000E+00  0.00000000000E+00  0.51827428858E+02  0.51827428858E+02  0.00000000000E+00 0.  1.
          2   -1    0    0  501    0  0.00000000000E+00 -0.00000000000E+00 -0.96099261437E+03  0.96099261437E+03  0.00000000000E+00 0. -1.
         25    2    1    2    0    0  0.10307924863E+03 -0.64357062094E+02 -0.83201008084E+03  0.85009104428E+03  0.12508735349E+03 0.  0.
          5    1    3    3  502    0  0.25545004799E+02 -0.59746239695E+02 -0.63425453927E+03  0.63758799661E+03  0.41800000000E+01 0. -1.
         -5    1    3    3    0  502  0.77534243829E+02 -0.46108223998E+01 -0.19775554157E+03  0.21250304767E+03  0.41800000000E+01 0. -1.
        -11    1    1    2    0    0 -0.69885785761E+02  0.46730561920E+02 -0.85496577306E+01  0.84503639662E+02  0.00000000000E+00 0.  1.
         11    1    1    2    0    0 -0.33193462867E+02  0.17626500174E+02 -0.68605446939E+02  0.78225359285E+02  0.00000000000E+00 0. -1.
</event>
<event>
 7    1  0.2900135E-009  0.1571624E+03  0.7561462E-02  0.1191938E+00
          2   -1    0    0  501    0  0.00000000000E+00  0.00000000000E+00  0.18068196296E+03  0.18068196296E+03  0.00000000000E+00 0. -1.
         -2   -1    0    0    0  501 -0.00000000000E+00 -0.00000000000E+00 -0.14141206236E+03  0.14141206236E+03  0.00000000000E+00 0.  1.
         25    2    1    2    0    0 -0.46478184351E+02 -0.10417291914E+03 -0.66566760660E+01  0.16942133523E+03  0.12508820406E+03 0.  0.
          5    1    3    3  502    0 -0.64096991775E+02 -0.94719659185E+00  0.19220890585E+01  0.64268875534E+02  0.41800000000E+01 0.  1.
         -5    1    3    3    0  502  0.17618807424E+02 -0.10322572255E+03 -0.85787651246E+01  0.10515245970E+03  0.41800000000E+01 0.  1.
        -11    1    1    2    0    0 -0.25124297591E+02  0.48361327025E+02  0.12366633127E+02  0.55883646051E+02  0.00000000000E+00 0.  1.
         11    1    1    2    0    0  0.71602481943E+02  0.55811592112E+02  0.33559943546E+02  0.96789044035E+02  0.00000000000E+00 0. -1.
</event>
<event>
 7    1  0.2900135E-009  0.8088805E+02  0.7561462E-02  0.1326550E+00
         -2   -1    0    0    0  501 -0.00000000000E+00  0.00000000000E+00  0.14968886783E+03  0.14968886783E+03  0.00000000000E+00 0.  1.
          2   -1    0    0  501    0  0.00000000000E+00 -0.00000000000E+00 -0.86868583844E+02  0.86868583844E+02  0.00000000000E+00 0. -1.
         25    2    1    2    0    0 -0.45582489568E+01  0.11749364130E+02  0.28008961627E+01  0.12575384255E+03  0.12508940285E+03 0.  0.
          5    1    3    3  502    0  0.26992602521E+02 -0.32294099284E+02  0.41333495779E+02  0.59139155495E+02  0.41800000000E+01 0. -1.
         -5    1    3    3    0  502 -0.31550851477E+02  0.44043463414E+02 -0.38532599616E+02  0.66614687056E+02  0.41800000000E+01 0. -1.
        -11    1    1    2    0    0  0.70137850133E+01 -0.38067398621E+02  0.72028905045E+02  0.81770918913E+02  0.00000000000E+00 0.  1.
         11    1    1    2    0    0 -0.24555360565E+01  0.26318034491E+02 -0.12009517222E+02  0.29032690208E+02  0.00000000000E+00 0. -1.
</event>
<event>
 7    1  0.2900135E-009  0.8199565E+02  0.7561462E-02  0.1323482E+00
         -1   -1    0    0    0  501 -0.00000000000E+00  0.00000000000E+00  0.30657803888E+02  0.30657803888E+02  0.00000000000E+00 0.  1.
          1   -1    0    0  501    0  0.00000000000E+00 -0.00000000000E+00 -0.48330389111E+03  0.48330389111E+03  0.00000000000E+00 0. -1.
         25    2    1    2    0    0  0.49456879157E+02 -0.16423439350E+02 -0.28955334740E+03  0.31969457354E+03  0.12509103526E+03 0.  0.
          5    1    3    3  502    0  0.61321853470E+01 -0.14807617518E+02 -0.27236772372E+03  0.27287088258E+03  0.41800000000E+01 0.  1.
         -5    1    3    3    0  502  0.43324693810E+02 -0.16158218318E+01 -0.17185623679E+02  0.46823690961E+02  0.41800000000E+01 0.  1.
        -11    1    1    2    0    0 -0.31689898997E+02  0.53827331459E+02 -0.11445011098E+03  0.13038580909E+03  0.00000000000E+00 0. -1.
         11    1    1    2    0    0 -0.17766980160E+02 -0.37403892109E+02 -0.48642628852E+02  0.63881312374E+02  0.00000000000E+00 0.  1.
</event>
<event>
 7    1  0.2900135E-009  0.1424623E+03  0.7561462E-02  0.1210054E+00
          3   -1    0    0  501    0  0.00000000000E+00  0.00000000000E+00  0.25096663196E+02  0.25096663196E+02  0.00000000000E+00 0. -1.
         -3   -1    0    0    0  501 -0.00000000000E+00 -0.00000000000E+00 -0.11898180750E+04  0.11898180750E+04  0.00000000000E+00 0.  1.
         25    2    1    2    0    0 -0.46012460387E+02  0.12214466058E+03 -0.72796338923E+03  0.75007649672E+03  0.12509032839E+03 0.  0.
          5    1    3    3  502    0 -0.12333868422E+02  0.47757718554E+02 -0.57056710750E+03  0.57271041596E+03  0.41800000000E+01 0. -1.
         -5    1    3    3    0  502 -0.33678591966E+02  0.74386942030E+02 -0.15739628173E+03  0.17736608076E+03  0.41800000000E+01 0. -1.
        -11    1    1    2    0    0 -0.14942227030E+02  0.22725145730E+01 -0.16710001890E+02  0.22531281239E+02  0.00000000000E+00 0. -1.
         11    1    1    2    0    0  0.60954687417E+02 -0.12441717516E+03 -0.42004802071E+03  0.44230696026E+03  0.00000000000E+00 0.  1.
</event>
<event>
 7    1  0.2900135E-009  0.1193752E+03  0.7561462E-02  0.1244131E+00
          1   -1    0    0  501    0  0.00000000000E+00  0.00000000000E+00  0.14074969260E+03  0.14074969260E+03  0.00000000000E+00 0. -1.
         -1   -1    0    0    0  501 -0.00000000000E+00 -0.00000000000E+00 -0.14195803063E+03  0.14195803063E+03  0.00000000000E+00 0.  1.
         25    2    1    2    0    0  0.53703211660E+02  0.27341905068E+02 -0.68075338328E+02  0.15464074534E+03  0.12509154135E+03 0.  0.
          5    1    3    3  502    0  0.87060891271E+02 -0.33339940927E+00 -0.68873453737E+02  0.11108886071E+03  0.41800000000E+01 0. -1.
         -5    1    3    3    0  502 -0.33357679611E+02  0.27675304477E+02  0.79811540962E+00  0.43551884633E+02  0.41800000000E+01 0. -1.
        -11    1    1    2    0    0 -0.76511502730E+02 -0.58985179705E+01  0.38652921615E+02  0.85923517814E+02  0.00000000000E+00 0. -1.
         11    1    1    2    0    0  0.22808291069E+02 -0.21443387097E+02  0.28214078681E+02  0.42143460080E+02  0.00000000000E+00 0.  1.
</event>
<event>
 7    1  0.2900135E-009  0.1194014E+03  0.7561462E-02  0.1244088E+00
          1   -1    0    0  501    0  0.00000000000E+00  0.00000000000E+00  0.97229236032E+02  0.97229236032E+02  0.00000000000E+00 0. -1.
         -1   -1    0    0    0  501 -0.00000000000E+00 -0.00000000000E+00 -0.25593772349E+03  0.25593772349E+03  0.00000000000E+00 0.  1.
         25    2    1    2    0    0 -0.18408626554E+02 -0.10686874663E+03 -0.39735360263E+02  0.17024833865E+03  0.12508313804E+03 0.  0.
          5    1    3    3  502    0 -0.93362842353E+01 -0.94352039391E+02  0.29343367065E+02  0.99337702466E+02  0.41800000000E+01 0.  1.
         -5    1    3    3    0  502 -0.90723423187E+01 -0.12516707241E+02 -0.69078727328E+02  0.70910636187E+02  0.41800000000E+01 0.  1.
        -11    1    1    2    0    0  0.40765599113E+02  0.38957222125E+02 -0.89074678530E+02  0.10542199762E+03  0.00000000000E+00 0.  1.
         11    1    1    2    0    0 -0.22356972559E+02  0.67911524507E+02 -0.29898448668E+02  0.77496623253E+02  0.00000000000E+00 0. -1.
</event>
<event>
 7    1  0.2900135E-009  0.1171854E+03  0.7561462E-02  0.1247814E+00
         -1   -1    0    0    0  501 -0.00000000000E+00  0.00000000000E+00  0.45858116205E+02  0.45858116205E+02  0.00000000000E+00 0.  1.
          1   -1    0    0  501    0  0.00000000000E+00 -0.00000000000E+00 -0.40679040309E+03  0.40679040309E+03  0.00000000000E+00 0. -1.
         25    2    1    2    0    0 -0.27155531482E+02  0.61968552289E+02 -0.27660817288E+03  0.31102647873E+03  0.12509142578E+03 0.  0.
          5    1    3    3  502    0 -0.48239904029E+02 -0.90530745374E+01 -0.19323447748E+03  0.19941434799E+03  0.41800000000E+01 0. -1.
         -5    1    3    3    0  502  0.21084372547E+02  0.71021626827E+02 -0.83373695400E+02  0.11161213074E+03  0.41800000000E+01 0. -1.
        -11    1    1    2    0    0  0.15295662326E+02 -0.84271238767E+02 -0.50571496882E+02  0.99463939527E+02  0.00000000000E+00 0.  1.
         11    1    1    2    0    0  0.11859869157E+02  0.22302686477E+02 -0.33752617130E+02  0.42158101044E+02  0.00000000000E+00 0. -1.
</event>
<event>
 7    1  0.2900135E-009  0.1248779E+03  0.7561462E-02  0.1235260E+00
         -1   -1    0    0    0  501 -0.00000000000E+00  0.00000000000E+00  0.35011554100E+02  0.35011554100E+02  0.00000000000E+00 0.  1.
          1   -1    0    0  501    0  0.00000000000E+00 -0.00000000000E+00 -0.51508578089E+03  0.51508578089E+03  0.00000000000E+00 0. -1.
         25    2    1    2    0    0 -0.44603469930E+02  0.60605148715E+02 -0.21991717438E+03  0.26395566019E+03  0.12508626374E+03 0.  0.
          5    1    3    3  502    0  0.38430390076E+02  0.45764543596E+02 -0.11098175497E+03  0.12611784437E+03  0.41800000000E+01 0.  1.
         -5    1    3    3    0  502 -0.83033860007E+02  0.14840605119E+02 -0.10893541941E+03  0.13783781582E+03  0.41800000000E+01 0.  1.
        -11    1    1    2    0    0 -0.71224070687E+01 -0.52569701693E+02 -0.19747533448E+03  0.20447691788E+03  0.00000000000E+00 0. -1.
         11    1    1    2    0    0  0.51725876999E+02 -0.80354470211E+01 -0.62681717930E+02  0.81664756920E+02  0.00000000000E+00 0.  1.
</event>
<event>
 7    1  0.2900135E-009  0.3103895E+03  0.7561462E-02  0.1080159E+00
         -2   -1    0    0    0  501 -0.00000000000E+00  0.00000000000E+00  0.11253601636E+03  0.11253601636E+03  0.00000000000E+00 0.  1.
          2   -1    0    0  501    0  0.00000000000E+00 -0.00000000000E+00 -0.12263970617E+04  0.12263970617E+04  0.00000000000E+00 0. -1.
         25    2    1    2    0    0  0.27434368619E+03  0.12168464518E+03 -0.90674313851E+03  0.96327668018E+03  0.12508889767E+03 0.  0.
          5    1    3    3  502    0  0.23380112700E+02 -0.10810976092E+02 -0.19963976914E+03  0.20133806569E+03  0.41800000000E+01 0. -1.
         -5    1    3    3    0  502  0.25096357349E+03  0.13249562127E+03 -0.70710336937E+03  0.76193861449E+03  0.41800000000E+01 0. -1.
        -11    1    1    2    0    0 -0.48924289417E+02  0.98012794930E+01 -0.16739500848E+02  0.52629479033E+02  0.00000000000E+00 0.  1.
         11    1    1    2    0    0 -0.22541939677E+03 -0.13148592467E+03 -0.19037840597E+03  0.32302691883E+03  0.00000000000E+00 0. -1.
</event>
<event>
 7    1  0.2900135E-009  0.6947051E+02  0.7561462E-02  0.1361903E+00
          2   -1    0    0  501    0  0.00000000000E+00  0.00000000000E+00  0.18382151975E+03  0.18382151975E+03  0.00000000000E+00 0. -1.
         -2   -1    0    0    0  501 -0.00000000000E+00 -0.00000000000E+00 -0.90444500698E+02  0.90444500698E+02  0.00000000000E+00 0.  1.
         25    2    1    2    0    0 -0.42723899638E+02 -0.29411981675E+02  0.12085887480E+03  0.18149967020E+03  0.12507944035E+03 0.  0.
          5    1    3    3  502    0 -0.23850041455E+02 -0.17150156909E+02 -0.21924261367E+02  0.36893061623E+02  0.41800000000E+01 0. -1.
         -5    1    3    3    0  502 -0.18873858183E+02 -0.12261824767E+02  0.14278313617E+03  0.14460660858E+03  0.41800000000E+01 0. -1.
        -11    1    1    2    0    0  0.61380943907E+02  0.28561274892E+02 -0.12548458266E+02  0.68853689104E+02  0.00000000000E+00 0. -1.
         11    1    1    2    0    0 -0.18657044268E+02  0.85070678342E+00 -0.14933397481E+02  0.23912661148E+02  0.00000000000E+00 0.  1.
</event>
<event>
 7    1  0.2900135E-009  0.1367518E+03  0.7561462E-02  0.1217768E+00
         -1   -1    0    0    0  501 -0.00000000000E+00  0.00000000000E+00  0.43131371143E+03  0.43131371143E+03  0.00000000000E+00 0.  1.
          1   -1    0    0  501    0  0.00000000000E+00 -0.00000000000E+00 -0.99061686695E+02  0.99061686695E+02  0.00000000000E+00 0. -1.
         25    2    1    2    0    0 -0.12775707205E+03 -0.32256884336E+02  0.32102747180E+03  0.36887481451E+03  0.12509042764E+03 0.  0.
          5    1    3    3  502    0 -0.11031869132E+03 -0.18816779709E+02  0.32703090602E+03  0.34567466026E+03  0.41800000000E+01 0.  1.
         -5    1    3    3    0  502 -0.17438380736E+02 -0.13440104627E+02 -0.60034342208E+01  0.23200154256E+02  0.41800000000E+01 0.  1.
        -11    1    1    2    0    0  0.67021502478E+02 -0.60544284364E+01  0.46199568650E+02  0.81626821827E+02  0.00000000000E+00 0.  1.
         11    1    1    2    0    0  0.60735569573E+02  0.38311312773E+02 -0.34975015713E+02  0.79873761786E+02  0.00000000000E+00 0. -1.
</event>
<event>
 7    1  0.2900135E-009  0.1754699E+03  0.7561462E-02  0.1172261E+00
          1   -1    0    0  501    0  0.00000000000E+00  0.00000000000E+00  0.27277516501E+03  0.27277516501E+03  0.00000000000E+00 0. -1.
         -1   -1    0    0    0  501 -0.00000000000E+00 -0.00000000000E+00 -0.16560192415E+03  0.16560192415E+03  0.00000000000E+00 0.  1.
         25    2    1    2    0    0 -0.17112230170E+03 -0.87751315791E+01 -0.78743844934E+01  0.21229219466E+03  0.12508447111E+03 0.  0.
          5    1    3    3  502    0 -0.11071411310E+03  0.10427176497E+02 -0.63266063845E+02  0.12800940623E+03  0.41800000000E+01 0. -1.
         -5    1    3    3    0  502 -0.60408188598E+02 -0.19202308076E+02  0.55391679352E+02  0.84282788436E+02  0.41800000000E+01 0. -1.
        -11    1    1    2    0    0  0.79602833506E+02  0.24466230090E+02  0.69286205545E+01  0.83565622716E+02  0.00000000000E+00 0.  1.
         11    1    1    2    0    0  0.91519468189E+02 -0.15691098511E+02  0.10811900480E+03  0.14251927178E+03  0.00000000000E+00 0. -1.
</event>
<event>
 7    1  0.2900135E-009  0.1230755E+03  0.7561462E-02  0.1238108E+00
          2   -1    0    0  501    0  0.00000000000E+00  0.00000000000E+00  0.11944945560E+03  0.11944945560E+03  0.00000000000E+00 0. -1.
         -2   -1    0    0    0  501 -0.00000000000E+00 -0.00000000000E+00 -0.44806794014E+03  0.44806794014E+03  0.00000000000E+00 0.  1.
         25    2    1    2    0    0 -0.45579449800E+02 -0.50147865491E+02  0.65973687990E+02  0.15681721067E+03  0.12508723116E+03 0.  0.
          5    1    3    3  502    0 -0.11954152492E+02  0.36836385334E+02  0.47889369846E+02  0.61730747529E+02  0.41800000000E+01 0. -1.
         -5    1    3    3    0  502 -0.33625297308E+02 -0.86984250825E+02  0.18084318144E+02  0.95086463145E+02  0.41800000000E+01 0. -1.
        -11    1    1    2    0    0  0.53887356320E+01 -0.26639046357E+02 -0.89331682908E+02  0.93374658413E+02  0.00000000000E+00 0.  1.
         11    1    1    2    0    0  0.40190714168E+02  0.76786911848E+02 -0.30526048963E+03  0.31732552665E+03  0.00000000000E+00 0. -1.
</event>
<event>
 7    1  0.2900135E-009  0.1063494E+03  0.7561462E-02  0.1267484E+00
          2   -1    0    0  501    0  0.00000000000E+00  0.00000000000E+00  0.12069592388E+04  0.12069592388E+04  0.00000000000E+00 0. -1.
         -2   -1    0    0    0  501 -0.00000000000E+00 -0.00000000000E+00 -0.11357782403E+02  0.11357782403E+02  0.00000000000E+00 0.  1.
         25    2    1    2    0    0  0.17854284446E+02  0.36986174770E+02  0.75984715437E+03  0.77116963575E+03  0.12509259172E+03 0.  0.
          5    1    3    3  502    0  0.95954875792E+01  0.77200588172E+02  0.31818396672E+03  0.32758283422E+03  0.41800000000E+01 0. -1.
         -5    1    3    3    0  502  0.82587968665E+01 -0.40214413401E+02  0.44166318764E+03  0.44358680153E+03  0.41800000000E+01 0. -1.
        -11    1    1    2    0    0  0.34023501254E+02 -0.14815727607E+02  0.99535266711E+02  0.10622793296E+03  0.00000000000E+00 0.  1.
         11    1    1    2    0    0 -0.51877785700E+02 -0.22170447163E+02  0.33621903528E+03  0.34091945245E+03  0.00000000000E+00 0. -1.
</event>
<event>
 7    1  0.2900135E-009  0.1017405E+03  0.7561462E-02  0.1276678E+00
         -2   -1    0    0    0  501 -0.00000000000E+00  0.00000000000E+00  0.11149361050E+03  0.11149361050E+03  0.00000000000E+00 0.  1.
          2   -1    0    0  501    0  0.00000000000E+00 -0.00000000000E+00 -0.19466005788E+03  0.19466005788E+03  0.00000000000E+00 0. -1.
         25    2    1    2    0    0  0.29784774395E+02  0.85742441791E+01 -0.14240689698E+03  0.19206268956E+03  0.12509077489E+03 0.  0.
          5    1    3    3  502    0  0.46493265938E+01  0.62031952862E+02 -0.10470069233E+03  0.12185764969E+03  0.41800000000E+01 0. -1.
         -5    1    3    3    0  502  0.25135447801E+02 -0.53457708683E+02 -0.37706204652E+02  0.70205039869E+02  0.41800000000E+01 0. -1.
        -11    1    1    2    0    0 -0.42013936207E+02 -0.33773116341E+02  0.66060536444E+02  0.85263055881E+02  0.00000000000E+00 0.  1.
         11    1    1    2    0    0  0.12229161812E+02  0.25198872162E+02 -0.68200868494E+01  0.28827922948E+02  0.00000000000E+00 0. -1.
</event>
<event>
 7    1  0.2900135E-009  0.1293989E+03  0.7561462E-02  0.1228350E+00
          2   -1    0    0  501    0  0.00000000000E+00  0.00000000000E+00  0.17611608091E+03  0.17611608091E+03  0.00000000000E+00 0. -1.
         -2   -1    0    0    0  501 -0.00000000000E+00 -0.00000000000E+00 -0.12650469133E+03  0.12650469133E+03  0.00000000000E+00 0.  1.
         25    2    1    2    0    0  0.85069995694E+02 -0.39177532888E+02  0.72664171636E+02  0.17233358082E+03  0.12508796100E+03 0.  0.
          5    1    3    3  502    0  0.39797168828E+02 -0.83362101025E+02  0.37039145563E+02  0.99611371027E+02  0.41800000000E+01 0. -1.
         -5    1    3    3    0  502  0.45272826866E+02  0.44184568137E+02  0.35625026074E+02  0.72722209789E+02  0.41800000000E+01 0. -1.
        -11    1    1    2    0    0 -0.55590505590E+02  0.21922985535E+01  0.26641299420E+02  0.61683622782E+02  0.00000000000E+00 0. -1.
         11    1    1    2    0    0 -0.29479490104E+02  0.36985234334E+02 -0.49694081476E+02  0.68603568634E+02  0.00000000000E+00 0.  1.
</event>
<event>
 7    1  0.2900135E-009  0.8313812E+02  0.7561462E-02  0.1320375E+00
          1   -1    0    0  501    0  0.00000000000E+00  0.00000000000E+00  0.48939589060E+03  0.48939589060E+03  0.00000000000E+00 0. -1.
         -1   -1    0    0    0  501 -0.00000000000E+00 -0.00000000000E+00 -0.31893639937E+02  0.31893639937E+02  0.00000000000E+00 0.  1.
         25    2    1    2    0    0 -0.37232933711E+01 -0.45638841655E+02  0.34043101481E+03  0.36556466302E+03  0.12508988856E+03 0.  0.
          5    1    3    3  502    0  0.38679063241E+02 -0.52371620214E+00  0.26521788072E+03  0.26805660012E+03  0.41800000000E+01 0.  1.
         -5    1    3    3    0  502 -0.42402356612E+02 -0.45115125453E+02  0.75213134086E+02  0.97508062897E+02  0.41800000000E+01 0.  1.
        -11    1    1    2    0    0  0.23008138956E+02  0.10631135797E+02 -0.62364005155E+01  0.26101498002E+02  0.00000000000E+00 0.  1.
         11    1    1    2    0    0 -0.19284845585E+02  0.35007705858E+02  0.12330763637E+03  0.12962336952E+03  0.00000000000E+00 0. -1.
</event>
<event>
 7    1  0.2900135E-009  0.1234691E+03  0.7561462E-02  0.1237481E+00
          1   -1    0    0  501    0  0.00000000000E+00  0.00000000000E+00  0.88404470287E+03  0.88404470287E+03  0.00000000000E+00 0. -1.
         -1   -1    0    0    0  501 -0.00000000000E+00 -0.00000000000E+00 -0.22455538175E+02  0.22455538175E+02  0.00000000000E+00 0.  1.
         25    2    1    2    0    0  0.34762602624E+02  0.65237023469E+02  0.59253990087E+03  0.61009463180E+03  0.12509043872E+03 0.  0.
          5    1    3    3  502    0  0.21297555395E+02 -0.26114471141E+02  0.54794282423E+02  0.64462681104E+02  0.41800000000E+01 0.  1.
         -5    1    3    3    0  502  0.13465047229E+02  0.91351494609E+02  0.53774561844E+03  0.54563195070E+03  0.41800000000E+01 0.  1.
        -11    1    1    2    0    0  0.89643383990E+01  0.21565611883E+02  0.27766948062E+02  0.36282756008E+02  0.00000000000E+00 0.  1.
         11    1    1    2    0    0 -0.43726941023E+02 -0.86802635352E+02  0.24128231577E+03  0.26012285324E+03  0.00000000000E+00 0. -1.
</event>
<event>
 7    1  0.2900135E-009  0.1118099E+03  0.7561462E-02  0.1257254E+00
          2   -1    0    0  501    0  0.00000000000E+00  0.00000000000E+00  0.74016492625E+03  0.74016492625E+03  0.00000000000E+00 0. -1.
         -2   -1    0    0    0  501 -0.00000000000E+00 -0.00000000000E+00 -0.46540285984E+02  0.46540285984E+02  0.00000000000E+00 0.  1.
         25    2    1    2    0    0  0.19219677000E+02  0.20148505313E+02  0.60554878587E+03  0.61896029635E+03  0.12508860118E+03 0.  0.
          5    1    3    3  502    0  0.16312100192E+01 -0.36779674464E+02  0.46196333921E+03  0.46344687341E+03  0.41800000000E+01 0.  1.
         -5    1    3    3    0  502  0.17588466981E+02  0.56928179777E+02  0.14358544665E+03  0.15551342294E+03  0.41800000000E+01 0.  1.
        -11    1    1    2    0    0  0.12810638230E+02  0.48991493517E+02 -0.83957243657E+00  0.50645668825E+02  0.00000000000E+00 0.  1.
         11    1    1    2    0    0 -0.32030315230E+02 -0.69139998830E+02  0.88915426838E+02  0.11709924706E+03  0.00000000000E+00 0. -1.
</event>
<event>
 7    1  0.2900135E-009  0.1070404E+03  0.7561462E-02  0.1266151E+00
         -1   -1    0    0    0  501 -0.00000000000E+00  0.00000000000E+00  0.49446843869E+03  0.49446843869E+03  0.00000000000E+00 0.  1.
          1   -1    0    0  501    0  0.00000000000E+00 -0.00000000000E+00 -0.51650060407E+02  0.51650060407E+02  0.00000000000E+00 0. -1.
         25    2    1    2    0    0  0.61688262963E+02  0.43120361517E+02  0.37903540999E+03  0.40617800442E+03  0.12509165392E+03 0.  0.
          5    1    3    3  502    0  0.24697493871E+02 -0.21382800912E+02  0.28170327612E+03  0.28362192891E+03  0.41800000000E+01 0. -1.
         -5    1    3    3    0  502  0.36990769092E+02  0.64503162430E+02  0.97332133866E+02  0.12255607551E+03  0.41800000000E+01 0. -1.
        -11    1    1    2    0    0  0.17938916634E+02 -0.76499633957E+01  0.47385206976E+02  0.51241433529E+02  0.00000000000E+00 0.  1.
         11    1    1    2    0    0 -0.79627179597E+02 -0.35470398122E+02  0.16397761322E+02  0.88699061155E+02  0.00000000000E+00 0. -1.
</event>
<event>
 7    1  0.3076701E-009  0.1246873E+03  0.7561462E-02  0.1235559E+00
          2   -1    0    0  501    0  0.00000000000E+00  0.00000000000E+00  0.67579483258E+03  0.67579483258E+03  0.00000000000E+00 0. -1.
         -2   -1    0    0    0  501 -0.00000000000E+00 -0.00000000000E+00 -0.43432814937E+02  0.43432814937E+02  0.00000000000E+00 0.  1.
         25    2    1    2    0    0  0.77685780210E+02  0.64128746313E+01  0.11176509014E+03  0.18497249000E+03  0.12508869364E+03 0.  0.
          5    1    3    3  502    0  0.74218454995E+02  0.57640781863E+02  0.57990312495E+02  0.11050424218E+03  0.41800000000E+01 0.  1.
         -5    1    3    3    0  502  0.34673252153E+01 -0.51227907232E+02  0.53774777643E+02  0.74468247825E+02  0.41800000000E+01 0.  1.
        -11    1    1    2    0    0 -0.77558552602E+02 -0.27812264737E+02  0.49022719658E+03  0.49710316376E+03  0.00000000000E+00 0. -1.
         11    1    1    2    0    0 -0.12722760802E+00  0.21399390105E+02  0.30369730926E+02  0.37151993759E+02  0.00000000000E+00 0.  1.
</event>
<event>
 7    1  0.2900135E-009  0.1689391E+03  0.7561462E-02  0.1178959E+00
         -1   -1    0    0    0  501 -0.00000000000E+00  0.00000000000E+00  0.12382935473E+03  0.12382935473E+03  0.00000000000E+00 0.  1.
          1   -1    0    0  501    0  0.00000000000E+00 -0.00000000000E+00 -0.95432138505E+03  0.95432138505E+03  0.00000000000E+00 0. -1.
         25    2    1    2    0    0 -0.13545046235E+03  0.84608838280E+02 -0.86745159932E+03  0.89086283260E+03  0.12513523116E+03 0.  0.
          5    1    3    3  502    0 -0.59087698785E+02 -0.30863256127E+01 -0.11428517998E+03  0.12876123763E+03  0.41800000000E+01 0.  1.
         -5    1    3    3    0  502 -0.76362763568E+02  0.87695163892E+02 -0.75316641934E+03  0.76210159497E+03  0.41800000000E+01 0.  1.
        -11    1    1    2    0    0  0.88707400123E+02 -0.70702989157E+02 -0.16834018234E+02  0.11467911616E+03  0.00000000000E+00 0. -1.
         11    1    1    2    0    0  0.46743062230E+02 -0.13905849123E+02  0.53793587232E+02  0.72608791022E+02  0.00000000000E+00 0.  1.
</event>
<event>
 7    1  0.2900135E-009  0.1662681E+03  0.7561462E-02  0.1181796E+00
         -1   -1    0    0    0  501 -0.00000000000E+00  0.00000000000E+00  0.87328232396E+02  0.87328232396E+02  0.00000000000E+00 0.  1.
          1   -1    0    0  501    0  0.00000000000E+00 -0.00000000000E+00 -0.33898388189E+03  0.33898388189E+03  0.00000000000E+00 0. -1.
         25    2    1    2    0    0  0.10036808190E+03  0.87434801236E+02 -0.14100244277E+03  0.23075402039E+03  0.12508849958E+03 0.  0.
          5    1    3    3  502    0 -0.22122975652E+02  0.28027561250E+01  0.38226515393E+01  0.23007967280E+02  0.41800000000E+01 0. -1.
         -5    1    3    3    0  502  0.12249105756E+03  0.84632045111E+02 -0.14482509431E+03  0.20774605311E+03  0.41800000000E+01 0. -1.
        -11    1    1    2    0    0 -0.73137004148E+02 -0.41204748657E+01 -0.56688880195E+02  0.92626285829E+02  0.00000000000E+00 0. -1.
         11    1    1    2    0    0 -0.27231077757E+02 -0.83314326370E+02 -0.53964326531E+02  0.10293180807E+03  0.00000000000E+00 0.  1.
</event>
<event>
 7    1  0.2900135E-009  0.1834599E+03  0.7561462E-02  0.1164496E+00
          2   -1    0    0  501    0  0.00000000000E+00  0.00000000000E+00  0.18838809421E+03  0.18838809421E+03  0.00000000000E+00 0. -1.
         -2   -1    0    0    0  501 -0.00000000000E+00 -0.00000000000E+00 -0.19636096755E+03  0.19636096755E+03  0.00000000000E+00 0.  1.
         25    2    1    2    0    0 -0.14619991070E+03  0.36479222042E+02  0.45763965333E+02  0.20111923397E+03  0.12509779463E+03 0.  0.
          5    1    3    3  502    0  0.91477541565E+01  0.35313163810E+02 -0.62335238979E+01  0.37242853873E+02  0.41800000000E+01 0. -1.
         -5    1    3    3    0  502 -0.15534766486E+03  0.11660582313E+01  0.51997489230E+02  0.16387638010E+03  0.41800000000E+01 0. -1.
        -11    1    1    2    0    0  0.15161114134E+03 -0.14665109372E+02 -0.52529524395E+02  0.16112217272E+03  0.00000000000E+00 0.  1.
         11    1    1    2    0    0 -0.54112306371E+01 -0.21814112669E+02 -0.12073142842E+01  0.22507655061E+02  0.00000000000E+00 0. -1.
</event>
<event>
 7    1  0.3183666E-009  0.3037230E+03  0.7561462E-02  0.1083394E+00
         -3   -1    0    0    0  501 -0.00000000000E+00  0.00000000000E+00  0.62332064309E+02  0.62332064309E+02  0.00000000000E+00 0.  1.
          3   -1    0    0  501    0  0.00000000000E+00 -0.00000000000E+00 -0.15175085673E+04  0.15175085673E+04  0.00000000000E+00 0. -1.
         25    2    1    2    0    0 -0.24508650470E+03 -0.14356686338E+03 -0.62719678849E+03  0.69979105060E+03  0.12511140620E+03 0.  0.
          5    1    3    3  502    0 -0.25744848411E+03 -0.12232029057E+03 -0.58553621497E+03  0.65123890156E+03  0.41800000000E+01 0. -1.
         -5    1    3    3    0  502  0.12361979404E+02 -0.21246572818E+02 -0.41660573516E+02  0.48552149046E+02  0.41800000000E+01 0. -1.
        -11    1    1    2    0    0  0.10322986464E+03  0.11911322679E+02 -0.25973558265E+03  0.27975142083E+03  0.00000000000E+00 0.  1.
         11    1    1    2    0    0  0.14185664006E+03  0.13165554070E+03 -0.56824413184E+03  0.60029816016E+03  0.00000000000E+00 0. -1.
</event>
<event>
 7    1  0.2900135E-009  0.1379426E+03  0.7561462E-02  0.1216124E+00
         -2   -1    0    0    0  501 -0.00000000000E+00  0.00000000000E+00  0.89878120455E+02  0.89878120455E+02  0.00000000000E+00 0.  1.
          2   -1    0    0  501    0  0.00000000000E+00 -0.00000000000E+00 -0.27685802299E+03  0.27685802299E+03  0.00000000000E+00 0. -1.
         25    2    1    2    0    0  0.79419556634E+02  0.73064231772E+02 -0.13108887056E+03  0.21089785310E+03  0.12509102492E+03 0.  0.
          5    1    3    3  502    0  0.32385704701E+02 -0.27008819257E+02 -0.76634824324E+02  0.87570993404E+02  0.41800000000E+01 0.  1.
         -5    1    3    3    0  502  0.47033851933E+02  0.10007305103E+03 -0.54454046237E+02  0.12332685969E+03  0.41800000000E+01 0.  1.
        -11    1    1    2    0    0 -0.26149084201E+01 -0.38572005890E+02 -0.60187607100E+02  0.71534505190E+02  0.00000000000E+00 0. -1.
         11    1    1    2    0    0 -0.76804648214E+02 -0.34492225882E+02  0.42965751287E+01  0.84303785155E+02  0.00000000000E+00 0.  1.
</event>
<event>
 7    1  0.2900135E-009  0.1556916E+03  0.7561462E-02  0.1193649E+00
          1   -1    0    0  501    0  0.00000000000E+00  0.00000000000E+00  0.10882505656E+04  0.10882505656E+04  0.00000000000E+00 0. -1.
         -1   -1    0    0    0  501 -0.00000000000E+00 -0.00000000000E+00 -0.28092601759E+02  0.28092601759E+02  0.00000000000E+00 0.  1.
         25    2    1    2    0    0  0.61589810705E+02  0.11641098733E+03  0.68343172194E+03  0.70715671392E+03  0.12508747631E+03 0.  0.
          5    1    3    3  502    0  0.73968481100E+02  0.13806025261E+02  0.35127149046E+03  0.35926463080E+03  0.41800000000E+01 0.  1.
         -5    1    3    3    0  502 -0.12378670394E+02  0.10260496207E+03  0.33216023148E+03  0.34789208312E+03  0.41800000000E+01 0.  1.
        -11    1    1    2    0    0 -0.12387821887E+02 -0.12406483352E+02  0.25453830916E+01  0.17716036107E+02  0.00000000000E+00 0.  1.
         11    1    1    2    0    0 -0.49201988818E+02 -0.10400450398E+03  0.37418085886E+03  0.39147041739E+03  0.00000000000E+00 0. -1.
</event>
<event>
 7    1  0.2900135E-009  0.1346033E+03  0.7561462E-02  0.1220781E+00
          1   -1    0    0  501    0  0.00000000000E+00  0.00000000000E+00  0.17519842724E+03  0.17519842724E+03  0.00000000000E+00 0. -1.
         -1   -1    0    0    0  501 -0.00000000000E+00 -0.00000000000E+00 -0.14874774893E+03  0.14874774893E+03  0.00000000000E+00 0.  1.
         25    2    1    2    0    0  0.22068006541E+02  0.10499335917E+03 -0.36339626526E+02  0.16875680649E+03  0.12509072267E+03 0.  0.
          5    1    3    3  502    0  0.12585024649E+02 -0.26628903165E+02  0.55083169943E+01  0.30253847446E+02  0.41800000000E+01 0.  1.
         -5    1    3    3    0  502  0.94829818923E+01  0.13162226234E+03 -0.41847943520E+02  0.13850295905E+03  0.41800000000E+01 0.  1.
        -11    1    1    2    0    0 -0.15746648218E+02 -0.61762862305E+02  0.84948055969E+02  0.10620160217E+03  0.00000000000E+00 0. -1.
         11    1    1    2    0    0 -0.63213583227E+01 -0.43230496865E+02 -0.22157751134E+02  0.48987767510E+02  0.00000000000E+00 0.  1.
</event>
<event>
 7    1  0.2900135E-009  0.1007725E+03  0.7561462E-02  0.1278680E+00
          1   -1    0    0  501    0  0.00000000000E+00  0.00000000000E+00  0.53598943132E+03  0.53598943132E+03  0.00000000000E+00 0. -1.
         -1   -1    0    0    0  501 -0.00000000000E+00 -0.00000000000E+00 -0.26581783209E+02  0.26581783209E+02  0.00000000000E+00 0.  1.
         25    2    1    2    0    0  0.43163060555E+02  0.11784285032E+01  0.37778567218E+03  0.40029165668E+03  0.12508780041E+03 0.  0.
          5    1    3    3  502    0  0.30538033810E+02  0.61586008073E+02  0.22984536569E+03  0.23994118535E+03  0.41800000000E+01 0.  1.
         -5    1    3    3    0  502  0.12625026745E+02 -0.60407579569E+02  0.14794030649E+03  0.16035047133E+03  0.41800000000E+01 0.  1.
        -11    1    1    2    0    0 -0.45816449744E+02 -0.21300586848E+02  0.30235808683E+02  0.58881798494E+02  0.00000000000E+00 0.  1.
         11    1    1    2    0    0  0.26533891890E+01  0.20122158345E+02  0.10138616725E+03  0.10339775936E+03  0.00000000000E+00 0. -1.
</event>
<event>
 7    1  0.3591525E-009  0.1271222E+03  0.7561462E-02  0.1231789E+00
          3   -1    0    0  501    0  0.00000000000E+00  0.00000000000E+00  0.61860863417E+03  0.61860863417E+03  0.00000000000E+00 0. -1.
         -3   -1    0    0    0  501 -0.00000000000E+00 -0.00000000000E+00 -0.27289941065E+02  0.27289941065E+02  0.00000000000E+00 0.  1.
         25    2    1    2    0    0  0.42456730712E+02  0.53329303364E+02  0.37856955586E+03  0.40447885248E+03  0.12506656188E+03 0.  0.
          5    1    3    3  502    0  0.18052390475E+02 -0.40233487675E+02  0.94301037196E+02  0.10418627716E+03  0.41800000000E+01 0.  1.
         -5    1    3    3    0  502  0.24404340237E+02  0.93562791039E+02  0.28426851867E+03  0.30029257532E+03  0.41800000000E+01 0.  1.
        -11    1    1    2    0    0  0.19460554698E+02 -0.47067812854E+02  0.11135811777E+03  0.12245294031E+03  0.00000000000E+00 0.  1.
         11    1    1    2    0    0 -0.61917285409E+02 -0.62614905096E+01  0.10139101947E+03  0.11896678244E+03  0.00000000000E+00 0. -1.
</event>
<event>
 6    1  0.2900135E-009  0.1052859E+03  0.7561462E-02  0.1269557E+00
          1   -1    0    0  501    0  0.00000000000E+00  0.00000000000E+00  0.11027967499E+04  0.11027967499E+04  0.00000000000E+00 0. -1.
         -1   -1    0    0    0  501 -0.00000000000E+00 -0.00000000000E+00 -0.15171339377E+02  0.15171339377E+02  0.00000000000E+00 0.  1.
          5    1    1    2  502    0 -0.16699565955E+02  0.76536628491E+02  0.18160595789E+03  0.19782549720E+03  0.41800000000E+01 0.  1.
         -5    1    1    2    0  502 -0.10579771385E+02 -0.14570680222E+02  0.42639769533E+03  0.42679819970E+03  0.41800000000E+01 0.  1.
        -11    1    1    2    0    0 -0.33487394191E+02 -0.30079230211E+02  0.14787642083E+03  0.15457555272E+03  0.00000000000E+00 0.  1.
         11    1    1    2    0    0  0.60766731531E+02 -0.31886718058E+02  0.33174533647E+03  0.33876883965E+03  0.00000000000E+00 0. -1.
</event>
<event>
 7    1  0.2900135E-009  0.1303417E+03  0.7561462E-02  0.1226950E+00
          2   -1    0    0  501    0  0.00000000000E+00  0.00000000000E+00  0.43036277762E+03  0.43036277762E+03  0.00000000000E+00 0.  1.
         -2   -1    0    0    0  501 -0.00000000000E+00 -0.00000000000E+00 -0.40997821260E+02  0.40997821260E+02  0.00000000000E+00 0. -1.
         25    2    1    2    0    0 -0.48927367701E+02 -0.53673282016E+02  0.18233894804E+03  0.23274424985E+03  0.12509070850E+03 0.  0.
          5    1    3    3  502    0  0.32455141903E+02 -0.53994373166E+02  0.77733304288E+02  0.10014323524E+03  0.41800000000E+01 0.  1.
         -5    1    3    3    0  502 -0.81382509604E+02  0.32109115072E+00  0.10460564375E+03  0.13260101460E+03  0.41800000000E+01 0.  1.
        -11    1    1    2    0    0  0.31878637122E+02 -0.21840188307E+02  0.46977694795E+02  0.60828818321E+02  0.00000000000E+00 0.  1.
         11    1    1    2    0    0  0.17048730579E+02  0.75513470323E+02  0.16004831353E+03  0.17778753072E+03  0.00000000000E+00 0. -1.
</event>
<event>
 7    1  0.2900135E-009  0.1155484E+03  0.7561462E-02  0.1250627E+00
          1   -1    0    0  501    0  0.00000000000E+00  0.00000000000E+00  0.18342854754E+03  0.18342854754E+03  0.00000000000E+00 0. -1.
         -1   -1    0    0    0  501 -0.00000000000E+00 -0.00000000000E+00 -0.17887309670E+03  0.17887309670E+03  0.00000000000E+00 0.  1.
         25    2    1    2    0    0 -0.18222994124E+02  0.88492433618E+02  0.11723575401E+03  0.19379005611E+03  0.12508947000E+03 0.  0.
          5    1    3    3  502    0 -0.80096158056E+01  0.10004528475E+03  0.13604443443E+03  0.16911171894E+03  0.41800000000E+01 0. -1.
         -5    1    3    3    0  502 -0.10213378319E+02 -0.11552851134E+02 -0.18808680418E+02  0.24678337162E+02  0.41800000000E+01 0. -1.
        -11    1    1    2    0    0  0.42084718588E+02 -0.77940849871E+02 -0.52617266541E+02  0.10302658082E+03  0.00000000000E+00 0. -1.
         11    1    1    2    0    0 -0.23861724463E+02 -0.10551583748E+02 -0.60063036626E+02  0.65485007312E+02  0.00000000000E+00 0.  1.
</event>
<event>
 7    1  0.2900135E-009  0.1231912E+03  0.7561462E-02  0.1237923E+00
          2   -1    0    0  501    0  0.00000000000E+00  0.00000000000E+00  0.94462040744E+03  0.94462040744E+03  0.00000000000E+00 0. -1.
         -2   -1    0    0    0  501 -0.00000000000E+00 -0.00000000000E+00 -0.21340400512E+02  0.21340400512E+02  0.00000000000E+00 0.  1.
         25    2    1    2    0    0 -0.24343242696E+02  0.86419907319E+02  0.44549680643E+03  0.47135571959E+03  0.12509123073E+03 0.  0.
          5    1    3    3  502    0  0.22303332994E+02  0.62483173264E+02  0.89458544684E+02  0.11145352942E+03  0.41800000000E+01 0. -1.
         -5    1    3    3    0  502 -0.46646575689E+02  0.23936734056E+02  0.35603826174E+03  0.35990219016E+03  0.41800000000E+01 0. -1.
        -11    1    1    2    0    0  0.37071048266E+02  0.28099711645E+01  0.16194829580E+03  0.16616079282E+03  0.00000000000E+00 0. -1.
         11    1    1    2    0    0 -0.12727805570E+02 -0.89229878484E+02  0.31583490470E+03  0.32844429555E+03  0.00000000000E+00 0.  1.
</event>
<event>
 7    1  0.2900135E-009  0.9703425E+02  0.7561462E-02  0.1286659E+00
         -1   -1    0    0    0  501 -0.00000000000E+00  0.00000000000E+00  0.10698402182E+03  0.10698402182E+03  0.00000000000E+00 0.  1.
          1   -1    0    0  501    0  0.00000000000E+00 -0.00000000000E+00 -0.14279294597E+03  0.14279294597E+03  0.00000000000E+00 0. -1.
         25    2    1    2    0    0 -0.28836987764E+02  0.35883346582E+01 -0.74536128830E+02  0.14848512036E+03  0.12509096074E+03 0.  0.
          5    1    3    3  502    0 -0.41300904039E+02 -0.42561849886E+02  0.45463477854E+00  0.59455486146E+02  0.41800000000E+01 0. -1.
         -5    1    3    3    0  502  0.12463916275E+02  0.46150184544E+02 -0.74990763608E+02  0.89029634218E+02  0.41800000000E+01 0. -1.
        -11    1    1    2    0    0  0.31127696186E+02 -0.39697889671E+02  0.41045820090E+02  0.65035492318E+02  0.00000000000E+00 0.  1.
         11    1    1    2    0    0 -0.22907084217E+01  0.36109555013E+02 -0.23186154140E+01  0.36256355108E+02  0.00000000000E+00 0. -1.
</event>
<event>
 7    1  0.2900135E-009  0.9553250E+02  0.7561462E-02  0.1289981E+00
         -2   -1    0    0    0  501 -0.00000000000E+00  0.00000000000E+00  0.37175407297E+02  0.37175407297E+02  0.00000000000E+00 0. -1.
          2   -1    0    0  501    0  0.00000000000E+00 -0.00000000000E+00 -0.37348473196E+03  0.37348473196E+03  0.00000000000E+00 0.  1.
         25    2    1    2    0    0 -0.40617488558E+02  0.16661512170E+02 -0.21889016193E+03  0.25589545911E+03  0.12506876763E+03 0.  0.
          5    1    3    3  502    0 -0.50966428135E+02 -0.23776149441E+02 -0.20356796166E+03  0.21123510479E+03  0.41800000000E+01 0. -1.
         -5    1    3    3    0  502  0.10348939577E+02  0.40437661611E+02 -0.15322200270E+02  0.44660354321E+02  0.41800000000E+01 0. -1.
        -11    1    1    2    0    0 -0.67038951864E+01 -0.39578427642E+02 -0.21891940546E+02  0.45723639467E+02  0.00000000000E+00 0. -1.
         11    1    1    2    0    0  0.47321383744E+02  0.22916915472E+02 -0.95527222180E+02  0.10904104068E+03  0.00000000000E+00 0.  1.
</event>
<event>
 7    1  0.2900135E-009  0.1044388E+03  0.7561462E-02  0.1271229E+00
         -1   -1    0    0    0  501 -0.00000000000E+00  0.00000000000E+00  0.20173312736E+03  0.20173312736E+03  0.00000000000E+00 0.  1.
          1   -1    0    0  501    0  0.00000000000E+00 -0.00000000000E+00 -0.62743300972E+02  0.62743300972E+02  0.00000000000E+00 0. -1.
         25    2    1    2    0    0  0.10229917725E+02 -0.25662406186E+02  0.68236529081E+02  0.14514196657E+03  0.12508699473E+03 0.  0.
          5    1    3    3  502    0  0.60230835865E+02  0.89351831721E+01  0.11975570639E+02  0.62197088191E+02  0.41800000000E+01 0.  1.
         -5    1    3    3    0  502 -0.50000918140E+02 -0.34597589358E+02  0.56260958442E+02  0.82944878378E+02  0.41800000000E+01 0.  1.
        -11    1    1    2    0    0 -0.42493546711E+02 -0.44987710136E+01  0.94251281634E+01  0.43758124887E+02  0.00000000000E+00 0. -1.
         11    1    1    2    0    0  0.32263628985E+02  0.30161177200E+02  0.61328169145E+02  0.75576336879E+02  0.00000000000E+00 0.  1.
</event>
<event>
 7    1  0.2900135E-009  0.1147377E+03  0.7561462E-02  0.1252040E+00
          2   -1    0    0  501    0  0.00000000000E+00  0.00000000000E+00  0.78655832281E+03  0.78655832281E+03  0.00000000000E+00 0. -1.
         -2   -1    0    0    0  501 -0.00000000000E+00 -0.00000000000E+00 -0.21942996445E+02  0.21942996445E+02  0.00000000000E+00 0.  1.
         25    2    1    2    0    0  0.15564764035E+02 -0.69784970725E+02  0.51383944324E+03  0.53365844095E+03  0.12509258230E+03 0.  0.
          5    1    3    3  502    0 -0.18172891364E+02 -0.88617919572E+02  0.44918365213E+03  0.45822136069E+03  0.41800000000E+01 0.  1.
         -5    1    3    3    0  502  0.33737655399E+02  0.18832948847E+02  0.64655791113E+02  0.75437080263E+02  0.41800000000E+01 0.  1.
        -11    1    1    2    0    0 -0.42950052005E+02  0.51800846677E+02  0.99890179335E+02  0.12044119981E+03  0.00000000000E+00 0.  1.
         11    1    1    2    0    0  0.27385287970E+02  0.17984124048E+02  0.15088570379E+03  0.15440167850E+03  0.00000000000E+00 0. -1.
</event>
<event>
 7    1  0.2900135E-009  0.9906180E+02  0.7561462E-02  0.1282281E+00
         -1   -1    0    0    0  501 -0.00000000000E+00  0.00000000000E+00  0.27836083232E+03  0.27836083232E+03  0.00000000000E+00 0.  1.
          1   -1    0    0  501    0  0.00000000000E+00 -0.00000000000E+00 -0.55630624145E+02  0.55630624145E+02  0.00000000000E+00 0. -1.
         25    2    1    2    0    0 -0.13723896806E+01  0.84277057202E+01  0.21459776070E+03  0.24854269514E+03  0.12509341604E+03 0.  0.
          5    1    3    3  502    0 -0.24582434401E+02  0.58618027740E+02  0.15260180763E+03  0.16536370022E+03  0.41800000000E+01 0. -1.
         -5    1    3    3    0  502  0.23210044720E+02 -0.50190322019E+02  0.61995953064E+02  0.83178994924E+02  0.41800000000E+01 0. -1.
        -11    1    1    2    0    0 -0.37890573336E+02 -0.11465243725E+02  0.19954784520E+02  0.44332164245E+02  0.00000000000E+00 0.  1.
         11    1    1    2    0    0  0.39262963017E+02  0.30375380043E+01 -0.11822337043E+02  0.41116597077E+02  0.00000000000E+00 0. -1.
</event>
<event>
 7    1  0.2900135E-009  0.1338843E+03  0.7561462E-02  0.1221803E+00
          3   -1    0    0  501    0  0.00000000000E+00  0.00000000000E+00  0.10962090113E+04  0.10962090113E+04  0.00000000000E+00 0. -1.
         -3   -1    0    0    0  501 -0.00000000000E+00 -0.00000000000E+00 -0.20925301796E+02  0.20925301796E+02  0.00000000000E+00 0.  1.
         25    2    1    2    0    0  0.23090845230E+02 -0.10118400832E+03  0.68218589136E+03  0.70128276722E+03  0.12509411884E+03 0.  0.
          5    1    3    3  502    0 -0.11444147468E+02 -0.10058678900E+03  0.28314222565E+03  0.30072522837E+03  0.41800000000E+01 0.  1.
         -5    1    3    3    0  502  0.34534992698E+02 -0.59721931357E+00  0.39904366570E+03  0.40055753885E+03  0.41800000000E+01 0.  1.
        -11    1    1    2    0    0 -0.52861863033E+02  0.76467556100E+02  0.22681179403E+03  0.24512293571E+03  0.00000000000E+00 0.  1.
         11    1    1    2    0    0  0.29771017803E+02  0.24716452217E+02  0.16628602416E+03  0.17072861021E+03  0.00000000000E+00 0. -1.
</event>
<event>
 7    1  0.2900135E-009  0.9919776E+02  0.7561462E-02  0.1281992E+00
         -2   -1    0    0    0  501 -0.00000000000E+00  0.00000000000E+00  0.90052356525E+02  0.90052356525E+02  0.00000000000E+00 0.  1.
          2   -1    0    0  501    0  0.00000000000E+00 -0.00000000000E+00 -0.15506113829E+03  0.15506113829E+03  0.00000000000E+00 0. -1.
         25    2    1    2    0    0  0.12653192144E+02  0.28817912277E+02 -0.59090357194E+02  0.14188062518E+03  0.12509143116E+03 0.  0.
          5    1    3    3  502    0  0.34726153382E+02  0.71040120699E+02 -0.24608364350E+02  0.82919530109E+02  0.41800000000E+01 0.  1.
         -5    1    3    3    0  502 -0.22072961238E+02 -0.42222208421E+02 -0.34481992844E+02  0.58961095074E+02  0.41800000000E+01 0.  1.
        -11    1    1    2    0    0  0.77226502996E+01 -0.44817573203E+02  0.33204556883E+02  0.56309828567E+02  0.00000000000E+00 0.  1.
         11    1    1    2    0    0 -0.20375842443E+02  0.15999660926E+02 -0.39122981459E+02  0.46923041070E+02  0.00000000000E+00 0. -1.
</event>
<event>
 7    1  0.2900135E-009  0.1025524E+03  0.7561462E-02  0.1275018E+00
          2   -1    0    0  501    0  0.00000000000E+00  0.00000000000E+00  0.71824212051E+03  0.71824212051E+03  0.00000000000E+00 0. -1.
         -2   -1    0    0    0  501 -0.00000000000E+00 -0.00000000000E+00 -0.19235998456E+02  0.19235998456E+02  0.00000000000E+00 0.  1.
         25    2    1    2    0    0  0.69547932621E+01 -0.71104597140E+01  0.53459890235E+03  0.54912808370E+03  0.12508692229E+03 0.  0.
          5    1    3    3  502    0  0.65449329678E+02  0.26240407801E+01  0.30233206125E+03  0.30937460789E+03  0.41800000000E+01 0. -1.
         -5    1    3    3    0  502 -0.58494536416E+02 -0.97345004941E+01  0.23226684110E+03  0.23975347581E+03  0.41800000000E+01 0. -1.
        -11    1    1    2    0    0  0.36142204907E+02  0.75588599020E+01  0.31189927145E+02  0.48334324179E+02  0.00000000000E+00 0.  1.
         11    1    1    2    0    0 -0.43096998169E+02 -0.44840018808E+00  0.13321729256E+03  0.14001571109E+03  0.00000000000E+00 0. -1.
</event>
<event>
 7    1  0.2900135E-009  0.1093734E+03  0.7561462E-02  0.1261735E+00
          1   -1    0    0  501    0  0.00000000000E+00  0.00000000000E+00  0.95757065938E+02  0.95757065938E+02  0.00000000000E+00 0. -1.
         -1   -1    0    0    0  501 -0.00000000000E+00 -0.00000000000E+00 -0.16414180851E+03  0.16414180851E+03  0.00000000000E+00 0.  1.
         25    2    1    2    0    0  0.47219886733E+02  0.16414963322E+02  0.10030358974E+01  0.13475142100E+03  0.12513101397E+03 0.  0.
          5    1    3    3  502    0  0.21384085750E+02  0.70576600484E+02  0.75231975339E+01  0.74245582767E+02  0.41800000000E+01 0.  1.
         -5    1    3    3    0  502  0.25835800983E+02 -0.54161637162E+02 -0.65201616365E+01  0.60505838233E+02  0.41800000000E+01 0.  1.
        -11    1    1    2    0    0 -0.53591242124E+02 -0.35717364502E+02 -0.79607007167E+02  0.10239642059E+03  0.00000000000E+00 0.  1.
         11    1    1    2    0    0  0.63713553915E+01  0.19302401180E+02  0.10219228700E+02  0.22751032857E+02  0.00000000000E+00 0. -1.
</event>
<event>
 7    1  0.2900135E-009  0.1020513E+03  0.7561462E-02  0.1276041E+00
         -2   -1    0    0    0  501 -0.00000000000E+00  0.00000000000E+00  0.51219743203E+02  0.51219743203E+02  0.00000000000E+00 0.  1.
          2   -1    0    0  501    0  0.00000000000E+00 -0.00000000000E+00 -0.27192558278E+03  0.27192558278E+03  0.00000000000E+00 0. -1.
         25    2    1    2    0    0  0.38254911791E+02 -0.21343019866E+02 -0.10302115586E+03  0.16786853411E+03  0.12509006122E+03 0.  0.
          5    1    3    3  502    0  0.14486422124E+02  0.46034970683E+02 -0.78446082575E+02  0.92197262558E+02  0.41800000000E+01 0.  1.
         -5    1    3    3    0  502  0.23768489667E+02 -0.67377990549E+02 -0.24575073284E+02  0.75671271552E+02  0.41800000000E+01 0.  1.
        -11    1    1    2    0    0  0.18099717122E+02  0.21016607804E+02 -0.35180891904E+01  0.27958442643E+02  0.00000000000E+00 0.  1.
         11    1    1    2    0    0 -0.56354628913E+02  0.32641206222E+00 -0.11416659453E+03  0.12731834923E+03  0.00000000000E+00 0. -1.
</event>
<event>
 7    1  0.2900135E-009  0.1040606E+03  0.7561462E-02  0.1271982E+00
         -4   -1    0    0    0  501 -0.00000000000E+00  0.00000000000E+00  0.11895294569E+03  0.11895294569E+03  0.00000000000E+00 0. -1.
          4   -1    0    0  501    0  0.00000000000E+00 -0.00000000000E+00 -0.18339045292E+03  0.18339045292E+03  0.00000000000E+00 0.  1.
         25    2    1    2    0    0  0.54960504112E+02  0.36503463220E+02  0.42629445975E+02  0.14770871157E+03  0.12508970369E+03 0.  0.
          5    1    3    3  502    0  0.93215183021E+02  0.40723654184E+02  0.23310597466E+02  0.10444301178E+03  0.41800000000E+01 0.  1.
         -5    1    3    3    0  502 -0.38254678909E+02 -0.42201909647E+01  0.19318848509E+02  0.43265699785E+02  0.41800000000E+01 0.  1.
        -11    1    1    2    0    0 -0.22168673437E+02 -0.63717634874E+01 -0.10765404047E+03  0.11009741996E+03  0.00000000000E+00 0.  1.
         11    1    1    2    0    0 -0.32791830675E+02 -0.30131699732E+02  0.58708726923E+00  0.44537267083E+02  0.00000000000E+00 0. -1.
</event>
<event>
 7    1  0.2900135E-009  0.3045695E+03  0.7561462E-02  0.1082978E+00
          2   -1    0    0  501    0  0.00000000000E+00  0.00000000000E+00  0.26171587999E+04  0.26171587999E+04  0.00000000000E+00 0. -1.
         -2   -1    0    0    0  501 -0.00000000000E+00 -0.00000000000E+00 -0.57810131788E+02  0.57810131788E+02  0.00000000000E+00 0.  1.
         25    2    1    2    0    0 -0.17468748475E+03 -0.23086182759E+03  0.21056461080E+04  0.21291325100E+04  0.12508721867E+03 0.  0.
          5    1    3    3  502    0 -0.18845063413E+02 -0.12385834990E+03  0.76061719472E+03  0.77087743290E+03  0.41800000000E+01 0.  1.
         -5    1    3    3    0  502 -0.15584242134E+03 -0.10700347769E+03  0.13450289133E+04  0.13582550771E+04  0.41800000000E+01 0.  1.
        -11    1    1    2    0    0  0.15938907574E+02  0.57345174259E+02  0.15244163242E+03  0.16364892019E+03  0.00000000000E+00 0. -1.
         11    1    1    2    0    0  0.15874857717E+03  0.17351665334E+03  0.30126092770E+03  0.38218750150E+03  0.00000000000E+00 0.  1.
</event>
<event>
 7    1  0.2900135E-009  0.2240524E+03  0.7561462E-02  0.1130897E+00
         -1   -1    0    0    0  501 -0.00000000000E+00  0.00000000000E+00  0.14357272749E+03  0.14357272749E+03  0.00000000000E+00 0. -1.
          1   -1    0    0  501    0  0.00000000000E+00 -0.00000000000E+00 -0.70342169654E+03  0.70342169654E+03  0.00000000000E+00 0.  1.
         25    2    1    2    0    0  0.18185002556E+03 -0.11523662672E+03 -0.95352649277E+01  0.24917388034E+03  0.12509112451E+03 0.  0.
          5    1    3    3  502    0  0.18919815323E+03 -0.97090548669E+02 -0.36277883597E+02  0.21576856366E+03  0.41800000000E+01 0.  1.
         -5    1    3    3    0  502 -0.73481276725E+01 -0.18146078053E+02  0.26742618669E+02  0.33405316677E+02  0.41800000000E+01 0.  1.
        -11    1    1    2    0    0 -0.13521883260E+03  0.82236654985E+02 -0.48920609856E+03  0.51416885065E+03  0.00000000000E+00 0.  1.
         11    1    1    2    0    0 -0.46631192952E+02  0.32999971738E+02 -0.61107605563E+02  0.83651693040E+02  0.00000000000E+00 0. -1.
</event>
<event>
 7    1  0.2900135E-009  0.9276319E+02  0.7561462E-02  0.1296295E+00
          2   -1    0    0  501    0  0.00000000000E+00  0.00000000000E+00  0.45256167637E+03  0.45256167637E+03  0.00000000000E+00 0. -1.
         -2   -1    0    0    0  501 -0.00000000000E+00 -0.00000000000E+00 -0.82890238181E+02  0.82890238181E+02  0.00000000000E+00 0.  1.
         25    2    1    2    0    0 -0.54162014556E+02  0.20402538190E+02  0.39924101318E+03  0.42236357466E+03  0.12509122754E+03 0.  0.
          5    1    3    3  502    0  0.13522400519E+02  0.51150531963E+02  0.25009632208E+03  0.25566555293E+03  0.41800000000E+01 0. -1.
         -5    1    3    3    0  502 -0.67684415075E+02 -0.30747993772E+02  0.14914469110E+03  0.16669802173E+03  0.41800000000E+01 0. -1.
        -11    1    1    2    0    0  0.20063243719E+02 -0.56641590542E+01 -0.60977414173E+02  0.64442699242E+02  0.00000000000E+00 0.  1.
         11    1    1    2    0    0  0.34098770837E+02 -0.14738379136E+02  0.31407839174E+02  0.48645640644E+02  0.00000000000E+00 0. -1.
</event>
<event>
 7    1  0.2900135E-009  0.1361817E+03  0.7561462E-02  0.1218561E+00
         -2   -1    0    0    0  501 -0.00000000000E+00  0.00000000000E+00  0.27105998150E+03  0.27105998150E+03  0.00000000000E+00 0.  1.
          2   -1    0    0  501    0  0.00000000000E+00 -0.00000000000E+00 -0.81126686043E+02  0.81126686043E+02  0.00000000000E+00 0. -1.
         25    2    1    2    0    0 -0.78404449661E+02  0.48765610720E+02  0.15143289047E+03  0.21704402525E+03  0.12510334155E+03 0.  0.
          5    1    3    3  502    0 -0.89655994184E+02 -0.54801337791E+01  0.54013710252E+02  0.10489605548E+03  0.41800000000E+01 0. -1.
         -5    1    3    3    0  502  0.11251544523E+02  0.54245744499E+02  0.97419180217E+02  0.11214796977E+03  0.41800000000E+01 0. -1.
        -11    1    1    2    0    0  0.17231245844E+02  0.25433108030E+02  0.21475475399E+02  0.37482727502E+02  0.00000000000E+00 0.  1.
         11    1    1    2    0    0  0.61173203817E+02 -0.74198718750E+02  0.17024929591E+02  0.97659914791E+02  0.00000000000E+00 0. -1.
</event>
<event>
 7    1  0.2900135E-009  0.1229489E+03  0.7561462E-02  0.1238310E+00
          1   -1    0    0  501    0  0.00000000000E+00  0.00000000000E+00  0.14289691438E+04  0.14289691438E+04  0.00000000000E+00 0. -1.
         -1   -1    0    0    0  501 -0.00000000000E+00 -0.00000000000E+00 -0.14858656615E+02  0.14858656615E+02  0.00000000000E+00 0.  1.
         25    2    1    2    0    0 -0.71000981276E+02 -0.29595015823E+02  0.10647547367E+04  0.10748334906E+04  0.12508948364E+03 0.  0.
          5    1    3    3  502    0 -0.15220569524E+01  0.37584064995E+02  0.13974219815E+03  0.14477649306E+03  0.41800000000E+01 0. -1.
         -5    1    3    3    0  502 -0.69478924324E+02 -0.67179080818E+02  0.92501253858E+03  0.93005699758E+03  0.41800000000E+01 0. -1.
        -11    1    1    2    0    0 -0.25346641905E+01  0.37292168461E+02  0.63061757165E+02  0.73306995354E+02  0.00000000000E+00 0.  1.
         11    1    1    2    0    0  0.73535645467E+02 -0.76971526382E+01  0.28629399325E+03  0.29568731438E+03  0.00000000000E+00 0. -1.
</event>
<event>
 7    1  0.2900135E-009  0.9594084E+02  0.7561462E-02  0.1289071E+00
         -2   -1    0    0    0  501 -0.00000000000E+00  0.00000000000E+00  0.51494202037E+02  0.51494202037E+02  0.00000000000E+00 0.  1.
          2   -1    0    0  501    0  0.00000000000E+00 -0.00000000000E+00 -0.36802356550E+03  0.36802356550E+03  0.00000000000E+00 0. -1.
         25    2    1    2    0    0  0.16373645638E+02  0.83401695881E+02 -0.17230838768E+03  0.22926474523E+03  0.12509278073E+03 0.  0.
          5    1    3    3  502    0  0.34619101753E+02  0.18791627946E+02  0.47155374732E+01  0.39891304575E+02  0.41800000000E+01 0. -1.
         -5    1    3    3    0  502 -0.18245456115E+02  0.64610067935E+02 -0.17702392516E+03  0.18937344065E+03  0.41800000000E+01 0. -1.
        -11    1    1    2    0    0 -0.30956600588E+01 -0.13349175604E+02  0.12200726704E+02  0.18347788221E+02  0.00000000000E+00 0.  1.
         11    1    1    2    0    0 -0.13277985579E+02 -0.70052520277E+02 -0.15642170248E+03  0.17190523408E+03  0.00000000000E+00 0. -1.
</event>
<event>
 7    1  0.2900135E-009  0.9725317E+02  0.7561462E-02  0.1286181E+00
          4   -1    0    0  501    0  0.00000000000E+00  0.00000000000E+00  0.24806536786E+03  0.24806536786E+03  0.00000000000E+00 0. -1.
         -4   -1    0    0    0  501 -0.00000000000E+00 -0.00000000000E+00 -0.53878592969E+02  0.53878592969E+02  0.00000000000E+00 0.  1.
         25    2    1    2    0    0 -0.18389071736E+02  0.30869896710E+02  0.81858844640E+02  0.15375621873E+03  0.12509594666E+03 0.  0.
          5    1    3    3  502    0  0.21093216455E+02 -0.37567591123E+02  0.52133396177E+01  0.43599300375E+02  0.41800000000E+01 0. -1.
         -5    1    3    3    0  502 -0.39482288190E+02  0.68437487833E+02  0.76645505022E+02  0.11015691836E+03  0.41800000000E+01 0. -1.
        -11    1    1    2    0    0  0.21336059185E+02  0.15034296886E+02 -0.75028347962E+00  0.26111691437E+02  0.00000000000E+00 0.  1.
         11    1    1    2    0    0 -0.29469874492E+01 -0.45904193596E+02  0.11307821374E+03  0.12207605067E+03  0.00000000000E+00 0. -1.
</event>
<event>
 7    1  0.2900135E-009  0.9299366E+02  0.7561462E-02  0.1295760E+00
         -1   -1    0    0    0  501 -0.00000000000E+00  0.00000000000E+00  0.10198561142E+02  0.10198561142E+02  0.00000000000E+00 0.  1.
          1   -1    0    0  501    0  0.00000000000E+00 -0.00000000000E+00 -0.25032417898E+04  0.25032417898E+04  0.00000000000E+00 0. -1.
         25    2    1    2    0    0  0.43755431933E+02  0.70231883847E+01 -0.22011183316E+04  0.22051152827E+04  0.12509051668E+03 0.  0.
          5    1    3    3  502    0  0.15356989856E+02 -0.47441932991E+02 -0.42589181341E+03  0.42882150514E+03  0.41800000000E+01 0.  1.
         -5    1    3    3    0  502  0.28398442077E+02  0.54465121376E+02 -0.17752265182E+04  0.17762937776E+04  0.41800000000E+01 0.  1.
        -11    1    1    2    0    0  0.35217319444E+00  0.21727356259E+02 -0.14915944575E+02  0.26356923920E+02  0.00000000000E+00 0.  1.
         11    1    1    2    0    0 -0.44107605127E+02 -0.28750544644E+02 -0.27700895245E+03  0.28196814428E+03  0.00000000000E+00 0. -1.
</event>
<event>
 7    1  0.2900135E-009  0.1220547E+03  0.7561462E-02  0.1239745E+00
          1   -1    0    0  501    0  0.00000000000E+00  0.00000000000E+00  0.24377789088E+03  0.24377789088E+03  0.00000000000E+00 0. -1.
         -1   -1    0    0    0  501 -0.00000000000E+00 -0.00000000000E+00 -0.12028257398E+03  0.12028257398E+03  0.00000000000E+00 0.  1.
         25    2    1    2    0    0 -0.10263947431E+03 -0.67911658523E+01 -0.21113093210E+02  0.16333228018E+03  0.12510271549E+03 0.  0.
          5    1    3    3  502    0 -0.43756335590E+01  0.55039310354E+01  0.43990897964E+02  0.44744954236E+02  0.41800000000E+01 0.  1.
         -5    1    3    3    0  502 -0.98263840754E+02 -0.12295096888E+02 -0.65103991174E+02  0.11858732594E+03  0.41800000000E+01 0.  1.
        -11    1    1    2    0    0  0.73868461228E+02 -0.38388802386E+02  0.10559123592E+03  0.13446099366E+03  0.00000000000E+00 0. -1.
         11    1    1    2    0    0  0.28771013085E+02  0.45179968238E+02  0.39017174198E+02  0.66267191025E+02  0.00000000000E+00 0.  1.
</event>
<event>
 7    1  0.2900135E-009  0.8634978E+02  0.7561462E-02  0.1311940E+00
         -1   -1    0    0    0  501 -0.00000000000E+00  0.00000000000E+00  0.41067575242E+03  0.41067575242E+03  0.00000000000E+00 0.  1.
          1   -1    0    0  501    0  0.00000000000E+00 -0.00000000000E+00 -0.28294883581E+02  0.28294883581E+02  0.00000000000E+00 0. -1.
         25    2    1    2    0    0  0.14533701394E+02  0.95273272311E+01  0.21384385259E+03  0.24835185117E+03  0.12508976876E+03 0.  0.
          5    1    3    3  502    0  0.48145566650E+02 -0.44239986951E+01  0.20500291812E+03  0.21066854580E+03  0.41800000000E+01 0.  1.
         -5    1    3    3    0  502 -0.33611865256E+02  0.13951325926E+02  0.88409344725E+01  0.37683305368E+02  0.41800000000E+01 0.  1.
        -11    1    1    2    0    0  0.25197985021E+02 -0.32901430769E+02  0.62452794902E+02  0.74951945851E+02  0.00000000000E+00 0. -1.
         11    1    1    2    0    0 -0.39731686415E+02  0.23374103537E+02  0.10608422135E+03  0.11566683898E+03  0.00000000000E+00 0.  1.
</event>
<event>
 7    1  0.2900135E-009  0.8851241E+02  0.7561462E-02  0.1306495E+00
         -4   -1    0    0    0  501 -0.00000000000E+00  0.00000000000E+00  0.88290303818E+02  0.88290303818E+02  0.00000000000E+00 0.  1.
          4   -1    0    0  501    0  0.00000000000E+00 -0.00000000000E+00 -0.15251635086E+03  0.15251635086E+03  0.00000000000E+00 0. -1.
         25    2    1    2    0    0 -0.19238399215E+02  0.60819705144E+02 -0.41738630013E+02  0.14649054148E+03  0.12509281742E+03 0.  0.
          5    1    3    3  502    0 -0.12510400187E+02 -0.19872641492E+02  0.29933105397E+02  0.38273949253E+02  0.41800000000E+01 0. -1.
         -5    1    3    3    0  502 -0.67279990275E+01  0.80692346636E+02 -0.71671735410E+02  0.10821659223E+03  0.41800000000E+01 0. -1.
        -11    1    1    2    0    0  0.28775865664E+02 -0.40910745670E+02  0.13759921841E+02  0.51875572335E+02  0.00000000000E+00 0. -1.
         11    1    1    2    0    0 -0.95374664487E+01 -0.19908959474E+02 -0.36247338872E+02  0.42440540864E+02  0.00000000000E+00 0.  1.
</event>
<event>
 7    1  0.2900135E-009  0.1379914E+03  0.7561462E-02  0.1216058E+00
         -2   -1    0    0    0  501 -0.00000000000E+00  0.00000000000E+00  0.27766769659E+03  0.27766769659E+03  0.00000000000E+00 0.  1.
          2   -1    0    0  501    0  0.00000000000E+00 -0.00000000000E+00 -0.10738048909E+03  0.10738048909E+03  0.00000000000E+00 0. -1.
         25    2    1    2    0    0  0.47154597886E+02 -0.10306761590E+03  0.12671334079E+02  0.16927738410E+03  0.12509108886E+03 0.  0.
          5    1    3    3  502    0 -0.32719367899E+02 -0.10022012502E+02  0.29573129101E+02  0.45420701615E+02  0.41800000000E+01 0. -1.
         -5    1    3    3    0  502  0.79873965785E+02 -0.93045603394E+02 -0.16901795023E+02  0.12385668248E+03  0.41800000000E+01 0. -1.
        -11    1    1    2    0    0  0.15019876044E+01  0.35580209614E+02 -0.21110659393E+01  0.35674414954E+02  0.00000000000E+00 0. -1.
         11    1    1    2    0    0 -0.48656585490E+02  0.67487406283E+02  0.15972693936E+03  0.18009638662E+03  0.00000000000E+00 0.  1.
</event>
<event>
 7    1  0.2900135E-009  0.1042128E+03  0.7561462E-02  0.1271678E+00
         -1   -1    0    0    0  501 -0.00000000000E+00  0.00000000000E+00  0.12610259902E+02  0.12610259902E+02  0.00000000000E+00 0.  1.
          1   -1    0    0  501    0  0.00000000000E+00 -0.00000000000E+00 -0.10544222559E+04  0.10544222559E+04  0.00000000000E+00 0. -1.
         25    2    1    2    0    0  0.15511664972E+01  0.28517138124E+02 -0.73151295818E+03  0.74268090646E+03  0.12509231613E+03 0.  0.
          5    1    3    3  502    0 -0.57394527276E+02  0.33817019026E+02 -0.31766971403E+03  0.32460628791E+03  0.41800000000E+01 0. -1.
         -5    1    3    3    0  502  0.58945693773E+02 -0.52998809020E+01 -0.41384324415E+03  0.41807461855E+03  0.41800000000E+01 0. -1.
        -11    1    1    2    0    0 -0.39149590857E+02 -0.98481841033E+01 -0.23222569774E+03  0.23570840435E+03  0.00000000000E+00 0. -1.
         11    1    1    2    0    0  0.37598424360E+02 -0.18668954021E+02 -0.78073340094E+02  0.88643204996E+02  0.00000000000E+00 0.  1.
</event>
<event>
 7    1  0.2900135E-009  0.1085987E+03  0.7561462E-02  0.1263187E+00
          2   -1    0    0  501    0  0.00000000000E+00  0.00000000000E+00  0.45809602784E+03  0.45809602784E+03  0.00000000000E+00 0. -1.
         -2   -1    0    0    0  501 -0.00000000000E+00 -0.00000000000E+00 -0.37728505209E+02  0.37728505209E+02  0.00000000000E+00 0.  1.
         25    2    1    2    0    0 -0.15769272640E+02  0.67243855108E+02  0.27710757527E+03  0.31178077826E+03  0.12509292308E+03 0.  0.
          5    1    3    3  502    0  0.43897846964E+02  0.70315827551E+02  0.15999770216E+03  0.18024448305E+03  0.41800000000E+01 0.  1.
         -5    1    3    3    0  502 -0.59667119603E+02 -0.30719724434E+01  0.11710987311E+03  0.13153629521E+03  0.41800000000E+01 0.  1.
        -11    1    1    2    0    0  0.22559318798E+02 -0.37208643143E+02  0.14673898862E+03  0.15305468555E+03  0.00000000000E+00 0.  1.
         11    1    1    2    0    0 -0.67900461578E+01 -0.30035211965E+02 -0.34790412567E+01  0.30989069245E+02  0.00000000000E+00 0. -1.
</event>
<event>
 7    1  0.2900135E-009  0.1189693E+03  0.7561462E-02  0.1244807E+00
          1   -1    0    0  501    0  0.00000000000E+00  0.00000000000E+00  0.10866432794E+03  0.10866432794E+03  0.00000000000E+00 0. -1.
         -1   -1    0    0    0  501 -0.00000000000E+00 -0.00000000000E+00 -0.15159638586E+03  0.15159638586E+03  0.00000000000E+00 0.  1.
         25    2    1    2    0    0  0.65132216478E+02 -0.12865960738E+02 -0.24385306293E+02  0.14370190373E+03  0.12509138820E+03 0.  0.
          5    1    3    3  502    0  0.95914689164E+02 -0.27646312660E+02  0.26590957097E+01  0.99942430384E+02  0.41800000000E+01 0.  1.
         -5    1    3    3    0  502 -0.30782472686E+02  0.14780351922E+02 -0.27044402002E+02  0.43759473343E+02  0.41800000000E+01 0.  1.
        -11    1    1    2    0    0 -0.74516912368E+02 -0.13422606338E+02 -0.35790098968E+02  0.83748837448E+02  0.00000000000E+00 0.  1.
         11    1    1    2    0    0  0.93846958909E+01  0.26288567076E+02  0.17243347338E+02  0.32809972620E+02  0.00000000000E+00 0. -1.
</event>
<event>
 7    1  0.2900135E-009  0.1161668E+03  0.7561462E-02  0.1249558E+00
         -2   -1    0    0    0  501 -0.00000000000E+00  0.00000000000E+00  0.13181812600E+02  0.13181812600E+02  0.00000000000E+00 0. -1.
          2   -1    0    0  501    0  0.00000000000E+00 -0.00000000000E+00 -0.15547160931E+04  0.15547160931E+04  0.00000000000E+00 0.  1.
         25    2    1    2    0    0  0.22580710827E+02 -0.20746790620E+01 -0.11343439870E+04  0.11414448129E+04  0.12508312160E+03 0.  0.
          5    1    3    3  502    0  0.50373190449E+02  0.43675821913E+02 -0.80349631748E+03  0.80626846667E+03  0.41800000000E+01 0. -1.
         -5    1    3    3    0  502 -0.27792479622E+02 -0.45750500975E+02 -0.33084766948E+03  0.33517634622E+03  0.41800000000E+01 0. -1.
        -11    1    1    2    0    0 -0.59044620639E+02 -0.27265217330E+02 -0.32866876412E+03  0.33504151356E+03  0.00000000000E+00 0.  1.
         11    1    1    2    0    0  0.36463909813E+02  0.29339896392E+02 -0.78521529409E+02  0.91411579244E+02  0.00000000000E+00 0. -1.
</event>
<event>
 7    1  0.2900135E-009  0.1135072E+03  0.7561462E-02  0.1254209E+00
         -2   -1    0    0    0  501 -0.00000000000E+00  0.00000000000E+00  0.17020651660E+02  0.17020651660E+02  0.00000000000E+00 0.  1.
          2   -1    0    0  501    0  0.00000000000E+00 -0.00000000000E+00 -0.11000431281E+04  0.11000431281E+04  0.00000000000E+00 0. -1.
         25    2    1    2    0    0  0.33396664955E+02 -0.72842563431E+02 -0.70355499743E+03  0.71906738589E+03  0.12508754845E+03 0.  0.
          5    1    3    3  502    0 -0.24977818793E+02 -0.29763742210E+02 -0.61188882105E+02  0.72603880579E+02  0.41800000000E+01 0. -1.
         -5    1    3    3    0  502  0.58374483748E+02 -0.43078821221E+02 -0.64236611532E+03  0.64646350531E+03  0.41800000000E+01 0. -1.
        -11    1    1    2    0    0 -0.61360199893E+02  0.49359413240E+02 -0.20192225803E+03  0.21673491665E+03  0.00000000000E+00 0. -1.
         11    1    1    2    0    0  0.27963534938E+02  0.23483150191E+02 -0.17754522094E+03  0.18126147718E+03  0.00000000000E+00 0.  1.
</event>
<event>
 7    1  0.2900135E-009  0.7918850E+02  0.7561462E-02  0.1331370E+00
         -2   -1    0    0    0  501 -0.00000000000E+00  0.00000000000E+00  0.16633950381E+03  0.16633950381E+03  0.00000000000E+00 0.  1.
          2   -1    0    0  501    0  0.00000000000E+00 -0.00000000000E+00 -0.10264327651E+03  0.10264327651E+03  0.00000000000E+00 0. -1.
         25    2    1    2    0    0 -0.19011582581E+02 -0.66054186112E+02 -0.22502138433E+02  0.14449517714E+03  0.12509162325E+03 0.  0.
          5    1    3    3  502    0 -0.33080274604E+02 -0.42636466349E+02 -0.70637341124E+02  0.88990332013E+02  0.41800000000E+01 0.  1.
         -5    1    3    3    0  502  0.14068692024E+02 -0.23417719763E+02  0.48135202691E+02  0.55504845124E+02  0.41800000000E+01 0.  1.
        -11    1    1    2    0    0  0.77394762039E+01  0.64813392706E+02  0.91151607039E+02  0.11211284865E+03  0.00000000000E+00 0.  1.
         11    1    1    2    0    0  0.11272106377E+02  0.12407934064E+01 -0.49532413091E+01  0.12374754540E+02  0.00000000000E+00 0. -1.
</event>
<event>
 7    1  0.2900135E-009  0.1342071E+03  0.7561462E-02  0.1221343E+00
          2   -1    0    0  501    0  0.00000000000E+00  0.00000000000E+00  0.49416603967E+03  0.49416603967E+03  0.00000000000E+00 0.  1.
         -2   -1    0    0    0  501 -0.00000000000E+00 -0.00000000000E+00 -0.52125800921E+02  0.52125800921E+02  0.00000000000E+00 0. -1.
         25    2    1    2    0    0  0.11639996003E+03 -0.11869476344E+02  0.20925953051E+03  0.27041998541E+03  0.12509029633E+03 0.  0.
          5    1    3    3  502    0  0.84297928197E+02  0.17403173992E+02  0.20975946828E+03  0.22677195174E+03  0.41800000000E+01 0. -1.
         -5    1    3    3    0  502  0.32102031830E+02 -0.29272650336E+02 -0.49993776660E+00  0.43648033668E+02  0.41800000000E+01 0. -1.
        -11    1    1    2    0    0 -0.11735782141E+02 -0.25004955321E+02  0.95141516657E+02  0.99070099247E+02  0.00000000000E+00 0.  1.
         11    1    1    2    0    0 -0.10466417789E+03  0.36874431665E+02  0.13763919158E+03  0.17680175593E+03  0.00000000000E+00 0. -1.
</event>
<event>
 7    1  0.2900135E-009  0.7359879E+02  0.7561462E-02  0.1348266E+00
          2   -1    0    0  501    0  0.00000000000E+00  0.00000000000E+00  0.28789324279E+03  0.28789324279E+03  0.00000000000E+00 0. -1.
         -2   -1    0    0    0  501 -0.00000000000E+00 -0.00000000000E+00 -0.51519308832E+02  0.51519308832E+02  0.00000000000E+00 0.  1.
         25    2    1    2    0    0  0.26732648443E+02  0.44367413912E+02  0.10374763176E+03  0.17057234924E+03  0.12509297870E+03 0.  0.
          5    1    3    3  502    0  0.15616866436E+02  0.55925568220E+01 -0.27951695180E+02  0.32770915040E+02  0.41800000000E+01 0.  1.
         -5    1    3    3    0  502  0.11115782007E+02  0.38774857090E+02  0.13169932694E+03  0.13780143421E+03  0.41800000000E+01 0.  1.
        -11    1    1    2    0    0  0.17069755769E+02 -0.42382591910E+02  0.23811413915E+02  0.51523238366E+02  0.00000000000E+00 0.  1.
         11    1    1    2    0    0 -0.43802404212E+02 -0.19848220024E+01  0.10881488828E+03  0.11731696401E+03  0.00000000000E+00 0. -1.
</event>
<event>
 7    1  0.2900135E-009  0.1044709E+03  0.7561462E-02  0.1271166E+00
          2   -1    0    0  501    0  0.00000000000E+00  0.00000000000E+00  0.75245057719E+03  0.75245057719E+03  0.00000000000E+00 0. -1.
         -2   -1    0    0    0  501 -0.00000000000E+00 -0.00000000000E+00 -0.18668976887E+02  0.18668976887E+02  0.00000000000E+00 0.  1.
         25    2    1    2    0    0 -0.46936483489E+02  0.12569890176E+02  0.39276883788E+03  0.41506165003E+03  0.12509107761E+03 0.  0.
          5    1    3    3  502    0 -0.41328860332E+02 -0.37714281944E+02  0.77196728329E+02  0.95431907786E+02  0.41800000000E+01 0.  1.
         -5    1    3    3    0  502 -0.56076231568E+01  0.50284172120E+02  0.31557210955E+03  0.31962974225E+03  0.41800000000E+01 0.  1.
        -11    1    1    2    0    0  0.41057222788E+02 -0.49705277413E+02  0.20108432267E+03  0.21116632063E+03  0.00000000000E+00 0. -1.
         11    1    1    2    0    0  0.58792607011E+01  0.37135387238E+02  0.13992843976E+03  0.14489158342E+03  0.00000000000E+00 0.  1.
</event>
<event>
 7    1  0.2900135E-009  0.1988731E+03  0.7561462E-02  0.1150693E+00
          1   -1    0    0  501    0  0.00000000000E+00  0.00000000000E+00  0.71871752081E+03  0.71871752081E+03  0.00000000000E+00 0. -1.
         -1   -1    0    0    0  501 -0.00000000000E+00 -0.00000000000E+00 -0.58524236261E+02  0.58524236261E+02  0.00000000000E+00 0.  1.
         25    2    1    2    0    0 -0.24731282706E+02  0.16726656105E+03  0.41837622353E+03  0.46827194145E+03  0.12510079113E+03 0.  0.
          5    1    3    3  502    0  0.30804875042E+02 -0.29362763330E+01  0.64685611279E+02  0.71828008128E+02  0.41800000000E+01 0. -1.
         -5    1    3    3    0  502 -0.55536157748E+02  0.17020283739E+03  0.35369061225E+03  0.39644393332E+03  0.41800000000E+01 0. -1.
        -11    1    1    2    0    0  0.54388287450E+02 -0.11804481454E+03  0.13329959523E+03  0.18617584736E+03  0.00000000000E+00 0.  1.
         11    1    1    2    0    0 -0.29657004744E+02 -0.49221746510E+02  0.10851746579E+03  0.12279396826E+03  0.00000000000E+00 0. -1.
</event>
<event>
 7    1  0.2900135E-009  0.8176429E+02  0.7561462E-02  0.1324118E+00
         -2   -1    0    0    0  501 -0.00000000000E+00  0.00000000000E+00  0.34671278562E+02  0.34671278562E+02  0.00000000000E+00 0.  1.
          2   -1    0    0  501    0  0.00000000000E+00 -0.00000000000E+00 -0.44851833656E+03  0.44851833656E+03  0.00000000000E+00 0. -1.
         25    2    1    2    0    0 -0.36309462710E+02 -0.46936805922E+02 -0.26457107348E+03  0.29860772269E+03  0.12508908142E+03 0.  0.
          5    1    3    3  502    0 -0.69567965759E+01  0.57233558424E+01 -0.22748717949E+03  0.22770384945E+03  0.41800000000E+01 0. -1.
         -5    1    3    3    0  502 -0.29352666134E+02 -0.52660161764E+02 -0.37083893989E+02  0.70903873234E+02  0.41800000000E+01 0. -1.
        -11    1    1    2    0    0  0.34683409972E+02  0.65720291032E+02 -0.66615083438E+02  0.99798120834E+02  0.00000000000E+00 0.  1.
         11    1    1    2    0    0  0.16260527377E+01 -0.18783485110E+02 -0.82660901078E+02  0.84783771604E+02  0.00000000000E+00 0. -1.
</event>
<event>
 7    1  0.2900135E-009  0.1212240E+03  0.7561462E-02  0.1241091E+00
          1   -1    0    0  501    0  0.00000000000E+00  0.00000000000E+00  0.54865529348E+02  0.54865529348E+02  0.00000000000E+00 0. -1.
         -1   -1    0    0    0  501 -0.00000000000E+00 -0.00000000000E+00 -0.39796793922E+03  0.39796793922E+03  0.00000000000E+00 0.  1.
         25    2    1    2    0    0 -0.74451803498E+01  0.99214109756E+02 -0.16669826820E+03  0.23094329932E+03  0.12509046565E+03 0.  0.
          5    1    3    3  502    0  0.21759405780E+02  0.59578701425E+02 -0.16992795515E+03  0.18142788029E+03  0.41800000000E+01 0. -1.
         -5    1    3    3    0  502 -0.29204586130E+02  0.39635408331E+02  0.32296869549E+01  0.49515419037E+02  0.41800000000E+01 0. -1.
        -11    1    1    2    0    0 -0.35201705001E+02 -0.22730737159E+02 -0.87944212000E+02  0.97416789472E+02  0.00000000000E+00 0.  1.
         11    1    1    2    0    0  0.42646885351E+02 -0.76483372597E+02 -0.88459929677E+02  0.12447337977E+03  0.00000000000E+00 0. -1.
</event>
<event>
 7    1  0.2900135E-009  0.1644151E+03  0.7561462E-02  0.1183800E+00
          1   -1    0    0  501    0  0.00000000000E+00  0.00000000000E+00  0.99184616003E+03  0.99184616003E+03  0.00000000000E+00 0. -1.
         -1   -1    0    0    0  501 -0.00000000000E+00 -0.00000000000E+00 -0.39905101127E+02  0.39905101127E+02  0.00000000000E+00 0.  1.
         25    2    1    2    0    0  0.77276391697E+02  0.11812265774E+03  0.72548975937E+03  0.74960645706E+03  0.12509934661E+03 0.  0.
          5    1    3    3  502    0  0.37067386666E+02 -0.82759763784E+01  0.33523535937E+03  0.33740584096E+03  0.41800000000E+01 0. -1.
         -5    1    3    3    0  502  0.40209005031E+02  0.12639863412E+03  0.39025440000E+03  0.41220061610E+03  0.41800000000E+01 0. -1.
        -11    1    1    2    0    0 -0.85067368637E+02 -0.72913655898E+02  0.19985415916E+03  0.22911687706E+03  0.00000000000E+00 0. -1.
         11    1    1    2    0    0  0.77909769402E+01 -0.45209001845E+02  0.26597140373E+02  0.53027927034E+02  0.00000000000E+00 0.  1.
</event>
<event>
 7    1  0.2900135E-009  0.1179082E+03  0.7561462E-02  0.1246588E+00
          2   -1    0    0  501    0  0.00000000000E+00  0.00000000000E+00  0.74973775323E+02  0.74973775323E+02  0.00000000000E+00 0. -1.
         -2   -1    0    0    0  501 -0.00000000000E+00 -0.00000000000E+00 -0.20701012431E+03  0.20701012431E+03  0.00000000000E+00 0.  1.
         25    2    1    2    0    0  0.27573802762E+02  0.53856512458E+02 -0.63313149555E+02  0.15270252279E+03  0.12509463229E+03 0.  0.
          5    1    3    3  502    0 -0.30009195045E+02  0.61038162740E+02 -0.65448621581E+02  0.94483879920E+02  0.41800000000E+01 0. -1.
         -5    1    3    3    0  502  0.57582997806E+02 -0.71816502820E+01  0.21354720256E+01  0.58218642872E+02  0.41800000000E+01 0. -1.
        -11    1    1    2    0    0  0.11115157064E+02 -0.67544916630E+02 -0.43810391754E+02  0.81272460925E+02  0.00000000000E+00 0. -1.
         11    1    1    2    0    0 -0.38688959825E+02  0.13688404173E+02 -0.24912807679E+02  0.48008915918E+02  0.00000000000E+00 0.  1.
</event>
<event>
 7    1  0.2900135E-009  0.1118394E+03  0.7561462E-02  0.1257201E+00
          1   -1    0    0  501    0  0.00000000000E+00  0.00000000000E+00  0.49926634488E+03  0.49926634488E+03  0.00000000000E+00 0. -1.
         -1   -1    0    0    0  501 -0.00000000000E+00 -0.00000000000E+00 -0.31786795994E+02  0.31786795994E+02  0.00000000000E+00 0.  1.
         25    2    1    2    0    0 -0.45259281428E+02  0.21699491927E+02  0.34870823045E+03  0.37384638120E+03  0.12507764087E+03 0.  0.
          5    1    3    3  502    0 -0.17594230370E+02 -0.50104514337E+02  0.97738908797E+02  0.11131211072E+03  0.41800000000E+01 0.  1.
         -5    1    3    3    0  502 -0.27665051057E+02  0.71804006264E+02  0.25096932165E+03  0.26253427048E+03  0.41800000000E+01 0.  1.
        -11    1    1    2    0    0 -0.15966225774E+02  0.15048964675E+02  0.62662429358E+02  0.66392557989E+02  0.00000000000E+00 0. -1.
         11    1    1    2    0    0  0.61225507202E+02 -0.36748456602E+02  0.56108889077E+02  0.90814201688E+02  0.00000000000E+00 0.  1.
</event>
<event>
 7    1  0.2900135E-009  0.1411787E+03  0.7561462E-02  0.1211752E+00
          2   -1    0    0  501    0  0.00000000000E+00  0.00000000000E+00  0.12857987199E+04  0.12857987199E+04  0.00000000000E+00 0. -1.
         -2   -1    0    0    0  501 -0.00000000000E+00 -0.00000000000E+00 -0.16155076115E+02  0.16155076115E+02  0.00000000000E+00 0.  1.
         25    2    1    2    0    0  0.69014207950E+02  0.58725451873E+02  0.80036169217E+03  0.81513062618E+03  0.12508980709E+03 0.  0.
          5    1    3    3  502    0 -0.29591937255E+02 -0.12683362747E+02  0.18496546853E+03  0.18779309729E+03  0.41800000000E+01 0.  1.
         -5    1    3    3    0  502  0.98606145205E+02  0.71408814620E+02  0.61539622364E+03  0.62733752889E+03  0.41800000000E+01 0.  1.
        -11    1    1    2    0    0 -0.58311416481E+02 -0.83062065766E+02  0.33940995185E+03  0.35425787708E+03  0.00000000000E+00 0.  1.
         11    1    1    2    0    0 -0.10702791469E+02  0.24336613893E+02  0.12987199981E+03  0.13256529281E+03  0.00000000000E+00 0. -1.
</event>
<event>
 7    1  0.3009654E-009  0.1439286E+03  0.7561462E-02  0.1208138E+00
         -1   -1    0    0    0  501 -0.00000000000E+00  0.00000000000E+00  0.90622289583E+02  0.90622289583E+02  0.00000000000E+00 0.  1.
          1   -1    0    0  501    0  0.00000000000E+00 -0.00000000000E+00 -0.28098496452E+03  0.28098496452E+03  0.00000000000E+00 0. -1.
         25    2    1    2    0    0 -0.44566905700E+02  0.94217205574E+02 -0.40586125516E+02  0.16780390132E+03  0.12509126589E+03 0.  0.
          5    1    3    3  502    0 -0.69558187150E+02  0.10398863718E+03 -0.55377302242E+02  0.13687985997E+03  0.41800000000E+01 0.  1.
         -5    1    3    3    0  502  0.24991281450E+02 -0.97714316066E+01  0.14791176726E+02  0.30924041345E+02  0.41800000000E+01 0.  1.
        -11    1    1    2    0    0 -0.12482488690E+02 -0.73924876719E+02 -0.62649888871E+02  0.97702141724E+02  0.00000000000E+00 0.  1.
         11    1    1    2    0    0  0.57049394390E+02 -0.20292328855E+02 -0.87126660549E+02  0.10610121106E+03  0.00000000000E+00 0. -1.
</event>
<event>
 7    1  0.2900135E-009  0.8620595E+02  0.7561462E-02  0.1312309E+00
          2   -1    0    0  501    0  0.00000000000E+00  0.00000000000E+00  0.15968044724E+04  0.15968044724E+04  0.00000000000E+00 0. -1.
         -2   -1    0    0    0  501 -0.00000000000E+00 -0.00000000000E+00 -0.13104049246E+02  0.13104049246E+02  0.00000000000E+00 0.  1.
         25    2    1    2    0    0  0.57206800811E+02 -0.14324055840E+02  0.12807709565E+04  0.12882156669E+04  0.12509022755E+03 0.  0.
          5    1    3    3  502    0  0.34246975747E+02 -0.20730172966E+02  0.10898807190E+03  0.11618290595E+03  0.41800000000E+01 0. -1.
         -5    1    3    3    0  502  0.22959825064E+02  0.64061171252E+01  0.11717828846E+04  0.11720327610E+04  0.41800000000E+01 0. -1.
        -11    1    1    2    0    0  0.23759801423E+02 -0.59531282779E+01  0.79180475664E+02  0.82882541143E+02  0.00000000000E+00 0. -1.
         11    1    1    2    0    0 -0.80966602233E+02  0.20277184118E+02  0.22374899104E+03  0.23881031357E+03  0.00000000000E+00 0.  1.
</event>
<event>
 7    1  0.2900135E-009  0.1082738E+03  0.7561462E-02  0.1263800E+00
         -2   -1    0    0    0  501 -0.00000000000E+00  0.00000000000E+00  0.62899131573E+02  0.62899131573E+02  0.00000000000E+00 0.  1.
          2   -1    0    0  501    0  0.00000000000E+00 -0.00000000000E+00 -0.18816201798E+03  0.18816201798E+03  0.00000000000E+00 0. -1.
         25    2    1    2    0    0  0.12552394421E+02  0.11874782672E+02 -0.71948142695E+02  0.14533443765E+03  0.12508793091E+03 0.  0.
          5    1    3    3  502    0 -0.48897986642E+02 -0.23499034712E+02 -0.22997303219E+02  0.59072549339E+02  0.41800000000E+01 0. -1.
         -5    1    3    3    0  502  0.61450381063E+02  0.35373817384E+02 -0.48950839477E+02  0.86261888308E+02  0.41800000000E+01 0. -1.
        -11    1    1    2    0    0  0.31695874582E+02  0.19181881668E+02 -0.25069296644E+02  0.44733015593E+02  0.00000000000E+00 0. -1.
         11    1    1    2    0    0 -0.44248269003E+02 -0.31056664340E+02 -0.28245447067E+02  0.60993696311E+02  0.00000000000E+00 0.  1.
</event>
<event>
 6    1  0.2900135E-009  0.9753344E+02  0.7561462E-02  0.1285570E+00
         -1   -1    0    0    0  501 -0.00000000000E+00  0.00000000000E+00  0.16404931314E+03  0.16404931314E+03  0.00000000000E+00 0.  1.
          1   -1    0    0  501    0  0.00000000000E+00 -0.00000000000E+00 -0.11097599608E+03  0.11097599608E+03  0.00000000000E+00 0. -1.
          5    1    1    2  502    0  0.31930587731E+02 -0.56045087498E+01  0.40052563480E+02  0.51697709741E+02  0.41800000000E+01 0. -1.
         -5    1    1    2    0  502 -0.32997057386E+02 -0.56074708840E+02 -0.61275622602E+02  0.89472638794E+02  0.41800000000E+01 0. -1.
        -11    1    1    2    0    0  0.25925174956E+02  0.66929967782E+02  0.20955381725E+02  0.74772075717E+02  0.00000000000E+00 0. -1.
         11    1    1    2    0    0 -0.24858705301E+02 -0.52507501928E+01  0.53340994458E+02  0.59082884972E+02  0.00000000000E+00 0.  1.
</event>
<event>
 7    1  0.2900135E-009  0.1354133E+03  0.7561462E-02  0.1219637E+00
         -2   -1    0    0    0  501 -0.00000000000E+00  0.00000000000E+00  0.44284372144E+02  0.44284372144E+02  0.00000000000E+00 0.  1.
          2   -1    0    0  501    0  0.00000000000E+00 -0.00000000000E+00 -0.46420209056E+03  0.46420209056E+03  0.00000000000E+00 0. -1.
         25    2    1    2    0    0 -0.32269297833E+02 -0.88755565384E+02 -0.21548629026E+03  0.26647064934E+03  0.12511357920E+03 0.  0.
          5    1    3    3  502    0 -0.35321820149E+02 -0.11876299523E+03 -0.15270266984E+03  0.19669229215E+03  0.41800000000E+01 0.  1.
         -5    1    3    3    0  502  0.30525223159E+01  0.30007429848E+02 -0.62783620423E+02  0.69778357189E+02  0.41800000000E+01 0.  1.
        -11    1    1    2    0    0  0.18804205602E+02 -0.67290876499E+01 -0.51428398518E+01  0.20623471354E+02  0.00000000000E+00 0. -1.
         11    1    1    2    0    0  0.13465092230E+02  0.95484653034E+02 -0.19928858830E+03  0.22139234201E+03  0.00000000000E+00 0.  1.
</event>
<event>
 7    1  0.2900135E-009  0.8759782E+02  0.7561462E-02  0.1308775E+00
         -1   -1    0    0    0  501 -0.00000000000E+00  0.00000000000E+00  0.13598155385E+03  0.13598155385E+03  0.00000000000E+00 0.  1.
          1   -1    0    0  501    0  0.00000000000E+00 -0.00000000000E+00 -0.10543548793E+03  0.10543548793E+03  0.00000000000E+00 0. -1.
         25    2    1    2    0    0  0.25814548141E+02 -0.55287289906E+01  0.60436494829E+02  0.14140799478E+03  0.12508674326E+03 0.  0.
          5    1    3    3  502    0  0.73617479010E+02 -0.23027450878E+00  0.56645055401E+02  0.92982368992E+02  0.41800000000E+01 0.  1.
         -5    1    3    3    0  502 -0.47802930869E+02 -0.52984544818E+01  0.37914394284E+01  0.48425625783E+02  0.41800000000E+01 0.  1.
        -11    1    1    2    0    0  0.13539208550E+02  0.15665253430E+01 -0.52643196564E+02  0.54378951023E+02  0.00000000000E+00 0. -1.
         11    1    1    2    0    0 -0.39353756691E+02  0.39622036477E+01  0.22752767650E+02  0.45630095980E+02  0.00000000000E+00 0.  1.
</event>
<event>
 7    1  0.2900135E-009  0.1873804E+03  0.7561462E-02  0.1160846E+00
          1   -1    0    0  501    0  0.00000000000E+00  0.00000000000E+00  0.94526472969E+02  0.94526472969E+02  0.00000000000E+00 0. -1.
         -1   -1    0    0    0  501 -0.00000000000E+00 -0.00000000000E+00 -0.44268174074E+03  0.44268174074E+03  0.00000000000E+00 0.  1.
         25    2    1    2    0    0 -0.42737463290E+02 -0.16345171626E+03 -0.13434508100E+03  0.24947862644E+03  0.12509208587E+03 0.  0.
          5    1    3    3  502    0 -0.40184357421E+02 -0.25795238998E+02  0.11055562012E+02  0.49192222837E+02  0.41800000000E+01 0. -1.
         -5    1    3    3    0  502 -0.25531058690E+01 -0.13765647726E+03 -0.14540064302E+03  0.20028640361E+03  0.41800000000E+01 0. -1.
        -11    1    1    2    0    0 -0.27226612779E+01  0.13589696030E+03 -0.12751212871E+03  0.18637258294E+03  0.00000000000E+00 0.  1.
         11    1    1    2    0    0  0.45460124568E+02  0.27554755956E+02 -0.86298058054E+02  0.10135700432E+03  0.00000000000E+00 0. -1.
</event>
<event>
 7    1  0.2900135E-009  0.1123491E+03  0.7561462E-02  0.1256281E+00
          2   -1    0    0  501    0  0.00000000000E+00  0.00000000000E+00  0.20616412887E+02  0.20616412887E+02  0.00000000000E+00 0. -1.
         -2   -1    0    0    0  501 -0.00000000000E+00 -0.00000000000E+00 -0.68410233742E+03  0.68410233742E+03  0.00000000000E+00 0.  1.
         25    2    1    2    0    0  0.38864148521E+02 -0.30567660510E+02 -0.34400026916E+03  0.36936226422E+03  0.12508994021E+03 0.  0.
          5    1    3    3  502    0  0.60418645329E+02 -0.62592351413E+02 -0.29037505465E+03  0.30315566945E+03  0.41800000000E+01 0.  1.
         -5    1    3    3    0  502 -0.21554496809E+02  0.32024690903E+02 -0.53625214507E+02  0.66206594770E+02  0.41800000000E+01 0.  1.
        -11    1    1    2    0    0 -0.99621979532E+01 -0.30028575259E+02 -0.14475294313E+03  0.14817008897E+03  0.00000000000E+00 0.  1.
         11    1    1    2    0    0 -0.28901950567E+02  0.60596235769E+02 -0.17473271225E+03  0.18718639711E+03  0.00000000000E+00 0. -1.
</event>
<event>
 7    1  0.2900135E-009  0.1278961E+03  0.7561462E-02  0.1230611E+00
         -1   -1    0    0    0  501 -0.00000000000E+00  0.00000000000E+00  0.18982167592E+03  0.18982167592E+03  0.00000000000E+00 0.  1.
          1   -1    0    0  501    0  0.00000000000E+00 -0.00000000000E+00 -0.92916408403E+02  0.92916408403E+02  0.00000000000E+00 0. -1.
         25    2    1    2    0    0 -0.69756443557E+02 -0.35483162903E+02  0.61606522923E+02  0.15989710639E+03  0.12508678866E+03 0.  0.
          5    1    3    3  502    0 -0.10578953226E+03 -0.34038085279E+02  0.44838289664E+02  0.11990813569E+03  0.41800000000E+01 0.  1.
         -5    1    3    3    0  502  0.36033088703E+02 -0.14450776241E+01  0.16768233259E+02  0.39988970697E+02  0.41800000000E+01 0.  1.
        -11    1    1    2    0    0  0.22472957970E+02  0.53226701609E+02  0.42639778218E+02  0.71807146515E+02  0.00000000000E+00 0.  1.
         11    1    1    2    0    0  0.47283485587E+02 -0.17743538706E+02 -0.73410336195E+01  0.51033831423E+02  0.00000000000E+00 0. -1.
</event>
<event>
 7    1  0.2900135E-009  0.1683018E+03  0.7561462E-02  0.1179630E+00
          3   -1    0    0  501    0  0.00000000000E+00  0.00000000000E+00  0.52552598939E+03  0.52552598939E+03  0.00000000000E+00 0. -1.
         -3   -1    0    0    0  501 -0.00000000000E+00 -0.00000000000E+00 -0.70678090377E+02  0.70678090377E+02  0.00000000000E+00 0.  1.
         25    2    1    2    0    0  0.14333637554E+03 -0.14379228462E+02  0.13391502665E+03  0.23309434018E+03  0.12509060035E+03 0.  0.
          5    1    3    3  502    0  0.15358359296E+03 -0.33561379921E+02  0.83559214021E+02  0.17808397147E+03  0.41800000000E+01 0. -1.
         -5    1    3    3    0  502 -0.10247217415E+02  0.19182151459E+02  0.50355812634E+02  0.55010368708E+02  0.41800000000E+01 0. -1.
        -11    1    1    2    0    0 -0.34671246217E+02  0.31914677195E+02  0.41548587836E+02  0.62824573901E+02  0.00000000000E+00 0.  1.
         11    1    1    2    0    0 -0.10866512932E+03 -0.17535448733E+02  0.27938428452E+03  0.30028516568E+03  0.00000000000E+00 0. -1.
</event>
<event>
 7    1  0.2900135E-009  0.1159119E+03  0.7561462E-02  0.1249998E+00
         -1   -1    0    0    0  501 -0.00000000000E+00  0.00000000000E+00  0.73649073796E+02  0.73649073796E+02  0.00000000000E+00 0.  1.
          1   -1    0    0  501    0  0.00000000000E+00 -0.00000000000E+00 -0.24138357860E+03  0.24138357860E+03  0.00000000000E+00 0. -1.
         25    2    1    2    0    0 -0.11238618860E+02  0.62912901126E+02 -0.14462305569E+03  0.20160674922E+03  0.12508042777E+03 0.  0.
          5    1    3    3  502    0 -0.45954452817E+02 -0.59570521569E+01 -0.10489394709E+03  0.11474977447E+03  0.41800000000E+01 0.  1.
         -5    1    3    3    0  502  0.34715833958E+02  0.68869953282E+02 -0.39729108597E+02  0.86856974748E+02  0.41800000000E+01 0.  1.
        -11    1    1    2    0    0 -0.33746545467E+02 -0.40717647997E+01  0.46891471216E+01  0.34313214659E+02  0.00000000000E+00 0.  1.
         11    1    1    2    0    0  0.44985164326E+02 -0.58841136326E+02 -0.27800596236E+02  0.79112688519E+02  0.00000000000E+00 0. -1.
</event>
<event>
 7    1  0.2900135E-009  0.1124965E+03  0.7561462E-02  0.1256015E+00
          1   -1    0    0  501    0  0.00000000000E+00  0.00000000000E+00  0.49839889690E+02  0.49839889690E+02  0.00000000000E+00 0. -1.
         -1   -1    0    0    0  501 -0.00000000000E+00 -0.00000000000E+00 -0.31612602942E+03  0.31612602942E+03  0.00000000000E+00 0.  1.
         25    2    1    2    0    0 -0.67666963459E+02  0.16348552053E+02 -0.12940337327E+03  0.19297312168E+03  0.12508916651E+03 0.  0.
          5    1    3    3  502    0 -0.90606970364E+02 -0.18892957459E+02 -0.55953992887E+02  0.10823533915E+03  0.41800000000E+01 0.  1.
         -5    1    3    3    0  502  0.22940006905E+02  0.35241509512E+02 -0.73449380383E+02  0.84737782530E+02  0.41800000000E+01 0.  1.
        -11    1    1    2    0    0  0.72793746731E+02  0.16553081104E+00 -0.13761915170E+03  0.15568554165E+03  0.00000000000E+00 0.  1.
         11    1    1    2    0    0 -0.51267832717E+01 -0.16514082864E+02  0.73638524042E+00  0.17307255784E+02  0.00000000000E+00 0. -1.
</event>
<event>
 7    1  0.2900135E-009  0.9891103E+02  0.7561462E-02  0.1282603E+00
         -1   -1    0    0    0  501 -0.00000000000E+00  0.00000000000E+00  0.60275131403E+02  0.60275131403E+02  0.00000000000E+00 0.  1.
          1   -1    0    0  501    0  0.00000000000E+00 -0.00000000000E+00 -0.28082158740E+03  0.28082158740E+03  0.00000000000E+00 0. -1.
         25    2    1    2    0    0 -0.23361043390E+01  0.27175158952E+02 -0.21020096448E+03  0.24614254248E+03  0.12513096779E+03 0.  0.
          5    1    3    3  502    0  0.68675976073E+01  0.64472414318E+02 -0.51793104281E+02  0.83089434683E+02  0.41800000000E+01 0. -1.
         -5    1    3    3    0  502 -0.92037019463E+01 -0.37297255366E+02 -0.15840786020E+03  0.16305310779E+03  0.41800000000E+01 0. -1.
        -11    1    1    2    0    0 -0.35431951380E+02  0.14213699011E+02 -0.70850820252E+01  0.38828479309E+02  0.00000000000E+00 0.  1.
         11    1    1    2    0    0  0.37768055719E+02 -0.41388857963E+02 -0.32604094932E+01  0.56125697023E+02  0.00000000000E+00 0. -1.
</event>
<event>
 7    1  0.2900135E-009  0.2203201E+03  0.7561462E-02  0.1133645E+00
          1   -1    0    0  501    0  0.00000000000E+00  0.00000000000E+00  0.47951108284E+03  0.47951108284E+03  0.00000000000E+00 0. -1.
         -1   -1    0    0    0  501 -0.00000000000E+00 -0.00000000000E+00 -0.10337006385E+03  0.10337006385E+03  0.00000000000E+00 0.  1.
         25    2    1    2    0    0  0.15361478607E+03 -0.11373722899E+03  0.21721709579E+03  0.31522040916E+03  0.12508788868E+03 0.  0.
          5    1    3    3  502    0  0.78402677028E+01 -0.75351036373E+02  0.91682903449E+02  0.11900620011E+03  0.41800000000E+01 0.  1.
         -5    1    3    3    0  502  0.14577451836E+03 -0.38386192618E+02  0.12553419234E+03  0.19621420905E+03  0.41800000000E+01 0.  1.
        -11    1    1    2    0    0 -0.13903098029E+03  0.48700747445E+02  0.12319083475E+03  0.19203478343E+03  0.00000000000E+00 0. -1.
         11    1    1    2    0    0 -0.14583805778E+02  0.65036481546E+02  0.35733088457E+02  0.75625954100E+02  0.00000000000E+00 0.  1.
</event>
<event>
 7    1  0.2900135E-009  0.9464481E+02  0.7561462E-02  0.1291978E+00
         -1   -1    0    0    0  501 -0.00000000000E+00  0.00000000000E+00  0.54041994986E+03  0.54041994986E+03  0.00000000000E+00 0.  1.
          1   -1    0    0  501    0  0.00000000000E+00 -0.00000000000E+00 -0.24508730018E+02  0.24508730018E+02  0.00000000000E+00 0. -1.
         25    2    1    2    0    0  0.14648241007E+02  0.37666231051E+02  0.30073764911E+03  0.32821310799E+03  0.12508954686E+03 0.  0.
          5    1    3    3  502    0 -0.36652454407E+02 -0.14749343179E+02  0.36488829468E+02  0.53943049731E+02  0.41800000000E+01 0. -1.
         -5    1    3    3    0  502  0.51300695414E+02  0.52415574230E+02  0.26424881965E+03  0.27427005826E+03  0.41800000000E+01 0. -1.
        -11    1    1    2    0    0 -0.15005242026E+02 -0.55891055289E+02  0.20991209972E+03  0.21774309853E+03  0.00000000000E+00 0.  1.
         11    1    1    2    0    0  0.35700101989E+00  0.18224824238E+02  0.52614710104E+01  0.18972473361E+02  0.00000000000E+00 0. -1.
</event>
<event>
 7    1  0.2900135E-009  0.1133412E+03  0.7561462E-02  0.1254505E+00
         -2   -1    0    0    0  501 -0.00000000000E+00  0.00000000000E+00  0.14769851547E+03  0.14769851547E+03  0.00000000000E+00 0.  1.
          2   -1    0    0  501    0  0.00000000000E+00 -0.00000000000E+00 -0.18926304367E+03  0.18926304367E+03  0.00000000000E+00 0. -1.
         25    2    1    2    0    0  0.72552637994E+02 -0.63676975550E+02 -0.10437849387E+03  0.18936952788E+03  0.12508919063E+03 0.  0.
          5    1    3    3  502    0  0.33984836994E+02 -0.20077651732E+00  0.23427806897E+02  0.41489082814E+02  0.41800000000E+01 0. -1.
         -5    1    3    3    0  502  0.38567800999E+02 -0.63476199033E+02 -0.12780630077E+03  0.14788044507E+03  0.41800000000E+01 0. -1.
        -11    1    1    2    0    0 -0.23503721388E+02 -0.13125531361E+02  0.48326995346E+02  0.55319101328E+02  0.00000000000E+00 0.  1.
         11    1    1    2    0    0 -0.49048916606E+02  0.76802506911E+02  0.14486970327E+02  0.92272929927E+02  0.00000000000E+00 0. -1.
</event>
<event>
 7    1  0.2900135E-009  0.1483581E+03  0.7561462E-02  0.1202505E+00
         -2   -1    0    0    0  501 -0.00000000000E+00  0.00000000000E+00  0.39793729185E+02  0.39793729185E+02  0.00000000000E+00 0.  1.
          2   -1    0    0  501    0  0.00000000000E+00 -0.00000000000E+00 -0.57777127414E+03  0.57777127414E+03  0.00000000000E+00 0. -1.
         25    2    1    2    0    0  0.96579587476E+01  0.26997466279E+02 -0.26234008416E+03  0.29204705595E+03  0.12508806410E+03 0.  0.
          5    1    3    3  502    0 -0.37310709723E+02  0.57152497757E+02 -0.17937225632E+03  0.19196451703E+03  0.41800000000E+01 0.  1.
         -5    1    3    3    0  502  0.46968668470E+02 -0.30155031477E+02 -0.82967827842E+02  0.10008253893E+03  0.41800000000E+01 0.  1.
        -11    1    1    2    0    0  0.77646668876E+02  0.85152566148E+01 -0.14060454503E+03  0.16084512074E+03  0.00000000000E+00 0. -1.
         11    1    1    2    0    0 -0.87304627623E+02 -0.35512722894E+02 -0.13503291577E+03  0.16467282663E+03  0.00000000000E+00 0.  1.
</event>
<event>
 7    1  0.2900135E-009  0.1303248E+03  0.7561462E-02  0.1226975E+00
          2   -1    0    0  501    0  0.00000000000E+00  0.00000000000E+00  0.31565061575E+03  0.31565061575E+03  0.00000000000E+00 0.  1.
         -2   -1    0    0    0  501 -0.00000000000E+00 -0.00000000000E+00 -0.10837332149E+03  0.10837332149E+03  0.00000000000E+00 0. -1.
         25    2    1    2    0    0  0.94173730624E+02 -0.42447763544E+02 -0.14974949449E+02  0.16291969746E+03  0.12509226411E+03 0.  0.
          5    1    3    3  502    0  0.29484872435E+02 -0.52540758035E+02 -0.58586992903E+02  0.84141530142E+02  0.41800000000E+01 0. -1.
         -5    1    3    3    0  502  0.64688858190E+02  0.10092994491E+02  0.43612043454E+02  0.78778167317E+02  0.41800000000E+01 0. -1.
        -11    1    1    2    0    0 -0.20788703619E+02 -0.26687915985E+02  0.36584713679E+02  0.49828268410E+02  0.00000000000E+00 0. -1.
         11    1    1    2    0    0 -0.73385027005E+02  0.69135679529E+02  0.18566753003E+03  0.21127597137E+03  0.00000000000E+00 0.  1.
</event>
<event>
 7    1  0.2900135E-009  0.9844089E+02  0.7561462E-02  0.1283609E+00
         -2   -1    0    0    0  501 -0.00000000000E+00  0.00000000000E+00  0.72817868003E+02  0.72817868003E+02  0.00000000000E+00 0.  1.
          2   -1    0    0  501    0  0.00000000000E+00 -0.00000000000E+00 -0.20557714203E+03  0.20557714203E+03  0.00000000000E+00 0. -1.
         25    2    1    2    0    0 -0.40937569731E+02  0.22407702832E+01 -0.27702684681E+02  0.13452249001E+03  0.12509178995E+03 0.  0.
          5    1    3    3  502    0 -0.35143539625E+02 -0.42559390497E+02 -0.57840061026E+02  0.80058198558E+02  0.41800000000E+01 0.  1.
         -5    1    3    3    0  502 -0.57940301059E+01  0.44800160780E+02  0.30137376345E+02  0.54464291456E+02  0.41800000000E+01 0.  1.
        -11    1    1    2    0    0  0.45293024677E+02  0.35887503085E+02 -0.77290605501E+02  0.96504967026E+02  0.00000000000E+00 0.  1.
         11    1    1    2    0    0 -0.43554549466E+01 -0.38128273368E+02 -0.27765983849E+02  0.47367552997E+02  0.00000000000E+00 0. -1.
</event>
<event>
 7    1  0.2900135E-009  0.2097527E+03  0.7561462E-02  0.1141762E+00
          2   -1    0    0  501    0  0.00000000000E+00  0.00000000000E+00  0.34750027024E+03  0.34750027024E+03  0.00000000000E+00 0. -1.
         -2   -1    0    0    0  501 -0.00000000000E+00 -0.00000000000E+00 -0.13774987831E+03  0.13774987831E+03  0.00000000000E+00 0.  1.
         25    2    1    2    0    0 -0.77052170730E+01  0.18788749395E+03  0.65011689629E+02  0.23502170040E+03  0.12509036380E+03 0.  0.
          5    1    3    3  502    0 -0.57925371410E+02  0.12460300156E+03  0.69415578064E+02  0.15400406335E+03  0.41800000000E+01 0. -1.
         -5    1    3    3    0  502  0.50220154337E+02  0.63284492394E+02 -0.44038884350E+01  0.81017637046E+02  0.41800000000E+01 0. -1.
        -11    1    1    2    0    0 -0.21766316069E+02 -0.15677873797E+03  0.95112899918E+02  0.18466133576E+03  0.00000000000E+00 0.  1.
         11    1    1    2    0    0  0.29471533142E+02 -0.31108755982E+02  0.49625802389E+02  0.65567112390E+02  0.00000000000E+00 0. -1.
</event>
<event>
 7    1  0.2900135E-009  0.8157745E+02  0.7561462E-02  0.1324634E+00
         -2   -1    0    0    0  501 -0.00000000000E+00  0.00000000000E+00  0.79873808842E+02  0.79873808842E+02  0.00000000000E+00 0.  1.
          2   -1    0    0  501    0  0.00000000000E+00 -0.00000000000E+00 -0.16222541470E+03  0.16222541470E+03  0.00000000000E+00 0. -1.
         25    2    1    2    0    0 -0.11102958140E+02  0.18620443303E+02 -0.16661537342E+02  0.12804337266E+03  0.12508997508E+03 0.  0.
          5    1    3    3  502    0  0.54216003573E+02  0.25225309743E+02 -0.16820228668E+02  0.62258202572E+02  0.41800000000E+01 0.  1.
         -5    1    3    3    0  502 -0.65318961713E+02 -0.66048664396E+01  0.15869132640E+00  0.65785170084E+02  0.41800000000E+01 0.  1.
        -11    1    1    2    0    0  0.16528236350E+01 -0.25615989760E+02 -0.86459363286E+02  0.90189424309E+02  0.00000000000E+00 0. -1.
         11    1    1    2    0    0  0.94501345051E+01  0.69955464572E+01  0.20769294769E+02  0.23866426578E+02  0.00000000000E+00 0.  1.
</event>
<event>
 7    1  0.2900135E-009  0.3758562E+03  0.7561462E-02  0.1052476E+00
         -2   -1    0    0    0  501 -0.00000000000E+00  0.00000000000E+00  0.92816707915E+02  0.92816707915E+02  0.00000000000E+00 0.  1.
          2   -1    0    0  501    0  0.00000000000E+00 -0.00000000000E+00 -0.16856199949E+04  0.16856199949E+04  0.00000000000E+00 0. -1.
         25    2    1    2    0    0  0.25451880622E+03  0.26641442183E+03 -0.59556829683E+03  0.71141061736E+03  0.12508798275E+03 0.  0.
          5    1    3    3  502    0  0.52511228404E+02  0.10370155766E+03 -0.27798839356E+03  0.30134110493E+03  0.41800000000E+01 0. -1.
         -5    1    3    3    0  502  0.20200757781E+03  0.16271286417E+03 -0.31757990327E+03  0.41006951242E+03  0.41800000000E+01 0. -1.
        -11    1    1    2    0    0 -0.10874698083E+03 -0.62856713958E+02 -0.26717337694E+03  0.29522616021E+03  0.00000000000E+00 0.  1.
         11    1    1    2    0    0 -0.14577182539E+03 -0.20355770787E+03 -0.73006161317E+03  0.77179992520E+03  0.00000000000E+00 0. -1.
</event>
<event>
 7    1  0.2900135E-009  0.8380367E+02  0.7561462E-02  0.1318591E+00
         -1   -1    0    0    0  501 -0.00000000000E+00  0.00000000000E+00  0.18190599310E+02  0.18190599310E+02  0.00000000000E+00 0.  1.
          1   -1    0    0  501    0  0.00000000000E+00 -0.00000000000E+00 -0.83128355668E+03  0.83128355668E+03  0.00000000000E+00 0. -1.
         25    2    1    2    0    0  0.19299032246E+02  0.53346064915E+02 -0.48320837953E+03  0.50235203733E+03  0.12509586753E+03 0.  0.
          5    1    3    3  502    0 -0.83605448708E+01  0.23007661950E+02 -0.44629291181E+03  0.44698331820E+03  0.41800000000E+01 0. -1.
         -5    1    3    3    0  502  0.27659577117E+02  0.30338402965E+02 -0.36915467722E+02  0.55368719129E+02  0.41800000000E+01 0. -1.
        -11    1    1    2    0    0 -0.48261093600E+02 -0.54147763048E+02 -0.28178325593E+03  0.29096892741E+03  0.00000000000E+00 0. -1.
         11    1    1    2    0    0  0.28962061354E+02  0.80169813319E+00 -0.48101321912E+02  0.56153191249E+02  0.00000000000E+00 0.  1.
</event>
<event>
 7    1  0.2900135E-009  0.6605046E+02  0.7561462E-02  0.1374063E+00
          1   -1    0    0  501    0  0.00000000000E+00  0.00000000000E+00  0.34480799966E+02  0.34480799966E+02  0.00000000000E+00 0. -1.
         -1   -1    0    0    0  501 -0.00000000000E+00 -0.00000000000E+00 -0.38856935706E+03  0.38856935706E+03  0.00000000000E+00 0.  1.
         25    2    1    2    0    0 -0.20994359402E+01  0.29332102416E+02 -0.26025377435E+03  0.29024956936E+03  0.12509198849E+03 0.  0.
          5    1    3    3  502    0  0.46598708906E+02  0.10149982913E+02 -0.35915496997E+02  0.59848618609E+02  0.41800000000E+01 0.  1.
         -5    1    3    3    0  502 -0.48698144846E+02  0.19182119503E+02 -0.22433827735E+03  0.23040095075E+03  0.41800000000E+01 0.  1.
        -11    1    1    2    0    0  0.69555641559E+01 -0.20403462513E+02 -0.11087953531E+03  0.11295553332E+03  0.00000000000E+00 0.  1.
         11    1    1    2    0    0 -0.48561282157E+01 -0.89286399030E+01  0.17044752574E+02  0.19845054348E+02  0.00000000000E+00 0. -1.
</event>
<event>
 7    1  0.2900135E-009  0.1030870E+03  0.7561462E-02  0.1273935E+00
         -3   -1    0    0    0  501 -0.00000000000E+00  0.00000000000E+00  0.10437416995E+03  0.10437416995E+03  0.00000000000E+00 0.  1.
          3   -1    0    0  501    0  0.00000000000E+00 -0.00000000000E+00 -0.23886584088E+03  0.23886584088E+03  0.00000000000E+00 0. -1.
         25    2    1    2    0    0  0.11151909756E+02 -0.63482789641E+02  0.30769449263E+02  0.14404599705E+03  0.12509220834E+03 0.  0.
          5    1    3    3  502    0 -0.34824351851E+02  0.23485958817E+02  0.10952724978E+02  0.43609177106E+02  0.41800000000E+01 0.  1.
         -5    1    3    3    0  502  0.45976261607E+02 -0.86968748457E+02  0.19816724285E+02  0.10043681995E+03  0.41800000000E+01 0.  1.
        -11    1    1    2    0    0  0.24275110026E+01  0.12897568620E+02  0.98554593499E+01  0.16412500266E+02  0.00000000000E+00 0.  1.
         11    1    1    2    0    0 -0.13579420758E+02  0.50585221020E+02 -0.17511657954E+03  0.18278151352E+03  0.00000000000E+00 0. -1.
</event>
<event>
 7    1  0.2900135E-009  0.1037209E+03  0.7561462E-02  0.1272660E+00
         -2   -1    0    0    0  501 -0.00000000000E+00  0.00000000000E+00  0.34822395566E+02  0.34822395566E+02  0.00000000000E+00 0.  1.
          2   -1    0    0  501    0  0.00000000000E+00 -0.00000000000E+00 -0.41692245033E+03  0.41692245033E+03  0.00000000000E+00 0. -1.
         25    2    1    2    0    0  0.35695484511E+02 -0.39146413955E+02 -0.21159536415E+03  0.25144915082E+03  0.12508983962E+03 0.  0.
          5    1    3    3  502    0  0.14134812043E+02 -0.69761704521E+02 -0.19952890139E+03  0.21188615627E+03  0.41800000000E+01 0. -1.
         -5    1    3    3    0  502  0.21560672469E+02  0.30615290566E+02 -0.12066462755E+02  0.39562994542E+02  0.41800000000E+01 0. -1.
        -11    1    1    2    0    0  0.25858244608E+02  0.23522110195E+02 -0.29842119455E+02  0.45961838255E+02  0.00000000000E+00 0.  1.
         11    1    1    2    0    0 -0.61553729120E+02  0.15624303760E+02 -0.14066257116E+03  0.15433385682E+03  0.00000000000E+00 0. -1.
</event>
<event>
 7    1  0.2900135E-009  0.1468673E+03  0.7561462E-02  0.1204376E+00
         -1   -1    0    0    0  501 -0.00000000000E+00  0.00000000000E+00  0.12012895767E+03  0.12012895767E+03  0.00000000000E+00 0.  1.
          1   -1    0    0  501    0  0.00000000000E+00 -0.00000000000E+00 -0.21879977950E+03  0.21879977950E+03  0.00000000000E+00 0. -1.
         25    2    1    2    0    0 -0.11237966921E+03  0.42287074173E+02 -0.52344621313E+02  0.18112195301E+03  0.12509122985E+03 0.  0.
          5    1    3    3  502    0 -0.12468901560E+03 -0.43114199104E+01 -0.33978814140E+02  0.12937531126E+03  0.41800000000E+01 0.  1.
         -5    1    3    3    0  502  0.12309346386E+02  0.46598494084E+02 -0.18365807173E+02  0.51746641750E+02  0.41800000000E+01 0.  1.
        -11    1    1    2    0    0  0.27761830652E+02 -0.15341334347E+02 -0.60084472489E+02  0.67942767201E+02  0.00000000000E+00 0. -1.
         11    1    1    2    0    0  0.84617838558E+02 -0.26945739827E+02  0.13758271981E+02  0.89864016964E+02  0.00000000000E+00 0.  1.
</event>
<event>
 7    1  0.2900135E-009  0.1126636E+03  0.7561462E-02  0.1255715E+00
          2   -1    0    0  501    0  0.00000000000E+00  0.00000000000E+00  0.67867944332E+03  0.67867944332E+03  0.00000000000E+00 0. -1.
         -2   -1    0    0    0  501 -0.00000000000E+00 -0.00000000000E+00 -0.23680216779E+02  0.23680216779E+02  0.00000000000E+00 0.  1.
         25    2    1    2    0    0 -0.36720663704E+02 -0.11785556355E+02  0.51345206472E+03  0.52987543301E+03  0.12509054824E+03 0.  0.
          5    1    3    3  502    0 -0.27000138901E+02 -0.67268049519E+02  0.33151737217E+03  0.33937477578E+03  0.41800000000E+01 0. -1.
         -5    1    3    3    0  502 -0.97205248030E+01  0.55482493164E+02  0.18193469255E+03  0.19050065723E+03  0.41800000000E+01 0. -1.
        -11    1    1    2    0    0  0.69915513006E+01  0.48498236688E+02  0.53385239650E+02  0.72463401548E+02  0.00000000000E+00 0.  1.
         11    1    1    2    0    0  0.29729112404E+02 -0.36712680332E+02  0.88161922172E+02  0.10002082554E+03  0.00000000000E+00 0. -1.
</event>
<event>
 7    1  0.2900135E-009  0.1106932E+03  0.7561462E-02  0.1259291E+00
         -4   -1    0    0    0  501 -0.00000000000E+00  0.00000000000E+00  0.92698466723E+02  0.92698466723E+02  0.00000000000E+00 0. -1.
          4   -1    0    0  501    0  0.00000000000E+00 -0.00000000000E+00 -0.19789833317E+03  0.19789833317E+03  0.00000000000E+00 0.  1.
         25    2    1    2    0    0  0.54920645866E+01 -0.56191671509E+02 -0.13325642983E+03  0.19129115947E+03  0.12508942753E+03 0.  0.
          5    1    3    3  502    0  0.31660733249E+02  0.25647340753E+02 -0.12113659457E+02  0.42713010465E+02  0.41800000000E+01 0. -1.
         -5    1    3    3    0  502 -0.26168668662E+02 -0.81839012262E+02 -0.12114277037E+03  0.14857814900E+03  0.41800000000E+01 0. -1.
        -11    1    1    2    0    0 -0.38918323252E+02  0.44200831078E+02  0.23876025171E+02  0.63548516354E+02  0.00000000000E+00 0. -1.
         11    1    1    2    0    0  0.33426258665E+02  0.11990840430E+02  0.41805382044E+01  0.35757124077E+02  0.00000000000E+00 0.  1.
</event>
<event>
 7    1  0.2900135E-009  0.9901463E+02  0.7561462E-02  0.1282382E+00
         -4   -1    0    0    0  501 -0.00000000000E+00  0.00000000000E+00  0.85997658841E+03  0.85997658841E+03  0.00000000000E+00 0.  1.
          4   -1    0    0  501    0  0.00000000000E+00 -0.00000000000E+00 -0.12966636631E+02  0.12966636631E+02  0.00000000000E+00 0. -1.
         25    2    1    2    0    0 -0.43956672879E+02  0.34489013409E+02  0.49905910212E+03  0.51752263117E+03  0.12509198704E+03 0.  0.
          5    1    3    3  502    0  0.39415547656E+01  0.67169130025E+02  0.36835010474E+03  0.37446828963E+03  0.41800000000E+01 0.  1.
         -5    1    3    3    0  502 -0.47898227644E+02 -0.32680116616E+02  0.13070899739E+03  0.14305434153E+03  0.41800000000E+01 0.  1.
        -11    1    1    2    0    0  0.47531823796E+00  0.10151545560E+02  0.50232466074E+02  0.51250175147E+02  0.00000000000E+00 0.  1.
         11    1    1    2    0    0  0.43481354641E+02 -0.44640558969E+02  0.29771838358E+03  0.30417041873E+03  0.00000000000E+00 0. -1.
</event>
<event>
 7    1  0.2907784E-009  0.1133815E+03  0.7561462E-02  0.1254433E+00
          2   -1    0    0  501    0  0.00000000000E+00  0.00000000000E+00  0.44429237894E+03  0.44429237894E+03  0.00000000000E+00 0. -1.
         -2   -1    0    0    0  501 -0.00000000000E+00 -0.00000000000E+00 -0.50235597169E+02  0.50235597169E+02  0.00000000000E+00 0.  1.
         25    2    1    2    0    0  0.72619271115E+01  0.99453159156E+02  0.17501245727E+03  0.23710319024E+03  0.12507955936E+03 0.  0.
          5    1    3    3  502    0 -0.31891506826E+01  0.21678407172E+02  0.15420509530E+03  0.15581016603E+03  0.41800000000E+01 0. -1.
         -5    1    3    3    0  502  0.10451077794E+02  0.77774751984E+02  0.20807361969E+02  0.81293024211E+02  0.41800000000E+01 0. -1.
        -11    1    1    2    0    0  0.16240724060E+02 -0.10101905748E+03  0.20714262569E+03  0.23103393359E+03  0.00000000000E+00 0.  1.
         11    1    1    2    0    0 -0.23502651171E+02  0.15658983245E+01  0.11901698808E+02  0.26390852282E+02  0.00000000000E+00 0. -1.
</event>
<event>
 7    1  0.2900135E-009  0.1292561E+03  0.7561462E-02  0.1228564E+00
         -1   -1    0    0    0  501 -0.00000000000E+00  0.00000000000E+00  0.38103382827E+02  0.38103382827E+02  0.00000000000E+00 0.  1.
          1   -1    0    0  501    0  0.00000000000E+00 -0.00000000000E+00 -0.57840345174E+03  0.57840345174E+03  0.00000000000E+00 0. -1.
         25    2    1    2    0    0  0.67022967697E+02  0.37225093248E+02 -0.15140996185E+03  0.21083278165E+03  0.12509076506E+03 0.  0.
          5    1    3    3  502    0 -0.11931111728E+02  0.61320755327E+02 -0.80112084653E+02  0.10167598029E+03  0.41800000000E+01 0. -1.
         -5    1    3    3    0  502  0.78954079425E+02 -0.24095662079E+02 -0.71297877196E+02  0.10915680135E+03  0.41800000000E+01 0. -1.
        -11    1    1    2    0    0 -0.10932373101E+02  0.26312524687E+02 -0.66871362073E+02  0.72688684143E+02  0.00000000000E+00 0. -1.
         11    1    1    2    0    0 -0.56090594596E+02 -0.63537617935E+02 -0.32201874499E+03  0.33298536878E+03  0.00000000000E+00 0.  1.
</event>
<event>
 7    1  0.2900135E-009  0.9246283E+02  0.7561462E-02  0.1296995E+00
         -2   -1    0    0    0  501 -0.00000000000E+00  0.00000000000E+00  0.45891083465E+02  0.45891083465E+02  0.00000000000E+00 0. -1.
          2   -1    0    0  501    0  0.00000000000E+00 -0.00000000000E+00 -0.31029983546E+03  0.31029983546E+03  0.00000000000E+00 0.  1.
         25    2    1    2    0    0 -0.21419508528E+02  0.34760426152E+02 -0.19221960007E+03  0.23293910248E+03  0.12508064696E+03 0.  0.
          5    1    3    3  502    0 -0.63982412137E+02  0.33217107749E+02 -0.59744354806E+02  0.93722919508E+02  0.41800000000E+01 0.  1.
         -5    1    3    3    0  502  0.42562903609E+02  0.15433184036E+01 -0.13247524526E+03  0.13921618298E+03  0.41800000000E+01 0.  1.
        -11    1    1    2    0    0 -0.15316352362E+02  0.46837921779E+01  0.14214108005E+02  0.21414234173E+02  0.00000000000E+00 0. -1.
         11    1    1    2    0    0  0.36735860890E+02 -0.39444218330E+02 -0.86403259929E+02  0.10183758226E+03  0.00000000000E+00 0.  1.
</event>
<event>
 7    1  0.2900135E-009  0.1023494E+03  0.7561462E-02  0.1275432E+00
         -2   -1    0    0    0  501 -0.00000000000E+00  0.00000000000E+00  0.18085498413E+03  0.18085498413E+03  0.00000000000E+00 0.  1.
          2   -1    0    0  501    0  0.00000000000E+00 -0.00000000000E+00 -0.15354430421E+03  0.15354430421E+03  0.00000000000E+00 0. -1.
         25    2    1    2    0    0 -0.33182080890E+02 -0.26466140626E+02 -0.10602298654E+03  0.16938334777E+03  0.12509331610E+03 0.  0.
          5    1    3    3  502    0  0.43951171064E+02 -0.13621933522E+02 -0.13426178895E+02  0.48114417698E+02  0.41800000000E+01 0.  1.
         -5    1    3    3    0  502 -0.77133251954E+02 -0.12844207104E+02 -0.92596807647E+02  0.12126893007E+03  0.41800000000E+01 0.  1.
        -11    1    1    2    0    0  0.25315752433E+02 -0.20495776927E+02  0.12066957204E+02  0.34735797807E+02  0.00000000000E+00 0. -1.
         11    1    1    2    0    0  0.78663284570E+01  0.46961917553E+02  0.12126670926E+03  0.13028014276E+03  0.00000000000E+00 0.  1.
</event>
<event>
 7    1  0.2900135E-009  0.1714463E+03  0.7561462E-02  0.1176348E+00
          2   -1    0    0  501    0  0.00000000000E+00  0.00000000000E+00  0.14215500970E+04  0.14215500970E+04  0.00000000000E+00 0. -1.
         -2   -1    0    0    0  501 -0.00000000000E+00 -0.00000000000E+00 -0.22040065578E+02  0.22040065578E+02  0.00000000000E+00 0.  1.
         25    2    1    2    0    0  0.68230693673E+02  0.11326543272E+03  0.91713843122E+03  0.93502659321E+03  0.12508933681E+03 0.  0.
          5    1    3    3  502    0 -0.35814470907E+02  0.16056619619E+02  0.18655890654E+03  0.19068872376E+03  0.41800000000E+01 0.  1.
         -5    1    3    3    0  502  0.10404516458E+03  0.97208813097E+02  0.73057952468E+03  0.74433786945E+03  0.41800000000E+01 0.  1.
        -11    1    1    2    0    0  0.13826336870E+02 -0.63529959722E+02  0.20508929829E+03  0.21514842237E+03  0.00000000000E+00 0.  1.
         11    1    1    2    0    0 -0.82057030544E+02 -0.49735472994E+02  0.27728230189E+03  0.29341514698E+03  0.00000000000E+00 0. -1.
</event>
<event>
 7    1  0.2900135E-009  0.9196271E+02  0.7561462E-02  0.1298167E+00
         -2   -1    0    0    0  501 -0.00000000000E+00  0.00000000000E+00  0.49023962997E+02  0.49023962997E+02  0.00000000000E+00 0.  1.
          2   -1    0    0  501    0  0.00000000000E+00 -0.00000000000E+00 -0.37327634659E+03  0.37327634659E+03  0.00000000000E+00 0. -1.
         25    2    1    2    0    0  0.25596378307E+01 -0.64784874583E+02 -0.10439874311E+03  0.17535240902E+03  0.12508292475E+03 0.  0.
          5    1    3    3  502    0 -0.24803508442E+02 -0.57308158901E+02  0.44955988423E+01  0.62746489277E+02  0.41800000000E+01 0. -1.
         -5    1    3    3    0  502  0.27363146273E+02 -0.74767156828E+01 -0.10889434195E+03  0.11260591974E+03  0.41800000000E+01 0. -1.
        -11    1    1    2    0    0 -0.32040313997E+02  0.16361609664E+02 -0.24478970236E+02  0.43514411126E+02  0.00000000000E+00 0.  1.
         11    1    1    2    0    0  0.29480676167E+02  0.48423264919E+02 -0.19537467025E+03  0.20343348945E+03  0.00000000000E+00 0. -1.
</event>
<event>
 7    1  0.2900135E-009  0.1222307E+03  0.7561462E-02  0.1239462E+00
         -1   -1    0    0    0  501 -0.00000000000E+00  0.00000000000E+00  0.15137365415E+03  0.15137365415E+03  0.00000000000E+00 0.  1.
          1   -1    0    0  501    0  0.00000000000E+00 -0.00000000000E+00 -0.12224572236E+03  0.12224572236E+03  0.00000000000E+00 0. -1.
         25    2    1    2    0    0 -0.59055393965E+02 -0.39806791991E+02 -0.11662326918E+02  0.14441152896E+03  0.12508620861E+03 0.  0.
          5    1    3    3  502    0  0.12265685558E+02  0.34971864700E+02 -0.16708038622E+02  0.40866970983E+02  0.41800000000E+01 0. -1.
         -5    1    3    3    0  502 -0.71321079523E+02 -0.74778656691E+02  0.50457117032E+01  0.10354455798E+03  0.41800000000E+01 0. -1.
        -11    1    1    2    0    0  0.42937370149E+02 -0.15873935120E+02  0.52933899126E+02  0.69982835382E+02  0.00000000000E+00 0.  1.
         11    1    1    2    0    0  0.16118023817E+02  0.55680727111E+02 -0.12143640414E+02  0.59225012164E+02  0.00000000000E+00 0. -1.
</event>
<event>
 7    1  0.2900135E-009  0.8889793E+02  0.7561462E-02  0.1305543E+00
          2   -1    0    0  501    0  0.00000000000E+00  0.00000000000E+00  0.47258848230E+03  0.47258848230E+03  0.00000000000E+00 0. -1.
         -2   -1    0    0    0  501 -0.00000000000E+00 -0.00000000000E+00 -0.28932987479E+02  0.28932987479E+02  0.00000000000E+00 0.  1.
         25    2    1    2    0    0 -0.12746055408E+02  0.10247324203E+02  0.34102108617E+03  0.36360764368E+03  0.12509063812E+03 0.  0.
          5    1    3    3  502    0  0.36560142327E+02  0.40921959696E+01  0.28968128961E+03  0.29203786060E+03  0.41800000000E+01 0. -1.
         -5    1    3    3    0  502 -0.49306197736E+02  0.61551282336E+01  0.51339796566E+02  0.71569783080E+02  0.41800000000E+01 0. -1.
        -11    1    1    2    0    0 -0.17141366019E+02  0.33670979204E+02  0.31876198101E+02  0.49433321504E+02  0.00000000000E+00 0.  1.
         11    1    1    2    0    0  0.29887421428E+02 -0.43918303407E+02  0.70758210547E+02  0.88480504596E+02  0.00000000000E+00 0. -1.
</event>
<event>
 6    1  0.2900135E-009  0.8806855E+02  0.7561462E-02  0.1307598E+00
         -2   -1    0    0    0  501 -0.00000000000E+00  0.00000000000E+00  0.43670173125E+03  0.43670173125E+03  0.00000000000E+00 0. -1.
          2   -1    0    0  501    0  0.00000000000E+00 -0.00000000000E+00 -0.39271091838E+02  0.39271091838E+02  0.00000000000E+00 0.  1.
          5    1    1    2  502    0 -0.10463843111E+02 -0.26907274344E+02  0.22681444079E+03  0.22868265430E+03  0.41800000000E+01 0.  1.
         -5    1    1    2    0  502 -0.21739747069E+02  0.70247417835E+02  0.92027886285E+02  0.11787247588E+03  0.41800000000E+01 0.  1.
        -11    1    1    2    0    0  0.22161612424E+02 -0.54179342408E+02  0.92275625782E+02  0.10927638959E+03  0.00000000000E+00 0. -1.
         11    1    1    2    0    0  0.10041977757E+02  0.10839198917E+02 -0.13687313442E+02  0.20141303326E+02  0.00000000000E+00 0.  1.
</event>
<event>
 7    1  0.2900135E-009  0.1287142E+03  0.7561462E-02  0.1229376E+00
          2   -1    0    0  501    0  0.00000000000E+00  0.00000000000E+00  0.23974953759E+03  0.23974953759E+03  0.00000000000E+00 0. -1.
         -2   -1    0    0    0  501 -0.00000000000E+00 -0.00000000000E+00 -0.16482010608E+03  0.16482010608E+03  0.00000000000E+00 0.  1.
         25    2    1    2    0    0  0.77555756593E+02  0.37125797916E+02 -0.10570042265E+03  0.18496713092E+03  0.12508812861E+03 0.  0.
          5    1    3    3  502    0 -0.99281002235E+01  0.58579595282E+02 -0.57192868190E+02  0.82575012742E+02  0.41800000000E+01 0. -1.
         -5    1    3    3    0  502  0.87483856816E+02 -0.21453797366E+02 -0.48507554455E+02  0.10239211817E+03  0.41800000000E+01 0. -1.
        -11    1    1    2    0    0 -0.40487425467E+01 -0.33873624514E+02  0.12950898929E+02  0.36490280035E+02  0.00000000000E+00 0.  1.
         11    1    1    2    0    0 -0.73507014046E+02 -0.32521734018E+01  0.16767895522E+03  0.18311223272E+03  0.00000000000E+00 0. -1.
</event>
<event>
 7    1  0.2900135E-009  0.8161709E+02  0.7561462E-02  0.1324524E+00
         -1   -1    0    0    0  501 -0.00000000000E+00  0.00000000000E+00  0.28545467059E+03  0.28545467059E+03  0.00000000000E+00 0. -1.
          1   -1    0    0  501    0  0.00000000000E+00 -0.00000000000E+00 -0.10622765994E+03  0.10622765994E+03  0.00000000000E+00 0.  1.
         25    2    1    2    0    0 -0.43710424809E+02  0.46780046828E+02  0.22874146012E+03  0.26846165140E+03  0.12510007463E+03 0.  0.
          5    1    3    3  502    0 -0.11103765010E+02 -0.31181376219E+01 -0.13918485511E+02  0.18552978698E+02  0.41800000000E+01 0.  1.
         -5    1    3    3    0  502 -0.32606659799E+02  0.49898184450E+02  0.24265994564E+03  0.24990867270E+03  0.41800000000E+01 0.  1.
        -11    1    1    2    0    0 -0.77491259990E+01  0.11245212479E+02 -0.43314866996E+02  0.45416753080E+02  0.00000000000E+00 0.  1.
         11    1    1    2    0    0  0.51459550808E+02 -0.58025259307E+02 -0.61995824774E+01  0.77803926057E+02  0.00000000000E+00 0. -1.
</event>
<event>
 7    1  0.2900135E-009  0.1413589E+03  0.7561462E-02  0.1211512E+00
         -2   -1    0    0    0  501 -0.00000000000E+00  0.00000000000E+00  0.20107624269E+02  0.20107624269E+02  0.00000000000E+00 0.  1.
          2   -1    0    0  501    0  0.00000000000E+00 -0.00000000000E+00 -0.11831575275E+04  0.11831575275E+04  0.00000000000E+00 0. -1.
         25    2    1    2    0    0  0.86936753001E+02 -0.60563831906E+02 -0.71088048135E+03  0.72953507480E+03  0.12507753533E+03 0.  0.
          5    1    3    3  502    0  0.84802641565E+02 -0.21691745089E+00 -0.56874829419E+03  0.57505098001E+03  0.41800000000E+01 0. -1.
         -5    1    3    3    0  502  0.21341114368E+01 -0.60346914455E+02 -0.14213218716E+03  0.15448409479E+03  0.41800000000E+01 0. -1.
        -11    1    1    2    0    0 -0.40754921126E+02  0.77930171271E+02 -0.23222106477E+03  0.24831572264E+03  0.00000000000E+00 0. -1.
         11    1    1    2    0    0 -0.46181831875E+02 -0.17366339365E+02 -0.21994835711E+03  0.22541435432E+03  0.00000000000E+00 0.  1.
</event>
<event>
 7    1  0.2900135E-009  0.9813673E+02  0.7561462E-02  0.1284264E+00
         -2   -1    0    0    0  501 -0.00000000000E+00  0.00000000000E+00  0.49755261264E+02  0.49755261264E+02  0.00000000000E+00 0.  1.
          2   -1    0    0  501    0  0.00000000000E+00 -0.00000000000E+00 -0.32022857539E+03  0.32022857539E+03  0.00000000000E+00 0. -1.
         25    2    1    2    0    0  0.37655174196E+02  0.43972477111E+02 -0.19505954208E+03  0.23884541242E+03  0.12508962864E+03 0.  0.
          5    1    3    3  502    0 -0.20567579329E+02 -0.15877758062E+02 -0.13074301206E+03  0.13336542327E+03  0.41800000000E+01 0.  1.
         -5    1    3    3    0  502  0.58222753525E+02  0.59850235174E+02 -0.64316530016E+02  0.10547998915E+03  0.41800000000E+01 0.  1.
        -11    1    1    2    0    0 -0.55614992607E+02 -0.38269662825E+02 -0.16798256698E+02  0.69568498069E+02  0.00000000000E+00 0.  1.
         11    1    1    2    0    0  0.17959818411E+02 -0.57028142864E+01 -0.58615515346E+02  0.61569926161E+02  0.00000000000E+00 0. -1.
</event>
<event>
 7    1  0.2900135E-009  0.1145331E+03  0.7561462E-02  0.1252398E+00
          2   -1    0    0  501    0  0.00000000000E+00  0.00000000000E+00  0.19082892665E+03  0.19082892665E+03  0.00000000000E+00 0.  1.
         -2   -1    0    0    0  501 -0.00000000000E+00 -0.00000000000E+00 -0.94303959275E+02  0.94303959275E+02  0.00000000000E+00 0. -1.
         25    2    1    2    0    0 -0.33976911655E+02 -0.10258945156E+02  0.12506559576E+03  0.18041205390E+03  0.12508968570E+03 0.  0.
          5    1    3    3  502    0 -0.80202491279E+02  0.24219909769E+01  0.64333328825E+02  0.10292985595E+03  0.41800000000E+01 0.  1.
         -5    1    3    3    0  502  0.46225579624E+02 -0.12680936133E+02  0.60732266936E+02  0.77482197955E+02  0.41800000000E+01 0.  1.
        -11    1    1    2    0    0  0.16555865817E+02 -0.42197682776E+02 -0.99886530447E+01  0.46416746055E+02  0.00000000000E+00 0.  1.
         11    1    1    2    0    0  0.17421045837E+02  0.52456627933E+02 -0.18551975336E+02  0.58304085972E+02  0.00000000000E+00 0. -1.
</event>
<event>
 7    1  0.2900135E-009  0.1113912E+03  0.7561462E-02  0.1258015E+00
          1   -1    0    0  501    0  0.00000000000E+00  0.00000000000E+00  0.68551767021E+03  0.68551767021E+03  0.00000000000E+00 0. -1.
         -1   -1    0    0    0  501 -0.00000000000E+00 -0.00000000000E+00 -0.20818999640E+02  0.20818999640E+02  0.00000000000E+00 0.  1.
         25    2    1    2    0    0 -0.37618270954E+02 -0.29175061127E+02  0.39805842130E+03  0.41995747910E+03  0.12508980367E+03 0.  0.
          5    1    3    3  502    0  0.13174088513E+02  0.34299673523E+02  0.23301490772E+03  0.23593101498E+03  0.41800000000E+01 0. -1.
         -5    1    3    3    0  502 -0.50792359468E+02 -0.63474734651E+02  0.16504351358E+03  0.18402646412E+03  0.41800000000E+01 0. -1.
        -11    1    1    2    0    0 -0.10270272923E+02  0.50819790597E+02  0.13801127450E+03  0.14742876759E+03  0.00000000000E+00 0.  1.
         11    1    1    2    0    0  0.47888543877E+02 -0.21644729470E+02  0.12862897476E+03  0.13895042316E+03  0.00000000000E+00 0. -1.
</event>
<event>
 7    1  0.2900135E-009  0.1293919E+03  0.7561462E-02  0.1228361E+00
          1   -1    0    0  501    0  0.00000000000E+00  0.00000000000E+00  0.10916274296E+03  0.10916274296E+03  0.00000000000E+00 0. -1.
         -1   -1    0    0    0  501 -0.00000000000E+00 -0.00000000000E+00 -0.19253108246E+03  0.19253108246E+03  0.00000000000E+00 0.  1.
         25    2    1    2    0    0  0.67555252811E+02 -0.66214555647E+02 -0.69741670208E+02  0.17163675514E+03  0.12508875086E+03 0.  0.
          5    1    3    3  502    0  0.42656269606E+02  0.14257446785E+02 -0.74542997975E+02  0.87160559158E+02  0.41800000000E+01 0.  1.
         -5    1    3    3    0  502  0.24898983204E+02 -0.80472002432E+02  0.48013277674E+01  0.84476195986E+02  0.41800000000E+01 0.  1.
        -11    1    1    2    0    0  0.21612907698E+02  0.16436051892E+02 -0.11622828753E+01  0.27177425972E+02  0.00000000000E+00 0. -1.
         11    1    1    2    0    0 -0.89168160509E+02  0.49778503755E+02 -0.12464386417E+02  0.10287964431E+03  0.00000000000E+00 0.  1.
</event>
<event>
 7    1  0.2900135E-009  0.1546881E+03  0.7561462E-02  0.1194828E+00
         -2   -1    0    0    0  501 -0.00000000000E+00  0.00000000000E+00  0.48413122182E+02  0.48413122182E+02  0.00000000000E+00 0.  1.
          2   -1    0    0  501    0  0.00000000000E+00 -0.00000000000E+00 -0.66144411831E+03  0.66144411831E+03  0.00000000000E+00 0. -1.
         25    2    1    2    0    0  0.92769057360E+02  0.10557012342E+03 -0.28327963954E+03  0.34006665159E+03  0.12508726709E+03 0.  0.
          5    1    3    3  502    0  0.58445401352E+02  0.11374005988E+02 -0.28307647540E+02  0.66060792159E+02  0.41800000000E+01 0. -1.
         -5    1    3    3    0  502  0.34323656008E+02  0.94196117431E+02 -0.25497199200E+03  0.27400585943E+03  0.41800000000E+01 0. -1.
        -11    1    1    2    0    0 -0.79144334279E+02 -0.53519089306E+02 -0.12075849128E+03  0.15398289446E+03  0.00000000000E+00 0.  1.
         11    1    1    2    0    0 -0.13624723081E+02 -0.52051034113E+02 -0.20899286531E+03  0.21580769444E+03  0.00000000000E+00 0. -1.
</event>
<event>
 7    1  0.2900135E-009  0.1768980E+03  0.7561462E-02  0.1170839E+00
         -1   -1    0    0    0  501 -0.00000000000E+00  0.00000000000E+00  0.18934605136E+03  0.18934605136E+03  0.00000000000E+00 0.  1.
          1   -1    0    0  501    0  0.00000000000E+00 -0.00000000000E+00 -0.34063421384E+03  0.34063421384E+03  0.00000000000E+00 0. -1.
         25    2    1    2    0    0  0.12281099121E+03  0.97740633034E+02  0.95880012089E+02  0.22243251391E+03  0.12508987016E+03 0.  0.
          5    1    3    3  502    0  0.89684740011E+02  0.26575894143E+02  0.10795383399E+03  0.14290253116E+03  0.41800000000E+01 0. -1.
         -5    1    3    3    0  502  0.33126251201E+02  0.71164738892E+02 -0.12073821901E+02  0.79529982745E+02  0.41800000000E+01 0. -1.
        -11    1    1    2    0    0  0.53367547889E+01 -0.41104776215E+02 -0.41182197790E+02  0.58429932348E+02  0.00000000000E+00 0.  1.
         11    1    1    2    0    0 -0.12814774600E+03 -0.56635856819E+02 -0.20598597678E+03  0.24911781894E+03  0.00000000000E+00 0. -1.
</event>
<event>
 7    1  0.2900135E-009  0.1232998E+03  0.7561462E-02  0.1237751E+00
         -1   -1    0    0    0  501 -0.00000000000E+00  0.00000000000E+00  0.13644956311E+02  0.13644956311E+02  0.00000000000E+00 0.  1.
          1   -1    0    0  501    0  0.00000000000E+00 -0.00000000000E+00 -0.13957282215E+04  0.13957282215E+04  0.00000000000E+00 0. -1.
         25    2    1    2    0    0 -0.54131931313E+02 -0.41244082679E+02 -0.10104548428E+04  0.10204398386E+04  0.12508850683E+03 0.  0.
          5    1    3    3  502    0 -0.36048154195E+02 -0.81168179706E+02 -0.82746049622E+03  0.83222358055E+03  0.41800000000E+01 0. -1.
         -5    1    3    3    0  502 -0.18083777118E+02  0.39924097028E+02 -0.18299434660E+03  0.18821625808E+03  0.41800000000E+01 0. -1.
        -11    1    1    2    0    0 -0.25289088509E+02  0.17545018663E+02 -0.78681375164E+02  0.84487421994E+02  0.00000000000E+00 0.  1.
         11    1    1    2    0    0  0.79421019823E+02  0.23699064016E+02 -0.29294704719E+03  0.30444591717E+03  0.00000000000E+00 0. -1.
</event>
<event>
 7    1  0.2900135E-009  0.1056897E+03  0.7561462E-02  0.1268767E+00
         -2   -1    0    0    0  501 -0.00000000000E+00  0.00000000000E+00  0.10210779223E+02  0.10210779223E+02  0.00000000000E+00 0.  1.
          2   -1    0    0  501    0  0.00000000000E+00 -0.00000000000E+00 -0.12633820736E+04  0.12633820736E+04  0.00000000000E+00 0. -1.
         25    2    1    2    0    0 -0.52720367637E+01 -0.28025635068E+02 -0.83146757388E+03  0.84130884099E+03  0.12509599882E+03 0.  0.
          5    1    3    3  502    0 -0.53570234349E+02  0.14725291938E+02 -0.53407776514E+03  0.53697591738E+03  0.41800000000E+01 0.  1.
         -5    1    3    3    0  502  0.48298197586E+02 -0.42750927005E+02 -0.29738980874E+03  0.30433292361E+03  0.41800000000E+01 0.  1.
        -11    1    1    2    0    0 -0.13104604576E+02  0.56025336422E+02 -0.32214430594E+03  0.32724229988E+03  0.00000000000E+00 0. -1.
         11    1    1    2    0    0  0.18376641339E+02 -0.27999701354E+02 -0.99559414582E+02  0.10504171198E+03  0.00000000000E+00 0.  1.
</event>
<event>
 7    1  0.2900135E-009  0.1405662E+03  0.7561462E-02  0.1212569E+00
         -2   -1    0    0    0  501 -0.00000000000E+00  0.00000000000E+00  0.11944947704E+03  0.11944947704E+03  0.00000000000E+00 0.  1.
          2   -1    0    0  501    0  0.00000000000E+00 -0.00000000000E+00 -0.39584510426E+03  0.39584510426E+03  0.00000000000E+00 0. -1.
         25    2    1    2    0    0 -0.13598086494E+03 -0.13898075185E+02  0.18242794509E+02  0.18619351179E+03  0.12510504450E+03 0.  0.
          5    1    3    3  502    0 -0.66357715829E+02 -0.18519358662E+02  0.70695290506E+02  0.98800858271E+02  0.41800000000E+01 0. -1.
         -5    1    3    3    0  502 -0.69623149111E+02  0.46212834762E+01 -0.52452495997E+02  0.87392653521E+02  0.41800000000E+01 0. -1.
        -11    1    1    2    0    0  0.86098248833E+02  0.27716745268E+02 -0.22363225113E+03  0.24123123796E+03  0.00000000000E+00 0.  1.
         11    1    1    2    0    0  0.49882616107E+02 -0.13818670082E+02 -0.71006170602E+02  0.87869831547E+02  0.00000000000E+00 0. -1.
</event>
<event>
 7    1  0.2900135E-009  0.1090479E+03  0.7561462E-02  0.1262343E+00
          1   -1    0    0  501    0  0.00000000000E+00  0.00000000000E+00  0.43375073726E+03  0.43375073726E+03  0.00000000000E+00 0. -1.
         -1   -1    0    0    0  501 -0.00000000000E+00 -0.00000000000E+00 -0.51693591432E+02  0.51693591432E+02  0.00000000000E+00 0.  1.
         25    2    1    2    0    0  0.62535265134E+02  0.81166201503E+02  0.21370709984E+03  0.26798652111E+03  0.12508972508E+03 0.  0.
          5    1    3    3  502    0  0.61540604893E+02  0.43458517162E+02  0.31326219608E+02  0.81698795582E+02  0.41800000000E+01 0.  1.
         -5    1    3    3    0  502  0.99466024099E+00  0.37707684341E+02  0.18238088024E+03  0.18628772553E+03  0.41800000000E+01 0.  1.
        -11    1    1    2    0    0 -0.17597830499E+02 -0.92310586631E+01  0.11620747841E+03  0.11789433456E+03  0.00000000000E+00 0. -1.
         11    1    1    2    0    0 -0.44937434635E+02 -0.71935142840E+02  0.52142567571E+02  0.99563473021E+02  0.00000000000E+00 0.  1.
</event>
<event>
 7    1  0.2900135E-009  0.1207897E+03  0.7561462E-02  0.1241800E+00
          2   -1    0    0  501    0  0.00000000000E+00  0.00000000000E+00  0.15274656455E+03  0.15274656455E+03  0.00000000000E+00 0.  1.
         -2   -1    0    0    0  501 -0.00000000000E+00 -0.00000000000E+00 -0.12963101003E+03  0.12963101003E+03  0.00000000000E+00 0. -1.
         25    2    1    2    0    0 -0.75226668811E+02  0.31520909513E+00 -0.46132137341E+02  0.15308334224E+03  0.12508870660E+03 0.  0.
          5    1    3    3  502    0  0.22211307024E+02 -0.30717737642E+02 -0.31966219383E+02  0.49761763908E+02  0.41800000000E+01 0. -1.
         -5    1    3    3    0  502 -0.97437975835E+02  0.31032946737E+02 -0.14165917959E+02  0.10332157833E+03  0.41800000000E+01 0. -1.
        -11    1    1    2    0    0  0.18375049225E+02  0.31115070658E+02  0.26064311779E+01  0.36229594803E+02  0.00000000000E+00 0. -1.
         11    1    1    2    0    0  0.56851619585E+02 -0.31430279753E+02  0.66641260676E+02  0.93064637534E+02  0.00000000000E+00 0.  1.
</event>
<event>
 7    1  0.2900135E-009  0.8141776E+02  0.7561462E-02  0.1325076E+00
          2   -1    0    0  501    0  0.00000000000E+00  0.00000000000E+00  0.55432781737E+03  0.55432781737E+03  0.00000000000E+00 0. -1.
         -2   -1    0    0    0  501 -0.00000000000E+00 -0.00000000000E+00 -0.23974134291E+02  0.23974134291E+02  0.00000000000E+00 0.  1.
         25    2    1    2    0    0 -0.38856829034E+02  0.65879891653E+01  0.30308145777E+03  0.33024560312E+03  0.12510209259E+03 0.  0.
          5    1    3    3  502    0 -0.24573472711E+02 -0.20672726878E+02  0.77663223025E+01  0.33301732084E+02  0.41800000000E+01 0. -1.
         -5    1    3    3    0  502 -0.14283356323E+02  0.27260716044E+02  0.29531513547E+03  0.29694387103E+03  0.41800000000E+01 0. -1.
        -11    1    1    2    0    0  0.21089854864E+02  0.42360589763E+02  0.10761871827E+03  0.11756270695E+03  0.00000000000E+00 0.  1.
         11    1    1    2    0    0  0.17766974170E+02 -0.48948578928E+02  0.11965350704E+03  0.13049364159E+03  0.00000000000E+00 0. -1.
</event>
<event>
 7    1  0.2900135E-009  0.8758159E+02  0.7561462E-02  0.1308816E+00
         -1   -1    0    0    0  501 -0.00000000000E+00  0.00000000000E+00  0.32468349537E+03  0.32468349537E+03  0.00000000000E+00 0.  1.
          1   -1    0    0  501    0  0.00000000000E+00 -0.00000000000E+00 -0.10668721558E+03  0.10668721558E+03  0.00000000000E+00 0. -1.
         25    2    1    2    0    0 -0.30360421301E+02  0.98471685746E+00  0.28678763410E+03  0.31435450007E+03  0.12509548271E+03 0.  0.
          5    1    3    3  502    0 -0.38737299053E+02 -0.41017144009E+02  0.25408220529E+03  0.26030409886E+03  0.41800000000E+01 0. -1.
         -5    1    3    3    0  502  0.83768777524E+01  0.42001860866E+02  0.32705428812E+02  0.54050401209E+02  0.41800000000E+01 0. -1.
        -11    1    1    2    0    0  0.29138219030E+02 -0.32711757214E+02 -0.29350749759E+01  0.43905689077E+02  0.00000000000E+00 0.  1.
         11    1    1    2    0    0  0.12222022712E+01  0.31727040356E+02 -0.65856279341E+02  0.73110521792E+02  0.00000000000E+00 0. -1.
</event>
<event>
 7    1  0.2900135E-009  0.1174230E+03  0.7561462E-02  0.1247410E+00
          2   -1    0    0  501    0  0.00000000000E+00  0.00000000000E+00  0.47276911547E+02  0.47276911547E+02  0.00000000000E+00 0. -1.
         -2   -1    0    0    0  501 -0.00000000000E+00 -0.00000000000E+00 -0.36537174573E+03  0.36537174573E+03  0.00000000000E+00 0.  1.
         25    2    1    2    0    0 -0.64017590275E+02  0.31378590089E+02 -0.20570316659E+03  0.25108583533E+03  0.12508971251E+03 0.  0.
          5    1    3    3  502    0  0.17387203380E+02  0.48451364489E+02 -0.38930132067E+02  0.64675166370E+02  0.41800000000E+01 0.  1.
         -5    1    3    3    0  502 -0.81404793655E+02 -0.17072774400E+02 -0.16677303453E+03  0.18641066896E+03  0.41800000000E+01 0.  1.
        -11    1    1    2    0    0 -0.43819110018E+01  0.16080864480E+02 -0.62103936995E+02  0.64301588913E+02  0.00000000000E+00 0.  1.
         11    1    1    2    0    0  0.68399501277E+02 -0.47459454569E+02 -0.50287730589E+02  0.97261233031E+02  0.00000000000E+00 0. -1.
</event>
<event>
 7    1  0.2900135E-009  0.8186327E+02  0.7561462E-02  0.1323845E+00
         -3   -1    0    0    0  501 -0.00000000000E+00  0.00000000000E+00  0.12368508305E+03  0.12368508305E+03  0.00000000000E+00 0.  1.
          3   -1    0    0  501    0  0.00000000000E+00 -0.00000000000E+00 -0.13334482257E+03  0.13334482257E+03  0.00000000000E+00 0. -1.
         25    2    1    2    0    0  0.35997852656E+01 -0.19472643785E+02 -0.71208119936E+02  0.14529530706E+03  0.12509191660E+03 0.  0.
          5    1    3    3  502    0  0.36621461538E+02 -0.46883332994E+02 -0.81476356643E+02  0.10097052763E+03  0.41800000000E+01 0.  1.
         -5    1    3    3    0  502 -0.33021676272E+02  0.27410689210E+02  0.10268236706E+02  0.44324779433E+02  0.41800000000E+01 0.  1.
        -11    1    1    2    0    0 -0.30665703785E+02  0.91416705954E+01  0.73678316286E+02  0.80327142490E+02  0.00000000000E+00 0.  1.
         11    1    1    2    0    0  0.27065918519E+02  0.10330973189E+02 -0.12129935876E+02  0.31407456068E+02  0.00000000000E+00 0. -1.
</event>
<event>
 7    1  0.2900135E-009  0.7718583E+02  0.7561462E-02  0.1337233E+00
          2   -1    0    0  501    0  0.00000000000E+00  0.00000000000E+00  0.14851454313E+03  0.14851454313E+03  0.00000000000E+00 0. -1.
         -2   -1    0    0    0  501 -0.00000000000E+00 -0.00000000000E+00 -0.12572154405E+03  0.12572154405E+03  0.00000000000E+00 0.  1.
         25    2    1    2    0    0 -0.17770850027E+02  0.55418937549E+02  0.70249847608E+02  0.15482286139E+03  0.12509202840E+03 0.  0.
          5    1    3    3  502    0 -0.43815779689E+02  0.48407936793E+02  0.96740156963E+02  0.11678733349E+03  0.41800000000E+01 0. -1.
         -5    1    3    3    0  502  0.26044929662E+02  0.70110007564E+01 -0.26490309355E+02  0.38035527897E+02  0.41800000000E+01 0. -1.
        -11    1    1    2    0    0 -0.11030136515E+01 -0.29851902892E+02  0.25856670535E+02  0.39508482083E+02  0.00000000000E+00 0. -1.
         11    1    1    2    0    0  0.18873863678E+02 -0.25567034657E+02 -0.73313519062E+02  0.79904743717E+02  0.00000000000E+00 0.  1.
</event>
<event>
 7    1  0.2900135E-009  0.7766612E+02  0.7561462E-02  0.1335808E+00
         -2   -1    0    0    0  501 -0.00000000000E+00  0.00000000000E+00  0.27465534575E+02  0.27465534575E+02  0.00000000000E+00 0.  1.
          2   -1    0    0  501    0  0.00000000000E+00 -0.00000000000E+00 -0.79598928337E+03  0.79598928337E+03  0.00000000000E+00 0. -1.
         25    2    1    2    0    0  0.22712706212E+00 -0.41240768291E+02 -0.67094251939E+03  0.68374945598E+03  0.12509437105E+03 0.  0.
          5    1    3    3  502    0 -0.30131224878E+02 -0.25510241422E+02 -0.60666931655E+02  0.72502497381E+02  0.41800000000E+01 0. -1.
         -5    1    3    3    0  502  0.30358351941E+02 -0.15730526869E+02 -0.61027558774E+03  0.61124695860E+03  0.41800000000E+01 0. -1.
        -11    1    1    2    0    0  0.12291723170E+02 -0.17355116619E+02 -0.71070477859E+02  0.74184225779E+02  0.00000000000E+00 0. -1.
         11    1    1    2    0    0 -0.12518850233E+02  0.58595884910E+02 -0.26510751542E+02  0.65521136184E+02  0.00000000000E+00 0.  1.
</event>
<event>
 7    1  0.2900135E-009  0.1149500E+03  0.7561462E-02  0.1251668E+00
         -2   -1    0    0    0  501 -0.00000000000E+00  0.00000000000E+00  0.27277968668E+02  0.27277968668E+02  0.00000000000E+00 0.  1.
          2   -1    0    0  501    0  0.00000000000E+00 -0.00000000000E+00 -0.50866610166E+03  0.50866610166E+03  0.00000000000E+00 0. -1.
         25    2    1    2    0    0  0.17339609982E+02  0.41290326162E+02 -0.23451732267E+03  0.26953779219E+03  0.12508674460E+03 0.  0.
          5    1    3    3  502    0 -0.48344905337E+02  0.45449346633E+02 -0.10692968148E+03  0.12591386803E+03  0.41800000000E+01 0.  1.
         -5    1    3    3    0  502  0.65684515319E+02 -0.41590204706E+01 -0.12758764119E+03  0.14362392415E+03  0.41800000000E+01 0.  1.
        -11    1    1    2    0    0 -0.52793906402E+02 -0.23275240951E+02 -0.17500592827E+03  0.18427156136E+03  0.00000000000E+00 0.  1.
         11    1    1    2    0    0  0.35454296420E+02 -0.18015085211E+02 -0.71864882050E+02  0.82134716788E+02  0.00000000000E+00 0. -1.
</event>
<event>
 7    1  0.2900135E-009  0.1079417E+03  0.7561462E-02  0.1264430E+00
         -2   -1    0    0    0  501 -0.00000000000E+00  0.00000000000E+00  0.95424387524E+02  0.95424387524E+02  0.00000000000E+00 0.  1.
          2   -1    0    0  501    0  0.00000000000E+00 -0.00000000000E+00 -0.15376359852E+03  0.15376359852E+03  0.00000000000E+00 0. -1.
         25    2    1    2    0    0 -0.37120046182E+02 -0.22755629243E+02  0.51022104261E+00  0.13245211225E+03  0.12509030827E+03 0.  0.
          5    1    3    3  502    0 -0.13421034998E+02 -0.64998420783E+02 -0.32168995467E+02  0.73873104402E+02  0.41800000000E+01 0.  1.
         -5    1    3    3    0  502 -0.23699011183E+02  0.42242791540E+02  0.32679216509E+02  0.58579007843E+02  0.41800000000E+01 0.  1.
        -11    1    1    2    0    0  0.47118633744E+02  0.51814400073E+02 -0.39182554950E+02  0.80250671730E+02  0.00000000000E+00 0.  1.
         11    1    1    2    0    0 -0.99985875619E+01 -0.29058770831E+02 -0.19666877084E+02  0.36485202064E+02  0.00000000000E+00 0. -1.
</event>
<event>
 7    1  0.2900135E-009  0.1133800E+03  0.7561462E-02  0.1254436E+00
          1   -1    0    0  501    0  0.00000000000E+00  0.00000000000E+00  0.10988331178E+04  0.10988331178E+04  0.00000000000E+00 0. -1.
         -1   -1    0    0    0  501 -0.00000000000E+00 -0.00000000000E+00 -0.23479893027E+02  0.23479893027E+02  0.00000000000E+00 0.  1.
         25    2    1    2    0    0 -0.45458032023E+02 -0.39404058084E+02  0.94558371282E+03  0.95571730771E+03  0.12509157376E+03 0.  0.
          5    1    3    3  502    0 -0.58418376828E+02 -0.72831573001E+02  0.81136322148E+03  0.81672816429E+03  0.41800000000E+01 0.  1.
         -5    1    3    3    0  502  0.12960344805E+02  0.33427514917E+02  0.13422049134E+03  0.13898914342E+03  0.41800000000E+01 0.  1.
        -11    1    1    2    0    0 -0.64464621765E+01  0.44580340260E+02  0.91218696406E+02  0.10173403652E+03  0.00000000000E+00 0. -1.
         11    1    1    2    0    0  0.51904494200E+02 -0.51762821768E+01  0.38550815548E+02  0.64861666604E+02  0.00000000000E+00 0.  1.
</event>
<event>
 7    1  0.2900135E-009  0.9099493E+02  0.7561462E-02  0.1300460E+00
          2   -1    0    0  501    0  0.00000000000E+00  0.00000000000E+00  0.17318302143E+03  0.17318302143E+03  0.00000000000E+00 0.  1.
         -2   -1    0    0    0  501 -0.00000000000E+00 -0.00000000000E+00 -0.13843489536E+03  0.13843489536E+03  0.00000000000E+00 0. -1.
         25    2    1    2    0    0  0.49613217033E+02 -0.55899707205E+02  0.10094656388E+03  0.17726349769E+03  0.12508353323E+03 0.  0.
          5    1    3    3  502    0  0.37346483619E+02 -0.21773904914E+02  0.12581059873E+03  0.13309636331E+03  0.41800000000E+01 0.  1.
         -5    1    3    3    0  502  0.12266733414E+02 -0.34125802291E+02 -0.24864034848E+02  0.44167134383E+02  0.41800000000E+01 0.  1.
        -11    1    1    2    0    0 -0.65319602990E+02  0.30264775199E+02 -0.12864595677E+02  0.73130738917E+02  0.00000000000E+00 0.  1.
         11    1    1    2    0    0  0.15706385957E+02  0.25634932006E+02 -0.53333842128E+02  0.61223680181E+02  0.00000000000E+00 0. -1.
</event>
<event>
 6    1  0.2900135E-009  0.1643131E+03  0.7561462E-02  0.1183912E+00
          3   -1    0    0  501    0  0.00000000000E+00  0.00000000000E+00  0.77676218116E+02  0.77676218116E+02  0.00000000000E+00 0. -1.
         -3   -1    0    0    0  501 -0.00000000000E+00 -0.00000000000E+00 -0.71249710320E+03  0.71249710320E+03  0.00000000000E+00 0.  1.
          5    1    1    2  502    0 -0.39313409825E+02 -0.42138855014E+02  0.24745320706E+02  0.62857223855E+02  0.41800000000E+01 0.  1.
         -5    1    1    2    0  502  0.11951661189E+02 -0.10079778126E+03 -0.10187508019E+03  0.14387160691E+03  0.41800000000E+01 0.  1.
        -11    1    1    2    0    0  0.58653208148E+02  0.10287668562E+03 -0.42995864895E+03  0.44596889026E+03  0.00000000000E+00 0.  1.
         11    1    1    2    0    0 -0.31291459512E+02  0.40059950650E+02 -0.12773247665E+03  0.13747560029E+03  0.00000000000E+00 0. -1.
</event>
<event>
 7    1  0.2900135E-009  0.1173743E+03  0.7561462E-02  0.1247493E+00
         -3   -1    0    0    0  501 -0.00000000000E+00  0.00000000000E+00  0.89625862925E+02  0.89625862925E+02  0.00000000000E+00 0.  1.
          3   -1    0    0  501    0  0.00000000000E+00 -0.00000000000E+00 -0.19921235771E+03  0.19921235771E+03  0.00000000000E+00 0. -1.
         25    2    1    2    0    0 -0.39876526323E+02 -0.68224127175E+02 -0.77464416307E+02  0.16701518838E+03  0.12509463807E+03 0.  0.
          5    1    3    3  502    0 -0.49219724618E+02 -0.10127483980E+03 -0.65894986584E+02  0.13053273967E+03  0.41800000000E+01 0.  1.
         -5    1    3    3    0  502  0.93431982945E+01  0.33050712627E+02 -0.11569429724E+02  0.36482448707E+02  0.41800000000E+01 0.  1.
        -11    1    1    2    0    0 -0.73054386247E+01  0.12249835985E+02  0.25124506626E+02  0.28890634267E+02  0.00000000000E+00 0.  1.
         11    1    1    2    0    0  0.47181964948E+02  0.55974291190E+02 -0.57246585103E+02  0.92932397992E+02  0.00000000000E+00 0. -1.
</event>
<event>
 7    1  0.2900135E-009  0.8915652E+02  0.7561462E-02  0.1304907E+00
         -1   -1    0    0    0  501 -0.00000000000E+00  0.00000000000E+00  0.22002250814E+03  0.22002250814E+03  0.00000000000E+00 0.  1.
          1   -1    0    0  501    0  0.00000000000E+00 -0.00000000000E+00 -0.54605472655E+02  0.54605472655E+02  0.00000000000E+00 0. -1.
         25    2    1    2    0    0 -0.17805822035E+02 -0.13719635538E+01  0.99565941457E+02  0.16087709405E+03  0.12509649519E+03 0.  0.
          5    1    3    3  502    0 -0.53671668432E+02  0.41186702191E+02  0.37722108241E+02  0.77572045736E+02  0.41800000000E+01 0.  1.
         -5    1    3    3    0  502  0.35865846397E+02 -0.42558665745E+02  0.61843833217E+02  0.83305048315E+02  0.41800000000E+01 0.  1.
        -11    1    1    2    0    0 -0.13853340766E+02  0.14850410602E+02  0.75363012329E+02  0.78051478991E+02  0.00000000000E+00 0.  1.
         11    1    1    2    0    0  0.31659162800E+02 -0.13478447048E+02 -0.95119183017E+01  0.35699407752E+02  0.00000000000E+00 0. -1.
</event>
<event>
 7    1  0.2900135E-009  0.8429499E+02  0.7561462E-02  0.1317287E+00
         -2   -1    0    0    0  501 -0.00000000000E+00  0.00000000000E+00  0.81559288736E+02  0.81559288736E+02  0.00000000000E+00 0.  1.
          2   -1    0    0  501    0  0.00000000000E+00 -0.00000000000E+00 -0.31428650401E+03  0.31428650401E+03  0.00000000000E+00 0. -1.
         25    2    1    2    0    0  0.41631287015E+02  0.91869366410E+01 -0.26201968169E+03  0.29346109371E+03  0.12509011179E+03 0.  0.
          5    1    3    3  502    0 -0.32218069637E+02  0.19716201964E+02 -0.26382087098E+02  0.46262506965E+02  0.41800000000E+01 0.  1.
         -5    1    3    3    0  502  0.73849356652E+02 -0.10529265323E+02 -0.23563759459E+03  0.24719858675E+03  0.41800000000E+01 0.  1.
        -11    1    1    2    0    0 -0.37343995383E+02 -0.21323093307E+02  0.57252843903E+02  0.71604025266E+02  0.00000000000E+00 0.  1.
         11    1    1    2    0    0 -0.42872916322E+01  0.12136156666E+02 -0.27960377484E+02  0.30780673761E+02  0.00000000000E+00 0. -1.
</event>
<event>
 7    1  0.2900135E-009  0.1207575E+03  0.7561462E-02  0.1241853E+00
         -2   -1    0    0    0  501 -0.00000000000E+00  0.00000000000E+00  0.16308135721E+02  0.16308135721E+02  0.00000000000E+00 0.  1.
          2   -1    0    0  501    0  0.00000000000E+00 -0.00000000000E+00 -0.11467059452E+04  0.11467059452E+04  0.00000000000E+00 0. -1.
         25    2    1    2    0    0  0.36698891979E+02  0.77639980502E+02 -0.65673071074E+03  0.67403096046E+03  0.12509090288E+03 0.  0.
          5    1    3    3  502    0  0.38569991782E+02  0.96747170284E+02 -0.31628058427E+03  0.33301432343E+03  0.41800000000E+01 0. -1.
         -5    1    3    3    0  502 -0.18710998029E+01 -0.19107189782E+02 -0.34045012647E+03  0.34101663703E+03  0.41800000000E+01 0. -1.
        -11    1    1    2    0    0  0.12234435261E+02 -0.66275071399E+02 -0.20922388639E+03  0.21981060286E+03  0.00000000000E+00 0.  1.
         11    1    1    2    0    0 -0.48933327239E+02 -0.11364909103E+02 -0.26444321235E+03  0.26917251760E+03  0.00000000000E+00 0. -1.
</event>
<event>
 7    1  0.2900135E-009  0.1013644E+03  0.7561462E-02  0.1277453E+00
          1   -1    0    0  501    0  0.00000000000E+00  0.00000000000E+00  0.46030064485E+02  0.46030064485E+02  0.00000000000E+00 0. -1.
         -1   -1    0    0    0  501 -0.00000000000E+00 -0.00000000000E+00 -0.35682271067E+03  0.35682271067E+03  0.00000000000E+00 0.  1.
         25    2    1    2    0    0  0.35022301415E+02  0.57599952496E+02 -0.15887214434E+03  0.21314888340E+03  0.12509105534E+03 0.  0.
          5    1    3    3  502    0  0.14458634705E+02  0.90504177728E+02 -0.14527759457E+03  0.17182290356E+03  0.41800000000E+01 0. -1.
         -5    1    3    3    0  502  0.20563666710E+02 -0.32904225232E+02 -0.13594549772E+02  0.41325979845E+02  0.41800000000E+01 0. -1.
        -11    1    1    2    0    0 -0.14271484111E+02 -0.46042054833E+02 -0.14630845745E+02  0.50374673390E+02  0.00000000000E+00 0. -1.
         11    1    1    2    0    0 -0.20750817305E+02 -0.11557897663E+02 -0.13728965610E+03  0.13932921836E+03  0.00000000000E+00 0.  1.
</event>
<event>
 7    1  0.2900135E-009  0.1023437E+03  0.7561462E-02  0.1275443E+00
         -2   -1    0    0    0  501 -0.00000000000E+00  0.00000000000E+00  0.32222648071E+03  0.32222648071E+03  0.00000000000E+00 0. -1.
          2   -1    0    0  501    0  0.00000000000E+00 -0.00000000000E+00 -0.51724559984E+02  0.51724559984E+02  0.00000000000E+00 0.  1.
         25    2    1    2    0    0 -0.44073848962E+02 -0.11124930646E+02  0.23428558961E+03  0.26945242485E+03  0.12509437844E+03 0.  0.
          5    1    3    3  502    0 -0.63096914222E+02  0.38152114609E+02  0.17496419197E+03  0.18991246748E+03  0.41800000000E+01 0. -1.
         -5    1    3    3    0  502  0.19023065260E+02 -0.49277045255E+02  0.59321397642E+02  0.79539957375E+02  0.41800000000E+01 0. -1.
        -11    1    1    2    0    0 -0.11610305162E+02  0.18331732198E+02 -0.16671287811E+02  0.27363907408E+02  0.00000000000E+00 0.  1.
         11    1    1    2    0    0  0.55684154124E+02 -0.72068015522E+01  0.52887618927E+02  0.77134708432E+02  0.00000000000E+00 0. -1.
</event>
<event>
 7    1  0.2900135E-009  0.8338411E+02  0.7561462E-02  0.1319713E+00
          1   -1    0    0  501    0  0.00000000000E+00  0.00000000000E+00  0.52233292463E+03  0.52233292463E+03  0.00000000000E+00 0. -1.
         -1   -1    0    0    0  501 -0.00000000000E+00 -0.00000000000E+00 -0.27967137188E+02  0.27967137188E+02  0.00000000000E+00 0.  1.
         25    2    1    2    0    0  0.30244449792E+02  0.12808962017E+02  0.37578664280E+03  0.39741467196E+03  0.12507607416E+03 0.  0.
          5    1    3    3  502    0  0.17622562182E+02  0.47662515104E+02  0.57097737086E+02  0.76549944639E+02  0.41800000000E+01 0.  1.
         -5    1    3    3    0  502  0.12621887610E+02 -0.34853553087E+02  0.31868890572E+03  0.32086472732E+03  0.41800000000E+01 0.  1.
        -11    1    1    2    0    0 -0.45717246624E+02  0.13749483661E+02  0.11157667648E+03  0.12136090669E+03  0.00000000000E+00 0. -1.
         11    1    1    2    0    0  0.15472796832E+02 -0.26558445679E+02  0.70024681650E+01  0.31524483169E+02  0.00000000000E+00 0.  1.
</event>
<event>
 7    1  0.2900135E-009  0.1753021E+03  0.7561462E-02  0.1172429E+00
         -1   -1    0    0    0  501 -0.00000000000E+00  0.00000000000E+00  0.52078189660E+02  0.52078189660E+02  0.00000000000E+00 0.  1.
          1   -1    0    0  501    0  0.00000000000E+00 -0.00000000000E+00 -0.89672766286E+03  0.89672766286E+03  0.00000000000E+00 0. -1.
         25    2    1    2    0    0  0.13951282346E+03  0.64772895082E+02 -0.66972951778E+03  0.69845900294E+03  0.12509195002E+03 0.  0.
          5    1    3    3  502    0  0.14597237885E+03  0.37858763921E+02 -0.64034437487E+03  0.65787507342E+03  0.41800000000E+01 0. -1.
         -5    1    3    3    0  502 -0.64595553912E+01  0.26914131161E+02 -0.29385142904E+02  0.40583929523E+02  0.41800000000E+01 0. -1.
        -11    1    1    2    0    0 -0.35509619690E+02  0.17078233463E+02 -0.13601251342E+02  0.41684447781E+02  0.00000000000E+00 0.  1.
         11    1    1    2    0    0 -0.10400320377E+03 -0.81851128545E+02 -0.16131870408E+03  0.20866240180E+03  0.00000000000E+00 0. -1.
</event>
<event>
 7    1  0.2900135E-009  0.2028052E+03  0.7561462E-02  0.1147394E+00
          2   -1    0    0  501    0  0.00000000000E+00  0.00000000000E+00  0.23124843248E+03  0.23124843248E+03  0.00000000000E+00 0. -1.
         -2   -1    0    0    0  501 -0.00000000000E+00 -0.00000000000E+00 -0.21015309885E+03  0.21015309885E+03  0.00000000000E+00 0.  1.
         25    2    1    2    0    0  0.16422486386E+03 -0.90232741711E+02 -0.29012103531E+02  0.22715596941E+03  0.12508548557E+03 0.  0.
          5    1    3    3  502    0  0.11284329102E+03  0.12387583861E+01  0.13795437463E+02  0.11376699586E+03  0.41800000000E+01 0. -1.
         -5    1    3    3    0  502  0.51381572835E+02 -0.91471500097E+02 -0.42807540994E+02  0.11338897355E+03  0.41800000000E+01 0. -1.
        -11    1    1    2    0    0 -0.71018331436E+02  0.45075647816E+02  0.69210768288E+02  0.10892909562E+03  0.00000000000E+00 0. -1.
         11    1    1    2    0    0 -0.93206532423E+02  0.45157093895E+02 -0.19103331125E+02  0.10531646631E+03  0.00000000000E+00 0.  1.
</event>
<event>
 7    1  0.2900135E-009  0.1203026E+03  0.7561462E-02  0.1242599E+00
         -3   -1    0    0    0  501 -0.00000000000E+00  0.00000000000E+00  0.55402722676E+02  0.55402722676E+02  0.00000000000E+00 0.  1.
          3   -1    0    0  501    0  0.00000000000E+00 -0.00000000000E+00 -0.28175274181E+03  0.28175274181E+03  0.00000000000E+00 0. -1.
         25    2    1    2    0    0  0.27778832978E+02  0.54748708551E+02 -0.12168870473E+03  0.18499929196E+03  0.12509001766E+03 0.  0.
          5    1    3    3  502    0 -0.41400027592E+02 -0.22946032125E+01 -0.12207181216E+02  0.43424821954E+02  0.41800000000E+01 0. -1.
         -5    1    3    3    0  502  0.69178860569E+02  0.57043311763E+02 -0.10948152352E+03  0.14157447001E+03  0.41800000000E+01 0. -1.
        -11    1    1    2    0    0  0.70961189369E+01 -0.70533237736E+02 -0.78604815929E+02  0.10584899441E+03  0.00000000000E+00 0.  1.
         11    1    1    2    0    0 -0.34874951914E+02  0.15784529185E+02 -0.26056498472E+02  0.46307178118E+02  0.00000000000E+00 0. -1.
</event>
<event>
 7    1  0.2900135E-009  0.8700042E+02  0.7561462E-02  0.1310283E+00
          2   -1    0    0  501    0  0.00000000000E+00  0.00000000000E+00  0.44785225150E+03  0.44785225150E+03  0.00000000000E+00 0. -1.
         -2   -1    0    0    0  501 -0.00000000000E+00 -0.00000000000E+00 -0.28075958513E+02  0.28075958513E+02  0.00000000000E+00 0.  1.
         25    2    1    2    0    0  0.23649733732E+02  0.10697239900E+02  0.22814024161E+03  0.26147368760E+03  0.12508708414E+03 0.  0.
          5    1    3    3  502    0  0.37372810495E+02  0.46791653985E+02  0.21035797390E+03  0.21875588090E+03  0.41800000000E+01 0. -1.
         -5    1    3    3    0  502 -0.13723076763E+02 -0.36094414085E+02  0.17782267713E+02  0.42717806697E+02  0.41800000000E+01 0. -1.
        -11    1    1    2    0    0  0.16014227960E+02 -0.27683301032E+02  0.20557985157E+02  0.38019092663E+02  0.00000000000E+00 0.  1.
         11    1    1    2    0    0 -0.39663961692E+02  0.16986061132E+02  0.17107806622E+03  0.17643542975E+03  0.00000000000E+00 0. -1.
</event>
<event>
 7    1  0.2900135E-009  0.1136015E+03  0.7561462E-02  0.1254042E+00
         -1   -1    0    0    0  501 -0.00000000000E+00  0.00000000000E+00  0.32404329240E+02  0.32404329240E+02  0.00000000000E+00 0.  1.
          1   -1    0    0  501    0  0.00000000000E+00 -0.00000000000E+00 -0.42418858343E+03  0.42418858343E+03  0.00000000000E+00 0. -1.
         25    2    1    2    0    0  0.34767555910E+02 -0.56195600081E+01 -0.27800855642E+03  0.30688439019E+03  0.12509559985E+03 0.  0.
          5    1    3    3  502    0  0.16020014669E+02  0.59655330640E+02 -0.13094334856E+03  0.14484140388E+03  0.41800000000E+01 0.  1.
         -5    1    3    3    0  502  0.18747541241E+02 -0.65274890648E+02 -0.14706520786E+03  0.16204298632E+03  0.41800000000E+01 0.  1.
        -11    1    1    2    0    0 -0.44394760506E+02  0.41092898980E+02 -0.68390441274E+02  0.91305933896E+02  0.00000000000E+00 0.  1.
         11    1    1    2    0    0  0.96272045962E+01 -0.35473338972E+02 -0.45385256499E+02  0.58402588587E+02  0.00000000000E+00 0. -1.
</event>
<event>
 7    1  0.3030563E-009  0.1401260E+03  0.7561462E-02  0.1213160E+00
          2   -1    0    0  501    0  0.00000000000E+00  0.00000000000E+00  0.65937691057E+03  0.65937691057E+03  0.00000000000E+00 0. -1.
         -2   -1    0    0    0  501 -0.00000000000E+00 -0.00000000000E+00 -0.36666923963E+02  0.36666923963E+02  0.00000000000E+00 0.  1.
         25    2    1    2    0    0  0.94683878092E+02  0.47375869992E+02  0.41035693681E+03  0.44186735019E+03  0.12507769484E+03 0.  0.
          5    1    3    3  502    0 -0.12148946374E+02  0.34460598046E+02  0.32891940041E+02  0.49340468536E+02  0.41800000000E+01 0.  1.
         -5    1    3    3    0  502  0.10683282447E+03  0.12915271946E+02  0.37746499677E+03  0.39252688165E+03  0.41800000000E+01 0.  1.
        -11    1    1    2    0    0  0.18211663869E+01 -0.38859704352E+02  0.36198443910E+02  0.53138692220E+02  0.00000000000E+00 0.  1.
         11    1    1    2    0    0 -0.96505044479E+02 -0.85161656404E+01  0.17615460588E+03  0.20103779212E+03  0.00000000000E+00 0. -1.
</event>
<event>
 7    1  0.2900135E-009  0.1515748E+03  0.7561462E-02  0.1198551E+00
         -1   -1    0    0    0  501 -0.00000000000E+00  0.00000000000E+00  0.26571125099E+03  0.26571125099E+03  0.00000000000E+00 0.  1.
          1   -1    0    0  501    0  0.00000000000E+00 -0.00000000000E+00 -0.97969935267E+02  0.97969935267E+02  0.00000000000E+00 0. -1.
         25    2    1    2    0    0 -0.33247513390E+02  0.10772101504E+03  0.13242479571E+03  0.21422815564E+03  0.12509261338E+03 0.  0.
          5    1    3    3  502    0 -0.71541462353E+02  0.29420320287E+02  0.84634551167E+02  0.11473541621E+03  0.41800000000E+01 0.  1.
         -5    1    3    3    0  502  0.38293948963E+02  0.78300694754E+02  0.47790244539E+02  0.99492739430E+02  0.41800000000E+01 0.  1.
        -11    1    1    2    0    0  0.10334413660E+02 -0.11415305384E+03  0.10548454487E+02  0.11510425579E+03  0.00000000000E+00 0. -1.
         11    1    1    2    0    0  0.22913099730E+02  0.64320388034E+01  0.24768065529E+02  0.34348774832E+02  0.00000000000E+00 0.  1.
</event>
<event>
 7    1  0.2900135E-009  0.1208908E+03  0.7561462E-02  0.1241635E+00
          2   -1    0    0  501    0  0.00000000000E+00  0.00000000000E+00  0.29909967081E+02  0.29909967081E+02  0.00000000000E+00 0. -1.
         -2   -1    0    0    0  501 -0.00000000000E+00 -0.00000000000E+00 -0.55825211388E+03  0.55825211388E+03  0.00000000000E+00 0.  1.
         25    2    1    2    0    0  0.52507138451E+02  0.13020118815E+02 -0.39544378604E+03  0.41826860009E+03  0.12508521425E+03 0.  0.
          5    1    3    3  502    0 -0.39492283356E+02  0.18510454816E+02 -0.11671578928E+03  0.12466886239E+03  0.41800000000E+01 0.  1.
         -5    1    3    3    0  502  0.91999421807E+02 -0.54903360010E+01 -0.27872799676E+03  0.29359973770E+03  0.41800000000E+01 0.  1.
        -11    1    1    2    0    0 -0.21119347947E+02  0.39346338082E+02 -0.60323377567E+02  0.75053787774E+02  0.00000000000E+00 0.  1.
         11    1    1    2    0    0 -0.31387790504E+02 -0.52366456897E+02 -0.72574983187E+02  0.94839693090E+02  0.00000000000E+00 0. -1.
</event>
<event>
 7    1  0.2900135E-009  0.9114563E+02  0.7561462E-02  0.1300101E+00
          2   -1    0    0  501    0  0.00000000000E+00  0.00000000000E+00  0.36012557322E+02  0.36012557322E+02  0.00000000000E+00 0. -1.
         -2   -1    0    0    0  501 -0.00000000000E+00 -0.00000000000E+00 -0.55362965684E+03  0.55362965684E+03  0.00000000000E+00 0.  1.
         25    2    1    2    0    0  0.67366792909E+01 -0.68271290335E+02 -0.40768443870E+03  0.43192710247E+03  0.12509223939E+03 0.  0.
          5    1    3    3  502    0 -0.25782955745E+01 -0.48594189974E+01 -0.33443530441E+03  0.33450666182E+03  0.41800000000E+01 0.  1.
         -5    1    3    3    0  502  0.93149748654E+01 -0.63411871338E+02 -0.73249134289E+02  0.97420440655E+02  0.41800000000E+01 0.  1.
        -11    1    1    2    0    0  0.20715181420E+02  0.79006800396E+02 -0.92787072922E+02  0.12361486218E+03  0.00000000000E+00 0.  1.
         11    1    1    2    0    0 -0.27451860711E+02 -0.10735510060E+02 -0.17145587896E+02  0.34100249516E+02  0.00000000000E+00 0. -1.
</event>
<event>
 7    1  0.2900135E-009  0.1257359E+03  0.7561462E-02  0.1233924E+00
          2   -1    0    0  501    0  0.00000000000E+00  0.00000000000E+00  0.36705040796E+03  0.36705040796E+03  0.00000000000E+00 0. -1.
         -2   -1    0    0    0  501 -0.00000000000E+00 -0.00000000000E+00 -0.59208167048E+02  0.59208167048E+02  0.00000000000E+00 0.  1.
         25    2    1    2    0    0  0.88936603640E+02  0.42007767755E+02  0.14959193819E+03  0.21840232783E+03  0.12508979499E+03 0.  0.
          5    1    3    3  502    0  0.90112967106E+02  0.14282530397E+02  0.30871017505E+02  0.96409696800E+02  0.41800000000E+01 0.  1.
         -5    1    3    3    0  502 -0.11763634669E+01  0.27725237358E+02  0.11872092068E+03  0.12199263103E+03  0.41800000000E+01 0.  1.
        -11    1    1    2    0    0 -0.10492302756E+03 -0.47496368551E+02  0.14980608766E+03  0.18896192907E+03  0.00000000000E+00 0. -1.
         11    1    1    2    0    0  0.15986423924E+02  0.54886007963E+01  0.84442150580E+01  0.18894318101E+02  0.00000000000E+00 0.  1.
</event>
<event>
 7    1  0.2900135E-009  0.9871191E+02  0.7561462E-02  0.1283028E+00
          1   -1    0    0  501    0  0.00000000000E+00  0.00000000000E+00  0.50233935560E+03  0.50233935560E+03  0.00000000000E+00 0. -1.
         -1   -1    0    0    0  501 -0.00000000000E+00 -0.00000000000E+00 -0.37582594495E+02  0.37582594495E+02  0.00000000000E+00 0.  1.
         25    2    1    2    0    0  0.45933923841E+02 -0.33830125987E+02  0.13418681874E+03  0.19212170276E+03  0.12510093350E+03 0.  0.
          5    1    3    3  502    0  0.60029822451E+02  0.27175324991E+01  0.13989859777E+03  0.15231564143E+03  0.41800000000E+01 0.  1.
         -5    1    3    3    0  502 -0.14095898610E+02 -0.36547658487E+02 -0.57117790326E+01  0.39806061325E+02  0.41800000000E+01 0.  1.
        -11    1    1    2    0    0 -0.61214919686E+02  0.59994048679E+00  0.12716592728E+03  0.14113397671E+03  0.00000000000E+00 0.  1.
         11    1    1    2    0    0  0.15280995845E+02  0.33230185501E+02  0.20340401508E+03  0.20666627062E+03  0.00000000000E+00 0. -1.
</event>
<event>
 7    1  0.2900135E-009  0.9385877E+02  0.7561462E-02  0.1293767E+00
          3   -1    0    0  501    0  0.00000000000E+00  0.00000000000E+00  0.64425171432E+03  0.64425171432E+03  0.00000000000E+00 0. -1.
         -3   -1    0    0    0  501 -0.00000000000E+00 -0.00000000000E+00 -0.24929161359E+02  0.24929161359E+02  0.00000000000E+00 0.  1.
         25    2    1    2    0    0 -0.12665571673E+02 -0.70961168346E+02  0.28321319753E+03  0.31788963747E+03  0.12509277451E+03 0.  0.
          5    1    3    3  502    0 -0.41404644833E+02 -0.71564204416E+02  0.27573583171E+03  0.28789494830E+03  0.41800000000E+01 0.  1.
         -5    1    3    3    0  502  0.28739073160E+02  0.60303607063E+00  0.74773658193E+01  0.29994689166E+02  0.41800000000E+01 0.  1.
        -11    1    1    2    0    0  0.13524403247E+02  0.16138900211E+02  0.15805365881E+02  0.26328372032E+02  0.00000000000E+00 0.  1.
         11    1    1    2    0    0 -0.85883157423E+00  0.54822268135E+02  0.32030398955E+03  0.32496286618E+03  0.00000000000E+00 0. -1.
</event>
<event>
 7    1  0.2900135E-009  0.1077884E+03  0.7561462E-02  0.1264721E+00
          1   -1    0    0  501    0  0.00000000000E+00  0.00000000000E+00  0.23699429097E+03  0.23699429097E+03  0.00000000000E+00 0. -1.
         -1   -1    0    0    0  501 -0.00000000000E+00 -0.00000000000E+00 -0.86763265278E+02  0.86763265278E+02  0.00000000000E+00 0.  1.
         25    2    1    2    0    0  0.27625768897E+02  0.82840477753E+02  0.42596732798E+02  0.15839219953E+03  0.12509148398E+03 0.  0.
          5    1    3    3  502    0 -0.88414105966E+01  0.42201393899E+02  0.80759542385E+02  0.91644444865E+02  0.41800000000E+01 0. -1.
         -5    1    3    3    0  502  0.36467179493E+02  0.40639083854E+02 -0.38162809587E+02  0.66747754661E+02  0.41800000000E+01 0. -1.
        -11    1    1    2    0    0  0.27325544144E+02 -0.36611280860E+02  0.71821344863E+02  0.85119779293E+02  0.00000000000E+00 0. -1.
         11    1    1    2    0    0 -0.54951313041E+02 -0.46229196893E+02  0.35812948032E+02  0.80245577430E+02  0.00000000000E+00 0.  1.
</event>
<event>
 7    1  0.2900135E-009  0.1775931E+03  0.7561462E-02  0.1170153E+00
          2   -1    0    0  501    0  0.00000000000E+00  0.00000000000E+00  0.44496798369E+03  0.44496798369E+03  0.00000000000E+00 0. -1.
         -2   -1    0    0    0  501 -0.00000000000E+00 -0.00000000000E+00 -0.72267001945E+02  0.72267001945E+02  0.00000000000E+00 0.  1.
         25    2    1    2    0    0 -0.89756410176E+02  0.11131568081E+03  0.20841096674E+03  0.28200103454E+03  0.12506821523E+03 0.  0.
          5    1    3    3  502    0  0.24750942855E+02 -0.57592595359E+01  0.34929568902E+02  0.43397297453E+02  0.41800000000E+01 0. -1.
         -5    1    3    3    0  502 -0.11450735303E+03  0.11707494035E+03  0.17348139784E+03  0.23860373709E+03  0.41800000000E+01 0. -1.
        -11    1    1    2    0    0  0.66141398794E+02 -0.16865136494E+02  0.88994648780E+02  0.11215687663E+03  0.00000000000E+00 0.  1.
         11    1    1    2    0    0  0.23615011382E+02 -0.94450544318E+02  0.75295366226E+02  0.12307707447E+03  0.00000000000E+00 0. -1.
</event>
<event>
 7    1  0.2900135E-009  0.1267761E+03  0.7561462E-02  0.1232319E+00
         -1   -1    0    0    0  501 -0.00000000000E+00  0.00000000000E+00  0.19602825530E+03  0.19602825530E+03  0.00000000000E+00 0.  1.
          1   -1    0    0  501    0  0.00000000000E+00 -0.00000000000E+00 -0.12685644141E+03  0.12685644141E+03  0.00000000000E+00 0. -1.
         25    2    1    2    0    0  0.55438188197E+02  0.97546068587E+02  0.13869897462E+02  0.16860735988E+03  0.12508972597E+03 0.  0.
          5    1    3    3  502    0  0.87407056363E+01  0.34573745088E+02 -0.53987411666E+02  0.64837156036E+02  0.41800000000E+01 0. -1.
         -5    1    3    3    0  502  0.46697482560E+02  0.62972323499E+02  0.67857309127E+02  0.10377020385E+03  0.41800000000E+01 0. -1.
        -11    1    1    2    0    0 -0.50967454917E+02 -0.10576518951E+02  0.40479796036E+02  0.65940564912E+02  0.00000000000E+00 0.  1.
         11    1    1    2    0    0 -0.44707332797E+01 -0.86969549637E+02  0.14822120388E+02  0.88336771918E+02  0.00000000000E+00 0. -1.
</event>
<event>
 7    1  0.2900135E-009  0.9761468E+02  0.7561462E-02  0.1285393E+00
         -2   -1    0    0    0  501 -0.00000000000E+00  0.00000000000E+00  0.29075115522E+02  0.29075115522E+02  0.00000000000E+00 0.  1.
          2   -1    0    0  501    0  0.00000000000E+00 -0.00000000000E+00 -0.50365572558E+03  0.50365572558E+03  0.00000000000E+00 0. -1.
         25    2    1    2    0    0  0.83806666921E+01 -0.24842386980E+02 -0.37436260349E+03  0.39557191538E+03  0.12506958693E+03 0.  0.
          5    1    3    3  502    0 -0.20823389068E+02 -0.68136708588E+02 -0.16538791224E+03  0.18013011549E+03  0.41800000000E+01 0. -1.
         -5    1    3    3    0  502  0.29204055761E+02  0.43294321608E+02 -0.20897469125E+03  0.21544179989E+03  0.41800000000E+01 0. -1.
        -11    1    1    2    0    0  0.14232131503E+02 -0.18046877487E+02  0.29437660213E+01  0.23171299328E+02  0.00000000000E+00 0.  1.
         11    1    1    2    0    0 -0.22612798195E+02  0.42889264467E+02 -0.10316177259E+03  0.11398762640E+03  0.00000000000E+00 0. -1.
</event>
<event>
 7    1  0.2900135E-009  0.1792205E+03  0.7561462E-02  0.1168560E+00
          2   -1    0    0  501    0  0.00000000000E+00  0.00000000000E+00  0.11185494467E+04  0.11185494467E+04  0.00000000000E+00 0. -1.
         -2   -1    0    0    0  501 -0.00000000000E+00 -0.00000000000E+00 -0.34818798402E+02  0.34818798402E+02  0.00000000000E+00 0.  1.
         25    2    1    2    0    0  0.14505229187E+03  0.73385696004E+02  0.61930579163E+03  0.65238926721E+03  0.12508582922E+03 0.  0.
          5    1    3    3  502    0  0.70263671380E+02  0.92023036875E+02  0.25632599277E+03  0.28129292526E+03  0.41800000000E+01 0.  1.
         -5    1    3    3    0  502  0.74788620491E+02 -0.18637340870E+02  0.36297979886E+03  0.37109634195E+03  0.41800000000E+01 0.  1.
        -11    1    1    2    0    0 -0.10019344266E+03 -0.65882595867E+02  0.42226880297E+03  0.43896490104E+03  0.00000000000E+00 0. -1.
         11    1    1    2    0    0 -0.44858849210E+02 -0.75031001379E+01  0.42156053720E+02  0.62014076865E+02  0.00000000000E+00 0.  1.
</event>
<event>
 7    1  0.2900135E-009  0.1750172E+03  0.7561462E-02  0.1172714E+00
          1   -1    0    0  501    0  0.00000000000E+00  0.00000000000E+00  0.12946144788E+03  0.12946144788E+03  0.00000000000E+00 0. -1.
         -1   -1    0    0    0  501 -0.00000000000E+00 -0.00000000000E+00 -0.33853577588E+03  0.33853577588E+03  0.00000000000E+00 0.  1.
         25    2    1    2    0    0  0.75290882955E+02 -0.14328961978E+03 -0.27078611423E+02  0.20635288476E+03  0.12509048589E+03 0.  0.
          5    1    3    3  502    0  0.81804979107E+02 -0.11316738779E+03 -0.67661071914E+02  0.15522372666E+03  0.41800000000E+01 0.  1.
         -5    1    3    3    0  502 -0.65140961524E+01 -0.30122231991E+02  0.40582460490E+02  0.51129158103E+02  0.41800000000E+01 0.  1.
        -11    1    1    2    0    0 -0.32558688662E+01  0.88927070539E+02 -0.12985207196E+03  0.15741723269E+03  0.00000000000E+00 0.  1.
         11    1    1    2    0    0 -0.72035014089E+02  0.54362549244E+02 -0.52143644614E+02  0.10422710631E+03  0.00000000000E+00 0. -1.
</event>
<event>
 7    1  0.2900135E-009  0.9586230E+02  0.7561462E-02  0.1289246E+00
         -2   -1    0    0    0  501 -0.00000000000E+00  0.00000000000E+00  0.23803444622E+03  0.23803444622E+03  0.00000000000E+00 0.  1.
          2   -1    0    0  501    0  0.00000000000E+00 -0.00000000000E+00 -0.60016761415E+02  0.60016761415E+02  0.00000000000E+00 0. -1.
         25    2    1    2    0    0 -0.37832864022E+02  0.12008098763E+02  0.14295726152E+03  0.19405552233E+03  0.12508096214E+03 0.  0.
          5    1    3    3  502    0 -0.63842291042E+02  0.21224455585E+02  0.23507980320E+02  0.71389167099E+02  0.41800000000E+01 0.  1.
         -5    1    3    3    0  502  0.26009427020E+02 -0.92163568226E+01  0.11944928120E+03  0.12266635523E+03  0.41800000000E+01 0.  1.
        -11    1    1    2    0    0  0.15134265052E+01 -0.46378904045E+02  0.25954277390E+02  0.53168766348E+02  0.00000000000E+00 0.  1.
         11    1    1    2    0    0  0.36319437516E+02  0.34370805282E+02  0.91061458949E+01  0.50826918954E+02  0.00000000000E+00 0. -1.
</event>
<event>
 7    1  0.2900135E-009  0.9757145E+02  0.7561462E-02  0.1285487E+00
          4   -1    0    0  501    0  0.00000000000E+00  0.00000000000E+00  0.74055968431E+03  0.74055968431E+03  0.00000000000E+00 0. -1.
         -4   -1    0    0    0  501 -0.00000000000E+00 -0.00000000000E+00 -0.25675655319E+02  0.25675655319E+02  0.00000000000E+00 0.  1.
         25    2    1    2    0    0  0.27565383072E+02  0.69670740156E+02  0.48136402065E+03  0.50296467961E+03  0.12509311006E+03 0.  0.
          5    1    3    3  502    0  0.44367947631E+01  0.28880063657E+02  0.43789252208E+03  0.43888617717E+03  0.41800000000E+01 0.  1.
         -5    1    3    3    0  502  0.23128588308E+02  0.40790676499E+02  0.43471498572E+02  0.64078502436E+02  0.41800000000E+01 0.  1.
        -11    1    1    2    0    0 -0.38170538528E+01 -0.88289690065E+02  0.14564756922E+03  0.17036095119E+03  0.00000000000E+00 0. -1.
         11    1    1    2    0    0 -0.23748329219E+02  0.18618949910E+02  0.87872439125E+02  0.92909708826E+02  0.00000000000E+00 0.  1.
</event>
<event>
 7    1  0.2900135E-009  0.1897145E+03  0.7561462E-02  0.1158719E+00
          2   -1    0    0  501    0  0.00000000000E+00  0.00000000000E+00  0.23133636431E+03  0.23133636431E+03  0.00000000000E+00 0. -1.
         -2   -1    0    0    0  501 -0.00000000000E+00 -0.00000000000E+00 -0.21311438219E+03  0.21311438219E+03  0.00000000000E+00 0.  1.
         25    2    1    2    0    0  0.15778278847E+03 -0.61807500859E+02  0.10246855803E+03  0.23422587315E+03  0.12508548584E+03 0.  0.
          5    1    3    3  502    0  0.10183089923E+03  0.26524739643E+02  0.60698721067E+02  0.12155205054E+03  0.41800000000E+01 0.  1.
         -5    1    3    3    0  502  0.55951889244E+02 -0.88332240502E+02  0.41769836963E+02  0.11267382261E+03  0.41800000000E+01 0.  1.
        -11    1    1    2    0    0 -0.10550965174E+03  0.40182411016E+02 -0.52004756944E+01  0.11302193465E+03  0.00000000000E+00 0. -1.
         11    1    1    2    0    0 -0.52273136734E+02  0.21625089844E+02 -0.79046100209E+02  0.97202938706E+02  0.00000000000E+00 0.  1.
</event>
<event>
 7    1  0.2900135E-009  0.9599043E+02  0.7561462E-02  0.1288961E+00
          1   -1    0    0  501    0  0.00000000000E+00  0.00000000000E+00  0.27828473653E+03  0.27828473653E+03  0.00000000000E+00 0. -1.
         -1   -1    0    0    0  501 -0.00000000000E+00 -0.00000000000E+00 -0.68652011901E+02  0.68652011901E+02  0.00000000000E+00 0.  1.
         25    2    1    2    0    0  0.17686273847E+02  0.84569174631E+02  0.12004395230E+03  0.19370551692E+03  0.12508607924E+03 0.  0.
          5    1    3    3  502    0  0.31147913322E+02  0.30237539056E+02  0.12962368160E+03  0.13676356424E+03  0.41800000000E+01 0.  1.
         -5    1    3    3    0  502 -0.13461639475E+02  0.54331635576E+02 -0.95797292971E+01  0.56941952681E+02  0.41800000000E+01 0.  1.
        -11    1    1    2    0    0  0.86192938808E+01 -0.10198151720E+02 -0.16374144185E+02  0.21128348807E+02  0.00000000000E+00 0.  1.
         11    1    1    2    0    0 -0.26305567728E+02 -0.74371022912E+02  0.10596291651E+03  0.13210288270E+03  0.00000000000E+00 0. -1.
</event>
<event>
 7    1  0.2900135E-009  0.1094317E+03  0.7561462E-02  0.1261626E+00
         -4   -1    0    0    0  501 -0.00000000000E+00  0.00000000000E+00  0.98964322739E+03  0.98964322739E+03  0.00000000000E+00 0.  1.
          4   -1    0    0  501    0  0.00000000000E+00 -0.00000000000E+00 -0.16906595197E+02  0.16906595197E+02  0.00000000000E+00 0. -1.
         25    2    1    2    0    0 -0.21950901539E+01 -0.35914996733E+02  0.78146361916E+03  0.79222810206E+03  0.12508106261E+03 0.  0.
          5    1    3    3  502    0  0.19441688113E+02  0.42195536081E+02  0.36120043918E+03  0.36420004416E+03  0.41800000000E+01 0.  1.
         -5    1    3    3    0  502 -0.21636778267E+02 -0.78110532814E+02  0.42026317998E+03  0.42802805791E+03  0.41800000000E+01 0.  1.
        -11    1    1    2    0    0 -0.35611335044E+02 -0.42897590260E+01  0.42332339328E+02  0.55485098622E+02  0.00000000000E+00 0. -1.
         11    1    1    2    0    0  0.37806425198E+02  0.40204755759E+02  0.14894067370E+03  0.15883662190E+03  0.00000000000E+00 0.  1.
</event>
<event>
 7    1  0.2900135E-009  0.8748988E+02  0.7561462E-02  0.1309047E+00
         -1   -1    0    0    0  501 -0.00000000000E+00  0.00000000000E+00  0.20351168897E+03  0.20351168897E+03  0.00000000000E+00 0.  1.
          1   -1    0    0  501    0  0.00000000000E+00 -0.00000000000E+00 -0.67408049509E+02  0.67408049509E+02  0.00000000000E+00 0. -1.
         25    2    1    2    0    0  0.86696786142E+01 -0.18085710141E+02  0.29344845731E+02  0.13004102049E+03  0.12508913142E+03 0.  0.
          5    1    3    3  502    0  0.21557933106E+02 -0.63447971168E+02 -0.10757037675E+02  0.67996880698E+02  0.41800000000E+01 0. -1.
         -5    1    3    3    0  502 -0.12888254492E+02  0.45362261027E+02  0.40101883405E+02  0.62044139787E+02  0.41800000000E+01 0. -1.
        -11    1    1    2    0    0 -0.10402934931E+02 -0.19908652543E+02 -0.48387100562E+01  0.22978002878E+02  0.00000000000E+00 0. -1.
         11    1    1    2    0    0  0.17332563169E+01  0.37994362684E+02  0.11159750379E+03  0.11790071512E+03  0.00000000000E+00 0.  1.
</event>
<event>
 7    1  0.2900135E-009  0.1028580E+03  0.7561462E-02  0.1274398E+00
          2   -1    0    0  501    0  0.00000000000E+00  0.00000000000E+00  0.20839843981E+03  0.20839843981E+03  0.00000000000E+00 0. -1.
         -2   -1    0    0    0  501 -0.00000000000E+00 -0.00000000000E+00 -0.70102614503E+02  0.70102614503E+02  0.00000000000E+00 0.  1.
         25    2    1    2    0    0  0.59581856838E+01  0.27728182674E+01  0.14378479584E+03  0.19069473790E+03  0.12508887661E+03 0.  0.
          5    1    3    3  502    0 -0.37230410705E+02  0.44306214366E+02  0.38986782622E+02  0.69904118133E+02  0.41800000000E+01 0.  1.
         -5    1    3    3    0  502  0.43188596389E+02 -0.41533396098E+02  0.10479801322E+03  0.12079061977E+03  0.41800000000E+01 0.  1.
        -11    1    1    2    0    0  0.37709915677E+02 -0.17461465630E+02 -0.20994083656E+01  0.41609470530E+02  0.00000000000E+00 0.  1.
         11    1    1    2    0    0 -0.43668101361E+02  0.14688647362E+02 -0.33895621672E+01  0.46196845882E+02  0.00000000000E+00 0. -1.
</event>
<event>
 7    1  0.2900135E-009  0.9658810E+02  0.7561462E-02  0.1287639E+00
         -2   -1    0    0    0  501 -0.00000000000E+00  0.00000000000E+00  0.13561182212E+02  0.13561182212E+02  0.00000000000E+00 0.  1.
          2   -1    0    0  501    0  0.00000000000E+00 -0.00000000000E+00 -0.95495592046E+03  0.95495592046E+03  0.00000000000E+00 0. -1.
         25    2    1    2    0    0 -0.95849807391E+01  0.31905091355E+02 -0.54826555000E+03  0.56333951047E+03  0.12508590659E+03 0.  0.
          5    1    3    3  502    0  0.16355423528E+02  0.56940507036E+02 -0.12362382510E+03  0.13714971291E+03  0.41800000000E+01 0. -1.
         -5    1    3    3    0  502 -0.25940404267E+02 -0.25035415681E+02 -0.42464172491E+03  0.42618979756E+03  0.41800000000E+01 0. -1.
        -11    1    1    2    0    0  0.26758302562E+01 -0.64307237471E+02 -0.23794525860E+03  0.24649650494E+03  0.00000000000E+00 0.  1.
         11    1    1    2    0    0  0.69091504829E+01  0.32402146116E+02 -0.15518392965E+03  0.15868108726E+03  0.00000000000E+00 0. -1.
</event>
<event>
 7    1  0.2900135E-009  0.8737367E+02  0.7561462E-02  0.1309339E+00
          2   -1    0    0  501    0  0.00000000000E+00  0.00000000000E+00  0.27554855199E+03  0.27554855199E+03  0.00000000000E+00 0.  1.
         -2   -1    0    0    0  501 -0.00000000000E+00 -0.00000000000E+00 -0.64346665381E+02  0.64346665381E+02  0.00000000000E+00 0. -1.
         25    2    1    2    0    0 -0.62406055863E+01 -0.55839135426E+02  0.52543197877E+02  0.14685186653E+03  0.12509088239E+03 0.  0.
          5    1    3    3  502    0  0.52940786109E+01 -0.84938994502E+02 -0.39756819125E+00  0.85207338392E+02  0.41800000000E+01 0.  1.
         -5    1    3    3    0  502 -0.11534684197E+02  0.29099859077E+02  0.52940766068E+02  0.61644528141E+02  0.41800000000E+01 0.  1.
        -11    1    1    2    0    0  0.99351842029E+01  0.25015345138E+02  0.15972854410E+03  0.16198050246E+03  0.00000000000E+00 0.  1.
         11    1    1    2    0    0 -0.36945786166E+01  0.30823790287E+02 -0.10698553671E+01  0.31062848378E+02  0.00000000000E+00 0. -1.
</event>
<event>
 7    1  0.2900135E-009  0.1501714E+03  0.7561462E-02  0.1200263E+00
          1   -1    0    0  501    0  0.00000000000E+00  0.00000000000E+00  0.79161465585E+03  0.79161465585E+03  0.00000000000E+00 0. -1.
         -1   -1    0    0    0  501 -0.00000000000E+00 -0.00000000000E+00 -0.45099701525E+02  0.45099701525E+02  0.00000000000E+00 0.  1.
         25    2    1    2    0    0  0.10841569680E+03  0.70659540419E+01  0.63283052302E+03  0.65416062908E+03  0.12509103382E+03 0.  0.
          5    1    3    3  502    0 -0.72905159740E+01 -0.38204462432E+02  0.20199213367E+03  0.20574505350E+03  0.41800000000E+01 0.  1.
         -5    1    3    3    0  502  0.11570621277E+03  0.45270416474E+02  0.43083838935E+03  0.44841557558E+03  0.41800000000E+01 0.  1.
        -11    1    1    2    0    0 -0.33807187540E+02 -0.42504847283E+02  0.20546597043E+02  0.58066777265E+02  0.00000000000E+00 0.  1.
         11    1    1    2    0    0 -0.74608509256E+02  0.35438893241E+02  0.93137834255E+02  0.12448695103E+03  0.00000000000E+00 0. -1.
</event>
<event>
 7    1  0.2900135E-009  0.1405943E+03  0.7561462E-02  0.1212531E+00
         -2   -1    0    0    0  501 -0.00000000000E+00  0.00000000000E+00  0.17465501322E+03  0.17465501322E+03  0.00000000000E+00 0.  1.
          2   -1    0    0  501    0  0.00000000000E+00 -0.00000000000E+00 -0.16732748082E+03  0.16732748082E+03  0.00000000000E+00 0. -1.
         25    2    1    2    0    0  0.22184374424E+02  0.12519734827E+03 -0.28841551072E+02  0.18068041619E+03  0.12508818987E+03 0.  0.
          5    1    3    3  502    0  0.56252387514E+01  0.73648353085E+02 -0.77947179296E+02  0.10746608015E+03  0.41800000000E+01 0.  1.
         -5    1    3    3    0  502  0.16559135673E+02  0.51548995183E+02  0.49105628223E+02  0.73214336040E+02  0.41800000000E+01 0.  1.
        -11    1    1    2    0    0 -0.40084994050E+02 -0.17517439979E+02  0.27783752139E+02  0.51822816734E+02  0.00000000000E+00 0.  1.
         11    1    1    2    0    0  0.17900619625E+02 -0.10767990829E+03  0.83853313290E+01  0.10947926111E+03  0.00000000000E+00 0. -1.
</event>
<event>
 7    1  0.2900135E-009  0.1150885E+03  0.7561462E-02  0.1251427E+00
          2   -1    0    0  501    0  0.00000000000E+00  0.00000000000E+00  0.70598458230E+03  0.70598458230E+03  0.00000000000E+00 0. -1.
         -2   -1    0    0    0  501 -0.00000000000E+00 -0.00000000000E+00 -0.30221842709E+02  0.30221842709E+02  0.00000000000E+00 0.  1.
         25    2    1    2    0    0  0.31856766342E+02 -0.82152221742E+02  0.52582859964E+03  0.54763811240E+03  0.12509174576E+03 0.  0.
          5    1    3    3  502    0 -0.89924898366E+01  0.24237559469E+02  0.21427367304E+03  0.21586802338E+03  0.41800000000E+01 0. -1.
         -5    1    3    3    0  502  0.40849256179E+02 -0.10638978121E+03  0.31155492660E+03  0.33177008901E+03  0.41800000000E+01 0. -1.
        -11    1    1    2    0    0 -0.25455715962E+02  0.40689183051E+02  0.19942518023E+02  0.51974100450E+02  0.00000000000E+00 0.  1.
         11    1    1    2    0    0 -0.64010503803E+01  0.41463038691E+02  0.12999162193E+03  0.13659421216E+03  0.00000000000E+00 0. -1.
</event>
<event>
 7    1  0.2900135E-009  0.1055507E+03  0.7561462E-02  0.1269038E+00
          1   -1    0    0  501    0  0.00000000000E+00  0.00000000000E+00  0.20152905641E+03  0.20152905641E+03  0.00000000000E+00 0. -1.
         -1   -1    0    0    0  501 -0.00000000000E+00 -0.00000000000E+00 -0.67522151569E+02  0.67522151569E+02  0.00000000000E+00 0.  1.
         25    2    1    2    0    0 -0.18852323040E+01  0.36027462953E+02  0.10246339679E+03  0.16567620842E+03  0.12509326987E+03 0.  0.
          5    1    3    3  502    0 -0.52745361858E+02  0.40389470343E+02  0.21645538415E+02  0.69995601615E+02  0.41800000000E+01 0.  1.
         -5    1    3    3    0  502  0.50860129554E+02 -0.43620073898E+01  0.80817858373E+02  0.95680606806E+02  0.41800000000E+01 0.  1.
        -11    1    1    2    0    0 -0.35342738950E+02  0.74099622085E+01  0.28646668883E+02  0.46093908215E+02  0.00000000000E+00 0. -1.
         11    1    1    2    0    0  0.37227971254E+02 -0.43437425162E+02  0.28968391722E+01  0.57281091344E+02  0.00000000000E+00 0.  1.
</event>
<event>
 7    1  0.2900135E-009  0.1066051E+03  0.7561462E-02  0.1266989E+00
         -1   -1    0    0    0  501 -0.00000000000E+00  0.00000000000E+00  0.74278542977E+02  0.74278542977E+02  0.00000000000E+00 0.  1.
          1   -1    0    0  501    0  0.00000000000E+00 -0.00000000000E+00 -0.34133119796E+03  0.34133119796E+03  0.00000000000E+00 0. -1.
         25    2    1    2    0    0  0.15744279648E+02 -0.59207923401E+02 -0.13784638372E+02  0.13996731819E+03  0.12508946147E+03 0.  0.
          5    1    3    3  502    0 -0.49851811976E+02 -0.20425248520E+02 -0.30202319574E+02  0.61903525280E+02  0.41800000000E+01 0. -1.
         -5    1    3    3    0  502  0.65596091624E+02 -0.38782674881E+02  0.16417681203E+02  0.78063792909E+02  0.41800000000E+01 0. -1.
        -11    1    1    2    0    0  0.93455314621E+01 -0.72449565663E+01  0.78045387750E+00  0.11850631300E+02  0.00000000000E+00 0.  1.
         11    1    1    2    0    0 -0.25089811111E+02  0.66452879967E+02 -0.25404847049E+03  0.26379179145E+03  0.00000000000E+00 0. -1.
</event>
<event>
 7    1  0.2900135E-009  0.9008800E+02  0.7561462E-02  0.1302639E+00
          1   -1    0    0  501    0  0.00000000000E+00  0.00000000000E+00  0.19784625410E+03  0.19784625410E+03  0.00000000000E+00 0. -1.
         -1   -1    0    0    0  501 -0.00000000000E+00 -0.00000000000E+00 -0.95523966412E+02  0.95523966412E+02  0.00000000000E+00 0.  1.
         25    2    1    2    0    0 -0.32215398784E+02 -0.50424610286E+02  0.12216038130E+03  0.18480396401E+03  0.12509545600E+03 0.  0.
          5    1    3    3  502    0 -0.20293005944E+02  0.14890127725E+02 -0.16931680545E+02  0.30621498983E+02  0.41800000000E+01 0. -1.
         -5    1    3    3    0  502 -0.11922392840E+02 -0.65314738011E+02  0.13909206185E+03  0.15418246502E+03  0.41800000000E+01 0. -1.
        -11    1    1    2    0    0 -0.19964717818E+02  0.11531138721E+02 -0.34841251731E+02  0.41778821668E+02  0.00000000000E+00 0.  1.
         11    1    1    2    0    0  0.52180116602E+02  0.38893471565E+02  0.15003158123E+02  0.66787434841E+02  0.00000000000E+00 0. -1.
</event>
<event>
 7    1  0.2900135E-009  0.8089830E+02  0.7561462E-02  0.1326521E+00
          2   -1    0    0  501    0  0.00000000000E+00  0.00000000000E+00  0.35728782731E+03  0.35728782731E+03  0.00000000000E+00 0. -1.
         -2   -1    0    0    0  501 -0.00000000000E+00 -0.00000000000E+00 -0.37826140350E+02  0.37826140350E+02  0.00000000000E+00 0.  1.
         25    2    1    2    0    0 -0.11812359568E+02  0.36273324220E+02  0.15596493836E+03  0.20353825119E+03  0.12508985494E+03 0.  0.
          5    1    3    3  502    0  0.30370560283E+02  0.11800238321E+02  0.15078066891E+03  0.15431752679E+03  0.41800000000E+01 0.  1.
         -5    1    3    3    0  502 -0.42182919851E+02  0.24473085899E+02  0.51842694493E+01  0.49220724398E+02  0.41800000000E+01 0.  1.
        -11    1    1    2    0    0  0.25054998037E+02  0.13524118647E+02  0.10854722483E+02  0.30470965065E+02  0.00000000000E+00 0.  1.
         11    1    1    2    0    0 -0.13242638469E+02 -0.49797442867E+02  0.15264202612E+03  0.16110475141E+03  0.00000000000E+00 0. -1.
</event>
<event>
 7    1  0.2900135E-009  0.3572658E+03  0.7561462E-02  0.1059672E+00
         -2   -1    0    0    0  501 -0.00000000000E+00  0.00000000000E+00  0.71037016890E+02  0.71037016890E+02  0.00000000000E+00 0. -1.
          2   -1    0    0  501    0  0.00000000000E+00 -0.00000000000E+00 -0.20617304098E+04  0.20617304098E+04  0.00000000000E+00 0.  1.
         25    2    1    2    0    0 -0.19932205712E+03  0.28492515199E+03 -0.68316992901E+03  0.77671124592E+03  0.12509029915E+03 0.  0.
          5    1    3    3  502    0 -0.14660856689E+03  0.10932909546E+03 -0.39233505537E+03  0.43288704194E+03  0.41800000000E+01 0.  1.
         -5    1    3    3    0  502 -0.52713490227E+02  0.17559605653E+03 -0.29083487363E+03  0.34382420398E+03  0.41800000000E+01 0.  1.
        -11    1    1    2    0    0  0.75171131649E+02 -0.12332790593E+03 -0.38269868943E+03  0.40904615669E+03  0.00000000000E+00 0. -1.
         11    1    1    2    0    0  0.12415092547E+03 -0.16159724606E+03 -0.92482477449E+03  0.94701002410E+03  0.00000000000E+00 0.  1.
</event>
<event>
 7    1  0.2900135E-009  0.1358945E+03  0.7561462E-02  0.1218962E+00
          2   -1    0    0  501    0  0.00000000000E+00  0.00000000000E+00  0.38417107407E+03  0.38417107407E+03  0.00000000000E+00 0. -1.
         -2   -1    0    0    0  501 -0.00000000000E+00 -0.00000000000E+00 -0.67830784356E+02  0.67830784356E+02  0.00000000000E+00 0.  1.
         25    2    1    2    0    0  0.83878302479E+02  0.10989275410E+01  0.28521894572E+03  0.32254237964E+03  0.12508781873E+03 0.  0.
          5    1    3    3  502    0  0.39217652121E+02  0.61931612462E+02  0.11710496795E+03  0.13821937193E+03  0.41800000000E+01 0.  1.
         -5    1    3    3    0  502  0.44660650358E+02 -0.60832684921E+02  0.16811397778E+03  0.18432300770E+03  0.41800000000E+01 0.  1.
        -11    1    1    2    0    0 -0.10251226003E+03 -0.82055068704E+01  0.15235298667E+02  0.10396253231E+03  0.00000000000E+00 0. -1.
         11    1    1    2    0    0  0.18633957547E+02  0.71065793294E+01  0.15886045323E+02  0.25496946477E+02  0.00000000000E+00 0.  1.
</event>
<event>
 7    1  0.2900135E-009  0.1195802E+03  0.7561462E-02  0.1243791E+00
          1   -1    0    0  501    0  0.00000000000E+00  0.00000000000E+00  0.11307222699E+04  0.11307222699E+04  0.00000000000E+00 0. -1.
         -1   -1    0    0    0  501 -0.00000000000E+00 -0.00000000000E+00 -0.13721028152E+02  0.13721028152E+02  0.00000000000E+00 0.  1.
         25    2    1    2    0    0 -0.55476331813E+02  0.19299276914E+02  0.63053752923E+03  0.64550363875E+03  0.12508911383E+03 0.  0.
          5    1    3    3  502    0  0.40197619634E+02  0.49030972615E+01  0.21618889657E+03  0.21998863695E+03  0.41800000000E+01 0.  1.
         -5    1    3    3    0  502 -0.95673951446E+02  0.14396179652E+02  0.41434863266E+03  0.42551500180E+03  0.41800000000E+01 0.  1.
        -11    1    1    2    0    0 -0.20478454488E+02  0.63489985127E+01  0.40474358763E+02  0.45802299043E+02  0.00000000000E+00 0. -1.
         11    1    1    2    0    0  0.75954786301E+02 -0.25648275426E+02  0.44598935371E+03  0.45313736021E+03  0.00000000000E+00 0.  1.
</event>
<event>
 7    1  0.2900135E-009  0.1106232E+03  0.7561462E-02  0.1259420E+00
         -2   -1    0    0    0  501 -0.00000000000E+00  0.00000000000E+00  0.11368463523E+03  0.11368463523E+03  0.00000000000E+00 0. -1.
          2   -1    0    0  501    0  0.00000000000E+00 -0.00000000000E+00 -0.12254051767E+03  0.12254051767E+03  0.00000000000E+00 0.  1.
         25    2    1    2    0    0 -0.38356847828E+02 -0.27757668950E+02 -0.10249672503E+02  0.13414735142E+03  0.12509484460E+03 0.  0.
          5    1    3    3  502    0 -0.25306852011E+02 -0.71036304956E+02 -0.34100675635E+02  0.82866892419E+02  0.41800000000E+01 0.  1.
         -5    1    3    3    0  502 -0.13049995817E+02  0.43278636006E+02  0.23851003131E+02  0.51280459004E+02  0.41800000000E+01 0.  1.
        -11    1    1    2    0    0  0.59141714188E+02 -0.72780733339E+01  0.10054604038E+02  0.60430189234E+02  0.00000000000E+00 0. -1.
         11    1    1    2    0    0 -0.20784866360E+02  0.35035742284E+02 -0.86608139694E+01  0.41647612244E+02  0.00000000000E+00 0.  1.
</event>
<event>
 7    1  0.2900135E-009  0.8254268E+02  0.7561462E-02  0.1321987E+00
         -2   -1    0    0    0  501 -0.00000000000E+00  0.00000000000E+00  0.20983968140E+02  0.20983968140E+02  0.00000000000E+00 0.  1.
          2   -1    0    0  501    0  0.00000000000E+00 -0.00000000000E+00 -0.68028862343E+03  0.68028862343E+03  0.00000000000E+00 0. -1.
         25    2    1    2    0    0  0.19426362912E+02  0.29650045442E+02 -0.48382715941E+03  0.50099190859E+03  0.12509062122E+03 0.  0.
          5    1    3    3  502    0 -0.18270590213E+02 -0.13938701735E+02 -0.39069194508E+03  0.39138953770E+03  0.41800000000E+01 0. -1.
         -5    1    3    3    0  502  0.37696953125E+02  0.43588747177E+02 -0.93135214327E+02  0.10960237088E+03  0.41800000000E+01 0. -1.
        -11    1    1    2    0    0  0.18815605285E+02 -0.40107743555E+02 -0.42024651025E+02  0.61063322781E+02  0.00000000000E+00 0.  1.
         11    1    1    2    0    0 -0.38241968197E+02  0.10457698113E+02 -0.13345284486E+03  0.13921736020E+03  0.00000000000E+00 0. -1.
</event>
<event>
 7    1  0.2900135E-009  0.1344932E+03  0.7561462E-02  0.1220937E+00
          1   -1    0    0  501    0  0.00000000000E+00  0.00000000000E+00  0.10226359396E+03  0.10226359396E+03  0.00000000000E+00 0. -1.
         -1   -1    0    0    0  501 -0.00000000000E+00 -0.00000000000E+00 -0.22156282499E+03  0.22156282499E+03  0.00000000000E+00 0.  1.
         25    2    1    2    0    0  0.95701741224E+02  0.25275481233E+02 -0.33289174920E+02  0.16295132564E+03  0.12508913676E+03 0.  0.
          5    1    3    3  502    0  0.10135641675E+03 -0.18034600283E+02  0.71501121677E+01  0.10328100758E+03  0.41800000000E+01 0. -1.
         -5    1    3    3    0  502 -0.56546755244E+01  0.43310081516E+02 -0.40439287088E+02  0.59670318052E+02  0.41800000000E+01 0. -1.
        -11    1    1    2    0    0 -0.95558861454E+02 -0.42689849820E+02 -0.94937867924E+02  0.14130505315E+03  0.00000000000E+00 0.  1.
         11    1    1    2    0    0 -0.14287977046E+00  0.17414368587E+02  0.89278118169E+01  0.19570040157E+02  0.00000000000E+00 0. -1.
</event>
<event>
 7    1  0.3433949E-009  0.1435114E+03  0.7561462E-02  0.1208681E+00
         -2   -1    0    0    0  501 -0.00000000000E+00  0.00000000000E+00  0.18402999699E+02  0.18402999699E+02  0.00000000000E+00 0.  1.
          2   -1    0    0  501    0  0.00000000000E+00 -0.00000000000E+00 -0.13552005301E+04  0.13552005301E+04  0.00000000000E+00 0. -1.
         25    2    1    2    0    0  0.91040508477E+02 -0.69538560712E+02 -0.70746338828E+03  0.72751318842E+03  0.12508800090E+03 0.  0.
          5    1    3    3  502    0  0.99934637046E+01  0.19734613754E+02 -0.21873258208E+02  0.31388471156E+02  0.41800000000E+01 0.  1.
         -5    1    3    3    0  502  0.81047044772E+02 -0.89273174466E+02 -0.68559013007E+03  0.69612471727E+03  0.41800000000E+01 0.  1.
        -11    1    1    2    0    0 -0.35439405024E+02  0.79807006328E+02 -0.32375726996E+03  0.33532652675E+03  0.00000000000E+00 0. -1.
         11    1    1    2    0    0 -0.55601103453E+02 -0.10268445617E+02 -0.30557687220E+03  0.31076381467E+03  0.00000000000E+00 0.  1.
</event>
<event>
 7    1  0.2900135E-009  0.1091469E+03  0.7561462E-02  0.1262158E+00
          4   -1    0    0  501    0  0.00000000000E+00  0.00000000000E+00  0.11856834688E+03  0.11856834688E+03  0.00000000000E+00 0. -1.
         -4   -1    0    0    0  501 -0.00000000000E+00 -0.00000000000E+00 -0.16147803583E+03  0.16147803583E+03  0.00000000000E+00 0.  1.
         25    2    1    2    0    0  0.55528565914E+02 -0.53432319818E+02 -0.64863520877E+02  0.16060003494E+03  0.12508661179E+03 0.  0.
          5    1    3    3  502    0 -0.19077034437E+02 -0.12777878972E+02  0.26805818182E+02  0.35541971279E+02  0.41800000000E+01 0. -1.
         -5    1    3    3    0  502  0.74605600351E+02 -0.40654440846E+02 -0.91669339059E+02  0.12505806367E+03  0.41800000000E+01 0. -1.
        -11    1    1    2    0    0  0.12241017221E+02 -0.10942064267E+02  0.20105021232E+02  0.25957333295E+02  0.00000000000E+00 0. -1.
         11    1    1    2    0    0 -0.67769583135E+02  0.64374384085E+02  0.18488106926E+01  0.93489014465E+02  0.00000000000E+00 0.  1.
</event>
<event>
 7    1  0.2900135E-009  0.1263912E+03  0.7561462E-02  0.1232911E+00
         -2   -1    0    0    0  501 -0.00000000000E+00  0.00000000000E+00  0.27592468254E+02  0.27592468254E+02  0.00000000000E+00 0.  1.
          2   -1    0    0  501    0  0.00000000000E+00 -0.00000000000E+00 -0.90098778594E+03  0.90098778594E+03  0.00000000000E+00 0. -1.
         25    2    1    2    0    0 -0.18861741880E+02  0.89311501195E+02 -0.26632093300E+03  0.30807022440E+03  0.12509242285E+03 0.  0.
          5    1    3    3  502    0 -0.42693892293E+02  0.95364706843E+02 -0.26285215352E+03  0.28288853417E+03  0.41800000000E+01 0.  1.
         -5    1    3    3    0  502  0.23832150412E+02 -0.60532056482E+01 -0.34687794765E+01  0.25181690232E+02  0.41800000000E+01 0.  1.
        -11    1    1    2    0    0  0.44572142823E+02 -0.19083977730E+02 -0.15869717579E+03  0.16593874691E+03  0.00000000000E+00 0.  1.
         11    1    1    2    0    0 -0.25710400943E+02 -0.70227523465E+02 -0.44837720890E+03  0.45457128289E+03  0.00000000000E+00 0. -1.
</event>
<event>
 7    1  0.2900135E-009  0.7139624E+02  0.7561462E-02  0.1355408E+00
          1   -1    0    0  501    0  0.00000000000E+00  0.00000000000E+00  0.29960512175E+04  0.29960512175E+04  0.00000000000E+00 0.  1.
         -1   -1    0    0    0  501 -0.00000000000E+00 -0.00000000000E+00 -0.80798217934E+01  0.80798217934E+01  0.00000000000E+00 0. -1.
         25    2    1    2    0    0 -0.29365164126E+01  0.72169805654E+01  0.26709052669E+04  0.26738437804E+04  0.12507961109E+03 0.  0.
          5    1    3    3  502    0 -0.29088390359E+02  0.10683044793E+02  0.25423902476E+04  0.25425825267E+04  0.41800000000E+01 0.  1.
         -5    1    3    3    0  502  0.26151873947E+02 -0.34660642276E+01  0.12851501930E+03  0.13126125360E+03  0.41800000000E+01 0.  1.
        -11    1    1    2    0    0 -0.18871035256E+02 -0.40696264364E+02  0.10036994613E+03  0.10993829174E+03  0.00000000000E+00 0. -1.
         11    1    1    2    0    0  0.21807551669E+02  0.33479283798E+02  0.21669618264E+03  0.22034896715E+03  0.00000000000E+00 0.  1.
</event>
<event>
 7    1  0.2900135E-009  0.1005134E+03  0.7561462E-02  0.1279220E+00
          2   -1    0    0  501    0  0.00000000000E+00  0.00000000000E+00  0.69966647534E+03  0.69966647534E+03  0.00000000000E+00 0. -1.
         -2   -1    0    0    0  501 -0.00000000000E+00 -0.00000000000E+00 -0.27734289424E+02  0.27734289424E+02  0.00000000000E+00 0.  1.
         25    2    1    2    0    0 -0.24843833306E+02  0.52174975252E+02  0.57266335361E+03  0.58900870727E+03  0.12509395102E+03 0.  0.
          5    1    3    3  502    0 -0.51402631114E+02  0.74981787296E+02  0.28460654701E+03  0.29880237267E+03  0.41800000000E+01 0. -1.
         -5    1    3    3    0  502  0.26558797808E+02 -0.22806812044E+02  0.28805680660E+03  0.29020633460E+03  0.41800000000E+01 0. -1.
        -11    1    1    2    0    0  0.59278408644E+01 -0.55279453201E+02  0.10463320051E+03  0.11848655575E+03  0.00000000000E+00 0. -1.
         11    1    1    2    0    0  0.18915992442E+02  0.31044779492E+01 -0.53643682059E+01  0.19905501743E+02  0.00000000000E+00 0.  1.
</event>
<event>
 7    1  0.2900135E-009  0.1360092E+03  0.7561462E-02  0.1218802E+00
         -1   -1    0    0    0  501 -0.00000000000E+00  0.00000000000E+00  0.60010185954E+02  0.60010185954E+02  0.00000000000E+00 0.  1.
          1   -1    0    0  501    0  0.00000000000E+00 -0.00000000000E+00 -0.50435646772E+03  0.50435646772E+03  0.00000000000E+00 0. -1.
         25    2    1    2    0    0  0.13556702152E+03  0.65807278958E+01 -0.25317945879E+03  0.31331885678E+03  0.12508854607E+03 0.  0.
          5    1    3    3  502    0  0.83290395591E+02  0.83105412002E+01 -0.38335218614E+02  0.92159733500E+02  0.41800000000E+01 0.  1.
         -5    1    3    3    0  502  0.52276625925E+02 -0.17298133044E+01 -0.21484424018E+03  0.22115912328E+03  0.41800000000E+01 0.  1.
        -11    1    1    2    0    0 -0.23310847802E+02 -0.17998545321E+01  0.59784373130E+01  0.24132484628E+02  0.00000000000E+00 0.  1.
         11    1    1    2    0    0 -0.11225617371E+03 -0.47808733637E+01 -0.19714526029E+03  0.22691531227E+03  0.00000000000E+00 0. -1.
</event>
<event>
 7    1  0.2900135E-009  0.1533053E+03  0.7561462E-02  0.1196469E+00
         -1   -1    0    0    0  501 -0.00000000000E+00  0.00000000000E+00  0.69711350108E+03  0.69711350108E+03  0.00000000000E+00 0.  1.
          1   -1    0    0  501    0  0.00000000000E+00 -0.00000000000E+00 -0.35264520109E+02  0.35264520109E+02  0.00000000000E+00 0. -1.
         25    2    1    2    0    0  0.28987776004E+02 -0.10684046598E+03  0.29972918368E+03  0.34313213494E+03  0.12508757791E+03 0.  0.
          5    1    3    3  502    0  0.78092073607E+02 -0.55744030946E+02  0.17433941054E+03  0.19904138116E+03  0.41800000000E+01 0. -1.
         -5    1    3    3    0  502 -0.49104297603E+02 -0.51096435034E+02  0.12538977314E+03  0.14409075378E+03  0.41800000000E+01 0. -1.
        -11    1    1    2    0    0 -0.57102016423E+02  0.90662938388E+02  0.23888462453E+03  0.26181343073E+03  0.00000000000E+00 0.  1.
         11    1    1    2    0    0  0.28114240419E+02  0.16177527593E+02  0.12323517277E+03  0.12743245552E+03  0.00000000000E+00 0. -1.
</event>
<event>
 7    1  0.2900135E-009  0.7676355E+02  0.7561462E-02  0.1338495E+00
          1   -1    0    0  501    0  0.00000000000E+00  0.00000000000E+00  0.18052711064E+03  0.18052711064E+03  0.00000000000E+00 0. -1.
         -1   -1    0    0    0  501 -0.00000000000E+00 -0.00000000000E+00 -0.77398645463E+02  0.77398645463E+02  0.00000000000E+00 0.  1.
         25    2    1    2    0    0 -0.33963171547E+02  0.11477533242E+01  0.95699437929E+02  0.16112399386E+03  0.12509094539E+03 0.  0.
          5    1    3    3  502    0 -0.74800601102E+02 -0.65641845878E+01  0.25447949842E+02  0.79393255354E+02  0.41800000000E+01 0. -1.
         -5    1    3    3    0  502  0.40837429555E+02  0.77119379120E+01  0.70251488087E+02  0.81730738510E+02  0.41800000000E+01 0. -1.
        -11    1    1    2    0    0  0.11787218002E+02 -0.68811155920E+01  0.48168422695E+02  0.50064810046E+02  0.00000000000E+00 0. -1.
         11    1    1    2    0    0  0.22175953546E+02  0.57333622678E+01 -0.40739395449E+02  0.46736952191E+02  0.00000000000E+00 0.  1.
</event>
<event>
 7    1  0.2900135E-009  0.1201051E+03  0.7561462E-02  0.1242924E+00
          2   -1    0    0  501    0  0.00000000000E+00  0.00000000000E+00  0.26487189510E+03  0.26487189510E+03  0.00000000000E+00 0. -1.
         -2   -1    0    0    0  501 -0.00000000000E+00 -0.00000000000E+00 -0.87795357825E+02  0.87795357825E+02  0.00000000000E+00 0.  1.
         25    2    1    2    0    0 -0.91154556788E+02  0.88207771098E+01  0.15946181063E+03  0.22240306898E+03  0.12509235272E+03 0.  0.
          5    1    3    3  502    0 -0.17211671238E+02 -0.47375562848E+02  0.99950387522E+02  0.11201891781E+03  0.41800000000E+01 0.  1.
         -5    1    3    3    0  502 -0.73942885550E+02  0.56196339958E+02  0.59511423109E+02  0.11038415117E+03  0.41800000000E+01 0.  1.
        -11    1    1    2    0    0  0.38488914584E+02  0.11567613606E+02  0.50789167303E+02  0.64766856846E+02  0.00000000000E+00 0. -1.
         11    1    1    2    0    0  0.52665642204E+02 -0.20388390715E+02 -0.33174440657E+02  0.65497327103E+02  0.00000000000E+00 0.  1.
</event>
<event>
 7    1  0.2900135E-009  0.1793038E+03  0.7561462E-02  0.1168479E+00
         -2   -1    0    0    0  501 -0.00000000000E+00  0.00000000000E+00  0.33355822674E+02  0.33355822674E+02  0.00000000000E+00 0.  1.
          2   -1    0    0  501    0  0.00000000000E+00 -0.00000000000E+00 -0.10221455649E+04  0.10221455649E+04  0.00000000000E+00 0. -1.
         25    2    1    2    0    0 -0.56284004019E+02  0.13747457274E+03 -0.53230868531E+03  0.56662780528E+03  0.12508951196E+03 0.  0.
          5    1    3    3  502    0 -0.89437226764E+02  0.56171489686E+02 -0.31269322839E+03  0.33007390274E+03  0.41800000000E+01 0. -1.
         -5    1    3    3    0  502  0.33153222745E+02  0.81303083053E+02 -0.21961545691E+03  0.23655390254E+03  0.41800000000E+01 0. -1.
        -11    1    1    2    0    0 -0.15480695109E+02 -0.91555336737E+01 -0.14568716048E+02  0.23145695177E+02  0.00000000000E+00 0.  1.
         11    1    1    2    0    0  0.71764699128E+02 -0.12831903906E+03 -0.44191234088E+03  0.46572788713E+03  0.00000000000E+00 0. -1.
</event>
<event>
 7    1  0.2900135E-009  0.1193104E+03  0.7561462E-02  0.1244239E+00
          1   -1    0    0  501    0  0.00000000000E+00  0.00000000000E+00  0.35198327846E+03  0.35198327846E+03  0.00000000000E+00 0. -1.
         -1   -1    0    0    0  501 -0.00000000000E+00 -0.00000000000E+00 -0.64427484387E+02  0.64427484387E+02  0.00000000000E+00 0.  1.
         25    2    1    2    0    0  0.94988326476E+02 -0.17960954361E+02  0.20728942549E+03  0.26069384043E+03  0.12508794694E+03 0.  0.
          5    1    3    3  502    0 -0.55578498333E+01  0.12583285832E+02  0.12846275655E+03  0.12926477090E+03  0.41800000000E+01 0. -1.
         -5    1    3    3    0  502  0.10054617631E+03 -0.30544240193E+02  0.78826668937E+02  0.13142906952E+03  0.41800000000E+01 0. -1.
        -11    1    1    2    0    0  0.98939382997E+01 -0.58940278507E+01 -0.10035545402E+02  0.15275527844E+02  0.00000000000E+00 0. -1.
         11    1    1    2    0    0 -0.10488226478E+03  0.23854982211E+02  0.90301913990E+02  0.14044139458E+03  0.00000000000E+00 0.  1.
</event>
<event>
 7    1  0.2900135E-009  0.8224943E+02  0.7561462E-02  0.1322786E+00
         -1   -1    0    0    0  501 -0.00000000000E+00  0.00000000000E+00  0.19867601511E+02  0.19867601511E+02  0.00000000000E+00 0.  1.
          1   -1    0    0  501    0  0.00000000000E+00 -0.00000000000E+00 -0.12293521487E+04  0.12293521487E+04  0.00000000000E+00 0. -1.
         25    2    1    2    0    0  0.13062219657E+02  0.15048449148E+00 -0.10819435930E+04  0.10892292915E+04  0.12509143398E+03 0.  0.
          5    1    3    3  502    0  0.26263897500E+02  0.31603647971E+02 -0.12457344316E+03  0.13124251605E+03  0.41800000000E+01 0.  1.
         -5    1    3    3    0  502 -0.13201677842E+02 -0.31453163479E+02 -0.95737014985E+03  0.95798677549E+03  0.41800000000E+01 0.  1.
        -11    1    1    2    0    0 -0.31901518096E+02  0.35976763476E+02 -0.36892083377E+02  0.60605776812E+02  0.00000000000E+00 0.  1.
         11    1    1    2    0    0  0.18839298439E+02 -0.36127247968E+02 -0.90648870791E+02  0.99384681854E+02  0.00000000000E+00 0. -1.
</event>
<event>
 7    1  0.2900135E-009  0.1818931E+03  0.7561462E-02  0.1165983E+00
          3   -1    0    0  501    0  0.00000000000E+00  0.00000000000E+00  0.21039178753E+03  0.21039178753E+03  0.00000000000E+00 0. -1.
         -3   -1    0    0    0  501 -0.00000000000E+00 -0.00000000000E+00 -0.18025151357E+03  0.18025151357E+03  0.00000000000E+00 0.  1.
         25    2    1    2    0    0 -0.12749872705E+03 -0.96725301915E+02 -0.13338522359E+01  0.20312530277E+03  0.12508557084E+03 0.  0.
          5    1    3    3  502    0 -0.14382386353E+02 -0.58499607553E+02  0.44657119846E+02  0.75105178743E+02  0.41800000000E+01 0. -1.
         -5    1    3    3    0  502 -0.11311634070E+03 -0.38225694362E+02 -0.45990972082E+02  0.12802012403E+03  0.41800000000E+01 0. -1.
        -11    1    1    2    0    0  0.39383775919E+02 -0.14552033292E+02  0.15179777171E+02  0.44646042529E+02  0.00000000000E+00 0. -1.
         11    1    1    2    0    0  0.88114951132E+02  0.11127733521E+03  0.16294349020E+02  0.14287195580E+03  0.00000000000E+00 0.  1.
</event>
<event>
 7    1  0.2900135E-009  0.1618854E+03  0.7561462E-02  0.1186584E+00
         -2   -1    0    0    0  501 -0.00000000000E+00  0.00000000000E+00  0.43246583893E+02  0.43246583893E+02  0.00000000000E+00 0.  1.
          2   -1    0    0  501    0  0.00000000000E+00 -0.00000000000E+00 -0.12863590784E+04  0.12863590784E+04  0.00000000000E+00 0. -1.
         25    2    1    2    0    0 -0.14371576718E+03 -0.34237547549E+01 -0.10691247695E+04  0.10859747471E+04  0.12508970615E+03 0.  0.
          5    1    3    3  502    0 -0.14706127547E+03  0.25213716395E+01 -0.10677695146E+04  0.10778601880E+04  0.41800000000E+01 0.  1.
         -5    1    3    3    0  502  0.33455082880E+01 -0.59451263944E+01 -0.13552549311E+01  0.81145591057E+01  0.41800000000E+01 0.  1.
        -11    1    1    2    0    0  0.11219401363E+03  0.41117333910E+02 -0.10590426817E+03  0.15966792370E+03  0.00000000000E+00 0.  1.
         11    1    1    2    0    0  0.31521753555E+02 -0.37693579155E+02 -0.68083456778E+02  0.83962991512E+02  0.00000000000E+00 0. -1.
</event>
<event>
 7    1  0.2900135E-009  0.1327919E+03  0.7561462E-02  0.1223371E+00
         -2   -1    0    0    0  501 -0.00000000000E+00  0.00000000000E+00  0.22452353786E+02  0.22452353786E+02  0.00000000000E+00 0.  1.
          2   -1    0    0  501    0  0.00000000000E+00 -0.00000000000E+00 -0.87947278036E+03  0.87947278036E+03  0.00000000000E+00 0. -1.
         25    2    1    2    0    0 -0.59391739208E+02 -0.62148148770E+02 -0.36746801524E+03  0.39757844234E+03  0.12508438953E+03 0.  0.
          5    1    3    3  502    0  0.35263295101E+02 -0.16417567157E+02 -0.52289242163E+02  0.65304469516E+02  0.41800000000E+01 0.  1.
         -5    1    3    3    0  502 -0.94655034310E+02 -0.45730581613E+02 -0.31517877308E+03  0.33227397282E+03  0.41800000000E+01 0.  1.
        -11    1    1    2    0    0  0.49420564866E+02  0.83874083795E+02 -0.39137438117E+03  0.40330033524E+03  0.00000000000E+00 0.  1.
         11    1    1    2    0    0  0.99711743426E+01 -0.21725935025E+02 -0.98178030152E+02  0.10104635656E+03  0.00000000000E+00 0. -1.
</event>
<event>
 7    1  0.2900135E-009  0.1333898E+03  0.7561462E-02  0.1222511E+00
          2   -1    0    0  501    0  0.00000000000E+00  0.00000000000E+00  0.41835258658E+03  0.41835258658E+03  0.00000000000E+00 0. -1.
         -2   -1    0    0    0  501 -0.00000000000E+00 -0.00000000000E+00 -0.54112670797E+02  0.54112670797E+02  0.00000000000E+00 0.  1.
         25    2    1    2    0    0 -0.85999470120E+02  0.56539232229E+02  0.22405976955E+03  0.27648255606E+03  0.12508888773E+03 0.  0.
          5    1    3    3  502    0 -0.10177949023E+03  0.50593981827E+02  0.10071526703E+03  0.15192054846E+03  0.41800000000E+01 0.  1.
         -5    1    3    3    0  502  0.15780020115E+02  0.59452504020E+01  0.12334450252E+03  0.12456200760E+03  0.41800000000E+01 0.  1.
        -11    1    1    2    0    0  0.72062333684E+02  0.53204068467E+01  0.87984730119E+02  0.11385341189E+03  0.00000000000E+00 0. -1.
         11    1    1    2    0    0  0.13937136437E+02 -0.61859639076E+02  0.52195416115E+02  0.82129289429E+02  0.00000000000E+00 0.  1.
</event>
<event>
 7    1  0.2900135E-009  0.7229097E+02  0.7561462E-02  0.1352471E+00
         -1   -1    0    0    0  501 -0.00000000000E+00  0.00000000000E+00  0.47048004836E+02  0.47048004836E+02  0.00000000000E+00 0.  1.
          1   -1    0    0  501    0  0.00000000000E+00 -0.00000000000E+00 -0.38251095612E+03  0.38251095612E+03  0.00000000000E+00 0. -1.
         25    2    1    2    0    0  0.19690731044E+02 -0.22228072812E+02 -0.70592055178E+02  0.14666677604E+03  0.12508434286E+03 0.  0.
          5    1    3    3  502    0  0.17141647090E+01 -0.32927251942E+02  0.29431219617E+02  0.44393821295E+02  0.41800000000E+01 0.  1.
         -5    1    3    3    0  502  0.17976566335E+02  0.10699179129E+02 -0.10002327479E+03  0.10227295474E+03  0.41800000000E+01 0.  1.
        -11    1    1    2    0    0 -0.53428051900E+02  0.15247503637E+02 -0.99416083000E+02  0.11388854488E+03  0.00000000000E+00 0.  1.
         11    1    1    2    0    0  0.33737320855E+02  0.69805691756E+01 -0.16545481310E+03  0.16900364003E+03  0.00000000000E+00 0. -1.
</event>
<event>
 7    1  0.2900135E-009  0.1288018E+03  0.7561462E-02  0.1229245E+00
         -2   -1    0    0    0  501 -0.00000000000E+00  0.00000000000E+00  0.77743582286E+02  0.77743582286E+02  0.00000000000E+00 0.  1.
          2   -1    0    0  501    0  0.00000000000E+00 -0.00000000000E+00 -0.40286576653E+03  0.40286576653E+03  0.00000000000E+00 0. -1.
         25    2    1    2    0    0 -0.67057239853E+02 -0.69154180141E+02 -0.30839079681E+03  0.34645580532E+03  0.12509103658E+03 0.  0.
          5    1    3    3  502    0 -0.95951838177E+02 -0.16938406604E+02 -0.20470845608E+03  0.22675248457E+03  0.41800000000E+01 0. -1.
         -5    1    3    3    0  502  0.28894598324E+02 -0.52215773537E+02 -0.10368234073E+03  0.11970332074E+03  0.41800000000E+01 0. -1.
        -11    1    1    2    0    0  0.21468028115E+02  0.58633739578E+01 -0.45793534519E+02  0.50914665756E+02  0.00000000000E+00 0. -1.
         11    1    1    2    0    0  0.45589211738E+02  0.63290806183E+02  0.29062147088E+02  0.83238877741E+02  0.00000000000E+00 0.  1.
</event>
<event>
 7    1  0.3166255E-009  0.1395955E+03  0.7561462E-02  0.1213874E+00
         -2   -1    0    0    0  501 -0.00000000000E+00  0.00000000000E+00  0.96344455075E+02  0.96344455075E+02  0.00000000000E+00 0. -1.
          2   -1    0    0  501    0  0.00000000000E+00 -0.00000000000E+00 -0.26745267555E+03  0.26745267555E+03  0.00000000000E+00 0.  1.
         25    2    1    2    0    0  0.38219749964E+01 -0.11045361388E+03 -0.13845358929E+03  0.21686611019E+03  0.12508758951E+03 0.  0.
          5    1    3    3  502    0  0.58670495816E+02 -0.61258316208E+02 -0.40130636394E+02  0.93929488241E+02  0.41800000000E+01 0. -1.
         -5    1    3    3    0  502 -0.54848520820E+02 -0.49195297670E+02 -0.98322952896E+02  0.12293662194E+03  0.41800000000E+01 0. -1.
        -11    1    1    2    0    0  0.16816253071E+02  0.14146470605E+02  0.24615457082E+02  0.32997419979E+02  0.00000000000E+00 0. -1.
         11    1    1    2    0    0 -0.20638228067E+02  0.96307143273E+02 -0.57270088262E+02  0.11393360046E+03  0.00000000000E+00 0.  1.
</event>
<event>
 7    1  0.2900135E-009  0.9475944E+02  0.7561462E-02  0.1291719E+00
         -1   -1    0    0    0  501 -0.00000000000E+00  0.00000000000E+00  0.43572404447E+02  0.43572404447E+02  0.00000000000E+00 0.  1.
          1   -1    0    0  501    0  0.00000000000E+00 -0.00000000000E+00 -0.27526358681E+03  0.27526358681E+03  0.00000000000E+00 0. -1.
         25    2    1    2    0    0 -0.21768846329E+01 -0.16855578369E+02 -0.12514661632E+03  0.17775925282E+03  0.12509127484E+03 0.  0.
          5    1    3    3  502    0  0.56639456927E+02 -0.12568473716E+02 -0.29261392949E+02  0.65112949018E+02  0.41800000000E+01 0.  1.
         -5    1    3    3    0  502 -0.58816341559E+02 -0.42871046528E+01 -0.95885223368E+02  0.11264630381E+03  0.41800000000E+01 0.  1.
        -11    1    1    2    0    0 -0.48995276030E+01  0.43952775303E+02 -0.10393096305E+03  0.11294908990E+03  0.00000000000E+00 0. -1.
         11    1    1    2    0    0  0.70764122359E+01 -0.27097196933E+02 -0.26136029973E+01  0.28127648540E+02  0.00000000000E+00 0.  1.
</event>
<event>
 7    1  0.2900135E-009  0.1102601E+03  0.7561462E-02  0.1260089E+00
          1   -1    0    0  501    0  0.00000000000E+00  0.00000000000E+00  0.38118981925E+03  0.38118981925E+03  0.00000000000E+00 0. -1.
         -1   -1    0    0    0  501 -0.00000000000E+00 -0.00000000000E+00 -0.34103547127E+02  0.34103547127E+02  0.00000000000E+00 0.  1.
         25    2    1    2    0    0 -0.14146512573E+02 -0.29400991380E+02  0.17146676396E+03  0.21473909659E+03  0.12508991307E+03 0.  0.
          5    1    3    3  502    0  0.18502333636E+02 -0.69517775827E+02  0.68435268037E+02  0.99377642441E+02  0.41800000000E+01 0.  1.
         -5    1    3    3    0  502 -0.32648846209E+02  0.40116784447E+02  0.10303149592E+03  0.11536145415E+03  0.41800000000E+01 0.  1.
        -11    1    1    2    0    0 -0.34703877244E+02 -0.73058724382E+01  0.57277675123E+02  0.67368144812E+02  0.00000000000E+00 0. -1.
         11    1    1    2    0    0  0.48850389817E+02  0.36706863818E+02  0.11834183305E+03  0.13318612497E+03  0.00000000000E+00 0.  1.
</event>
<event>
 7    1  0.4157959E-009  0.1618645E+03  0.7561462E-02  0.1186608E+00
         -2   -1    0    0    0  501 -0.00000000000E+00  0.00000000000E+00  0.28637979636E+02  0.28637979636E+02  0.00000000000E+00 0.  1.
          2   -1    0    0  501    0  0.00000000000E+00 -0.00000000000E+00 -0.11417996059E+04  0.11417996059E+04  0.00000000000E+00 0. -1.
         25    2    1    2    0    0  0.36777057892E+02  0.13419956081E+03 -0.70656470945E+03  0.73091902677E+03  0.12508741319E+03 0.  0.
          5    1    3    3  502    0  0.80733965343E+02  0.96761214165E+02 -0.54186586611E+03  0.55634233614E+03  0.41800000000E+01 0.  1.
         -5    1    3    3    0  502 -0.43956907451E+02  0.37438346645E+02 -0.16469884334E+03  0.17457669063E+03  0.41800000000E+01 0.  1.
        -11    1    1    2    0    0 -0.80119023990E+01 -0.53091459353E+02 -0.28814830460E+03  0.29310806723E+03  0.00000000000E+00 0.  1.
         11    1    1    2    0    0 -0.28765155493E+02 -0.81108101458E+02 -0.11844861217E+03  0.14641049149E+03  0.00000000000E+00 0. -1.
</event>
<event>
 7    1  0.2900135E-009  0.6747945E+02  0.7561462E-02  0.1368880E+00
          1   -1    0    0  501    0  0.00000000000E+00  0.00000000000E+00  0.71568575502E+03  0.71568575502E+03  0.00000000000E+00 0. -1.
         -1   -1    0    0    0  501 -0.00000000000E+00 -0.00000000000E+00 -0.18261199623E+02  0.18261199623E+02  0.00000000000E+00 0.  1.
         25    2    1    2    0    0  0.31727626935E+02  0.20041089275E+02  0.32888014391E+03  0.35386395021E+03  0.12509699689E+03 0.  0.
          5    1    3    3  502    0  0.23416182653E+02  0.28341367504E+01  0.33301108665E+03  0.33387154143E+03  0.41800000000E+01 0. -1.
         -5    1    3    3    0  502  0.83114442820E+01  0.17206952525E+02 -0.41309427383E+01  0.19992408788E+02  0.41800000000E+01 0. -1.
        -11    1    1    2    0    0  0.38868509692E+01  0.29873706461E+02  0.15543734335E+03  0.15832976238E+03  0.00000000000E+00 0. -1.
         11    1    1    2    0    0 -0.35614477904E+02 -0.49914795736E+02  0.21310706813E+03  0.22175324205E+03  0.00000000000E+00 0.  1.
</event>
<event>
 7    1  0.2900135E-009  0.8366319E+02  0.7561462E-02  0.1318966E+00
          1   -1    0    0  501    0  0.00000000000E+00  0.00000000000E+00  0.14234822295E+03  0.14234822295E+03  0.00000000000E+00 0. -1.
         -1   -1    0    0    0  501 -0.00000000000E+00 -0.00000000000E+00 -0.13804769475E+03  0.13804769475E+03  0.00000000000E+00 0.  1.
         25    2    1    2    0    0 -0.36571110793E+02 -0.44341257617E+01 -0.77587703879E+02  0.15175015757E+03  0.12510455992E+03 0.  0.
          5    1    3    3  502    0  0.21496413218E+01 -0.41596507952E+02 -0.87514610698E+02  0.97011184496E+02  0.41800000000E+01 0.  1.
         -5    1    3    3    0  502 -0.38720752115E+02  0.37162382190E+02  0.99269068193E+01  0.54738973075E+02  0.41800000000E+01 0.  1.
        -11    1    1    2    0    0  0.47766874701E+02 -0.14254371481E+02  0.66174297143E+01  0.50285701756E+02  0.00000000000E+00 0.  1.
         11    1    1    2    0    0 -0.11195763908E+02  0.18688497242E+02  0.75270802364E+02  0.78360058366E+02  0.00000000000E+00 0. -1.
</event>
<event>
 7    1  0.2900135E-009  0.6373984E+02  0.7561462E-02  0.1382775E+00
         -1   -1    0    0    0  501 -0.00000000000E+00  0.00000000000E+00  0.16421610322E+03  0.16421610322E+03  0.00000000000E+00 0.  1.
          1   -1    0    0  501    0  0.00000000000E+00 -0.00000000000E+00 -0.77006339511E+02  0.77006339511E+02  0.00000000000E+00 0. -1.
         25    2    1    2    0    0 -0.14347836703E+02  0.73492350310E+01  0.20514436336E+02  0.12778225404E+03  0.12509033007E+03 0.  0.
          5    1    3    3  502    0 -0.35542761797E+02 -0.11646434947E+02 -0.43548143556E+02  0.57557280776E+02  0.41800000000E+01 0. -1.
         -5    1    3    3    0  502  0.21194925094E+02  0.18995669978E+02  0.64062579891E+02  0.70224973265E+02  0.41800000000E+01 0. -1.
        -11    1    1    2    0    0  0.29716607315E+02 -0.24161414088E+02  0.78822605750E+02  0.87634775394E+02  0.00000000000E+00 0.  1.
         11    1    1    2    0    0 -0.15368770611E+02  0.16812179057E+02 -0.12127278375E+02  0.25805413299E+02  0.00000000000E+00 0. -1.
</event>
<event>
 7    1  0.2900135E-009  0.9999037E+02  0.7561462E-02  0.1280316E+00
          1   -1    0    0  501    0  0.00000000000E+00  0.00000000000E+00  0.30996791815E+03  0.30996791815E+03  0.00000000000E+00 0. -1.
         -1   -1    0    0    0  501 -0.00000000000E+00 -0.00000000000E+00 -0.46606299267E+02  0.46606299267E+02  0.00000000000E+00 0.  1.
         25    2    1    2    0    0 -0.35406905783E+02  0.20807433961E+02  0.10222495610E+03  0.16668650340E+03  0.12509136853E+03 0.  0.
          5    1    3    3  502    0 -0.73609570715E+02  0.44257742933E+02  0.59090091327E+02  0.10433708834E+03  0.41800000000E+01 0.  1.
         -5    1    3    3    0  502  0.38202664933E+02 -0.23450308972E+02  0.43134864777E+02  0.62349415059E+02  0.41800000000E+01 0.  1.
        -11    1    1    2    0    0  0.35545676968E+02  0.10962974802E+02  0.14622917915E+02  0.39968884097E+02  0.00000000000E+00 0.  1.
         11    1    1    2    0    0 -0.13877118536E+00 -0.31770408763E+02  0.14651374487E+03  0.14991882992E+03  0.00000000000E+00 0. -1.
</event>
<event>
 7    1  0.3079917E-009  0.1231275E+03  0.7561462E-02  0.1238025E+00
         -3   -1    0    0    0  501 -0.00000000000E+00  0.00000000000E+00  0.10993715814E+03  0.10993715814E+03  0.00000000000E+00 0.  1.
          3   -1    0    0  501    0  0.00000000000E+00 -0.00000000000E+00 -0.16570745409E+03  0.16570745409E+03  0.00000000000E+00 0. -1.
         25    2    1    2    0    0 -0.27696678836E+02  0.73677009702E+02 -0.44734494148E+02  0.15441655348E+03  0.12509152347E+03 0.  0.
          5    1    3    3  502    0 -0.30442953451E+01 -0.33715968264E+02  0.30420257831E+01  0.34245591993E+02  0.41800000000E+01 0.  1.
         -5    1    3    3    0  502 -0.24652383491E+02  0.10739297797E+03 -0.47776519931E+02  0.12017096149E+03  0.41800000000E+01 0.  1.
        -11    1    1    2    0    0  0.29663243476E+02 -0.15269065883E+01 -0.34320021998E+02  0.45388361583E+02  0.00000000000E+00 0. -1.
         11    1    1    2    0    0 -0.19665646401E+01 -0.72150103114E+02  0.23284220193E+02  0.75839697164E+02  0.00000000000E+00 0.  1.
</event>
<event>
 7    1  0.2900135E-009  0.1025572E+03  0.7561462E-02  0.1275009E+00
          2   -1    0    0  501    0  0.00000000000E+00  0.00000000000E+00  0.43098728800E+02  0.43098728800E+02  0.00000000000E+00 0. -1.
         -2   -1    0    0    0  501 -0.00000000000E+00 -0.00000000000E+00 -0.40649355625E+03  0.40649355625E+03  0.00000000000E+00 0.  1.
         25    2    1    2    0    0 -0.50759826467E+02 -0.10715086443E+02 -0.29515907265E+03  0.32474423107E+03  0.12509422201E+03 0.  0.
          5    1    3    3  502    0 -0.44726351877E+02 -0.60812397314E+02 -0.11516592147E+03  0.13776522089E+03  0.41800000000E+01 0.  1.
         -5    1    3    3    0  502 -0.60334745900E+01  0.50097310871E+02 -0.17999315119E+03  0.18697901018E+03  0.41800000000E+01 0.  1.
        -11    1    1    2    0    0  0.64059250243E+02  0.45557278000E+01 -0.10244069054E+02  0.65032938949E+02  0.00000000000E+00 0. -1.
         11    1    1    2    0    0 -0.13299423776E+02  0.61593586431E+01 -0.57991685737E+02  0.59815115032E+02  0.00000000000E+00 0.  1.
</event>
<event>
 7    1  0.2900135E-009  0.8262137E+02  0.7561462E-02  0.1321773E+00
          1   -1    0    0  501    0  0.00000000000E+00  0.00000000000E+00  0.55059388761E+03  0.55059388761E+03  0.00000000000E+00 0. -1.
         -1   -1    0    0    0  501 -0.00000000000E+00 -0.00000000000E+00 -0.28750416110E+02  0.28750416110E+02  0.00000000000E+00 0.  1.
         25    2    1    2    0    0 -0.74998163146E+02  0.20013462246E+02  0.31792949676E+03  0.35036140625E+03  0.12509471186E+03 0.  0.
          5    1    3    3  502    0 -0.22438539466E+02  0.31410545754E+01  0.28503868175E+03  0.28596831428E+03  0.41800000000E+01 0.  1.
         -5    1    3    3    0  502 -0.52559623680E+02  0.16872407670E+02  0.32890815007E+02  0.64393091973E+02  0.41800000000E+01 0.  1.
        -11    1    1    2    0    0  0.55269350134E+02  0.44126626591E+01  0.60049688197E+02  0.81732109410E+02  0.00000000000E+00 0.  1.
         11    1    1    2    0    0  0.19728813013E+02 -0.24426124905E+02  0.14386428655E+03  0.14725078806E+03  0.00000000000E+00 0. -1.
</event>
<event>
 7    1  0.2900135E-009  0.1245051E+03  0.7561462E-02  0.1235845E+00
          2   -1    0    0  501    0  0.00000000000E+00  0.00000000000E+00  0.67087573121E+02  0.67087573121E+02  0.00000000000E+00 0. -1.
         -2   -1    0    0    0  501 -0.00000000000E+00 -0.00000000000E+00 -0.33368765640E+03  0.33368765640E+03  0.00000000000E+00 0.  1.
         25    2    1    2    0    0  0.40398479412E+01 -0.94383727712E+02 -0.20137256475E+03  0.25519060885E+03  0.12508688413E+03 0.  0.
          5    1    3    3  502    0 -0.25248638246E+02  0.16091617030E+02 -0.92691004772E+01  0.31619969886E+02  0.41800000000E+01 0.  1.
         -5    1    3    3    0  502  0.29288486188E+02 -0.11047534474E+03 -0.19210346428E+03  0.22357063896E+03  0.41800000000E+01 0.  1.
        -11    1    1    2    0    0 -0.24055364212E+02  0.59735728819E+02  0.51755794050E+01  0.64604987943E+02  0.00000000000E+00 0. -1.
         11    1    1    2    0    0  0.20015516271E+02  0.34647998893E+02 -0.70403097928E+02  0.80979632728E+02  0.00000000000E+00 0.  1.
</event>
<event>
 7    1  0.2900135E-009  0.1116791E+03  0.7561462E-02  0.1257492E+00
          2   -1    0    0  501    0  0.00000000000E+00  0.00000000000E+00  0.23957154369E+03  0.23957154369E+03  0.00000000000E+00 0.  1.
         -2   -1    0    0    0  501 -0.00000000000E+00 -0.00000000000E+00 -0.76110391307E+02  0.76110391307E+02  0.00000000000E+00 0. -1.
         25    2    1    2    0    0 -0.64319584232E+02 -0.20303140256E+02  0.13698110263E+03  0.19738102119E+03  0.12508484571E+03 0.  0.
          5    1    3    3  502    0  0.89164468973E+01 -0.44127348782E+02  0.10418162527E+03  0.11356940336E+03  0.41800000000E+01 0.  1.
         -5    1    3    3    0  502 -0.73236031130E+02  0.23824208526E+02  0.32799477359E+02  0.83811617825E+02  0.41800000000E+01 0.  1.
        -11    1    1    2    0    0  0.63104282103E+01 -0.26025370305E+02  0.34451525113E+02  0.43635409776E+02  0.00000000000E+00 0.  1.
         11    1    1    2    0    0  0.58009156022E+02  0.46328510561E+02 -0.79714753607E+01  0.74665504033E+02  0.00000000000E+00 0. -1.
</event>
<event>
 7    1  0.2900135E-009  0.1182585E+03  0.7561462E-02  0.1245998E+00
          4   -1    0    0  501    0  0.00000000000E+00  0.00000000000E+00  0.10014238863E+03  0.10014238863E+03  0.00000000000E+00 0. -1.
         -4   -1    0    0    0  501 -0.00000000000E+00 -0.00000000000E+00 -0.21950132243E+03  0.21950132243E+03  0.00000000000E+00 0.  1.
         25    2    1    2    0    0  0.60794535959E+02  0.49482306349E+02 -0.14194641318E+03  0.20479727865E+03  0.12509463171E+03 0.  0.
          5    1    3    3  502    0  0.14209134369E+02  0.70928798638E+02 -0.24357451466E+02  0.76443127995E+02  0.41800000000E+01 0. -1.
         -5    1    3    3    0  502  0.46585401590E+02 -0.21446492290E+02 -0.11758896172E+03  0.12835415066E+03  0.41800000000E+01 0. -1.
        -11    1    1    2    0    0 -0.36682847307E+02  0.18058978198E+02  0.82716808826E+01  0.41715448994E+02  0.00000000000E+00 0.  1.
         11    1    1    2    0    0 -0.24111688652E+02 -0.67541284547E+02  0.14315798497E+02  0.73130983410E+02  0.00000000000E+00 0. -1.
</event>
<event>
 7    1  0.2900135E-009  0.7923027E+02  0.7561462E-02  0.1331250E+00
          2   -1    0    0  501    0  0.00000000000E+00  0.00000000000E+00  0.49267617411E+02  0.49267617411E+02  0.00000000000E+00 0.  1.
         -2   -1    0    0    0  501 -0.00000000000E+00 -0.00000000000E+00 -0.24729855946E+03  0.24729855946E+03  0.00000000000E+00 0. -1.
         25    2    1    2    0    0  0.21742623183E+02  0.12866161025E+02 -0.12086985185E+03  0.17576788970E+03  0.12508617110E+03 0.  0.
          5    1    3    3  502    0 -0.29180756488E+02 -0.25685961254E+02 -0.10169155536E+03  0.10894920828E+03  0.41800000000E+01 0.  1.
         -5    1    3    3    0  502  0.50923379671E+02  0.38552122279E+02 -0.19178296493E+02  0.66818681413E+02  0.41800000000E+01 0.  1.
        -11    1    1    2    0    0  0.86560162804E+01  0.12879397489E+02  0.14260060312E+02  0.21074980845E+02  0.00000000000E+00 0.  1.
         11    1    1    2    0    0 -0.30398639463E+02 -0.25745558515E+02 -0.91421150508E+02  0.99723306327E+02  0.00000000000E+00 0. -1.
</event>
<event>
 7    1  0.2900135E-009  0.1355523E+03  0.7561462E-02  0.1219442E+00
         -1   -1    0    0    0  501 -0.00000000000E+00  0.00000000000E+00  0.32699259479E+02  0.32699259479E+02  0.00000000000E+00 0.  1.
          1   -1    0    0  501    0  0.00000000000E+00 -0.00000000000E+00 -0.63607034441E+03  0.63607034441E+03  0.00000000000E+00 0. -1.
         25    2    1    2    0    0 -0.85432017471E+02  0.32995744374E+02 -0.27486327775E+03  0.31557086748E+03  0.12509117551E+03 0.  0.
          5    1    3    3  502    0 -0.63941684906E+02 -0.41772690011E+02 -0.15042816265E+03  0.16875900337E+03  0.41800000000E+01 0.  1.
         -5    1    3    3    0  502 -0.21490332565E+02  0.74768434384E+02 -0.12443511510E+03  0.14681186411E+03  0.41800000000E+01 0.  1.
        -11    1    1    2    0    0  0.61920100899E+01  0.20290814197E+02 -0.16413600986E+02  0.26822834061E+02  0.00000000000E+00 0.  1.
         11    1    1    2    0    0  0.79240007381E+02 -0.53286558571E+02 -0.31209420619E+03  0.32637590235E+03  0.00000000000E+00 0. -1.
</event>
<event>
 7    1  0.2900135E-009  0.1240661E+03  0.7561462E-02  0.1236536E+00
          1   -1    0    0  501    0  0.00000000000E+00  0.00000000000E+00  0.23624243738E+03  0.23624243738E+03  0.00000000000E+00 0. -1.
         -1   -1    0    0    0  501 -0.00000000000E+00 -0.00000000000E+00 -0.12889497113E+03  0.12889497113E+03  0.00000000000E+00 0.  1.
         25    2    1    2    0    0 -0.67745265538E+02  0.59551330330E+02  0.16390260934E+03  0.22504968356E+03  0.12509001868E+03 0.  0.
          5    1    3    3  502    0 -0.21436863526E+02 -0.36657957797E+02  0.23836447310E+02  0.48877332252E+02  0.41800000000E+01 0.  1.
         -5    1    3    3    0  502 -0.46308402012E+02  0.96209288128E+02  0.14006616203E+03  0.17617235131E+03  0.41800000000E+01 0.  1.
        -11    1    1    2    0    0  0.19279456563E+02 -0.43449313930E+02 -0.72404896176E+02  0.86614140396E+02  0.00000000000E+00 0.  1.
         11    1    1    2    0    0  0.48465808975E+02 -0.16102016400E+02  0.15849753079E+02  0.53473584548E+02  0.00000000000E+00 0. -1.
</event>
<event>
 7    1  0.2900135E-009  0.6328806E+02  0.7561462E-02  0.1384529E+00
          1   -1    0    0  501    0  0.00000000000E+00  0.00000000000E+00  0.32463916518E+03  0.32463916518E+03  0.00000000000E+00 0. -1.
         -1   -1    0    0    0  501 -0.00000000000E+00 -0.00000000000E+00 -0.51133978868E+02  0.51133978868E+02  0.00000000000E+00 0.  1.
         25    2    1    2    0    0 -0.14423892331E+02 -0.32298431757E+02  0.23886137946E+03  0.27194595310E+03  0.12509438615E+03 0.  0.
          5    1    3    3  502    0  0.86130287595E+01 -0.38347629354E+02  0.24403646236E+03  0.24721648873E+03  0.41800000000E+01 0.  1.
         -5    1    3    3    0  502 -0.23036921090E+02  0.60491975977E+01 -0.51750828992E+01  0.24729464367E+02  0.41800000000E+01 0.  1.
        -11    1    1    2    0    0 -0.14726460940E+02  0.30253793151E+02 -0.21922225079E+02  0.40158991574E+02  0.00000000000E+00 0.  1.
         11    1    1    2    0    0  0.29150353270E+02  0.20446386061E+01  0.56566031931E+02  0.63668199371E+02  0.00000000000E+00 0. -1.
</event>
<event>
 7    1  0.2900135E-009  0.1123554E+03  0.7561462E-02  0.1256269E+00
          4   -1    0    0  501    0  0.00000000000E+00  0.00000000000E+00  0.32804055286E+03  0.32804055286E+03  0.00000000000E+00 0. -1.
         -4   -1    0    0    0  501 -0.00000000000E+00 -0.00000000000E+00 -0.54124339322E+02  0.54124339322E+02  0.00000000000E+00 0.  1.
         25    2    1    2    0    0  0.43738981152E+02  0.43521974764E+02  0.21752138500E+03  0.25840424413E+03  0.12509971900E+03 0.  0.
          5    1    3    3  502    0  0.79372107601E+02 -0.16515187470E+01  0.14857721134E+03  0.16850910690E+03  0.41800000000E+01 0.  1.
         -5    1    3    3    0  502 -0.35633126449E+02  0.45173493511E+02  0.68944173659E+02  0.89895137232E+02  0.41800000000E+01 0.  1.
        -11    1    1    2    0    0 -0.17203452035E+02  0.15281585889E+02  0.54568070454E+02  0.59221279471E+02  0.00000000000E+00 0. -1.
         11    1    1    2    0    0 -0.26535529117E+02 -0.58803560653E+02  0.18267580847E+01  0.64539368575E+02  0.00000000000E+00 0.  1.
</event>
<event>
 7    1  0.2900135E-009  0.1318587E+03  0.7561462E-02  0.1224724E+00
          3   -1    0    0  501    0  0.00000000000E+00  0.00000000000E+00  0.45558914208E+02  0.45558914208E+02  0.00000000000E+00 0. -1.
         -3   -1    0    0    0  501 -0.00000000000E+00 -0.00000000000E+00 -0.62815637217E+03  0.62815637217E+03  0.00000000000E+00 0.  1.
         25    2    1    2    0    0  0.23900665653E+02 -0.11115586999E+03 -0.18758948413E+03  0.25251346731E+03  0.12508544026E+03 0.  0.
          5    1    3    3  502    0  0.45490566120E+02 -0.61684505136E+02 -0.18268178162E+03  0.19815265710E+03  0.41800000000E+01 0.  1.
         -5    1    3    3    0  502 -0.21589900466E+02 -0.49471364851E+02 -0.49077025068E+01  0.54360810206E+02  0.41800000000E+01 0.  1.
        -11    1    1    2    0    0  0.11889849689E+02  0.90942087930E+02 -0.17698242420E+03  0.19933542173E+03  0.00000000000E+00 0.  1.
         11    1    1    2    0    0 -0.35790515342E+02  0.20213782057E+02 -0.21802554963E+03  0.22186639733E+03  0.00000000000E+00 0. -1.
</event>
<event>
 7    1  0.2900135E-009  0.1327734E+03  0.7561462E-02  0.1223398E+00
         -2   -1    0    0    0  501 -0.00000000000E+00  0.00000000000E+00  0.16051945676E+02  0.16051945676E+02  0.00000000000E+00 0.  1.
          2   -1    0    0  501    0  0.00000000000E+00 -0.00000000000E+00 -0.15176470582E+04  0.15176470582E+04  0.00000000000E+00 0. -1.
         25    2    1    2    0    0  0.84486560049E+02 -0.62476701098E+02 -0.10556343964E+04  0.10682002689E+04  0.12508604510E+03 0.  0.
          5    1    3    3  502    0  0.45644438805E+02  0.25077054737E+02 -0.61711058873E+03  0.61931835480E+03  0.41800000000E+01 0.  1.
         -5    1    3    3    0  502  0.38842121244E+02 -0.87553755835E+02 -0.43852380767E+03  0.44888191414E+03  0.41800000000E+01 0.  1.
        -11    1    1    2    0    0 -0.27207129242E+02  0.52712724604E+02 -0.11419547797E+03  0.12868359027E+03  0.00000000000E+00 0.  1.
         11    1    1    2    0    0 -0.57279430808E+02  0.97639764942E+01 -0.33176523810E+03  0.33681514461E+03  0.00000000000E+00 0. -1.
</event>
<event>
 7    1  0.2900135E-009  0.9396976E+02  0.7561462E-02  0.1293513E+00
          1   -1    0    0  501    0  0.00000000000E+00  0.00000000000E+00  0.30527470241E+02  0.30527470241E+02  0.00000000000E+00 0. -1.
         -1   -1    0    0    0  501 -0.00000000000E+00 -0.00000000000E+00 -0.72288952757E+03  0.72288952757E+03  0.00000000000E+00 0.  1.
         25    2    1    2    0    0  0.63393784505E+02 -0.56674497166E+02 -0.49856013442E+03  0.52099416143E+03  0.12506773391E+03 0.  0.
          5    1    3    3  502    0  0.41021360552E+02 -0.65984528725E+02 -0.12922911500E+03  0.15084543949E+03  0.41800000000E+01 0.  1.
         -5    1    3    3    0  502  0.22372423953E+02  0.93100315593E+01 -0.36933101942E+03  0.37014872194E+03  0.41800000000E+01 0.  1.
        -11    1    1    2    0    0 -0.12184210240E+02  0.63375776969E+01  0.95746144216E+01  0.16741956623E+02  0.00000000000E+00 0. -1.
         11    1    1    2    0    0 -0.51209574265E+02  0.50336919469E+02 -0.20337653733E+03  0.21568087977E+03  0.00000000000E+00 0.  1.
</event>
<event>
 7    1  0.2900135E-009  0.1860818E+03  0.7561462E-02  0.1162044E+00
          2   -1    0    0  501    0  0.00000000000E+00  0.00000000000E+00  0.26477631014E+04  0.26477631014E+04  0.00000000000E+00 0. -1.
         -2   -1    0    0    0  501 -0.00000000000E+00 -0.00000000000E+00 -0.23501075809E+02  0.23501075809E+02  0.00000000000E+00 0.  1.
         25    2    1    2    0    0  0.14874654384E+03 -0.73375140633E+02  0.21764781706E+04  0.21863700575E+04  0.12508938964E+03 0.  0.
          5    1    3    3  502    0  0.43456979961E+02  0.17441796636E+02  0.22073728321E+03  0.22568816091E+03  0.41800000000E+01 0.  1.
         -5    1    3    3    0  502  0.10528956388E+03 -0.90816937269E+02  0.19557408874E+04  0.19606818966E+04  0.41800000000E+01 0.  1.
        -11    1    1    2    0    0 -0.47703182336E+02  0.70294476888E+02  0.20420329023E+03  0.22116937136E+03  0.00000000000E+00 0.  1.
         11    1    1    2    0    0 -0.10104336151E+03  0.30806637445E+01  0.24358056473E+03  0.26372474838E+03  0.00000000000E+00 0. -1.
</event>
<event>
 7    1  0.2900135E-009  0.2507632E+03  0.7561462E-02  0.1112823E+00
         -2   -1    0    0    0  501 -0.00000000000E+00  0.00000000000E+00  0.23298391191E+03  0.23298391191E+03  0.00000000000E+00 0.  1.
          2   -1    0    0  501    0  0.00000000000E+00 -0.00000000000E+00 -0.33252166164E+03  0.33252166164E+03  0.00000000000E+00 0. -1.
         25    2    1    2    0    0  0.21891055461E+03  0.10542954620E+03  0.30445861713E+02  0.27497440437E+03  0.12508697945E+03 0.  0.
          5    1    3    3  502    0  0.87106163771E+02  0.37743899084E+01  0.59928366208E+02  0.10588017408E+03  0.41800000000E+01 0.  1.
         -5    1    3    3    0  502  0.13180439084E+03  0.10165515629E+03 -0.29482504495E+02  0.16909423029E+03  0.41800000000E+01 0.  1.
        -11    1    1    2    0    0 -0.11636496510E+03 -0.82536511775E+02 -0.30608863183E+02  0.14591087479E+03  0.00000000000E+00 0.  1.
         11    1    1    2    0    0 -0.10254558952E+03 -0.22893034425E+02 -0.99374748260E+02  0.14462029438E+03  0.00000000000E+00 0. -1.
</event>
<event>
 7    1  0.2900135E-009  0.1120764E+03  0.7561462E-02  0.1256772E+00
         -1   -1    0    0    0  501 -0.00000000000E+00  0.00000000000E+00  0.75189872724E+02  0.75189872724E+02  0.00000000000E+00 0.  1.
          1   -1    0    0  501    0  0.00000000000E+00 -0.00000000000E+00 -0.29340883304E+03  0.29340883304E+03  0.00000000000E+00 0. -1.
         25    2    1    2    0    0  0.25786283190E+02  0.97429138231E+02 -0.11974400487E+03  0.20035956457E+03  0.12509180242E+03 0.  0.
          5    1    3    3  502    0  0.16300639148E+02  0.70270913856E+02  0.48490899010E+01  0.72420288895E+02  0.41800000000E+01 0.  1.
         -5    1    3    3    0  502  0.94856440425E+01  0.27158224376E+02 -0.12459309477E+03  0.12793927567E+03  0.41800000000E+01 0.  1.
        -11    1    1    2    0    0 -0.34436923384E+01 -0.10024706378E+03 -0.44460255032E+02  0.10971803449E+03  0.00000000000E+00 0.  1.
         11    1    1    2    0    0 -0.22342590852E+02  0.28179255505E+01 -0.54014700411E+02  0.58521106712E+02  0.00000000000E+00 0. -1.
</event>
<event>
 7    1  0.2900135E-009  0.1058139E+03  0.7561462E-02  0.1268524E+00
          4   -1    0    0  501    0  0.00000000000E+00  0.00000000000E+00  0.24384596502E+03  0.24384596502E+03  0.00000000000E+00 0. -1.
         -4   -1    0    0    0  501 -0.00000000000E+00 -0.00000000000E+00 -0.54081429017E+02  0.54081429017E+02  0.00000000000E+00 0.  1.
         25    2    1    2    0    0 -0.16553831811E+02  0.27996261259E+02  0.13504878549E+03  0.18693180589E+03  0.12508999001E+03 0.  0.
          5    1    3    3  502    0 -0.62936144861E+02  0.39660806652E+02  0.10978692088E+03  0.13268224565E+03  0.41800000000E+01 0. -1.
         -5    1    3    3    0  502  0.46382313049E+02 -0.11664545392E+02  0.25261864609E+02  0.54249560243E+02  0.41800000000E+01 0. -1.
        -11    1    1    2    0    0  0.14993508376E+02  0.28706898736E+02  0.29628452893E+00  0.32387947033E+02  0.00000000000E+00 0.  1.
         11    1    1    2    0    0  0.15603234351E+01 -0.56703159996E+02  0.54419465980E+02  0.78607641106E+02  0.00000000000E+00 0. -1.
</event>
<event>
 7    1  0.4692051E-009  0.1469175E+03  0.7561462E-02  0.1204313E+00
          1   -1    0    0  501    0  0.00000000000E+00  0.00000000000E+00  0.72906464480E+03  0.72906464480E+03  0.00000000000E+00 0. -1.
         -1   -1    0    0    0  501 -0.00000000000E+00 -0.00000000000E+00 -0.36494718693E+02  0.36494718693E+02  0.00000000000E+00 0.  1.
         25    2    1    2    0    0  0.62420798697E+02 -0.10101220363E+03  0.43064871975E+03  0.46389158447E+03  0.12504903409E+03 0.  0.
          5    1    3    3  502    0  0.14486619369E+02  0.25939906861E+02  0.37894746048E+02  0.48334512377E+02  0.41800000000E+01 0.  1.
         -5    1    3    3    0  502  0.47934179327E+02 -0.12695211049E+03  0.39275397370E+03  0.41555707209E+03  0.41800000000E+01 0.  1.
        -11    1    1    2    0    0 -0.32004390083E+02  0.90325546189E+02  0.10790611699E+03  0.14431464016E+03  0.00000000000E+00 0.  1.
         11    1    1    2    0    0 -0.30416408614E+02  0.10686657442E+02  0.15401508936E+03  0.15735313886E+03  0.00000000000E+00 0. -1.
</event>
<event>
 7    1  0.2900135E-009  0.1819460E+03  0.7561462E-02  0.1165933E+00
         -2   -1    0    0    0  501 -0.00000000000E+00  0.00000000000E+00  0.33714013606E+03  0.33714013606E+03  0.00000000000E+00 0.  1.
          2   -1    0    0  501    0  0.00000000000E+00 -0.00000000000E+00 -0.11593386325E+03  0.11593386325E+03  0.00000000000E+00 0. -1.
         25    2    1    2    0    0  0.99770005003E+02  0.12995121945E+03  0.95462257820E+02  0.22716119939E+03  0.12509114479E+03 0.  0.
          5    1    3    3  502    0  0.50852011851E+02  0.11583651157E+03  0.11639182516E+03  0.17195509265E+03  0.41800000000E+01 0. -1.
         -5    1    3    3    0  502  0.48917993152E+02  0.14114707873E+02 -0.20929567342E+02  0.55206106741E+02  0.41800000000E+01 0. -1.
        -11    1    1    2    0    0 -0.15540865444E+02 -0.92937721140E+02  0.49587994901E+02  0.10647961189E+03  0.00000000000E+00 0.  1.
         11    1    1    2    0    0 -0.84229139559E+02 -0.37013498308E+02  0.76156020092E+02  0.11943318803E+03  0.00000000000E+00 0. -1.
</event>
<event>
 7    1  0.2900135E-009  0.4942095E+03  0.7561462E-02  0.1015301E+00
          2   -1    0    0  501    0  0.00000000000E+00  0.00000000000E+00  0.51778478492E+03  0.51778478492E+03  0.00000000000E+00 0. -1.
         -2   -1    0    0    0  501 -0.00000000000E+00 -0.00000000000E+00 -0.70082149172E+03  0.70082149172E+03  0.00000000000E+00 0.  1.
         25    2    1    2    0    0  0.40036864521E+03 -0.27499946474E+03 -0.43539771263E+03  0.66418274426E+03  0.12509113451E+03 0.  0.
          5    1    3    3  502    0  0.33132995217E+03 -0.17937878047E+03 -0.28196586861E+03  0.47061503116E+03  0.41800000000E+01 0.  1.
         -5    1    3    3    0  502  0.69038693042E+02 -0.95620684273E+02 -0.15343184402E+03  0.19356771311E+03  0.41800000000E+01 0.  1.
        -11    1    1    2    0    0 -0.84122979878E+02  0.10508848660E+03  0.72258745917E+02  0.15277955400E+03  0.00000000000E+00 0. -1.
         11    1    1    2    0    0 -0.31624566533E+03  0.16991097815E+03  0.18010225992E+03  0.40164397837E+03  0.00000000000E+00 0.  1.
</event>
<event>
 7    1  0.3614143E-009  0.1064409E+03  0.7561462E-02  0.1267306E+00
          1   -1    0    0  501    0  0.00000000000E+00  0.00000000000E+00  0.62664640864E+03  0.62664640864E+03  0.00000000000E+00 0. -1.
         -1   -1    0    0    0  501 -0.00000000000E+00 -0.00000000000E+00 -0.20337561292E+02  0.20337561292E+02  0.00000000000E+00 0.  1.
         25    2    1    2    0    0  0.14154819422E+02  0.25090013894E+02  0.30748372416E+03  0.33320168676E+03  0.12508899123E+03 0.  0.
          5    1    3    3  502    0  0.37108263857E+02  0.69018688323E+02  0.18027100816E+03  0.19661055762E+03  0.41800000000E+01 0.  1.
         -5    1    3    3    0  502 -0.22953444435E+02 -0.43928674429E+02  0.12721271600E+03  0.13659112914E+03  0.41800000000E+01 0.  1.
        -11    1    1    2    0    0  0.14134416978E+01  0.28667394559E+02  0.41611600625E+02  0.50550396980E+02  0.00000000000E+00 0.  1.
         11    1    1    2    0    0 -0.15568261119E+02 -0.53757408453E+02  0.25721352256E+03  0.26323188619E+03  0.00000000000E+00 0. -1.
</event>
<event>
 7    1  0.2900135E-009  0.2472494E+03  0.7561462E-02  0.1115056E+00
          1   -1    0    0  501    0  0.00000000000E+00  0.00000000000E+00  0.15065512342E+04  0.15065512342E+04  0.00000000000E+00 0. -1.
         -1   -1    0    0    0  501 -0.00000000000E+00 -0.00000000000E+00 -0.69399871368E+02  0.69399871368E+02  0.00000000000E+00 0.  1.
         25    2    1    2    0    0  0.94494106072E+02  0.22769252644E+03  0.11714422109E+04  0.12036183347E+04  0.12508884548E+03 0.  0.
          5    1    3    3  502    0  0.62422367407E+02  0.11768230390E+03  0.35557121874E+03  0.37972890409E+03  0.41800000000E+01 0.  1.
         -5    1    3    3    0  502  0.32071738665E+02  0.11001022254E+03  0.81587099221E+03  0.82388943058E+03  0.41800000000E+01 0.  1.
        -11    1    1    2    0    0 -0.37439227809E+02 -0.85166644019E+02  0.44647640776E+02  0.10319139915E+03  0.00000000000E+00 0.  1.
         11    1    1    2    0    0 -0.57054878263E+02 -0.14252588242E+03  0.22106151107E+03  0.26914137171E+03  0.00000000000E+00 0. -1.
</event>
<event>
 7    1  0.2900135E-009  0.9760764E+02  0.7561462E-02  0.1285409E+00
         -1   -1    0    0    0  501 -0.00000000000E+00  0.00000000000E+00  0.39393484539E+03  0.39393484539E+03  0.00000000000E+00 0.  1.
          1   -1    0    0  501    0  0.00000000000E+00 -0.00000000000E+00 -0.52934823028E+02  0.52934823028E+02  0.00000000000E+00 0. -1.
         25    2    1    2    0    0  0.19537970881E+02  0.38289025266E+02  0.31552593524E+03  0.34212891743E+03  0.12509116106E+03 0.  0.
          5    1    3    3  502    0 -0.26392238956E+02  0.65824503071E+02  0.23360388663E+03  0.24416728636E+03  0.41800000000E+01 0.  1.
         -5    1    3    3    0  502  0.45930209836E+02 -0.27535477806E+02  0.81922048605E+02  0.97961631066E+02  0.41800000000E+01 0.  1.
        -11    1    1    2    0    0  0.19803614494E+02 -0.12514140335E+02  0.47381146474E+02  0.52856029898E+02  0.00000000000E+00 0.  1.
         11    1    1    2    0    0 -0.39341585375E+02 -0.25774884930E+02 -0.21907059350E+02  0.51884721088E+02  0.00000000000E+00 0. -1.
</event>
<event>
 7    1  0.2900135E-009  0.1252442E+03  0.7561462E-02  0.1234688E+00
         -2   -1    0    0    0  501 -0.00000000000E+00  0.00000000000E+00  0.46647734210E+02  0.46647734210E+02  0.00000000000E+00 0.  1.
          2   -1    0    0  501    0  0.00000000000E+00 -0.00000000000E+00 -0.51038348197E+03  0.51038348197E+03  0.00000000000E+00 0. -1.
         25    2    1    2    0    0 -0.89804472616E+02 -0.32222796553E+01 -0.13718791311E+03  0.20626100477E+03  0.12509137539E+03 0.  0.
          5    1    3    3  502    0 -0.54070734629E+02  0.53205008640E+02 -0.33910414725E+02  0.83197391272E+02  0.41800000000E+01 0.  1.
         -5    1    3    3    0  502 -0.35733737986E+02 -0.56427288295E+02 -0.10327749838E+03  0.12306361350E+03  0.41800000000E+01 0.  1.
        -11    1    1    2    0    0  0.91796037517E+02  0.17269860750E+02 -0.32287482144E+03  0.33611443127E+03  0.00000000000E+00 0. -1.
         11    1    1    2    0    0 -0.19915649016E+01 -0.14047581095E+02 -0.36730132209E+01  0.14655780139E+02  0.00000000000E+00 0.  1.
</event>
<event>
 7    1  0.2900135E-009  0.1170212E+03  0.7561462E-02  0.1248094E+00
         -2   -1    0    0    0  501 -0.00000000000E+00  0.00000000000E+00  0.31966858350E+02  0.31966858350E+02  0.00000000000E+00 0.  1.
          2   -1    0    0  501    0  0.00000000000E+00 -0.00000000000E+00 -0.61813116934E+03  0.61813116934E+03  0.00000000000E+00 0. -1.
         25    2    1    2    0    0  0.67856401622E+02 -0.43176835261E+02 -0.22334834850E+03  0.26832950595E+03  0.12509000215E+03 0.  0.
          5    1    3    3  502    0 -0.27674217915E+02  0.52381360586E+01 -0.11112488089E+02  0.30565670254E+02  0.41800000000E+01 0. -1.
         -5    1    3    3    0  502  0.95530619537E+02 -0.48414971320E+02 -0.21223586041E+03  0.23776383569E+03  0.41800000000E+01 0. -1.
        -11    1    1    2    0    0 -0.23175296274E+02 -0.13028833384E+02 -0.25303213649E+02  0.36702826563E+02  0.00000000000E+00 0.  1.
         11    1    1    2    0    0 -0.44681105348E+02  0.56205668645E+02 -0.33751274884E+03  0.34506569518E+03  0.00000000000E+00 0. -1.
</event>
<event>
 7    1  0.2900135E-009  0.1119758E+03  0.7561462E-02  0.1256954E+00
         -3   -1    0    0    0  501 -0.00000000000E+00  0.00000000000E+00  0.29699332908E+03  0.29699332908E+03  0.00000000000E+00 0.  1.
          3   -1    0    0  501    0  0.00000000000E+00 -0.00000000000E+00 -0.53113918025E+02  0.53113918025E+02  0.00000000000E+00 0. -1.
         25    2    1    2    0    0 -0.40211808308E+02  0.17508977744E+02  0.72324184439E+02  0.15100289777E+03  0.12509010213E+03 0.  0.
          5    1    3    3  502    0  0.39038514518E+02 -0.19287235395E+02  0.34448269725E+02  0.55679069246E+02  0.41800000000E+01 0.  1.
         -5    1    3    3    0  502 -0.79250322827E+02  0.36796213140E+02  0.37875914714E+02  0.95323828526E+02  0.41800000000E+01 0.  1.
        -11    1    1    2    0    0  0.44637347240E+02 -0.45883958945E+02  0.15033593477E+03  0.16339744105E+03  0.00000000000E+00 0.  1.
         11    1    1    2    0    0 -0.44255389313E+01  0.28374981201E+02  0.21219291846E+02  0.35706908288E+02  0.00000000000E+00 0. -1.
</event>
<event>
 7    1  0.2900135E-009  0.1181276E+03  0.7561462E-02  0.1246218E+00
         -2   -1    0    0    0  501 -0.00000000000E+00  0.00000000000E+00  0.18056900324E+02  0.18056900324E+02  0.00000000000E+00 0.  1.
          2   -1    0    0  501    0  0.00000000000E+00 -0.00000000000E+00 -0.12198140679E+04  0.12198140679E+04  0.00000000000E+00 0. -1.
         25    2    1    2    0    0  0.44220006132E+02 -0.72911604925E+02 -0.85620445079E+03  0.86948547389E+03  0.12508963463E+03 0.  0.
          5    1    3    3  502    0 -0.24712395708E+01 -0.59751492823E+02 -0.75288525770E+03  0.75526818520E+03  0.41800000000E+01 0.  1.
         -5    1    3    3    0  502  0.46691245702E+02 -0.13160112102E+02 -0.10331919309E+03  0.11421728869E+03  0.41800000000E+01 0.  1.
        -11    1    1    2    0    0 -0.53077637080E+02 -0.10879056761E+01 -0.13823085176E+03  0.14807493871E+03  0.00000000000E+00 0.  1.
         11    1    1    2    0    0  0.88576309480E+01  0.73999510601E+02 -0.20732186499E+03  0.22031055558E+03  0.00000000000E+00 0. -1.
</event>
<event>
 7    1  0.2900135E-009  0.1183842E+03  0.7561462E-02  0.1245787E+00
         -2   -1    0    0    0  501 -0.00000000000E+00  0.00000000000E+00  0.56933207859E+02  0.56933207859E+02  0.00000000000E+00 0.  1.
          2   -1    0    0  501    0  0.00000000000E+00 -0.00000000000E+00 -0.37744935156E+03  0.37744935156E+03  0.00000000000E+00 0. -1.
         25    2    1    2    0    0  0.41407034665E+02  0.57436924928E+02 -0.27818700804E+03  0.31313026258E+03  0.12509599128E+03 0.  0.
          5    1    3    3  502    0 -0.27091798735E+02 -0.96239084603E+01 -0.14382682480E+02  0.32417882844E+02  0.41800000000E+01 0.  1.
         -5    1    3    3    0  502  0.68498833400E+02  0.67060833389E+02 -0.26380432556E+03  0.28071237974E+03  0.41800000000E+01 0.  1.
        -11    1    1    2    0    0 -0.40518193428E+02  0.12049580478E+02 -0.55715926840E+01  0.42637530808E+02  0.00000000000E+00 0.  1.
         11    1    1    2    0    0 -0.88884123725E+00 -0.69486505406E+02 -0.36757542972E+02  0.78614766028E+02  0.00000000000E+00 0. -1.
</event>
<event>
 7    1  0.2900135E-009  0.1328638E+03  0.7561462E-02  0.1223267E+00
          4   -1    0    0  501    0  0.00000000000E+00  0.00000000000E+00  0.10873580588E+04  0.10873580588E+04  0.00000000000E+00 0. -1.
         -4   -1    0    0    0  501 -0.00000000000E+00 -0.00000000000E+00 -0.22744934083E+02  0.22744934083E+02  0.00000000000E+00 0.  1.
         25    2    1    2    0    0  0.15733139332E+01 -0.10134525871E+03  0.72838479792E+03  0.74596805187E+03  0.12510229330E+03 0.  0.
          5    1    3    3  502    0  0.60963750609E+02 -0.72469523984E+02  0.42025130671E+03  0.43080975382E+03  0.41800000000E+01 0.  1.
         -5    1    3    3    0  502 -0.59390436676E+02 -0.28875734724E+02  0.30813349121E+03  0.31515829805E+03  0.41800000000E+01 0.  1.
        -11    1    1    2    0    0 -0.13358403249E+02  0.70273162204E+02  0.31857136684E+03  0.32650341504E+03  0.00000000000E+00 0. -1.
         11    1    1    2    0    0  0.11785089315E+02  0.31072096504E+02  0.17656959939E+02  0.37631525954E+02  0.00000000000E+00 0.  1.
</event>
<event>
 7    1  0.2900135E-009  0.7944823E+02  0.7561462E-02  0.1330625E+00
         -1   -1    0    0    0  501 -0.00000000000E+00  0.00000000000E+00  0.13417738157E+03  0.13417738157E+03  0.00000000000E+00 0.  1.
          1   -1    0    0  501    0  0.00000000000E+00 -0.00000000000E+00 -0.90184728853E+02  0.90184728853E+02  0.00000000000E+00 0. -1.
         25    2    1    2    0    0 -0.72055216526E+01 -0.46215152849E+01  0.43928128269E+02  0.13285307254E+03  0.12508789104E+03 0.  0.
          5    1    3    3  502    0  0.17542833243E+02  0.25068511598E+02 -0.33898766690E+02  0.45856079805E+02  0.41800000000E+01 0. -1.
         -5    1    3    3    0  502 -0.24748354896E+02 -0.29690026883E+02  0.77826894959E+02  0.86996992737E+02  0.41800000000E+01 0. -1.
        -11    1    1    2    0    0 -0.14784721466E+02 -0.38221208161E+02 -0.10286682337E+02  0.42252391360E+02  0.00000000000E+00 0. -1.
         11    1    1    2    0    0  0.21990243119E+02  0.42842723446E+02  0.10351206786E+02  0.49256646522E+02  0.00000000000E+00 0.  1.
</event>
<event>
 7    1  0.2900135E-009  0.9770776E+02  0.7561462E-02  0.1285191E+00
         -2   -1    0    0    0  501 -0.00000000000E+00  0.00000000000E+00  0.64754084447E+02  0.64754084447E+02  0.00000000000E+00 0.  1.
          2   -1    0    0  501    0  0.00000000000E+00 -0.00000000000E+00 -0.26205413775E+03  0.26205413775E+03  0.00000000000E+00 0. -1.
         25    2    1    2    0    0  0.26554660350E+02  0.46159912758E+02 -0.47620100830E+02  0.14405361574E+03  0.12509149720E+03 0.  0.
          5    1    3    3  502    0  0.34614975312E+02  0.63539708693E+02 -0.78899677612E+02  0.10713600060E+03  0.41800000000E+01 0. -1.
         -5    1    3    3    0  502 -0.80603149611E+01 -0.17379795935E+02  0.31279576782E+02  0.36917615140E+02  0.41800000000E+01 0. -1.
        -11    1    1    2    0    0 -0.59223586610E+02 -0.24262730198E+02 -0.10730005484E+03  0.12493764467E+03  0.00000000000E+00 0.  1.
         11    1    1    2    0    0  0.32668926259E+02 -0.21897182561E+02 -0.42379897635E+02  0.57816961790E+02  0.00000000000E+00 0. -1.
</event>
<event>
 7    1  0.2900135E-009  0.6042339E+02  0.7561462E-02  0.1396064E+00
         -2   -1    0    0    0  501 -0.00000000000E+00  0.00000000000E+00  0.26786512203E+02  0.26786512203E+02  0.00000000000E+00 0.  1.
          2   -1    0    0  501    0  0.00000000000E+00 -0.00000000000E+00 -0.44459189103E+03  0.44459189103E+03  0.00000000000E+00 0. -1.
         25    2    1    2    0    0  0.49356092318E+01  0.28978385396E+01 -0.20684469136E+03  0.24179504663E+03  0.12508941012E+03 0.  0.
          5    1    3    3  502    0 -0.11477351972E+02 -0.10168697029E+02  0.13232309974E+02  0.20680871229E+02  0.41800000000E+01 0.  1.
         -5    1    3    3    0  502  0.16412961204E+02  0.13066535569E+02 -0.22007700134E+03  0.22111417541E+03  0.41800000000E+01 0.  1.
        -11    1    1    2    0    0  0.26111732803E+01  0.39959695583E+02 -0.14601174138E+03  0.15140351422E+03  0.00000000000E+00 0. -1.
         11    1    1    2    0    0 -0.75467825121E+01 -0.42857534123E+02 -0.64948946086E+02  0.78179842384E+02  0.00000000000E+00 0.  1.
</event>
<event>
 7    1  0.2900135E-009  0.1681913E+03  0.7561462E-02  0.1179747E+00
          2   -1    0    0  501    0  0.00000000000E+00  0.00000000000E+00  0.34340366721E+03  0.34340366721E+03  0.00000000000E+00 0. -1.
         -2   -1    0    0    0  501 -0.00000000000E+00 -0.00000000000E+00 -0.99352286620E+02  0.99352286620E+02  0.00000000000E+00 0.  1.
         25    2    1    2    0    0  0.94898071148E+02  0.11454984100E+03  0.15528671249E+03  0.24877152051E+03  0.12508395724E+03 0.  0.
          5    1    3    3  502    0  0.95099847000E+02  0.58050196470E+02  0.36757560881E+02  0.11739845353E+03  0.41800000000E+01 0. -1.
         -5    1    3    3    0  502 -0.20177585201E+00  0.56499644534E+02  0.11852915160E+03  0.13137306697E+03  0.41800000000E+01 0. -1.
        -11    1    1    2    0    0 -0.93520874046E+02 -0.54652124052E+02  0.35988358602E+02  0.11414101147E+03  0.00000000000E+00 0. -1.
         11    1    1    2    0    0 -0.13771971026E+01 -0.59897716952E+02  0.52776309506E+02  0.79843421852E+02  0.00000000000E+00 0.  1.
</event>
<event>
 7    1  0.2900135E-009  0.1199435E+03  0.7561462E-02  0.1243190E+00
         -1   -1    0    0    0  501 -0.00000000000E+00  0.00000000000E+00  0.20925527619E+02  0.20925527619E+02  0.00000000000E+00 0.  1.
          1   -1    0    0  501    0  0.00000000000E+00 -0.00000000000E+00 -0.89744848539E+03  0.89744848539E+03  0.00000000000E+00 0. -1.
         25    2    1    2    0    0 -0.76491949725E+02 -0.35691085579E+02 -0.44896429877E+03  0.47364600085E+03  0.12508685217E+03 0.  0.
          5    1    3    3  502    0 -0.53681812750E+02  0.20799055964E+02 -0.74547389070E+02  0.94282147654E+02  0.41800000000E+01 0. -1.
         -5    1    3    3    0  502 -0.22810136975E+02 -0.56490141543E+02 -0.37441690970E+03  0.37936385319E+03  0.41800000000E+01 0. -1.
        -11    1    1    2    0    0  0.62298159584E+02 -0.18575306195E+02 -0.26116556975E+03  0.26913483147E+03  0.00000000000E+00 0.  1.
         11    1    1    2    0    0  0.14193790141E+02  0.54266391774E+02 -0.16639308925E+03  0.17559318069E+03  0.00000000000E+00 0. -1.
</event>
<event>
 7    1  0.2900135E-009  0.1094734E+03  0.7561462E-02  0.1261548E+00
         -3   -1    0    0    0  501 -0.00000000000E+00  0.00000000000E+00  0.21565527181E+03  0.21565527181E+03  0.00000000000E+00 0.  1.
          3   -1    0    0  501    0  0.00000000000E+00 -0.00000000000E+00 -0.77231162364E+02  0.77231162364E+02  0.00000000000E+00 0. -1.
         25    2    1    2    0    0 -0.46091427117E+02  0.13802740214E+02  0.19952724430E+02  0.13549959273E+03  0.12508834129E+03 0.  0.
          5    1    3    3  502    0 -0.65030181335E+02 -0.39730534087E+02  0.18554851088E+02  0.78544221444E+02  0.41800000000E+01 0. -1.
         -5    1    3    3    0  502  0.18938754219E+02  0.53533274301E+02  0.13978733423E+01  0.56955371289E+02  0.41800000000E+01 0. -1.
        -11    1    1    2    0    0  0.26793483806E+02  0.28545095000E+02  0.99869890770E+02  0.10726932602E+03  0.00000000000E+00 0.  1.
         11    1    1    2    0    0  0.19297943311E+02 -0.42347835214E+02  0.18601494242E+02  0.50117515415E+02  0.00000000000E+00 0. -1.
</event>
<event>
 7    1  0.2900135E-009  0.4817710E+03  0.7561462E-02  0.1018650E+00
         -2   -1    0    0    0  501 -0.00000000000E+00  0.00000000000E+00  0.90636972453E+03  0.90636972453E+03  0.00000000000E+00 0. -1.
          2   -1    0    0  501    0  0.00000000000E+00 -0.00000000000E+00 -0.28464685317E+03  0.28464685317E+03  0.00000000000E+00 0.  1.
         25    2    1    2    0    0  0.41326183412E+03 -0.22956982391E+03  0.48867165672E+03  0.69132888401E+03  0.12509192697E+03 0.  0.
          5    1    3    3  502    0  0.25586098620E+03 -0.19292674002E+03  0.26792961088E+03  0.41771918804E+03  0.41800000000E+01 0.  1.
         -5    1    3    3    0  502  0.15740084792E+03 -0.36643083888E+02  0.22074204585E+03  0.27360969597E+03  0.41800000000E+01 0.  1.
        -11    1    1    2    0    0 -0.11971338464E+03  0.11587368260E+03  0.38509850253E+02  0.17100003903E+03  0.00000000000E+00 0. -1.
         11    1    1    2    0    0 -0.29354844948E+03  0.11369614131E+03  0.94541364382E+02  0.32868765465E+03  0.00000000000E+00 0.  1.
</event>
<event>
 7    1  0.2900135E-009  0.1220774E+03  0.7561462E-02  0.1239709E+00
         -2   -1    0    0    0  501 -0.00000000000E+00  0.00000000000E+00  0.11813694106E+02  0.11813694106E+02  0.00000000000E+00 0. -1.
          2   -1    0    0  501    0  0.00000000000E+00 -0.00000000000E+00 -0.21375830185E+04  0.21375830185E+04  0.00000000000E+00 0.  1.
         25    2    1    2    0    0  0.65599294444E+02 -0.32427422635E+02 -0.17554379368E+04  0.17614099309E+04  0.12509112574E+03 0.  0.
          5    1    3    3  502    0  0.92119087439E+02 -0.40293833363E+02 -0.91697937793E+03  0.92248478102E+03  0.41800000000E+01 0. -1.
         -5    1    3    3    0  502 -0.26519792996E+02  0.78664107286E+01 -0.83845855885E+03  0.83892514991E+03  0.41800000000E+01 0. -1.
        -11    1    1    2    0    0 -0.29813164136E+02  0.62211951071E+02 -0.23108528652E+03  0.24116293508E+03  0.00000000000E+00 0. -1.
         11    1    1    2    0    0 -0.35786130307E+02 -0.29784528436E+02 -0.13924610106E+03  0.14682384656E+03  0.00000000000E+00 0.  1.
</event>
<event>
 7    1  0.2900135E-009  0.1277721E+03  0.7561462E-02  0.1230799E+00
         -1   -1    0    0    0  501 -0.00000000000E+00  0.00000000000E+00  0.18477285784E+03  0.18477285784E+03  0.00000000000E+00 0.  1.
          1   -1    0    0  501    0  0.00000000000E+00 -0.00000000000E+00 -0.10470492364E+03  0.10470492364E+03  0.00000000000E+00 0. -1.
         25    2    1    2    0    0  0.69559349464E+02  0.47133890086E+02  0.34251513202E+02  0.15453279010E+03  0.12508841020E+03 0.  0.
          5    1    3    3  502    0 -0.16405103243E+02 -0.28534069759E+02  0.20770200821E+02  0.39143252185E+02  0.41800000000E+01 0. -1.
         -5    1    3    3    0  502  0.85964452707E+02  0.75667959845E+02  0.13481312381E+02  0.11538953791E+03  0.41800000000E+01 0. -1.
        -11    1    1    2    0    0 -0.43286474857E+02 -0.63472706246E+02  0.63177286914E+02  0.99467949237E+02  0.00000000000E+00 0.  1.
         11    1    1    2    0    0 -0.26272874608E+02  0.16338816160E+02 -0.17360865917E+02  0.35477042141E+02  0.00000000000E+00 0. -1.
</event>
<event>
 7    1  0.2900135E-009  0.1092992E+03  0.7561462E-02  0.1261873E+00
          1   -1    0    0  501    0  0.00000000000E+00  0.00000000000E+00  0.18573061696E+03  0.18573061696E+03  0.00000000000E+00 0. -1.
         -1   -1    0    0    0  501 -0.00000000000E+00 -0.00000000000E+00 -0.80967477477E+02  0.80967477477E+02  0.00000000000E+00 0.  1.
         25    2    1    2    0    0 -0.44918300412E+02 -0.34533838322E+02  0.47827254341E+02  0.14541182738E+03  0.12508762362E+03 0.  0.
          5    1    3    3  502    0 -0.75171255207E+02 -0.30100899115E+02 -0.81511065988E+01  0.81490457574E+02  0.41800000000E+01 0.  1.
         -5    1    3    3    0  502  0.30252954795E+02 -0.44329392065E+01  0.55978360940E+02  0.63921369802E+02  0.41800000000E+01 0.  1.
        -11    1    1    2    0    0  0.66185837233E+02  0.47753670854E+02  0.38805948931E+02  0.90370790650E+02  0.00000000000E+00 0.  1.
         11    1    1    2    0    0 -0.21267536821E+02 -0.13219832533E+02  0.18129936210E+02  0.30915476409E+02  0.00000000000E+00 0. -1.
</event>
<event>
 7    1  0.2900135E-009  0.1165949E+03  0.7561462E-02  0.1248822E+00
         -2   -1    0    0    0  501 -0.00000000000E+00  0.00000000000E+00  0.27961823750E+03  0.27961823750E+03  0.00000000000E+00 0.  1.
          2   -1    0    0  501    0  0.00000000000E+00 -0.00000000000E+00 -0.66881655042E+02  0.66881655042E+02  0.00000000000E+00 0. -1.
         25    2    1    2    0    0 -0.79727089625E+02 -0.31843183011E+02  0.10811212558E+03  0.18629390871E+03  0.12508713603E+03 0.  0.
          5    1    3    3  502    0 -0.49437499400E+00  0.39806084367E+02  0.51799978264E+02  0.65463569314E+02  0.41800000000E+01 0.  1.
         -5    1    3    3    0  502 -0.79232714631E+02 -0.71649267377E+02  0.56312147316E+02  0.12083033940E+03  0.41800000000E+01 0.  1.
        -11    1    1    2    0    0  0.66414210986E+02  0.29774684929E+02  0.11963538354E+03  0.14003572500E+03  0.00000000000E+00 0.  1.
         11    1    1    2    0    0  0.13312878639E+02  0.20684980812E+01 -0.15010926658E+02  0.20170258826E+02  0.00000000000E+00 0. -1.
</event>
<event>
 7    1  0.2900135E-009  0.1000974E+03  0.7561462E-02  0.1280091E+00
         -4   -1    0    0    0  501 -0.00000000000E+00  0.00000000000E+00  0.88952837886E+02  0.88952837886E+02  0.00000000000E+00 0. -1.
          4   -1    0    0  501    0  0.00000000000E+00 -0.00000000000E+00 -0.19247143927E+03  0.19247143927E+03  0.00000000000E+00 0.  1.
         25    2    1    2    0    0  0.37515580215E+02  0.45625541693E+02 -0.92551055062E+01  0.13863535837E+03  0.12507996162E+03 0.  0.
          5    1    3    3  502    0  0.32293381300E+01 -0.19007334891E+02  0.43883524981E+02  0.48113860468E+02  0.41800000000E+01 0. -1.
         -5    1    3    3    0  502  0.34286242085E+02  0.64632876584E+02 -0.53138630487E+02  0.90521497899E+02  0.41800000000E+01 0. -1.
        -11    1    1    2    0    0  0.28909154268E+02 -0.23228059257E+02 -0.35058586866E+02  0.51033189694E+02  0.00000000000E+00 0. -1.
         11    1    1    2    0    0 -0.66424734483E+02 -0.22397482436E+02 -0.59204909015E+02  0.91755729097E+02  0.00000000000E+00 0.  1.
</event>
<event>
 7    1  0.2900135E-009  0.3138011E+03  0.7561462E-02  0.1078538E+00
         -2   -1    0    0    0  501 -0.00000000000E+00  0.00000000000E+00  0.81405061754E+02  0.81405061754E+02  0.00000000000E+00 0.  1.
          2   -1    0    0  501    0  0.00000000000E+00 -0.00000000000E+00 -0.12528416388E+04  0.12528416388E+04  0.00000000000E+00 0. -1.
         25    2    1    2    0    0  0.15507247920E+03 -0.25289865329E+03 -0.50593508690E+03  0.59968516058E+03  0.12508707781E+03 0.  0.
          5    1    3    3  502    0  0.81279392751E+02 -0.22940374928E+03 -0.36283852608E+03  0.43692297751E+03  0.41800000000E+01 0.  1.
         -5    1    3    3    0  502  0.73793086444E+02 -0.23494904008E+02 -0.14309656081E+03  0.16276218307E+03  0.41800000000E+01 0.  1.
        -11    1    1    2    0    0 -0.15785863101E+03  0.20540041346E+03 -0.60061095271E+03  0.65409647128E+03  0.00000000000E+00 0. -1.
         11    1    1    2    0    0  0.27861518098E+01  0.47498239830E+02 -0.64890537433E+02  0.80465068678E+02  0.00000000000E+00 0.  1.
</event>
<event>
 7    1  0.2900135E-009  0.1737824E+03  0.7561462E-02  0.1173960E+00
          2   -1    0    0  501    0  0.00000000000E+00  0.00000000000E+00  0.91315639380E+03  0.91315639380E+03  0.00000000000E+00 0. -1.
         -2   -1    0    0    0  501 -0.00000000000E+00 -0.00000000000E+00 -0.39197237804E+02  0.39197237804E+02  0.00000000000E+00 0.  1.
         25    2    1    2    0    0  0.10458813695E+03  0.92066171447E+02  0.29199680102E+03  0.34687840655E+03  0.12509052247E+03 0.  0.
          5    1    3    3  502    0  0.11712548906E+01  0.81424292365E+02  0.10570946360E+03  0.13350374647E+03  0.41800000000E+01 0. -1.
         -5    1    3    3    0  502  0.10341688206E+03  0.10641879082E+02  0.18628733741E+03  0.21337466008E+03  0.41800000000E+01 0. -1.
        -11    1    1    2    0    0 -0.11892128449E+03 -0.82903395018E+02  0.55478868524E+03  0.57341584394E+03  0.00000000000E+00 0.  1.
         11    1    1    2    0    0  0.14333147544E+02 -0.91627764289E+01  0.27173669742E+02  0.32059381118E+02  0.00000000000E+00 0. -1.
</event>
<event>
 7    1  0.2900135E-009  0.1078725E+03  0.7561462E-02  0.1264561E+00
          2   -1    0    0  501    0  0.00000000000E+00  0.00000000000E+00  0.26039580658E+03  0.26039580658E+03  0.00000000000E+00 0. -1.
         -2   -1    0    0    0  501 -0.00000000000E+00 -0.00000000000E+00 -0.63511298621E+02  0.63511298621E+02  0.00000000000E+00 0.  1.
         25    2    1    2    0    0  0.31269550305E+02  0.49747820188E+02  0.13529845072E+03  0.19340215864E+03  0.12508434679E+03 0.  0.
          5    1    3    3  502    0 -0.30531623713E+02 -0.18754927065E+02  0.74661068542E+02  0.82919689408E+02  0.41800000000E+01 0. -1.
         -5    1    3    3    0  502  0.61801174018E+02  0.68502747252E+02  0.60637382175E+02  0.11048246923E+03  0.41800000000E+01 0. -1.
        -11    1    1    2    0    0 -0.46015952745E+02 -0.54954706976E+02  0.79288676391E+02  0.10688396479E+03  0.00000000000E+00 0. -1.
         11    1    1    2    0    0  0.14746402440E+02  0.52068867881E+01 -0.17702619147E+02  0.23620981766E+02  0.00000000000E+00 0.  1.
</event>
<event>
 7    1  0.2900135E-009  0.1499940E+03  0.7561462E-02  0.1200480E+00
         -2   -1    0    0    0  501 -0.00000000000E+00  0.00000000000E+00  0.20563074904E+02  0.20563074904E+02  0.00000000000E+00 0.  1.
          2   -1    0    0  501    0  0.00000000000E+00 -0.00000000000E+00 -0.14573818519E+04  0.14573818519E+04  0.00000000000E+00 0. -1.
         25    2    1    2    0    0  0.15521658051E+02  0.10389225770E+03 -0.10916650837E+04  0.11038183801E+04  0.12509131913E+03 0.  0.
          5    1    3    3  502    0 -0.23749457016E+02  0.11284169410E+03 -0.93122909251E+03  0.93835088308E+03  0.41800000000E+01 0.  1.
         -5    1    3    3    0  502  0.39271115067E+02 -0.89494363961E+01 -0.16043599118E+03  0.16546749698E+03  0.41800000000E+01 0.  1.
        -11    1    1    2    0    0  0.35364901044E+02 -0.91000085930E+01 -0.97440460427E+02  0.10405829958E+03  0.00000000000E+00 0. -1.
         11    1    1    2    0    0 -0.50886559095E+02 -0.94792249111E+02 -0.24771323288E+03  0.27006824718E+03  0.00000000000E+00 0.  1.
</event>
<event>
 7    1  0.2900135E-009  0.1672430E+03  0.7561462E-02  0.1180754E+00
         -2   -1    0    0    0  501 -0.00000000000E+00  0.00000000000E+00  0.14618053892E+03  0.14618053892E+03  0.00000000000E+00 0.  1.
          2   -1    0    0  501    0  0.00000000000E+00 -0.00000000000E+00 -0.49414740256E+03  0.49414740256E+03  0.00000000000E+00 0. -1.
         25    2    1    2    0    0 -0.11215392797E+03 -0.67056731889E+02 -0.42493885706E+03  0.46183994839E+03  0.12509195355E+03 0.  0.
          5    1    3    3  502    0  0.26773049508E+02 -0.13223705875E+01 -0.65902248970E+02  0.71267970809E+02  0.41800000000E+01 0.  1.
         -5    1    3    3    0  502 -0.13892697748E+03 -0.65734361301E+02 -0.35903660809E+03  0.39057197758E+03  0.41800000000E+01 0. -1.
        -11    1    1    2    0    0  0.30649637032E+02 -0.18209923585E+02 -0.33102508791E+01  0.35804459611E+02  0.00000000000E+00 0.  1.
         11    1    1    2    0    0  0.81504290939E+02  0.85266655473E+02  0.80282244295E+02  0.14268353348E+03  0.00000000000E+00 0. -1.
</event>
<event>
 7    1  0.2976446E-009  0.1045975E+03  0.7561462E-02  0.1270915E+00
         -1   -1    0    0    0  501 -0.00000000000E+00  0.00000000000E+00  0.88666110423E+02  0.88666110423E+02  0.00000000000E+00 0.  1.
          1   -1    0    0  501    0  0.00000000000E+00 -0.00000000000E+00 -0.19579308125E+03  0.19579308125E+03  0.00000000000E+00 0. -1.
         25    2    1    2    0    0 -0.72202732876E+02  0.77612450395E+01 -0.42060189565E+02  0.15063109196E+03  0.12508874753E+03 0.  0.
          5    1    3    3  502    0  0.61551688056E+01 -0.27150067677E+02 -0.56891029436E+02  0.63474986476E+02  0.41800000000E+01 0.  1.
         -5    1    3    3    0  502 -0.78357901681E+02  0.34911312716E+02  0.14830839871E+02  0.87156105482E+02  0.41800000000E+01 0.  1.
        -11    1    1    2    0    0  0.58283153079E+02  0.22005056763E+02 -0.15540093683E+01  0.62318242923E+02  0.00000000000E+00 0.  1.
         11    1    1    2    0    0  0.13919579797E+02 -0.29766301802E+02 -0.63512771894E+02  0.71509856792E+02  0.00000000000E+00 0. -1.
</event>
<event>
 7    1  0.2900135E-009  0.8483683E+02  0.7561462E-02  0.1315860E+00
          2   -1    0    0  501    0  0.00000000000E+00  0.00000000000E+00  0.77235643324E+02  0.77235643324E+02  0.00000000000E+00 0. -1.
         -2   -1    0    0    0  501 -0.00000000000E+00 -0.00000000000E+00 -0.18337623906E+03  0.18337623906E+03  0.00000000000E+00 0.  1.
         25    2    1    2    0    0 -0.51204572767E+01 -0.49340139583E+02 -0.48445747400E+02  0.14302121782E+03  0.12508960727E+03 0.  0.
          5    1    3    3  502    0 -0.17361052319E+01 -0.61138919877E+02  0.26625465070E+02  0.66838382500E+02  0.41800000000E+01 0. -1.
         -5    1    3    3    0  502 -0.33843520449E+01  0.11798780294E+02 -0.75071212470E+02  0.76182835317E+02  0.41800000000E+01 0. -1.
        -11    1    1    2    0    0  0.37941430225E+02  0.49762669172E+02 -0.57173976379E+02  0.84762839415E+02  0.00000000000E+00 0.  1.
         11    1    1    2    0    0 -0.32820972949E+02 -0.42252958929E+00 -0.52087195691E+00  0.32827825151E+02  0.00000000000E+00 0. -1.
</event>
<event>
 7    1  0.2900135E-009  0.9646752E+02  0.7561462E-02  0.1287905E+00
          2   -1    0    0  501    0  0.00000000000E+00  0.00000000000E+00  0.28581579548E+03  0.28581579548E+03  0.00000000000E+00 0. -1.
         -2   -1    0    0    0  501 -0.00000000000E+00 -0.00000000000E+00 -0.50963660034E+02  0.50963660034E+02  0.00000000000E+00 0.  1.
         25    2    1    2    0    0  0.85210111714E+01  0.21912476213E+02  0.20359231962E+03  0.24011425714E+03  0.12510899101E+03 0.  0.
          5    1    3    3  502    0 -0.51780551124E+02 -0.41325171355E+00  0.44270801850E+02  0.68255201620E+02  0.41800000000E+01 0. -1.
         -5    1    3    3    0  502  0.60301562296E+02  0.22325727927E+02  0.15932151777E+03  0.17185905552E+03  0.41800000000E+01 0. -1.
        -11    1    1    2    0    0 -0.36913952527E+02 -0.29391115250E+02 -0.77735935226E+01  0.47821609164E+02  0.00000000000E+00 0.  1.
         11    1    1    2    0    0  0.28392941356E+02  0.74786390370E+01  0.39033409352E+02  0.48843589204E+02  0.00000000000E+00 0. -1.
</event>
<event>
 7    1  0.2900135E-009  0.1815647E+03  0.7561462E-02  0.1166297E+00
          4   -1    0    0  501    0  0.00000000000E+00  0.00000000000E+00  0.74433134792E+03  0.74433134792E+03  0.00000000000E+00 0.  1.
         -4   -1    0    0    0  501 -0.00000000000E+00 -0.00000000000E+00 -0.59198646886E+02  0.59198646886E+02  0.00000000000E+00 0. -1.
         25    2    1    2    0    0  0.75125552396E+02 -0.15050891417E+03  0.47833312680E+03  0.52224929821E+03  0.12507984419E+03 0.  0.
          5    1    3    3  502    0  0.85009665180E+02 -0.83097508946E+02  0.17682794312E+03  0.21311366224E+03  0.41800000000E+01 0.  1.
         -5    1    3    3    0  502 -0.98841127847E+01 -0.67411405228E+02  0.30150518368E+03  0.30913563597E+03  0.41800000000E+01 0.  1.
        -11    1    1    2    0    0 -0.82535067647E+02  0.12876004535E+03  0.20811195464E+03  0.25826686263E+03  0.00000000000E+00 0.  1.
         11    1    1    2    0    0  0.74095152509E+01  0.21748868826E+02 -0.13123804003E+01  0.23013833965E+02  0.00000000000E+00 0. -1.
</event>
<event>
 7    1  0.2900135E-009  0.6985082E+02  0.7561462E-02  0.1360601E+00
          2   -1    0    0  501    0  0.00000000000E+00  0.00000000000E+00  0.53393407122E+02  0.53393407122E+02  0.00000000000E+00 0. -1.
         -2   -1    0    0    0  501 -0.00000000000E+00 -0.00000000000E+00 -0.27443611609E+03  0.27443611609E+03  0.00000000000E+00 0.  1.
         25    2    1    2    0    0 -0.35378710399E+02  0.88182096833E+01 -0.71071928124E+02  0.14841996194E+03  0.12509137526E+03 0.  0.
          5    1    3    3  502    0 -0.36730444758E+02  0.12550351061E+02  0.28717322383E+02  0.48464356890E+02  0.41800000000E+01 0.  1.
         -5    1    3    3    0  502  0.13517343580E+01 -0.37321413781E+01 -0.99789250508E+02  0.99955605055E+02  0.41800000000E+01 0.  1.
        -11    1    1    2    0    0 -0.16613697168E+02  0.27041852370E+02 -0.29230422322E+02  0.43147355681E+02  0.00000000000E+00 0. -1.
         11    1    1    2    0    0  0.51992407567E+02 -0.35860062053E+02 -0.12074035853E+03  0.13626220559E+03  0.00000000000E+00 0.  1.
</event>
<event>
 7    1  0.2900135E-009  0.1775838E+03  0.7561462E-02  0.1170162E+00
          2   -1    0    0  501    0  0.00000000000E+00  0.00000000000E+00  0.10377245666E+03  0.10377245666E+03  0.00000000000E+00 0. -1.
         -2   -1    0    0    0  501 -0.00000000000E+00 -0.00000000000E+00 -0.33330047556E+03  0.33330047556E+03  0.00000000000E+00 0.  1.
         25    2    1    2    0    0  0.65870572461E+02 -0.13711169548E+03 -0.17088064544E+03  0.26074056048E+03  0.12508755150E+03 0.  0.
          5    1    3    3  502    0  0.64154061165E+02 -0.12088845016E+02 -0.91850123327E+02  0.11276436180E+03  0.41800000000E+01 0. -1.
         -5    1    3    3    0  502  0.17165112966E+01 -0.12502285047E+03 -0.79030522111E+02  0.14797619868E+03  0.41800000000E+01 0. -1.
        -11    1    1    2    0    0 -0.46476975810E+02  0.28941842086E+02 -0.80171194987E+01  0.55335465199E+02  0.00000000000E+00 0.  1.
         11    1    1    2    0    0 -0.19393596652E+02  0.10816985340E+03 -0.50630253967E+02  0.12099690654E+03  0.00000000000E+00 0. -1.
</event>
<event>
 7    1  0.2900135E-009  0.1006189E+03  0.7561462E-02  0.1279000E+00
          2   -1    0    0  501    0  0.00000000000E+00  0.00000000000E+00  0.14057583590E+03  0.14057583590E+03  0.00000000000E+00 0. -1.
         -2   -1    0    0    0  501 -0.00000000000E+00 -0.00000000000E+00 -0.16962968532E+03  0.16962968532E+03  0.00000000000E+00 0.  1.
         25    2    1    2    0    0 -0.50491171591E+01 -0.55820225834E+02  0.79840576903E+02  0.15863211054E+03  0.12509291578E+03 0.  0.
          5    1    3    3  502    0 -0.46983890986E+02 -0.12192810036E+02 -0.10479190338E+02  0.49834089326E+02  0.41800000000E+01 0.  1.
         -5    1    3    3    0  502  0.41934773827E+02 -0.43627415798E+02  0.90319767241E+02  0.10879802121E+03  0.41800000000E+01 0.  1.
        -11    1    1    2    0    0  0.13926646601E+02 -0.15010189399E+02  0.10328552077E+01  0.20501806292E+02  0.00000000000E+00 0. -1.
         11    1    1    2    0    0 -0.88775294422E+01  0.70830415233E+02 -0.10992728153E+03  0.13107160438E+03  0.00000000000E+00 0.  1.
</event>
<event>
 7    1  0.2900135E-009  0.1217374E+03  0.7561462E-02  0.1240258E+00
         -2   -1    0    0    0  501 -0.00000000000E+00  0.00000000000E+00  0.43378513797E+02  0.43378513797E+02  0.00000000000E+00 0.  1.
          2   -1    0    0  501    0  0.00000000000E+00 -0.00000000000E+00 -0.36398002863E+03  0.36398002863E+03  0.00000000000E+00 0. -1.
         25    2    1    2    0    0 -0.15470889147E+02  0.57429911406E+02 -0.21208575989E+03  0.25330635631E+03  0.12508476112E+03 0.  0.
          5    1    3    3  502    0  0.43483763726E+02  0.61277229028E+02 -0.87855296937E+02  0.11567956650E+03  0.41800000000E+01 0. -1.
         -5    1    3    3    0  502 -0.58954652873E+02 -0.38473176220E+01 -0.12423046295E+03  0.13762678981E+03  0.41800000000E+01 0. -1.
        -11    1    1    2    0    0  0.54033637648E+02 -0.35058232075E+02 -0.57986823355E+02  0.86667094773E+02  0.00000000000E+00 0. -1.
         11    1    1    2    0    0 -0.38562748501E+02 -0.22371679331E+02 -0.50528931589E+02  0.67385091345E+02  0.00000000000E+00 0.  1.
</event>
<event>
 7    1  0.2900135E-009  0.2004645E+03  0.7561462E-02  0.1149348E+00
          1   -1    0    0  501    0  0.00000000000E+00  0.00000000000E+00  0.48046670812E+03  0.48046670812E+03  0.00000000000E+00 0. -1.
         -1   -1    0    0    0  501 -0.00000000000E+00 -0.00000000000E+00 -0.12190567546E+03  0.12190567546E+03  0.00000000000E+00 0.  1.
         25    2    1    2    0    0  0.45417889992E+02 -0.18876703924E+03  0.30317717276E+03  0.38112908661E+03  0.12508877943E+03 0.  0.
          5    1    3    3  502    0  0.54975428210E+02 -0.10353071304E+03  0.79942998649E+02  0.14194809503E+03  0.41800000000E+01 0.  1.
         -5    1    3    3    0  502 -0.95575382180E+01 -0.85236326206E+02  0.22323417411E+03  0.23918099158E+03  0.41800000000E+01 0.  1.
        -11    1    1    2    0    0  0.32715329564E+01  0.60103586740E+02  0.58085952723E+02  0.83648801370E+02  0.00000000000E+00 0.  1.
         11    1    1    2    0    0 -0.48689422948E+02  0.12866345250E+03 -0.27020928235E+01  0.13759449561E+03  0.00000000000E+00 0. -1.
</event>
<event>
 7    1  0.2900135E-009  0.2423332E+03  0.7561462E-02  0.1118248E+00
         -2   -1    0    0    0  501 -0.00000000000E+00  0.00000000000E+00  0.11004539058E+03  0.11004539058E+03  0.00000000000E+00 0.  1.
          2   -1    0    0  501    0  0.00000000000E+00 -0.00000000000E+00 -0.64725092604E+03  0.64725092604E+03  0.00000000000E+00 0. -1.
         25    2    1    2    0    0  0.18291671536E+03  0.14365630662E+03 -0.37823439440E+03  0.46130864084E+03  0.12509494722E+03 0.  0.
          5    1    3    3  502    0  0.15594131764E+03  0.10645452696E+03 -0.19151215473E+03  0.26896958688E+03  0.41800000000E+01 0.  1.
         -5    1    3    3    0  502  0.26975397721E+02  0.37201779661E+02 -0.18672223967E+03  0.19233905396E+03  0.41800000000E+01 0.  1.
        -11    1    1    2    0    0 -0.33679943846E+02 -0.81159742566E+02 -0.57120403905E+02  0.10480449882E+03  0.00000000000E+00 0. -1.
         11    1    1    2    0    0 -0.14923677151E+03 -0.62496564054E+02 -0.10185073716E+03  0.19118317695E+03  0.00000000000E+00 0.  1.
</event>
<event>
 7    1  0.2900135E-009  0.1445856E+03  0.7561462E-02  0.1207289E+00
         -2   -1    0    0    0  501 -0.00000000000E+00  0.00000000000E+00  0.10878174797E+03  0.10878174797E+03  0.00000000000E+00 0.  1.
          2   -1    0    0  501    0  0.00000000000E+00 -0.00000000000E+00 -0.20295561430E+03  0.20295561430E+03  0.00000000000E+00 0. -1.
         25    2    1    2    0    0  0.11663235239E+03  0.61606329383E+01 -0.60349143037E+02  0.18146965840E+03  0.12509260103E+03 0.  0.
          5    1    3    3  502    0  0.14204381714E+03  0.11941574245E+02 -0.60910912342E+02  0.15506985144E+03  0.41800000000E+01 0.  1.
         -5    1    3    3    0  502 -0.25411464749E+02 -0.57809413067E+01  0.56176930515E+00  0.26399806965E+02  0.41800000000E+01 0.  1.
        -11    1    1    2    0    0 -0.87466420638E+02 -0.16912647718E+02 -0.72662632565E+01  0.89382386261E+02  0.00000000000E+00 0.  1.
         11    1    1    2    0    0 -0.29165931749E+02  0.10752014780E+02 -0.26558460040E+02  0.40885317613E+02  0.00000000000E+00 0. -1.
</event>
<event>
 7    1  0.2900135E-009  0.8392364E+02  0.7561462E-02  0.1318272E+00
         -1   -1    0    0    0  501 -0.00000000000E+00  0.00000000000E+00  0.31675855657E+02  0.31675855657E+02  0.00000000000E+00 0.  1.
          1   -1    0    0  501    0  0.00000000000E+00 -0.00000000000E+00 -0.41154214662E+03  0.41154214662E+03  0.00000000000E+00 0. -1.
         25    2    1    2    0    0  0.10783591069E+02  0.28914111866E+02 -0.17400919017E+03  0.21651272764E+03  0.12508497618E+03 0.  0.
          5    1    3    3  502    0  0.13123732768E+02  0.59179571472E+02 -0.27255676623E+02  0.66594281658E+02  0.41800000000E+01 0. -1.
         -5    1    3    3    0  502 -0.23401416986E+01 -0.30265459607E+02 -0.14675351354E+03  0.14991844598E+03  0.41800000000E+01 0. -1.
        -11    1    1    2    0    0  0.29474674468E+02 -0.58591990343E+01 -0.22421656425E+02  0.37494230559E+02  0.00000000000E+00 0.  1.
         11    1    1    2    0    0 -0.40258265537E+02 -0.23054912831E+02 -0.18343544437E+03  0.18921104408E+03  0.00000000000E+00 0. -1.
</event>
<event>
 7    1  0.4230177E-009  0.1186645E+03  0.7561462E-02  0.1245317E+00
         -2   -1    0    0    0  501 -0.00000000000E+00  0.00000000000E+00  0.34325886716E+02  0.34325886716E+02  0.00000000000E+00 0. -1.
          2   -1    0    0  501    0  0.00000000000E+00 -0.00000000000E+00 -0.43767932896E+03  0.43767932896E+03  0.00000000000E+00 0.  1.
         25    2    1    2    0    0  0.54261063890E+01 -0.51551359507E+02 -0.17844593733E+03  0.22400053313E+03  0.12508517497E+03 0.  0.
          5    1    3    3  502    0  0.64559945360E+02 -0.34756869217E+02 -0.89029461144E+02  0.11541119467E+03  0.41800000000E+01 0. -1.
         -5    1    3    3    0  502 -0.59133838971E+02 -0.16794490290E+02 -0.89416476186E+02  0.10858933847E+03  0.41800000000E+01 0. -1.
        -11    1    1    2    0    0 -0.33887492059E+02  0.63048414123E+02 -0.13200651327E+03  0.15016385779E+03  0.00000000000E+00 0.  1.
         11    1    1    2    0    0  0.28461385670E+02 -0.11497054616E+02 -0.92900991645E+02  0.97840824750E+02  0.00000000000E+00 0. -1.
</event>
<event>
 7    1  0.2911763E-009  0.1021794E+03  0.7561462E-02  0.1275779E+00
          3   -1    0    0  501    0  0.00000000000E+00  0.00000000000E+00  0.46370867183E+03  0.46370867183E+03  0.00000000000E+00 0. -1.
         -3   -1    0    0    0  501 -0.00000000000E+00 -0.00000000000E+00 -0.43192676846E+02  0.43192676846E+02  0.00000000000E+00 0.  1.
         25    2    1    2    0    0  0.85661411960E+01  0.59223521302E+02  0.10652379042E+03  0.17485928731E+03  0.12509055993E+03 0.  0.
          5    1    3    3  502    0  0.82594538291E+01  0.91867114433E+02  0.10778251198E+03  0.14192366815E+03  0.41800000000E+01 0.  1.
         -5    1    3    3    0  502  0.30668736697E+00 -0.32643593130E+02 -0.12587215604E+01  0.32935619162E+02  0.41800000000E+01 0.  1.
        -11    1    1    2    0    0 -0.26379568832E+02 -0.54711477756E+02  0.30605723744E+03  0.31202605666E+03  0.00000000000E+00 0. -1.
         11    1    1    2    0    0  0.17813427635E+02 -0.45120435467E+01  0.79349671351E+01  0.20016004709E+02  0.00000000000E+00 0.  1.
</event>
<event>
 7    1  0.2900135E-009  0.7525145E+02  0.7561462E-02  0.1343094E+00
          2   -1    0    0  501    0  0.00000000000E+00  0.00000000000E+00  0.83151297808E+02  0.83151297808E+02  0.00000000000E+00 0. -1.
         -2   -1    0    0    0  501 -0.00000000000E+00 -0.00000000000E+00 -0.22036209321E+03  0.22036209321E+03  0.00000000000E+00 0.  1.
         25    2    1    2    0    0  0.61710231310E+02 -0.20859079088E+02 -0.12995455324E+03  0.19177925798E+03  0.12509134285E+03 0.  0.
          5    1    3    3  502    0 -0.46919368502E+00 -0.10433113123E+02  0.23374896961E+02  0.25940859664E+02  0.41800000000E+01 0.  1.
         -5    1    3    3    0  502  0.62179424995E+02 -0.10425965965E+02 -0.15332945020E+03  0.16583839832E+03  0.41800000000E+01 0.  1.
        -11    1    1    2    0    0 -0.24459981527E+02 -0.11218062435E+02  0.36890652010E+02  0.45662411531E+02  0.00000000000E+00 0. -1.
         11    1    1    2    0    0 -0.37250249783E+02  0.32077141523E+02 -0.44146894176E+02  0.66071721505E+02  0.00000000000E+00 0.  1.
</event>
<event>
 7    1  0.2900135E-009  0.1214182E+03  0.7561462E-02  0.1240776E+00
         -1   -1    0    0    0  501 -0.00000000000E+00  0.00000000000E+00  0.92382054227E+02  0.92382054227E+02  0.00000000000E+00 0. -1.
          1   -1    0    0  501    0  0.00000000000E+00 -0.00000000000E+00 -0.28042878592E+03  0.28042878592E+03  0.00000000000E+00 0.  1.
         25    2    1    2    0    0  0.82974856680E+02  0.59954237647E+02 -0.17165420440E+03  0.23577921138E+03  0.12508930081E+03 0.  0.
          5    1    3    3  502    0  0.67379961974E+02  0.23161703219E+02 -0.13546913729E+02  0.72646507439E+02  0.41800000000E+01 0. -1.
         -5    1    3    3    0  502  0.15594894706E+02  0.36792534427E+02 -0.15810729067E+03  0.16313270394E+03  0.41800000000E+01 0. -1.
        -11    1    1    2    0    0 -0.45892285311E+02 -0.77649144253E+02  0.57071579707E+01  0.90377337350E+02  0.00000000000E+00 0. -1.
         11    1    1    2    0    0 -0.37082571369E+02  0.17694906606E+02 -0.22099685264E+02  0.46654291420E+02  0.00000000000E+00 0.  1.
</event>
<event>
 7    1  0.2900135E-009  0.7100045E+02  0.7561462E-02  0.1356724E+00
          2   -1    0    0  501    0  0.00000000000E+00  0.00000000000E+00  0.96130723668E+02  0.96130723668E+02  0.00000000000E+00 0. -1.
         -2   -1    0    0    0  501 -0.00000000000E+00 -0.00000000000E+00 -0.15534976964E+03  0.15534976964E+03  0.00000000000E+00 0.  1.
         25    2    1    2    0    0 -0.38662239993E+02 -0.11259849473E+02 -0.74918447358E+02  0.15126889262E+03  0.12509177075E+03 0.  0.
          5    1    3    3  502    0 -0.20387414690E+02 -0.20305703226E+02 -0.10818646512E+03  0.11202567517E+03  0.41800000000E+01 0.  1.
         -5    1    3    3    0  502 -0.18274825303E+02  0.90458537537E+01  0.33268017764E+02  0.39243217452E+02  0.41800000000E+01 0.  1.
        -11    1    1    2    0    0 -0.22603316461E+02 -0.13161258506E+02 -0.11875710291E+02  0.28725618103E+02  0.00000000000E+00 0.  1.
         11    1    1    2    0    0  0.61265556454E+02  0.24421107979E+02  0.27575111675E+02  0.71485982587E+02  0.00000000000E+00 0. -1.
</event>
<event>
 7    1  0.3710646E-009  0.9542382E+02  0.7561462E-02  0.1290224E+00
         -1   -1    0    0    0  501 -0.00000000000E+00  0.00000000000E+00  0.36387313972E+02  0.36387313972E+02  0.00000000000E+00 0.  1.
          1   -1    0    0  501    0  0.00000000000E+00 -0.00000000000E+00 -0.52067659137E+03  0.52067659137E+03  0.00000000000E+00 0. -1.
         25    2    1    2    0    0  0.61472023346E+02  0.32530845041E+02 -0.36150035725E+03  0.38880178919E+03  0.12508899813E+03 0.  0.
          5    1    3    3  502    0  0.44376563927E+02  0.49342415612E+02 -0.70967493347E+02  0.97251277196E+02  0.41800000000E+01 0.  1.
         -5    1    3    3    0  502  0.17095459419E+02 -0.16811570570E+02 -0.29053286390E+03  0.29155051199E+03  0.41800000000E+01 0.  1.
        -11    1    1    2    0    0 -0.63953427956E+02  0.33574377082E+01 -0.34098405176E+02  0.72553529003E+02  0.00000000000E+00 0.  1.
         11    1    1    2    0    0  0.24814046098E+01 -0.35888282749E+02 -0.88690514972E+02  0.95708587147E+02  0.00000000000E+00 0. -1.
</event>
<event>
 7    1  0.2900135E-009  0.1124718E+03  0.7561462E-02  0.1256060E+00
         -3   -1    0    0    0  501 -0.00000000000E+00  0.00000000000E+00  0.27887226140E+02  0.27887226140E+02  0.00000000000E+00 0.  1.
          3   -1    0    0  501    0  0.00000000000E+00 -0.00000000000E+00 -0.45636655090E+03  0.45636655090E+03  0.00000000000E+00 0. -1.
         25    2    1    2    0    0  0.10981657865E+02  0.17423034260E+02 -0.23968814129E+03  0.27114951206E+03  0.12508994316E+03 0.  0.
          5    1    3    3  502    0  0.21385140167E+02 -0.51827407911E+02 -0.96018261975E+02  0.11126717154E+03  0.41800000000E+01 0.  1.
         -5    1    3    3    0  502 -0.10403482302E+02  0.69250442171E+02 -0.14366987932E+03  0.15988234051E+03  0.41800000000E+01 0.  1.
        -11    1    1    2    0    0  0.16256247344E+01 -0.57005170409E+02 -0.11706095462E+03  0.13021328352E+03  0.00000000000E+00 0.  1.
         11    1    1    2    0    0 -0.12607282599E+02  0.39582136149E+02 -0.71730228840E+02  0.82890981452E+02  0.00000000000E+00 0. -1.
</event>
<event>
 7    1  0.2900135E-009  0.9037261E+02  0.7561462E-02  0.1301952E+00
          2   -1    0    0  501    0  0.00000000000E+00  0.00000000000E+00  0.25510928070E+02  0.25510928070E+02  0.00000000000E+00 0. -1.
         -2   -1    0    0    0  501 -0.00000000000E+00 -0.00000000000E+00 -0.50448040037E+03  0.50448040037E+03  0.00000000000E+00 0.  1.
         25    2    1    2    0    0 -0.88116057807E+01  0.52331687015E+01 -0.35748423518E+03  0.37887646989E+03  0.12508945035E+03 0.  0.
          5    1    3    3  502    0 -0.69477272894E+01  0.48408256330E+02 -0.56778936282E+02  0.75052982624E+02  0.41800000000E+01 0.  1.
         -5    1    3    3    0  502 -0.18638784913E+01 -0.43175087629E+02 -0.30070529889E+03  0.30382348727E+03  0.41800000000E+01 0.  1.
        -11    1    1    2    0    0 -0.13732692968E+02 -0.42514800386E+02 -0.47169464963E+02  0.64969635469E+02  0.00000000000E+00 0.  1.
         11    1    1    2    0    0  0.22544298749E+02  0.37281631685E+02 -0.74315772163E+02  0.86145223079E+02  0.00000000000E+00 0. -1.
</event>
<event>
 7    1  0.2900135E-009  0.1435719E+03  0.7561462E-02  0.1208602E+00
         -1   -1    0    0    0  501 -0.00000000000E+00  0.00000000000E+00  0.79328120822E+02  0.79328120822E+02  0.00000000000E+00 0.  1.
          1   -1    0    0  501    0  0.00000000000E+00 -0.00000000000E+00 -0.45419886975E+03  0.45419886975E+03  0.00000000000E+00 0. -1.
         25    2    1    2    0    0 -0.26501943559E+02 -0.94704695436E+02 -0.36410607319E+03  0.39735594245E+03  0.12508868901E+03 0.  0.
          5    1    3    3  502    0  0.49322649977E+02 -0.22655708724E+02 -0.12434578792E+03  0.13574001736E+03  0.41800000000E+01 0. -1.
         -5    1    3    3    0  502 -0.75824593536E+02 -0.72048986712E+02 -0.23976028527E+03  0.26161592509E+03  0.41800000000E+01 0. -1.
        -11    1    1    2    0    0 -0.24279232347E+02  0.64553252184E+02  0.16818562511E+02  0.70989207179E+02  0.00000000000E+00 0.  1.
         11    1    1    2    0    0  0.50781175906E+02  0.30151443252E+02 -0.27583238254E+02  0.65181840947E+02  0.00000000000E+00 0. -1.
</event>
<event>
 7    1  0.2900135E-009  0.9053318E+02  0.7561462E-02  0.1301566E+00
         -3   -1    0    0    0  501 -0.00000000000E+00  0.00000000000E+00  0.16762596173E+03  0.16762596173E+03  0.00000000000E+00 0.  1.
          3   -1    0    0  501    0  0.00000000000E+00 -0.00000000000E+00 -0.88445026373E+02  0.88445026373E+02  0.00000000000E+00 0. -1.
         25    2    1    2    0    0 -0.31917546207E+02  0.40133729186E+02  0.19185437282E+02  0.13654712180E+03  0.12509032534E+03 0.  0.
          5    1    3    3  502    0  0.18068907458E+01 -0.41296962143E+02 -0.11529030530E+02  0.43117222561E+02  0.41800000000E+01 0. -1.
         -5    1    3    3    0  502 -0.33724436953E+02  0.81430691329E+02  0.30714467812E+02  0.93429899235E+02  0.41800000000E+01 0. -1.
        -11    1    1    2    0    0  0.11754050063E+02 -0.15275131302E+02 -0.23330204747E+02  0.30261952725E+02  0.00000000000E+00 0. -1.
         11    1    1    2    0    0  0.20163496143E+02 -0.24858597884E+02  0.83325702823E+02  0.89261913583E+02  0.00000000000E+00 0.  1.
</event>
<event>
 7    1  0.2900135E-009  0.6495577E+02  0.7561462E-02  0.1378138E+00
          1   -1    0    0  501    0  0.00000000000E+00  0.00000000000E+00  0.23167855771E+03  0.23167855771E+03  0.00000000000E+00 0. -1.
         -1   -1    0    0    0  501 -0.00000000000E+00 -0.00000000000E+00 -0.10590423384E+03  0.10590423384E+03  0.00000000000E+00 0.  1.
         25    2    1    2    0    0  0.17204704223E+02  0.27566024409E+02  0.18415644854E+03  0.22498132138E+03  0.12508840827E+03 0.  0.
          5    1    3    3  502    0  0.23086406372E+02  0.34139079520E+02  0.20115706405E+03  0.20537793388E+03  0.41800000000E+01 0.  1.
         -5    1    3    3    0  502 -0.58817021486E+01 -0.65730551118E+01 -0.17000615511E+02  0.19603387499E+02  0.41800000000E+01 0.  1.
        -11    1    1    2    0    0 -0.15394954947E+02  0.23246660389E+02 -0.54976378223E+02  0.61642631511E+02  0.00000000000E+00 0.  1.
         11    1    1    2    0    0 -0.18097492760E+01 -0.50812684798E+02 -0.34057464481E+01  0.50958838661E+02  0.00000000000E+00 0. -1.
</event>
<event>
 7    1  0.2900135E-009  0.1000141E+03  0.7561462E-02  0.1280266E+00
         -1   -1    0    0    0  501 -0.00000000000E+00  0.00000000000E+00  0.24365540399E+03  0.24365540399E+03  0.00000000000E+00 0.  1.
          1   -1    0    0  501    0  0.00000000000E+00 -0.00000000000E+00 -0.71099250181E+02  0.71099250181E+02  0.00000000000E+00 0. -1.
         25    2    1    2    0    0  0.20605938957E+02 -0.22688661615E+01  0.18136489818E+03  0.22129279366E+03  0.12509005461E+03 0.  0.
          5    1    3    3  502    0 -0.39584392896E+02 -0.28705519998E+02  0.12608124118E+03  0.13529553879E+03  0.41800000000E+01 0.  1.
         -5    1    3    3    0  502  0.60190331853E+02  0.26436653836E+02  0.55283657005E+02  0.85997254878E+02  0.41800000000E+01 0.  1.
        -11    1    1    2    0    0  0.10255994142E+02 -0.35127048724E+02  0.14873843232E+02  0.39500964297E+02  0.00000000000E+00 0.  1.
         11    1    1    2    0    0 -0.30861933099E+02  0.37395914885E+02 -0.23682587600E+02  0.53960896213E+02  0.00000000000E+00 0. -1.
</event>
<event>
 7    1  0.2900135E-009  0.1556621E+03  0.7561462E-02  0.1193683E+00
         -2   -1    0    0    0  501 -0.00000000000E+00  0.00000000000E+00  0.16368306818E+03  0.16368306818E+03  0.00000000000E+00 0.  1.
          2   -1    0    0  501    0  0.00000000000E+00 -0.00000000000E+00 -0.19048490259E+03  0.19048490259E+03  0.00000000000E+00 0. -1.
         25    2    1    2    0    0 -0.91116400574E+02  0.10189309918E+03 -0.40880115197E+02  0.18974221918E+03  0.12508606559E+03 0.  0.
          5    1    3    3  502    0  0.22455330435E+02  0.25707258610E+02 -0.40221782103E+02  0.52918514395E+02  0.41800000000E+01 0. -1.
         -5    1    3    3    0  502 -0.11357173101E+03  0.76185840568E+02 -0.65833309326E+00  0.13682370478E+03  0.41800000000E+01 0. -1.
        -11    1    1    2    0    0  0.50404971744E+02 -0.33504510050E+02 -0.35972027388E+02  0.70407386861E+02  0.00000000000E+00 0. -1.
         11    1    1    2    0    0  0.40711428830E+02 -0.68388589128E+02  0.50050308175E+02  0.94018364742E+02  0.00000000000E+00 0.  1.
</event>
<event>
 7    1  0.2900135E-009  0.1371978E+03  0.7561462E-02  0.1217150E+00
          1   -1    0    0  501    0  0.00000000000E+00  0.00000000000E+00  0.41460333824E+03  0.41460333824E+03  0.00000000000E+00 0. -1.
         -1   -1    0    0    0  501 -0.00000000000E+00 -0.00000000000E+00 -0.57199587388E+02  0.57199587388E+02  0.00000000000E+00 0.  1.
         25    2    1    2    0    0  0.83317811779E+02 -0.46078228864E+02  0.27416276206E+03  0.31603469003E+03  0.12509054429E+03 0.  0.
          5    1    3    3  502    0  0.15203040361E+02 -0.79329488833E+02  0.13001984802E+03  0.15312391555E+03  0.41800000000E+01 0.  1.
         -5    1    3    3    0  502  0.68114771418E+02  0.33251259968E+02  0.14414291403E+03  0.16291077448E+03  0.41800000000E+01 0.  1.
        -11    1    1    2    0    0 -0.44734193391E+02 -0.13405995911E+02  0.69209295086E+02  0.83491288834E+02  0.00000000000E+00 0. -1.
         11    1    1    2    0    0 -0.38583618388E+02  0.59484224776E+02  0.14031693710E+02  0.72276946764E+02  0.00000000000E+00 0.  1.
</event>
<event>
 7    1  0.2900135E-009  0.9577424E+02  0.7561462E-02  0.1289442E+00
          1   -1    0    0  501    0  0.00000000000E+00  0.00000000000E+00  0.19247230630E+03  0.19247230630E+03  0.00000000000E+00 0. -1.
         -1   -1    0    0    0  501 -0.00000000000E+00 -0.00000000000E+00 -0.96600673581E+02  0.96600673581E+02  0.00000000000E+00 0.  1.
         25    2    1    2    0    0 -0.93337167835E+01  0.77639053731E+02  0.82226535211E+02  0.16889103006E+03  0.12509211009E+03 0.  0.
          5    1    3    3  502    0  0.77280498351E+00 -0.12172444877E+02 -0.25281094892E+02  0.28379073289E+02  0.41800000000E+01 0.  1.
         -5    1    3    3    0  502 -0.10106521767E+02  0.89811498608E+02  0.10750763010E+03  0.14051195677E+03  0.41800000000E+01 0.  1.
        -11    1    1    2    0    0  0.20792587526E+02 -0.72852827315E+02  0.43840945870E+02  0.87532249363E+02  0.00000000000E+00 0. -1.
         11    1    1    2    0    0 -0.11458870742E+02 -0.47862264160E+01 -0.30195848361E+02  0.32649700462E+02  0.00000000000E+00 0.  1.
</event>
<event>
 7    1  0.2900135E-009  0.1813629E+03  0.7561462E-02  0.1166490E+00
          2   -1    0    0  501    0  0.00000000000E+00  0.00000000000E+00  0.23405631779E+03  0.23405631779E+03  0.00000000000E+00 0. -1.
         -2   -1    0    0    0  501 -0.00000000000E+00 -0.00000000000E+00 -0.50523933024E+03  0.50523933024E+03  0.00000000000E+00 0.  1.
         25    2    1    2    0    0  0.10373886720E+03  0.10326891833E+03 -0.45086152181E+03  0.49025478560E+03  0.12508965144E+03 0.  0.
          5    1    3    3  502    0 -0.17027124457E+02  0.62575159933E+02 -0.14677040299E+03  0.16051354211E+03  0.41800000000E+01 0. -1.
         -5    1    3    3    0  502  0.12076599166E+03  0.40693758399E+02 -0.30409111882E+03  0.32974124349E+03  0.41800000000E+01 0. -1.
        -11    1    1    2    0    0 -0.19682325818E+02  0.15274564632E+02  0.42138344857E+02  0.48952491066E+02  0.00000000000E+00 0. -1.
         11    1    1    2    0    0 -0.84056541385E+02 -0.11854348296E+03  0.13754016450E+03  0.20008837136E+03  0.00000000000E+00 0.  1.
</event>
<event>
 7    1  0.2900135E-009  0.1104163E+03  0.7561462E-02  0.1259801E+00
          1   -1    0    0  501    0  0.00000000000E+00  0.00000000000E+00  0.11452820882E+04  0.11452820882E+04  0.00000000000E+00 0. -1.
         -1   -1    0    0    0  501 -0.00000000000E+00 -0.00000000000E+00 -0.29244211514E+02  0.29244211514E+02  0.00000000000E+00 0.  1.
         25    2    1    2    0    0 -0.70847861906E+02  0.21691848519E+02  0.10020874839E+04  0.10125792345E+04  0.12508966761E+03 0.  0.
          5    1    3    3  502    0  0.21192221664E+02  0.19306114604E+02  0.67450988140E+02  0.73409430738E+02  0.41800000000E+01 0. -1.
         -5    1    3    3    0  502 -0.92040083570E+02  0.23857339144E+01  0.93463649575E+03  0.93916980376E+03  0.41800000000E+01 0. -1.
        -11    1    1    2    0    0  0.29597401511E+00  0.18497680198E+02  0.63992809294E+02  0.66613297582E+02  0.00000000000E+00 0. -1.
         11    1    1    2    0    0  0.70551887891E+02 -0.40189528717E+02  0.49957583520E+02  0.95333767651E+02  0.00000000000E+00 0.  1.
</event>
<event>
 7    1  0.2900135E-009  0.1512253E+03  0.7561462E-02  0.1198975E+00
          2   -1    0    0  501    0  0.00000000000E+00  0.00000000000E+00  0.25643691907E+03  0.25643691907E+03  0.00000000000E+00 0. -1.
         -2   -1    0    0    0  501 -0.00000000000E+00 -0.00000000000E+00 -0.10055744988E+03  0.10055744988E+03  0.00000000000E+00 0.  1.
         25    2    1    2    0    0 -0.10913058776E+03 -0.39598723193E+02  0.11461675334E+03  0.20556466899E+03  0.12506913658E+03 0.  0.
          5    1    3    3  502    0 -0.14819582136E+01 -0.56185919967E+02  0.64322988549E+02  0.85521769501E+02  0.41800000000E+01 0. -1.
         -5    1    3    3    0  502 -0.10764862955E+03  0.16587196774E+02  0.50293764791E+02  0.12004289949E+03  0.41800000000E+01 0. -1.
        -11    1    1    2    0    0  0.78018377019E+02 -0.98817226696E+01 -0.20713398323E+01  0.78668964937E+02  0.00000000000E+00 0.  1.
         11    1    1    2    0    0  0.31112210742E+02  0.49480445862E+02  0.43334055678E+02  0.72760735026E+02  0.00000000000E+00 0. -1.
</event>
<event>
 7    1  0.2900135E-009  0.8367782E+02  0.7561462E-02  0.1318927E+00
          2   -1    0    0  501    0  0.00000000000E+00  0.00000000000E+00  0.18839857480E+03  0.18839857480E+03  0.00000000000E+00 0. -1.
         -2   -1    0    0    0  501 -0.00000000000E+00 -0.00000000000E+00 -0.55269336093E+02  0.55269336093E+02  0.00000000000E+00 0.  1.
         25    2    1    2    0    0 -0.33971520320E+00  0.38987525630E+02  0.62389907690E+02  0.14512115693E+03  0.12508999579E+03 0.  0.
          5    1    3    3  502    0 -0.36657112282E+02  0.58292998005E+02 -0.15212580529E+01  0.69004377567E+02  0.41800000000E+01 0.  1.
         -5    1    3    3    0  502  0.36317397079E+02 -0.19305472375E+02  0.63911165743E+02  0.76116779365E+02  0.41800000000E+01 0.  1.
        -11    1    1    2    0    0  0.73103588693E+01  0.72326421136E+01  0.42956934106E+02  0.44170698959E+02  0.00000000000E+00 0.  1.
         11    1    1    2    0    0 -0.69706436661E+01 -0.46220167744E+02  0.27782396909E+02  0.54376055000E+02  0.00000000000E+00 0. -1.
</event>
<event>
 7    1  0.2900135E-009  0.1068466E+03  0.7561462E-02  0.1266523E+00
          1   -1    0    0  501    0  0.00000000000E+00  0.00000000000E+00  0.75866965801E+02  0.75866965801E+02  0.00000000000E+00 0. -1.
         -1   -1    0    0    0  501 -0.00000000000E+00 -0.00000000000E+00 -0.24367484685E+03  0.24367484685E+03  0.00000000000E+00 0.  1.
         25    2    1    2    0    0 -0.38286656809E+02  0.58987629986E+02 -0.42331154714E+02  0.14960161147E+03  0.12507320622E+03 0.  0.
          5    1    3    3  502    0 -0.40153404460E+02 -0.19874765086E+02  0.19740393951E+02  0.49137131889E+02  0.41800000000E+01 0.  1.
         -5    1    3    3    0  502  0.18667476509E+01  0.78862395072E+02 -0.62071548664E+02  0.10046447958E+03  0.41800000000E+01 0.  1.
        -11    1    1    2    0    0 -0.55963990341E+01 -0.42430429525E+02 -0.11383481274E+03  0.12161424926E+03  0.00000000000E+00 0.  1.
         11    1    1    2    0    0  0.43883055843E+02 -0.16557200461E+02 -0.11641913595E+02  0.48325951924E+02  0.00000000000E+00 0. -1.
</event>
<event>
 7    1  0.2900135E-009  0.9836136E+02  0.7561462E-02  0.1283780E+00
         -2   -1    0    0    0  501 -0.00000000000E+00  0.00000000000E+00  0.70293831421E+02  0.70293831421E+02  0.00000000000E+00 0.  1.
          2   -1    0    0  501    0  0.00000000000E+00 -0.00000000000E+00 -0.27668585942E+03  0.27668585942E+03  0.00000000000E+00 0. -1.
         25    2    1    2    0    0  0.64361407901E+02  0.29426955499E+01 -0.18512116048E+03  0.23252485549E+03  0.12508762561E+03 0.  0.
          5    1    3    3  502    0  0.70657004390E+02 -0.78731880180E+01 -0.20019914726E+03  0.21248898870E+03  0.41800000000E+01 0. -1.
         -5    1    3    3    0  502 -0.62955964894E+01  0.10815883568E+02  0.15077986779E+02  0.20035866785E+02  0.41800000000E+01 0. -1.
        -11    1    1    2    0    0 -0.62959605688E+02 -0.40413574685E+02 -0.11376175767E+02  0.75674211871E+02  0.00000000000E+00 0.  1.
         11    1    1    2    0    0 -0.14018022128E+01  0.37470879135E+02 -0.98946917556E+01  0.38780623480E+02  0.00000000000E+00 0. -1.
</event>
<event>
 7    1  0.2900135E-009  0.1207223E+03  0.7561462E-02  0.1241910E+00
          2   -1    0    0  501    0  0.00000000000E+00  0.00000000000E+00  0.52981655162E+03  0.52981655162E+03  0.00000000000E+00 0. -1.
         -2   -1    0    0    0  501 -0.00000000000E+00 -0.00000000000E+00 -0.33744237019E+02  0.33744237019E+02  0.00000000000E+00 0.  1.
         25    2    1    2    0    0  0.79825726090E+02 -0.70614745624E+01  0.31150289652E+03  0.34511494414E+03  0.12509300206E+03 0.  0.
          5    1    3    3  502    0  0.11209231701E+02  0.54710092243E+02  0.12481752743E+03  0.13680544076E+03  0.41800000000E+01 0. -1.
         -5    1    3    3    0  502  0.68616494389E+02 -0.61771566805E+02  0.18668536909E+03  0.20830950339E+03  0.41800000000E+01 0. -1.
        -11    1    1    2    0    0 -0.62457753645E+02 -0.15690643583E+02  0.51857778727E+02  0.82682504201E+02  0.00000000000E+00 0.  1.
         11    1    1    2    0    0 -0.17367972445E+02  0.22752118146E+02  0.13271163935E+03  0.13576334029E+03  0.00000000000E+00 0. -1.
</event>
<event>
 7    1  0.2900135E-009  0.1260530E+03  0.7561462E-02  0.1233433E+00
         -1   -1    0    0    0  501 -0.00000000000E+00  0.00000000000E+00  0.13980310559E+03  0.13980310559E+03  0.00000000000E+00 0.  1.
          1   -1    0    0  501    0  0.00000000000E+00 -0.00000000000E+00 -0.11869808667E+03  0.11869808667E+03  0.00000000000E+00 0. -1.
         25    2    1    2    0    0  0.40286908804E+02 -0.55873870059E+02  0.33826804449E+02  0.14675741197E+03  0.12509420806E+03 0.  0.
          5    1    3    3  502    0 -0.43067093909E+02 -0.55264234650E+01  0.10927918584E+00  0.43621098978E+02  0.41800000000E+01 0.  1.
         -5    1    3    3    0  502  0.83354002713E+02 -0.50347446594E+02  0.33717525264E+02  0.10313631299E+03  0.41800000000E+01 0.  1.
        -11    1    1    2    0    0  0.15032443561E+02 -0.14914533891E+02 -0.22101040096E+01  0.21290895715E+02  0.00000000000E+00 0. -1.
         11    1    1    2    0    0 -0.55319352365E+02  0.70788403950E+02 -0.10511681519E+02  0.90452884577E+02  0.00000000000E+00 0.  1.
</event>
<event>
 7    1  0.2900135E-009  0.1057209E+03  0.7561462E-02  0.1268706E+00
          1   -1    0    0  501    0  0.00000000000E+00  0.00000000000E+00  0.12058341186E+04  0.12058341186E+04  0.00000000000E+00 0. -1.
         -1   -1    0    0    0  501 -0.00000000000E+00 -0.00000000000E+00 -0.15138660221E+02  0.15138660221E+02  0.00000000000E+00 0.  1.
         25    2    1    2    0    0 -0.38752656683E+01  0.27016885142E+02  0.96473864039E+03  0.97319750102E+03  0.12509117463E+03 0.  0.
          5    1    3    3  502    0  0.55118320101E+02  0.26480326110E+02  0.32487093369E+03  0.33060222752E+03  0.41800000000E+01 0. -1.
         -5    1    3    3    0  502 -0.58993585769E+02  0.53655903248E+00  0.63986770670E+03  0.64259527351E+03  0.41800000000E+01 0. -1.
        -11    1    1    2    0    0 -0.40117823057E+02 -0.14949833492E+01  0.15724001666E+03  0.16228400273E+03  0.00000000000E+00 0.  1.
         11    1    1    2    0    0  0.43993088725E+02 -0.25521901793E+02  0.68716801280E+02  0.85491275022E+02  0.00000000000E+00 0. -1.
</event>
<event>
 7    1  0.2900135E-009  0.1027721E+03  0.7561462E-02  0.1274572E+00
         -3   -1    0    0    0  501 -0.00000000000E+00  0.00000000000E+00  0.22470152274E+02  0.22470152274E+02  0.00000000000E+00 0.  1.
          3   -1    0    0  501    0  0.00000000000E+00 -0.00000000000E+00 -0.64343083464E+03  0.64343083464E+03  0.00000000000E+00 0. -1.
         25    2    1    2    0    0  0.28760011075E+02 -0.30853312547E+02 -0.27008063049E+03  0.30061676576E+03  0.12509127773E+03 0.  0.
          5    1    3    3  502    0  0.59754203011E+02 -0.39226571972E+02 -0.78217894475E+02  0.10604150198E+03  0.41800000000E+01 0. -1.
         -5    1    3    3    0  502 -0.30994191936E+02  0.83732594248E+01 -0.19186273601E+03  0.19457526378E+03  0.41800000000E+01 0. -1.
        -11    1    1    2    0    0 -0.52787470828E+02 -0.10422472207E+02 -0.18600894161E+03  0.19363489190E+03  0.00000000000E+00 0.  1.
         11    1    1    2    0    0  0.24027459753E+02  0.41275784754E+02 -0.16487111027E+03  0.17164932925E+03  0.00000000000E+00 0. -1.
</event>
<event>
 7    1  0.2900135E-009  0.1253048E+03  0.7561462E-02  0.1234594E+00
         -2   -1    0    0    0  501 -0.00000000000E+00  0.00000000000E+00  0.32696752681E+02  0.32696752681E+02  0.00000000000E+00 0.  1.
          2   -1    0    0  501    0  0.00000000000E+00 -0.00000000000E+00 -0.75729832845E+03  0.75729832845E+03  0.00000000000E+00 0. -1.
         25    2    1    2    0    0  0.29729973040E+02 -0.77242818155E+02 -0.59251912108E+03  0.61121766277E+03  0.12513112397E+03 0.  0.
          5    1    3    3  502    0 -0.54745930714E+00 -0.10705888848E+03 -0.40960662947E+03  0.42338749228E+03  0.41800000000E+01 0.  1.
         -5    1    3    3    0  502  0.30277432347E+02  0.29816070327E+02 -0.18291249160E+03  0.18783017048E+03  0.41800000000E+01 0.  1.
        -11    1    1    2    0    0  0.14429080153E+02  0.35519868665E+01 -0.73038185117E+02  0.74534498388E+02  0.00000000000E+00 0. -1.
         11    1    1    2    0    0 -0.44159053193E+02  0.73690831289E+02 -0.59044269570E+02  0.10424291997E+03  0.00000000000E+00 0.  1.
</event>
<event>
 7    1  0.2900135E-009  0.6775169E+02  0.7561462E-02  0.1367910E+00
         -1   -1    0    0    0  501 -0.00000000000E+00  0.00000000000E+00  0.65116775302E+02  0.65116775302E+02  0.00000000000E+00 0.  1.
          1   -1    0    0  501    0  0.00000000000E+00 -0.00000000000E+00 -0.20863101309E+03  0.20863101309E+03  0.00000000000E+00 0. -1.
         25    2    1    2    0    0 -0.14479359861E+02 -0.19126356721E+02 -0.11912589398E+03  0.17438884292E+03  0.12508005650E+03 0.  0.
          5    1    3    3  502    0 -0.23606443003E+02 -0.16106578176E+02  0.19832552765E+02  0.35035532834E+02  0.41800000000E+01 0.  1.
         -5    1    3    3    0  502  0.91270831420E+01 -0.30197785452E+01 -0.13895844674E+03  0.13935331008E+03  0.41800000000E+01 0.  1.
        -11    1    1    2    0    0 -0.39867146614E+02  0.77100794330E+01 -0.73020549488E+01  0.41257177684E+02  0.00000000000E+00 0.  1.
         11    1    1    2    0    0  0.54346506475E+02  0.11416277288E+02 -0.17086288857E+02  0.58101767788E+02  0.00000000000E+00 0. -1.
</event>
<event>
 7    1  0.2900135E-009  0.1115505E+03  0.7561462E-02  0.1257725E+00
         -3   -1    0    0    0  501 -0.00000000000E+00  0.00000000000E+00  0.62610467684E+02  0.62610467684E+02  0.00000000000E+00 0.  1.
          3   -1    0    0  501    0  0.00000000000E+00 -0.00000000000E+00 -0.22735547108E+03  0.22735547108E+03  0.00000000000E+00 0. -1.
         25    2    1    2    0    0  0.51072922233E+02  0.52313253347E+01 -0.10431322554E+03  0.17077655325E+03  0.12509025528E+03 0.  0.
          5    1    3    3  502    0  0.60866037740E+02 -0.50049946058E+02 -0.60059759287E+02  0.99168133673E+02  0.41800000000E+01 0.  1.
         -5    1    3    3    0  502 -0.97931155073E+01  0.55281271393E+02 -0.44253466257E+02  0.71608419574E+02  0.41800000000E+01 0.  1.
        -11    1    1    2    0    0  0.79560403706E+01  0.21623463950E+02  0.84892062587E+01  0.24554824260E+02  0.00000000000E+00 0.  1.
         11    1    1    2    0    0 -0.59028962603E+02 -0.26854789284E+02 -0.68920984113E+02  0.94634561259E+02  0.00000000000E+00 0. -1.
</event>
<event>
 7    1  0.2900135E-009  0.1025188E+03  0.7561462E-02  0.1275087E+00
          2   -1    0    0  501    0  0.00000000000E+00  0.00000000000E+00  0.14350484474E+03  0.14350484474E+03  0.00000000000E+00 0. -1.
         -2   -1    0    0    0  501 -0.00000000000E+00 -0.00000000000E+00 -0.11545103377E+03  0.11545103377E+03  0.00000000000E+00 0.  1.
         25    2    1    2    0    0 -0.30922000274E+02 -0.46186874586E+02  0.40513318990E+02  0.14274908549E+03  0.12508626987E+03 0.  0.
          5    1    3    3  502    0  0.38704119212E+02 -0.10647748698E+01 -0.16182688327E+02  0.42172199267E+02  0.41800000000E+01 0. -1.
         -5    1    3    3    0  502 -0.69626119486E+02 -0.45122099716E+02  0.56696007317E+02  0.10057688623E+03  0.41800000000E+01 0. -1.
        -11    1    1    2    0    0  0.49033242374E+02  0.41684919049E+02 -0.45114470768E+02  0.78595208547E+02  0.00000000000E+00 0.  1.
         11    1    1    2    0    0 -0.18111242100E+02  0.45019555366E+01  0.32654962754E+02  0.37611584472E+02  0.00000000000E+00 0. -1.
</event>
<event>
 7    1  0.2900135E-009  0.2444161E+03  0.7561462E-02  0.1116885E+00
         -2   -1    0    0    0  501 -0.00000000000E+00  0.00000000000E+00  0.12422262569E+03  0.12422262569E+03  0.00000000000E+00 0.  1.
          2   -1    0    0  501    0  0.00000000000E+00 -0.00000000000E+00 -0.53623030595E+03  0.53623030595E+03  0.00000000000E+00 0. -1.
         25    2    1    2    0    0 -0.23123306741E+03  0.29332671838E+02 -0.23908280481E+03  0.35656085299E+03  0.12508364093E+03 0.  0.
          5    1    3    3  502    0 -0.22130193066E+03  0.39112897916E+02 -0.15938549078E+03  0.27554594965E+03  0.41800000000E+01 0.  1.
         -5    1    3    3    0  502 -0.99311367499E+01 -0.97802260782E+01 -0.79697314038E+02  0.81014903346E+02  0.41800000000E+01 0.  1.
        -11    1    1    2    0    0  0.74066001620E+02 -0.52304735656E+02 -0.71024732510E+02  0.11517842939E+03  0.00000000000E+00 0.  1.
         11    1    1    2    0    0  0.15716706579E+03  0.22972063818E+02 -0.10190014294E+03  0.18871364926E+03  0.00000000000E+00 0. -1.
</event>
<event>
 7    1  0.3232024E-009  0.1170558E+03  0.7561462E-02  0.1248035E+00
          2   -1    0    0  501    0  0.00000000000E+00  0.00000000000E+00  0.73597278963E+03  0.73597278963E+03  0.00000000000E+00 0.  1.
         -2   -1    0    0    0  501 -0.00000000000E+00 -0.00000000000E+00 -0.20532262427E+02  0.20532262427E+02  0.00000000000E+00 0. -1.
         25    2    1    2    0    0 -0.53261810587E+02  0.21235285503E+02  0.40206369572E+03  0.42495904589E+03  0.12508883824E+03 0.  0.
          5    1    3    3  502    0 -0.30184891789E+02 -0.47948166309E+02  0.24841764703E+03  0.25483122670E+03  0.41800000000E+01 0.  1.
         -5    1    3    3    0  502 -0.23076918798E+02  0.69183451812E+02  0.15364604869E+03  0.17012781919E+03  0.41800000000E+01 0.  1.
        -11    1    1    2    0    0  0.55823068148E+01 -0.48837956802E+02  0.19298925533E+03  0.19915110054E+03  0.00000000000E+00 0.  1.
         11    1    1    2    0    0  0.47679503773E+02  0.27602671298E+02  0.12038757616E+03  0.13239490563E+03  0.00000000000E+00 0. -1.
</event>
<event>
 7    1  0.2900135E-009  0.1599608E+03  0.7561462E-02  0.1188741E+00
          2   -1    0    0  501    0  0.00000000000E+00  0.00000000000E+00  0.31533653285E+03  0.31533653285E+03  0.00000000000E+00 0. -1.
         -2   -1    0    0    0  501 -0.00000000000E+00 -0.00000000000E+00 -0.96181711925E+02  0.96181711925E+02  0.00000000000E+00 0.  1.
         25    2    1    2    0    0 -0.77152927054E+01 -0.13211511449E+03  0.75548467923E+02  0.19712335799E+03  0.12504446427E+03 0.  0.
          5    1    3    3  502    0  0.41645581561E+02 -0.22501153207E+02  0.58914942125E+02  0.75690812948E+02  0.41800000000E+01 0.  1.
         -5    1    3    3    0  502 -0.49360874266E+02 -0.10961396128E+03  0.16633525799E+02  0.12143254505E+03  0.41800000000E+01 0.  1.
        -11    1    1    2    0    0  0.41542520563E+02  0.74729809119E+02  0.11133116189E+03  0.14037433168E+03  0.00000000000E+00 0.  1.
         11    1    1    2    0    0 -0.33827227857E+02  0.57385305368E+02  0.32275191111E+02  0.74020555104E+02  0.00000000000E+00 0. -1.
</event>
<event>
 7    1  0.2900135E-009  0.8715612E+02  0.7561462E-02  0.1309888E+00
          2   -1    0    0  501    0  0.00000000000E+00  0.00000000000E+00  0.31079139785E+03  0.31079139785E+03  0.00000000000E+00 0. -1.
         -2   -1    0    0    0  501 -0.00000000000E+00 -0.00000000000E+00 -0.83667567448E+02  0.83667567448E+02  0.00000000000E+00 0.  1.
         25    2    1    2    0    0  0.34249566262E+01 -0.64612189738E+01  0.27225636153E+03  0.29970740611E+03  0.12509006836E+03 0.  0.
          5    1    3    3  502    0  0.46391872833E+02 -0.22381939148E+02  0.23467638737E+03  0.24029905588E+03  0.41800000000E+01 0. -1.
         -5    1    3    3    0  502 -0.42966916207E+02  0.15920720174E+02  0.37579974159E+02  0.59408350230E+02  0.41800000000E+01 0. -1.
        -11    1    1    2    0    0  0.29962223206E+01  0.41192994461E+02 -0.42609090003E+02  0.59341171978E+02  0.00000000000E+00 0.  1.
         11    1    1    2    0    0 -0.64211789468E+01 -0.34731775488E+02 -0.25234411248E+01  0.35410387215E+02  0.00000000000E+00 0. -1.
</event>
<event>
 7    1  0.2900135E-009  0.1878093E+03  0.7561462E-02  0.1160452E+00
          1   -1    0    0  501    0  0.00000000000E+00  0.00000000000E+00  0.88756967371E+03  0.88756967371E+03  0.00000000000E+00 0. -1.
         -1   -1    0    0    0  501 -0.00000000000E+00 -0.00000000000E+00 -0.67245827607E+02  0.67245827607E+02  0.00000000000E+00 0.  1.
         25    2    1    2    0    0  0.29010582674E+02 -0.18006766576E+03  0.65474068624E+03  0.69108560540E+03  0.12509184469E+03 0.  0.
          5    1    3    3  502    0  0.39897410447E+02 -0.11489703341E+03  0.57357031089E+03  0.58633907049E+03  0.41800000000E+01 0.  1.
         -5    1    3    3    0  502 -0.10886827773E+02 -0.65170632358E+02  0.81170375348E+02  0.10474653491E+03  0.41800000000E+01 0.  1.
        -11    1    1    2    0    0  0.11145055797E+02  0.62287313548E+02  0.92985604852E+01  0.63956117181E+02  0.00000000000E+00 0.  1.
         11    1    1    2    0    0 -0.40155638471E+02  0.11778035222E+03  0.15628459938E+03  0.19977377874E+03  0.00000000000E+00 0. -1.
</event>
<event>
 7    1  0.2900135E-009  0.1837747E+03  0.7561462E-02  0.1164199E+00
          1   -1    0    0  501    0  0.00000000000E+00  0.00000000000E+00  0.23685129180E+03  0.23685129180E+03  0.00000000000E+00 0. -1.
         -1   -1    0    0    0  501 -0.00000000000E+00 -0.00000000000E+00 -0.19157979069E+03  0.19157979069E+03  0.00000000000E+00 0.  1.
         25    2    1    2    0    0 -0.11438542935E+03  0.11221366321E+03 -0.65564276244E+02  0.21359428624E+03  0.12509161498E+03 0.  0.
          5    1    3    3  502    0 -0.10744986036E+02 -0.27082196872E+02 -0.64116132767E+01  0.30124430238E+02  0.41800000000E+01 0.  1.
         -5    1    3    3    0  502 -0.10364044332E+03  0.13929586008E+03 -0.59152662967E+02  0.18346985601E+03  0.41800000000E+01 0.  1.
        -11    1    1    2    0    0  0.84395369052E+02 -0.57732612665E+02  0.19120878128E+02  0.10402519340E+03  0.00000000000E+00 0.  1.
         11    1    1    2    0    0  0.29990060303E+02 -0.54481050545E+02  0.91714899223E+02  0.11081160284E+03  0.00000000000E+00 0. -1.
</event>
<event>
 7    1  0.2900135E-009  0.1708976E+03  0.7561462E-02  0.1176915E+00
          1   -1    0    0  501    0  0.00000000000E+00  0.00000000000E+00  0.72234624131E+03  0.72234624131E+03  0.00000000000E+00 0. -1.
         -1   -1    0    0    0  501 -0.00000000000E+00 -0.00000000000E+00 -0.52831906294E+02  0.52831906294E+02  0.00000000000E+00 0.  1.
         25    2    1    2    0    0  0.14473346919E+03  0.70461205156E+02  0.34925026048E+03  0.40439595763E+03  0.12509111704E+03 0.  0.
          5    1    3    3  502    0 -0.15812022322E+01  0.25013010595E+02  0.28070722934E+01  0.25563703847E+02  0.41800000000E+01 0.  1.
         -5    1    3    3    0  502  0.14631467142E+03  0.45448194562E+02  0.34644318819E+03  0.37883225378E+03  0.41800000000E+01 0.  1.
        -11    1    1    2    0    0 -0.11798914029E+03 -0.45262899819E+02  0.14786300908E+03  0.19450870618E+03  0.00000000000E+00 0.  1.
         11    1    1    2    0    0 -0.26744328897E+02 -0.25198305338E+02  0.17240106545E+03  0.17627348379E+03  0.00000000000E+00 0. -1.
</event>
<event>
 7    1  0.2900135E-009  0.1794374E+03  0.7561462E-02  0.1168349E+00
          2   -1    0    0  501    0  0.00000000000E+00  0.00000000000E+00  0.32574717450E+03  0.32574717450E+03  0.00000000000E+00 0. -1.
         -2   -1    0    0    0  501 -0.00000000000E+00 -0.00000000000E+00 -0.12658138070E+03  0.12658138070E+03  0.00000000000E+00 0.  1.
         25    2    1    2    0    0  0.13963049394E+03 -0.99245074002E+02  0.11006558956E+03  0.23897410331E+03  0.12509168036E+03 0.  0.
          5    1    3    3  502    0  0.11052858890E+03 -0.87245637966E+02  0.18532318754E+02  0.14208901980E+03  0.41800000000E+01 0. -1.
         -5    1    3    3    0  502  0.29101905037E+02 -0.11999436035E+02  0.91533270811E+02  0.96885083513E+02  0.41800000000E+01 0. -1.
        -11    1    1    2    0    0 -0.67588162036E+02  0.91544640806E+02  0.82600290298E+02  0.14061077080E+03  0.00000000000E+00 0.  1.
         11    1    1    2    0    0 -0.72042331901E+02  0.77004331957E+01  0.64999139384E+01  0.72743681088E+02  0.00000000000E+00 0. -1.
</event>
<event>
 7    1  0.2900135E-009  0.1105598E+03  0.7561462E-02  0.1259537E+00
          1   -1    0    0  501    0  0.00000000000E+00  0.00000000000E+00  0.75535996422E+03  0.75535996422E+03  0.00000000000E+00 0. -1.
         -1   -1    0    0    0  501 -0.00000000000E+00 -0.00000000000E+00 -0.18089044367E+02  0.18089044367E+02  0.00000000000E+00 0.  1.
         25    2    1    2    0    0 -0.35056102838E+02  0.32994394613E+01  0.33794138021E+03  0.36206615154E+03  0.12509078696E+03 0.  0.
          5    1    3    3  502    0 -0.45032288154E+02 -0.53177363608E+02  0.22078956514E+03  0.23156261238E+03  0.41800000000E+01 0.  1.
         -5    1    3    3    0  502  0.99761853151E+01  0.56476803070E+02  0.11715181507E+03  0.13050353916E+03  0.41800000000E+01 0.  1.
        -11    1    1    2    0    0  0.31032028971E+02 -0.43484538758E+02  0.16034986754E+03  0.16901470928E+03  0.00000000000E+00 0.  1.
         11    1    1    2    0    0  0.40240738672E+01  0.40185099297E+02  0.23897967210E+03  0.24236814777E+03  0.00000000000E+00 0. -1.
</event>
<event>
 7    1  0.2900135E-009  0.1577735E+03  0.7561462E-02  0.1191234E+00
         -1   -1    0    0    0  501 -0.00000000000E+00  0.00000000000E+00  0.69250677641E+03  0.69250677641E+03  0.00000000000E+00 0.  1.
          1   -1    0    0  501    0  0.00000000000E+00 -0.00000000000E+00 -0.43884207660E+02  0.43884207660E+02  0.00000000000E+00 0. -1.
         25    2    1    2    0    0 -0.10151121323E+03 -0.88068725466E+02  0.38571710913E+03  0.42718391463E+03  0.12509109408E+03 0.  0.
          5    1    3    3  502    0  0.26168510597E+02 -0.94975589017E+01  0.10742013090E+03  0.11104751908E+03  0.41800000000E+01 0. -1.
         -5    1    3    3    0  502 -0.12767972383E+03 -0.78571166564E+02  0.27829697824E+03  0.31613639554E+03  0.41800000000E+01 0. -1.
        -11    1    1    2    0    0  0.60867293293E+02  0.70502485212E+02  0.24379459277E+03  0.26098128531E+03  0.00000000000E+00 0.  1.
         11    1    1    2    0    0  0.40643919939E+02  0.17566240254E+02  0.19110866846E+02  0.48225784144E+02  0.00000000000E+00 0. -1.
</event>
<event>
 7    1  0.2900135E-009  0.1601398E+03  0.7561462E-02  0.1188539E+00
         -2   -1    0    0    0  501 -0.00000000000E+00  0.00000000000E+00  0.87455948218E+02  0.87455948218E+02  0.00000000000E+00 0.  1.
          2   -1    0    0  501    0  0.00000000000E+00 -0.00000000000E+00 -0.44176885718E+03  0.44176885718E+03  0.00000000000E+00 0. -1.
         25    2    1    2    0    0  0.11410036322E+03  0.60292468427E+02 -0.31061445782E+03  0.35886310893E+03  0.12508922779E+03 0.  0.
          5    1    3    3  502    0  0.13841536892E+03  0.32105366900E+02 -0.24050014151E+03  0.27936957494E+03  0.41800000000E+01 0.  1.
         -5    1    3    3    0  502 -0.24315005698E+02  0.28187101527E+02 -0.70114316315E+02  0.79493533994E+02  0.41800000000E+01 0.  1.
        -11    1    1    2    0    0 -0.22065755378E+02  0.10615518847E+02  0.25321492245E+02  0.35224491058E+02  0.00000000000E+00 0.  1.
         11    1    1    2    0    0 -0.92034607842E+02 -0.70907987274E+02 -0.69019943382E+02  0.13513720540E+03  0.00000000000E+00 0. -1.
</event>
<event>
 7    1  0.2900135E-009  0.1067446E+03  0.7561462E-02  0.1266720E+00
         -1   -1    0    0    0  501 -0.00000000000E+00  0.00000000000E+00  0.24632375303E+02  0.24632375303E+02  0.00000000000E+00 0.  1.
          1   -1    0    0  501    0  0.00000000000E+00 -0.00000000000E+00 -0.65007054211E+03  0.65007054211E+03  0.00000000000E+00 0. -1.
         25    2    1    2    0    0 -0.54855080165E+02  0.34944943834E+02 -0.30822545680E+03  0.33894131725E+03  0.12509218761E+03 0.  0.
          5    1    3    3  502    0 -0.98322498745E+01 -0.31272315643E+02 -0.17567278707E+02  0.37426094432E+02  0.41800000000E+01 0.  1.
         -5    1    3    3    0  502 -0.45022830291E+02  0.66217259477E+02 -0.29065817809E+03  0.30151522282E+03  0.41800000000E+01 0.  1.
        -11    1    1    2    0    0  0.35995792359E+02 -0.59352483671E+02 -0.14440142509E+03  0.16021918097E+03  0.00000000000E+00 0. -1.
         11    1    1    2    0    0  0.18859287806E+02  0.24407539837E+02 -0.17281128493E+03  0.17554241919E+03  0.00000000000E+00 0.  1.
</event>
<event>
 7    1  0.2900135E-009  0.1148906E+03  0.7561462E-02  0.1251772E+00
         -1   -1    0    0    0  501 -0.00000000000E+00  0.00000000000E+00  0.66243248485E+02  0.66243248485E+02  0.00000000000E+00 0.  1.
          1   -1    0    0  501    0  0.00000000000E+00 -0.00000000000E+00 -0.28150911672E+03  0.28150911672E+03  0.00000000000E+00 0. -1.
         25    2    1    2    0    0  0.36798504956E+02 -0.74072292086E+02 -0.12859455719E+03  0.19754422053E+03  0.12508526893E+03 0.  0.
          5    1    3    3  502    0  0.67846623615E+02 -0.70152431026E+02 -0.13367797222E+03  0.16556509466E+03  0.41800000000E+01 0.  1.
         -5    1    3    3    0  502 -0.31048118659E+02 -0.39198610608E+01  0.50834150250E+01  0.31979125869E+02  0.41800000000E+01 0.  1.
        -11    1    1    2    0    0  0.15570392911E+02  0.18049570234E+02  0.10812713244E+02  0.26175157855E+02  0.00000000000E+00 0.  1.
         11    1    1    2    0    0 -0.52368897867E+02  0.56022721852E+02 -0.97484024285E+02  0.12403298681E+03  0.00000000000E+00 0. -1.
</event>
<event>
 7    1  0.2900135E-009  0.1800984E+03  0.7561462E-02  0.1167708E+00
         -2   -1    0    0    0  501 -0.00000000000E+00  0.00000000000E+00  0.67648334714E+02  0.67648334714E+02  0.00000000000E+00 0.  1.
          2   -1    0    0  501    0  0.00000000000E+00 -0.00000000000E+00 -0.52373900494E+03  0.52373900494E+03  0.00000000000E+00 0. -1.
         25    2    1    2    0    0  0.15311001609E+03  0.46590518539E+01 -0.25471820996E+03  0.32248099973E+03  0.12509294508E+03 0.  0.
          5    1    3    3  502    0  0.67626101669E+02  0.53676494408E+02 -0.17675469971E+03  0.19675912164E+03  0.41800000000E+01 0.  1.
         -5    1    3    3    0  502  0.85483914419E+02 -0.49017442555E+02 -0.77963510250E+02  0.12572187809E+03  0.41800000000E+01 0.  1.
        -11    1    1    2    0    0 -0.12588521858E+03 -0.38550183340E+02 -0.12799909448E+03  0.18362182082E+03  0.00000000000E+00 0. -1.
         11    1    1    2    0    0 -0.27224797504E+02  0.33891131486E+02 -0.73373365784E+02  0.85284519105E+02  0.00000000000E+00 0.  1.
</event>
<event>
 7    1  0.2900135E-009  0.1608533E+03  0.7561462E-02  0.1187737E+00
         -1   -1    0    0    0  501 -0.00000000000E+00  0.00000000000E+00  0.86569123876E+02  0.86569123876E+02  0.00000000000E+00 0.  1.
          1   -1    0    0  501    0  0.00000000000E+00 -0.00000000000E+00 -0.43162033597E+03  0.43162033597E+03  0.00000000000E+00 0. -1.
         25    2    1    2    0    0  0.72728491787E+02 -0.14154759318E+03 -0.18467589038E+03  0.27400338025E+03  0.12509002057E+03 0.  0.
          5    1    3    3  502    0  0.23287835286E+02 -0.48463306602E+02  0.78266673819E+01  0.54495362018E+02  0.41800000000E+01 0. -1.
         -5    1    3    3    0  502  0.49440656501E+02 -0.93084286581E+02 -0.19250255776E+03  0.21950801823E+03  0.41800000000E+01 0. -1.
        -11    1    1    2    0    0 -0.17278121092E+02  0.68143027654E+02 -0.14583202593E+02  0.71796068724E+02  0.00000000000E+00 0.  1.
         11    1    1    2    0    0 -0.55450370695E+02  0.73404565528E+02 -0.14579211912E+03  0.17239001087E+03  0.00000000000E+00 0. -1.
</event>
<event>
 7    1  0.2900135E-009  0.1542210E+03  0.7561462E-02  0.1195380E+00
         -2   -1    0    0    0  501 -0.00000000000E+00  0.00000000000E+00  0.98077542838E+03  0.98077542838E+03  0.00000000000E+00 0. -1.
          2   -1    0    0  501    0  0.00000000000E+00 -0.00000000000E+00 -0.39695294953E+02  0.39695294953E+02  0.00000000000E+00 0.  1.
         25    2    1    2    0    0 -0.42155804245E+01 -0.12588222267E+03  0.76325162155E+03  0.78362265706E+03  0.12508927110E+03 0.  0.
          5    1    3    3  502    0 -0.44961856135E+02 -0.69371927900E+02  0.60536567442E+03  0.61099844931E+03  0.41800000000E+01 0.  1.
         -5    1    3    3    0  502  0.40746275711E+02 -0.56510294768E+02  0.15788594713E+03  0.17262420775E+03  0.41800000000E+01 0.  1.
        -11    1    1    2    0    0  0.46015546798E+02  0.88721816850E+02  0.12350722595E+03  0.15888054064E+03  0.00000000000E+00 0. -1.
         11    1    1    2    0    0 -0.41799966374E+02  0.37160405819E+02  0.54321285922E+02  0.77967525635E+02  0.00000000000E+00 0.  1.
</event>
<event>
 7    1  0.2900135E-009  0.9563132E+02  0.7561462E-02  0.1289760E+00
          2   -1    0    0  501    0  0.00000000000E+00  0.00000000000E+00  0.90614010203E+02  0.90614010203E+02  0.00000000000E+00 0. -1.
         -2   -1    0    0    0  501 -0.00000000000E+00 -0.00000000000E+00 -0.15620547002E+03  0.15620547002E+03  0.00000000000E+00 0.  1.
         25    2    1    2    0    0  0.18761861715E+02  0.42814659235E+02 -0.37796943270E+02  0.13877872654E+03  0.12508326634E+03 0.  0.
          5    1    3    3  502    0  0.36277375005E+02 -0.27751471453E+02 -0.46643113985E+02  0.65415935271E+02  0.41800000000E+01 0. -1.
         -5    1    3    3    0  502 -0.17515513290E+02  0.70566130688E+02  0.88461707148E+01  0.73362791266E+02  0.41800000000E+01 0. -1.
        -11    1    1    2    0    0 -0.29405161967E+02 -0.51184189505E+02  0.16850678066E+02  0.61387540730E+02  0.00000000000E+00 0. -1.
         11    1    1    2    0    0  0.10643300252E+02  0.83695302702E+01 -0.44645194613E+02  0.46653212957E+02  0.00000000000E+00 0.  1.
</event>
<event>
 7    1  0.2900135E-009  0.1153167E+03  0.7561462E-02  0.1251029E+00
          1   -1    0    0  501    0  0.00000000000E+00  0.00000000000E+00  0.12946672855E+04  0.12946672855E+04  0.00000000000E+00 0. -1.
         -1   -1    0    0    0  501 -0.00000000000E+00 -0.00000000000E+00 -0.11506699420E+02  0.11506699420E+02  0.00000000000E+00 0.  1.
         25    2    1    2    0    0  0.21825557198E+02 -0.47162151413E+02  0.85149634470E+03  0.86220290267E+03  0.12508875590E+03 0.  0.
          5    1    3    3  502    0  0.41967816103E+02 -0.78657912783E+02  0.43812934913E+03  0.44712768176E+03  0.41800000000E+01 0. -1.
         -5    1    3    3    0  502 -0.20142258905E+02  0.31495761370E+02  0.41336699557E+03  0.41507522090E+03  0.41800000000E+01 0. -1.
        -11    1    1    2    0    0 -0.38078276921E+02 -0.13929796741E+02  0.16227813641E+03  0.16726681669E+03  0.00000000000E+00 0.  1.
         11    1    1    2    0    0  0.16252719723E+02  0.61091948154E+02  0.26938610492E+03  0.27670426551E+03  0.00000000000E+00 0. -1.
</event>
<event>
 7    1  0.2900135E-009  0.1194400E+03  0.7561462E-02  0.1244024E+00
         -2   -1    0    0    0  501 -0.00000000000E+00  0.00000000000E+00  0.42232163081E+02  0.42232163081E+02  0.00000000000E+00 0. -1.
          2   -1    0    0  501    0  0.00000000000E+00 -0.00000000000E+00 -0.44832658856E+03  0.44832658856E+03  0.00000000000E+00 0.  1.
         25    2    1    2    0    0  0.72112235779E+01 -0.76881939636E+02 -0.28545150039E+03  0.32107728891E+03  0.12508090179E+03 0.  0.
          5    1    3    3  502    0 -0.22756547466E+02 -0.88045474634E+02 -0.27072800165E+03  0.28562385988E+03  0.41800000000E+01 0. -1.
         -5    1    3    3    0  502  0.29967771044E+02  0.11163534999E+02 -0.14723498742E+02  0.35453429033E+02  0.41800000000E+01 0. -1.
        -11    1    1    2    0    0  0.35086713999E+02  0.61079938137E+02 -0.52998908559E+02  0.88151691139E+02  0.00000000000E+00 0. -1.
         11    1    1    2    0    0 -0.42297937577E+02  0.15802001499E+02 -0.67644016525E+02  0.81329771586E+02  0.00000000000E+00 0.  1.
</event>
<event>
 6    1  0.2900135E-009  0.9227252E+02  0.7561462E-02  0.1297440E+00
         -1   -1    0    0    0  501 -0.00000000000E+00  0.00000000000E+00  0.11903528476E+04  0.11903528476E+04  0.00000000000E+00 0.  1.
          1   -1    0    0  501    0  0.00000000000E+00 -0.00000000000E+00 -0.17826905248E+02  0.17826905248E+02  0.00000000000E+00 0. -1.
          5    1    1    2  502    0  0.31693077955E+02 -0.37966661584E+02  0.11149204496E+03  0.12204043212E+03  0.41800000000E+01 0.  1.
         -5    1    1    2    0  502  0.24580440165E+02 -0.64845489323E+00  0.81330339099E+03  0.81368574814E+03  0.41800000000E+01 0.  1.
        -11    1    1    2    0    0  0.83390656353E+01 -0.20665079431E+02  0.27414794726E+02  0.35329258320E+02  0.00000000000E+00 0. -1.
         11    1    1    2    0    0 -0.64612583755E+02  0.59280195909E+02  0.22031571169E+03  0.23712431428E+03  0.00000000000E+00 0.  1.
</event>
<event>
 7    1  0.2900135E-009  0.2061785E+03  0.7561462E-02  0.1144628E+00
          2   -1    0    0  501    0  0.00000000000E+00  0.00000000000E+00  0.47637957852E+03  0.47637957852E+03  0.00000000000E+00 0.  1.
         -2   -1    0    0    0  501 -0.00000000000E+00 -0.00000000000E+00 -0.11288361242E+03  0.11288361242E+03  0.00000000000E+00 0. -1.
         25    2    1    2    0    0 -0.19294822451E+03 -0.32211851485E+02  0.26450270458E+03  0.35196055113E+03  0.12509167880E+03 0.  0.
          5    1    3    3  502    0 -0.90291069735E+02 -0.25708175526E+02  0.22109198317E+03  0.24023431267E+03  0.41800000000E+01 0. -1.
         -5    1    3    3    0  502 -0.10265715478E+03 -0.65036759593E+01  0.43410721416E+02  0.11172623846E+03  0.41800000000E+01 0. -1.
        -11    1    1    2    0    0  0.15077969124E+03 -0.15718495414E+02  0.74641269182E+02  0.16897604994E+03  0.00000000000E+00 0.  1.
         11    1    1    2    0    0  0.42168533275E+02  0.47930346899E+02  0.24351992333E+02  0.68326589868E+02  0.00000000000E+00 0. -1.
</event>
<event>
 7    1  0.2900135E-009  0.1398900E+03  0.7561462E-02  0.1213477E+00
         -4   -1    0    0    0  501 -0.00000000000E+00  0.00000000000E+00  0.11688697495E+03  0.11688697495E+03  0.00000000000E+00 0.  1.
          4   -1    0    0  501    0  0.00000000000E+00 -0.00000000000E+00 -0.18257610154E+03  0.18257610154E+03  0.00000000000E+00 0. -1.
         25    2    1    2    0    0 -0.58743000271E+02 -0.76270460932E+02 -0.38402376973E+02  0.16245055427E+03  0.12509003451E+03 0.  0.
          5    1    3    3  502    0  0.28355129875E+02 -0.48508711975E+02  0.12530954700E+02  0.57720063699E+02  0.41800000000E+01 0.  1.
         -5    1    3    3    0  502 -0.87098130145E+02 -0.27761748957E+02 -0.50933331673E+02  0.10473049057E+03  0.41800000000E+01 0.  1.
        -11    1    1    2    0    0  0.13926058365E+02  0.85112827768E+02 -0.55481067326E+01  0.86422856008E+02  0.00000000000E+00 0.  1.
         11    1    1    2    0    0  0.44816941906E+02 -0.88423668354E+01 -0.21738642878E+02  0.50589666210E+02  0.00000000000E+00 0. -1.
</event>
<event>
 7    1  0.2900135E-009  0.1079161E+03  0.7561462E-02  0.1264478E+00
          2   -1    0    0  501    0  0.00000000000E+00  0.00000000000E+00  0.88833892734E+03  0.88833892734E+03  0.00000000000E+00 0. -1.
         -2   -1    0    0    0  501 -0.00000000000E+00 -0.00000000000E+00 -0.29474638003E+02  0.29474638003E+02  0.00000000000E+00 0.  1.
         25    2    1    2    0    0  0.70177919453E+02  0.38847525511E+02  0.70818188006E+03  0.72360429116E+03  0.12509006484E+03 0.  0.
          5    1    3    3  502    0  0.75058722540E+02 -0.84078027983E+01  0.21116748582E+03  0.22430711635E+03  0.41800000000E+01 0.  1.
         -5    1    3    3    0  502 -0.48808030875E+01  0.47255328309E+02  0.49701439424E+03  0.49929717481E+03  0.41800000000E+01 0.  1.
        -11    1    1    2    0    0 -0.65963979869E+02 -0.14176726461E+02  0.35306008831E+02  0.76149461409E+02  0.00000000000E+00 0.  1.
         11    1    1    2    0    0 -0.42139395837E+01 -0.24670799050E+02  0.11537640045E+03  0.11805981278E+03  0.00000000000E+00 0. -1.
</event>
<event>
 7    1  0.2900135E-009  0.1078771E+03  0.7561462E-02  0.1264552E+00
          4   -1    0    0  501    0  0.00000000000E+00  0.00000000000E+00  0.18077616121E+03  0.18077616121E+03  0.00000000000E+00 0. -1.
         -4   -1    0    0    0  501 -0.00000000000E+00 -0.00000000000E+00 -0.84345513310E+02  0.84345513310E+02  0.00000000000E+00 0.  1.
         25    2    1    2    0    0  0.55432238385E+02  0.92564149400E+01  0.77052487830E+02  0.15729625958E+03  0.12508642263E+03 0.  0.
          5    1    3    3  502    0 -0.29519430624E+02 -0.15165845939E+01  0.63939752711E+02  0.70565297349E+02  0.41800000000E+01 0.  1.
         -5    1    3    3    0  502  0.84951669009E+02  0.10772999534E+02  0.13112735119E+02  0.86730962226E+02  0.41800000000E+01 0.  1.
        -11    1    1    2    0    0 -0.31557611539E+02  0.36686372832E+02 -0.83270007292E+01  0.49103072600E+02  0.00000000000E+00 0.  1.
         11    1    1    2    0    0 -0.23874626846E+02 -0.45942787772E+02  0.27705160796E+02  0.58722342341E+02  0.00000000000E+00 0. -1.
</event>
<event>
 7    1  0.2900135E-009  0.6905986E+02  0.7561462E-02  0.1363320E+00
         -3   -1    0    0    0  501 -0.00000000000E+00  0.00000000000E+00  0.13265127774E+03  0.13265127774E+03  0.00000000000E+00 0.  1.
          3   -1    0    0  501    0  0.00000000000E+00 -0.00000000000E+00 -0.88487957494E+02  0.88487957494E+02  0.00000000000E+00 0. -1.
         25    2    1    2    0    0 -0.32634353968E+01  0.14915756082E+02  0.21828811288E+02  0.12789464267E+03  0.12508961919E+03 0.  0.
          5    1    3    3  502    0 -0.22741050821E+02  0.70206605856E-01  0.69985907261E+02  0.73706580009E+02  0.41800000000E+01 0.  1.
         -5    1    3    3    0  502  0.19477615425E+02  0.14845549476E+02 -0.48157095973E+02  0.54188062657E+02  0.41800000000E+01 0.  1.
        -11    1    1    2    0    0  0.15551808619E+02  0.35237377903E+02  0.13760968238E+02  0.40901048882E+02  0.00000000000E+00 0.  1.
         11    1    1    2    0    0 -0.12288373222E+02 -0.50153133985E+02  0.85735407164E+01  0.52343543684E+02  0.00000000000E+00 0. -1.
</event>
<event>
 7    1  0.2900135E-009  0.1893199E+03  0.7561462E-02  0.1159076E+00
          3   -1    0    0  501    0  0.00000000000E+00  0.00000000000E+00  0.19325388774E+03  0.19325388774E+03  0.00000000000E+00 0. -1.
         -3   -1    0    0    0  501 -0.00000000000E+00 -0.00000000000E+00 -0.21431802322E+03  0.21431802322E+03  0.00000000000E+00 0.  1.
         25    2    1    2    0    0 -0.63974523875E+02 -0.14531022161E+03 -0.77315702007E+02  0.21640900337E+03  0.12508932311E+03 0.  0.
          5    1    3    3  502    0 -0.68235345283E+02 -0.16422590464E+03 -0.82231698043E+02  0.19597381117E+03  0.41800000000E+01 0. -1.
         -5    1    3    3    0  502  0.42608214082E+01  0.18915683030E+02  0.49159960360E+01  0.20435192209E+02  0.41800000000E+01 0. -1.
        -11    1    1    2    0    0  0.85873002417E+02  0.11493730819E+03  0.33446506140E+02  0.14732082721E+03  0.00000000000E+00 0.  1.
         11    1    1    2    0    0 -0.21898478542E+02  0.30372913417E+02  0.22805060395E+02  0.43842080374E+02  0.00000000000E+00 0. -1.
</event>
<event>
 7    1  0.2900135E-009  0.1011229E+03  0.7561462E-02  0.1277952E+00
         -1   -1    0    0    0  501 -0.00000000000E+00  0.00000000000E+00  0.14193470782E+03  0.14193470782E+03  0.00000000000E+00 0.  1.
          1   -1    0    0  501    0  0.00000000000E+00 -0.00000000000E+00 -0.85663789306E+02  0.85663789306E+02  0.00000000000E+00 0. -1.
         25    2    1    2    0    0 -0.16355748566E+02  0.68139828054E+01  0.43883224513E+02  0.13374140781E+03  0.12508831239E+03 0.  0.
          5    1    3    3  502    0  0.20842492045E+02  0.58123952533E+02  0.29780680238E+02  0.68681617978E+02  0.41800000000E+01 0.  1.
         -5    1    3    3    0  502 -0.37198240611E+02 -0.51309969727E+02  0.14102544276E+02  0.65059789832E+02  0.41800000000E+01 0.  1.
        -11    1    1    2    0    0 -0.29526503687E+02  0.37422092010E+01 -0.20751315422E+02  0.36282718220E+02  0.00000000000E+00 0. -1.
         11    1    1    2    0    0  0.45882252253E+02 -0.10556192006E+02  0.33139009419E+02  0.57574371093E+02  0.00000000000E+00 0.  1.
</event>
<event>
 7    1  0.2900135E-009  0.9130815E+02  0.7561462E-02  0.1299714E+00
          2   -1    0    0  501    0  0.00000000000E+00  0.00000000000E+00  0.20655112011E+03  0.20655112011E+03  0.00000000000E+00 0. -1.
         -2   -1    0    0    0  501 -0.00000000000E+00 -0.00000000000E+00 -0.10744880717E+03  0.10744880717E+03  0.00000000000E+00 0.  1.
         25    2    1    2    0    0 -0.70358473814E+02 -0.14342787712E+02  0.13095798156E+03  0.19481364220E+03  0.12508529832E+03 0.  0.
          5    1    3    3  502    0 -0.32962610026E+02 -0.26183206386E+02  0.14644664184E+03  0.15243419978E+03  0.41800000000E+01 0. -1.
         -5    1    3    3    0  502 -0.37395863789E+02  0.11840418673E+02 -0.15488660274E+02  0.42379442421E+02  0.41800000000E+01 0. -1.
        -11    1    1    2    0    0  0.76138594236E+02 -0.91367293871E+01  0.30242864278E+01  0.76744456897E+02  0.00000000000E+00 0. -1.
         11    1    1    2    0    0 -0.57801204212E+01  0.23479517099E+02 -0.34879955047E+02  0.42441828182E+02  0.00000000000E+00 0.  1.
</event>
<event>
 7    1  0.2900135E-009  0.1359455E+03  0.7561462E-02  0.1218891E+00
          1   -1    0    0  501    0  0.00000000000E+00  0.00000000000E+00  0.25625608940E+02  0.25625608940E+02  0.00000000000E+00 0.  1.
         -1   -1    0    0    0  501 -0.00000000000E+00 -0.00000000000E+00 -0.10209610924E+04  0.10209610924E+04  0.00000000000E+00 0. -1.
         25    2    1    2    0    0 -0.95451413568E+02 -0.83408835616E+01 -0.76868846782E+03  0.78467153821E+03  0.12508764777E+03 0.  0.
          5    1    3    3  502    0 -0.92153955646E+02  0.39430486565E+02 -0.37990588083E+03  0.39292883007E+03  0.41800000000E+01 0. -1.
         -5    1    3    3    0  502 -0.32974579215E+01 -0.47771370126E+02 -0.38878258699E+03  0.39174270814E+03  0.41800000000E+01 0. -1.
        -11    1    1    2    0    0  0.55098756412E+02 -0.34213201971E+02 -0.16269082880E+03  0.17514200502E+03  0.00000000000E+00 0. -1.
         11    1    1    2    0    0  0.40352657156E+02  0.42554085532E+02 -0.63956186882E+02  0.86773158151E+02  0.00000000000E+00 0.  1.
</event>
<event>
 7    1  0.2900135E-009  0.8297798E+02  0.7561462E-02  0.1320807E+00
          4   -1    0    0  501    0  0.00000000000E+00  0.00000000000E+00  0.87700278183E+03  0.87700278183E+03  0.00000000000E+00 0.  1.
         -4   -1    0    0    0  501 -0.00000000000E+00 -0.00000000000E+00 -0.23861985203E+02  0.23861985203E+02  0.00000000000E+00 0. -1.
         25    2    1    2    0    0  0.54543788287E+02 -0.42261054621E+02  0.68762157644E+03  0.70230468570E+03  0.12508963823E+03 0.  0.
          5    1    3    3  502    0  0.59013044807E+02 -0.59357179444E+01  0.63662221501E+03  0.63939275039E+03  0.41800000000E+01 0. -1.
         -5    1    3    3    0  502 -0.44692565206E+01 -0.36325336677E+02  0.50999361435E+02  0.62911935317E+02  0.41800000000E+01 0. -1.
        -11    1    1    2    0    0 -0.20316452728E+02  0.10075215273E+02 -0.36663426458E+01  0.22971945556E+02  0.00000000000E+00 0. -1.
         11    1    1    2    0    0 -0.34227335559E+02  0.32185839349E+02  0.16918556283E+03  0.17558813577E+03  0.00000000000E+00 0.  1.
</event>
<event>
 7    1  0.2900135E-009  0.1418459E+03  0.7561462E-02  0.1210867E+00
          1   -1    0    0  501    0  0.00000000000E+00  0.00000000000E+00  0.13776594098E+03  0.13776594098E+03  0.00000000000E+00 0. -1.
         -1   -1    0    0    0  501 -0.00000000000E+00 -0.00000000000E+00 -0.16940286448E+03  0.16940286448E+03  0.00000000000E+00 0.  1.
         25    2    1    2    0    0  0.90476016871E+02 -0.58286170779E+02 -0.17387317706E+02  0.16593177791E+03  0.12509136169E+03 0.  0.
          5    1    3    3  502    0  0.10389002463E+03 -0.20002074551E+02 -0.46686965701E+02  0.11571674628E+03  0.41800000000E+01 0.  1.
         -5    1    3    3    0  502 -0.13414007759E+02 -0.38284096228E+02  0.29299647995E+02  0.50215031622E+02  0.41800000000E+01 0.  1.
        -11    1    1    2    0    0 -0.78282818281E+02  0.80124596349E+02  0.84814839840E+00  0.11202173867E+03  0.00000000000E+00 0. -1.
         11    1    1    2    0    0 -0.12193198591E+02 -0.21838425570E+02 -0.15097754191E+02  0.29215288889E+02  0.00000000000E+00 0.  1.
</event>
<event>
 7    1  0.2900135E-009  0.1694743E+03  0.7561462E-02  0.1178397E+00
          1   -1    0    0  501    0  0.00000000000E+00  0.00000000000E+00  0.20035049207E+03  0.20035049207E+03  0.00000000000E+00 0. -1.
         -1   -1    0    0    0  501 -0.00000000000E+00 -0.00000000000E+00 -0.17862061083E+03  0.17862061083E+03  0.00000000000E+00 0.  1.
         25    2    1    2    0    0 -0.12451791709E+03  0.91436294901E+02  0.24558145438E+02  0.20028939004E+03  0.12508968604E+03 0.  0.
          5    1    3    3  502    0 -0.60790476199E+02 -0.72232245912E+01  0.51043704882E+02  0.79815970695E+02  0.41800000000E+01 0.  1.
         -5    1    3    3    0  502 -0.63727440894E+02  0.98659519493E+02 -0.26485559444E+02  0.12047341934E+03  0.41800000000E+01 0.  1.
        -11    1    1    2    0    0  0.71308151407E+02 -0.26414219609E+02  0.38292019690E+02  0.85140132878E+02  0.00000000000E+00 0. -1.
         11    1    1    2    0    0  0.53209765685E+02 -0.65022075293E+02 -0.41120283882E+02  0.93541579985E+02  0.00000000000E+00 0.  1.
</event>
<event>
 7    1  0.2900135E-009  0.1111886E+03  0.7561462E-02  0.1258385E+00
         -3   -1    0    0    0  501 -0.00000000000E+00  0.00000000000E+00  0.35460572865E+03  0.35460572865E+03  0.00000000000E+00 0.  1.
          3   -1    0    0  501    0  0.00000000000E+00 -0.00000000000E+00 -0.56898839077E+02  0.56898839077E+02  0.00000000000E+00 0. -1.
         25    2    1    2    0    0 -0.18864129940E+02 -0.87863919087E+02  0.13747673048E+03  0.20645452963E+03  0.12509075787E+03 0.  0.
          5    1    3    3  502    0 -0.43684952228E+02 -0.65054063013E+01  0.10728877915E+03  0.11609931048E+03  0.41800000000E+01 0. -1.
         -5    1    3    3    0  502  0.24820822288E+02 -0.81358512786E+02  0.30187951333E+02  0.90355219149E+02  0.41800000000E+01 0. -1.
        -11    1    1    2    0    0  0.22136015149E+02  0.48070894046E+02  0.15841829692E+02  0.55242896276E+02  0.00000000000E+00 0. -1.
         11    1    1    2    0    0 -0.32718852081E+01  0.39793025041E+02  0.14438832940E+03  0.14980714183E+03  0.00000000000E+00 0.  1.
</event>
<event>
 7    1  0.2900135E-009  0.1268207E+03  0.7561462E-02  0.1232251E+00
          1   -1    0    0  501    0  0.00000000000E+00  0.00000000000E+00  0.51338538349E+02  0.51338538349E+02  0.00000000000E+00 0.  1.
         -1   -1    0    0    0  501 -0.00000000000E+00 -0.00000000000E+00 -0.51390780071E+03  0.51390780071E+03  0.00000000000E+00 0. -1.
         25    2    1    2    0    0  0.72328061435E+02 -0.70938145831E+02 -0.13366635185E+03  0.20922415444E+03  0.12507791244E+03 0.  0.
          5    1    3    3  502    0  0.75682484305E+01  0.27468802223E+02  0.27562815225E+01  0.28928929598E+02  0.41800000000E+01 0. -1.
         -5    1    3    3    0  502  0.64759813004E+02 -0.98406948053E+02 -0.13642263337E+03  0.18029522485E+03  0.41800000000E+01 0. -1.
        -11    1    1    2    0    0 -0.35514689215E+02  0.12022034632E+02 -0.26935872128E+02  0.46166694425E+02  0.00000000000E+00 0.  1.
         11    1    1    2    0    0 -0.36813372219E+02  0.58916111198E+02 -0.30196703838E+03  0.30985549019E+03  0.00000000000E+00 0. -1.
</event>
<event>
 7    1  0.2900135E-009  0.1796476E+03  0.7561462E-02  0.1168145E+00
         -2   -1    0    0    0  501 -0.00000000000E+00  0.00000000000E+00  0.11126118887E+03  0.11126118887E+03  0.00000000000E+00 0.  1.
          2   -1    0    0  501    0  0.00000000000E+00 -0.00000000000E+00 -0.65909263029E+03  0.65909263029E+03  0.00000000000E+00 0. -1.
         25    2    1    2    0    0  0.15042561618E+03 -0.72521427798E+02 -0.20947113796E+02  0.20970028141E+03  0.12509277737E+03 0.  0.
          5    1    3    3  502    0  0.60720415984E+02 -0.66266657376E+02  0.42559031889E+02  0.99533825368E+02  0.41800000000E+01 0.  1.
         -5    1    3    3    0  502  0.89705200201E+02 -0.62547704220E+01 -0.63506145685E+02  0.11016645604E+03  0.41800000000E+01 0.  1.
        -11    1    1    2    0    0 -0.66852645259E+02  0.68369965822E+02 -0.18003508755E+03  0.20385377395E+03  0.00000000000E+00 0.  1.
         11    1    1    2    0    0 -0.83572970925E+02  0.41514619763E+01 -0.34684924007E+03  0.35679976379E+03  0.00000000000E+00 0. -1.
</event>
<event>
 7    1  0.2900135E-009  0.6185058E+02  0.7561462E-02  0.1390226E+00
          2   -1    0    0  501    0  0.00000000000E+00  0.00000000000E+00  0.75224410481E+02  0.75224410481E+02  0.00000000000E+00 0. -1.
         -2   -1    0    0    0  501 -0.00000000000E+00 -0.00000000000E+00 -0.17896025136E+03  0.17896025136E+03  0.00000000000E+00 0.  1.
         25    2    1    2    0    0  0.18870032511E+02 -0.30387462804E+02 -0.31137764728E+02  0.13378186753E+03  0.12509417118E+03 0.  0.
          5    1    3    3  502    0 -0.12207373447E+02 -0.16872987236E+02 -0.75140342161E+02  0.78084960683E+02  0.41800000000E+01 0. -1.
         -5    1    3    3    0  502  0.31077405959E+02 -0.13514475567E+02  0.44002577434E+02  0.55696906842E+02  0.41800000000E+01 0. -1.
        -11    1    1    2    0    0 -0.33808017335E+02 -0.70966368305E+00  0.62040111461E+01  0.34379869298E+02  0.00000000000E+00 0. -1.
         11    1    1    2    0    0  0.14937984823E+02  0.31097126487E+02 -0.78802087302E+02  0.86022925022E+02  0.00000000000E+00 0.  1.
</event>
<event>
 7    1  0.2900135E-009  0.1360750E+03  0.7561462E-02  0.1218710E+00
          2   -1    0    0  501    0  0.00000000000E+00  0.00000000000E+00  0.39632111716E+03  0.39632111716E+03  0.00000000000E+00 0. -1.
         -2   -1    0    0    0  501 -0.00000000000E+00 -0.00000000000E+00 -0.70853774212E+02  0.70853774212E+02  0.00000000000E+00 0.  1.
         25    2    1    2    0    0 -0.41464766670E+01  0.12009554385E+03  0.11548108943E+03  0.20838360418E+03  0.12509081323E+03 0.  0.
          5    1    3    3  502    0 -0.65487755147E+01  0.46537403439E+02  0.12541967299E+03  0.13400068340E+03  0.41800000000E+01 0. -1.
         -5    1    3    3    0  502  0.24022988477E+01  0.73558140409E+02 -0.99385835572E+01  0.74382920777E+02  0.41800000000E+01 0. -1.
        -11    1    1    2    0    0  0.29488158817E+02 -0.10153026366E+01  0.40170901732E+02  0.49842589177E+02  0.00000000000E+00 0. -1.
         11    1    1    2    0    0 -0.25341682150E+02 -0.11908024121E+03  0.16981535179E+03  0.20894869802E+03  0.00000000000E+00 0.  1.
</event>
<event>
 7    1  0.2900135E-009  0.1179077E+03  0.7561462E-02  0.1246589E+00
         -2   -1    0    0    0  501 -0.00000000000E+00  0.00000000000E+00  0.17899724484E+02  0.17899724484E+02  0.00000000000E+00 0. -1.
          2   -1    0    0  501    0  0.00000000000E+00 -0.00000000000E+00 -0.13966130178E+04  0.13966130178E+04  0.00000000000E+00 0.  1.
         25    2    1    2    0    0 -0.13521714921E+02  0.73481385608E+02 -0.11286169898E+04  0.11379828615E+04  0.12508530145E+03 0.  0.
          5    1    3    3  502    0 -0.34100353137E+01 -0.22674494836E+02 -0.60805614318E+03  0.60850267601E+03  0.41800000000E+01 0. -1.
         -5    1    3    3    0  502 -0.10111679607E+02  0.96155880444E+02 -0.52056084662E+03  0.52948018550E+03  0.41800000000E+01 0. -1.
        -11    1    1    2    0    0 -0.30932649760E+02 -0.13008684120E+01 -0.45167876582E+02  0.54760005065E+02  0.00000000000E+00 0. -1.
         11    1    1    2    0    0  0.44454364681E+02 -0.72180517196E+02 -0.20492842691E+03  0.22176987567E+03  0.00000000000E+00 0.  1.
</event>
<event>
 7    1  0.2900135E-009  0.1347070E+03  0.7561462E-02  0.1220634E+00
          2   -1    0    0  501    0  0.00000000000E+00  0.00000000000E+00  0.17828319806E+03  0.17828319806E+03  0.00000000000E+00 0. -1.
         -2   -1    0    0    0  501 -0.00000000000E+00 -0.00000000000E+00 -0.15361085155E+03  0.15361085155E+03  0.00000000000E+00 0.  1.
         25    2    1    2    0    0  0.11346188396E+03 -0.18335688145E+02  0.60215632603E+02  0.18022988758E+03  0.12508834237E+03 0.  0.
          5    1    3    3  502    0  0.11682501377E+03 -0.74868697808E+01  0.90233634723E+02  0.14786385054E+03  0.41800000000E+01 0. -1.
         -5    1    3    3    0  502 -0.33631298161E+01 -0.10848818365E+02 -0.30018002120E+02  0.32366037035E+02  0.41800000000E+01 0. -1.
        -11    1    1    2    0    0  0.12631983957E+02 -0.68938516389E+00 -0.19350816662E+02  0.23119177669E+02  0.00000000000E+00 0.  1.
         11    1    1    2    0    0 -0.12609386791E+03  0.19025073309E+02 -0.16192469428E+02  0.12854498437E+03  0.00000000000E+00 0. -1.
</event>
<event>
 7    1  0.2900135E-009  0.1170431E+03  0.7561462E-02  0.1248056E+00
          2   -1    0    0  501    0  0.00000000000E+00  0.00000000000E+00  0.19253211778E+03  0.19253211778E+03  0.00000000000E+00 0. -1.
         -2   -1    0    0    0  501 -0.00000000000E+00 -0.00000000000E+00 -0.89860879467E+02  0.89860879467E+02  0.00000000000E+00 0.  1.
         25    2    1    2    0    0 -0.36732289797E+02 -0.30594276080E+02  0.12077664815E+03  0.18032825751E+03  0.12508401527E+03 0.  0.
          5    1    3    3  502    0 -0.80566561238E+02 -0.70816249611E+00  0.71576542273E+02  0.10785242736E+03  0.41800000000E+01 0.  1.
         -5    1    3    3    0  502  0.43834271441E+02 -0.29886113584E+02  0.49200105876E+02  0.72475830152E+02  0.41800000000E+01 0.  1.
        -11    1    1    2    0    0  0.26538061088E+02 -0.29244040837E+02 -0.35919492774E+01  0.39653306424E+02  0.00000000000E+00 0.  1.
         11    1    1    2    0    0  0.10194228710E+02  0.59838316918E+02 -0.14513460558E+02  0.62411433311E+02  0.00000000000E+00 0. -1.
</event>
<event>
 7    1  0.2900135E-009  0.1223303E+03  0.7561462E-02  0.1239302E+00
         -1   -1    0    0    0  501 -0.00000000000E+00  0.00000000000E+00  0.11726099405E+03  0.11726099405E+03  0.00000000000E+00 0.  1.
          1   -1    0    0  501    0  0.00000000000E+00 -0.00000000000E+00 -0.39910021571E+03  0.39910021571E+03  0.00000000000E+00 0. -1.
         25    2    1    2    0    0 -0.82964935983E+02 -0.58770927705E+02 -0.33442266268E+03  0.37124548311E+03  0.12508992316E+03 0.  0.
          5    1    3    3  502    0  0.16204159995E+02 -0.71483688537E+01 -0.17801695418E+03  0.17894463488E+03  0.41800000000E+01 0. -1.
         -5    1    3    3    0  502 -0.99169095978E+02 -0.51622558851E+02 -0.15640570850E+03  0.19230084823E+03  0.41800000000E+01 0. -1.
        -11    1    1    2    0    0  0.27559753086E+02  0.51888400783E+02  0.65314316042E+02  0.87851613565E+02  0.00000000000E+00 0.  1.
         11    1    1    2    0    0  0.55405182898E+02  0.68825269219E+01 -0.12730875029E+02  0.57264113088E+02  0.00000000000E+00 0. -1.
</event>
<event>
 7    1  0.2900135E-009  0.1047184E+03  0.7561462E-02  0.1270675E+00
         -3   -1    0    0    0  501 -0.00000000000E+00  0.00000000000E+00  0.55067490630E+03  0.55067490630E+03  0.00000000000E+00 0.  1.
          3   -1    0    0  501    0  0.00000000000E+00 -0.00000000000E+00 -0.35680744781E+02  0.35680744781E+02  0.00000000000E+00 0. -1.
         25    2    1    2    0    0  0.64819346972E+02 -0.78538829585E+01  0.15461348370E+03  0.20932301104E+03  0.12509021700E+03 0.  0.
          5    1    3    3  502    0  0.80844294050E+02 -0.11275807849E+02  0.35661367674E+02  0.89174824179E+02  0.41800000000E+01 0. -1.
         -5    1    3    3    0  502 -0.16024947077E+02  0.34219248902E+01  0.11895211603E+03  0.12014818686E+03  0.41800000000E+01 0. -1.
        -11    1    1    2    0    0 -0.36574454048E+02  0.48839708812E+02  0.19487704899E+03  0.20420595503E+03  0.00000000000E+00 0. -1.
         11    1    1    2    0    0 -0.28244892925E+02 -0.40985825853E+02  0.16550362883E+03  0.17282668501E+03  0.00000000000E+00 0.  1.
</event>
<event>
 7    1  0.2900135E-009  0.1067694E+03  0.7561462E-02  0.1266672E+00
         -1   -1    0    0    0  501 -0.00000000000E+00  0.00000000000E+00  0.71482410829E+03  0.71482410829E+03  0.00000000000E+00 0.  1.
          1   -1    0    0  501    0  0.00000000000E+00 -0.00000000000E+00 -0.25453520441E+02  0.25453520441E+02  0.00000000000E+00 0. -1.
         25    2    1    2    0    0  0.19796959995E+02  0.36576491792E+02  0.56790743432E+03  0.58300830817E+03  0.12510025606E+03 0.  0.
          5    1    3    3  502    0  0.32629721547E+02  0.78517088217E+02  0.42584046773E+03  0.43426628723E+03  0.41800000000E+01 0.  1.
         -5    1    3    3    0  502 -0.12832761552E+02 -0.41940596425E+02  0.14206696659E+03  0.14874202094E+03  0.41800000000E+01 0.  1.
        -11    1    1    2    0    0 -0.31747434981E+02 -0.54343924949E+02  0.12036734842E+03  0.13582879066E+03  0.00000000000E+00 0.  1.
         11    1    1    2    0    0  0.11950474987E+02  0.17767433158E+02  0.10958051096E+01  0.21440529897E+02  0.00000000000E+00 0. -1.
</event>
<event>
 7    1  0.2900135E-009  0.2833718E+03  0.7561462E-02  0.1093861E+00
         -2   -1    0    0    0  501 -0.00000000000E+00  0.00000000000E+00  0.12834475029E+03  0.12834475029E+03  0.00000000000E+00 0.  1.
          2   -1    0    0  501    0  0.00000000000E+00 -0.00000000000E+00 -0.70007273031E+03  0.70007273031E+03  0.00000000000E+00 0. -1.
         25    2    1    2    0    0 -0.61604951430E+02  0.26534350285E+03 -0.20661600853E+03  0.36406012064E+03  0.12508897598E+03 0.  0.
          5    1    3    3  502    0  0.22891091808E+02  0.12510683067E+03 -0.13434344146E+03  0.18504419426E+03  0.41800000000E+01 0.  1.
         -5    1    3    3    0  502 -0.84496043238E+02  0.14023667218E+03 -0.72272567070E+02  0.17901592638E+03  0.41800000000E+01 0.  1.
        -11    1    1    2    0    0 -0.28963884079E+01 -0.68694122991E+02 -0.41752370149E+02  0.80439617182E+02  0.00000000000E+00 0.  1.
         11    1    1    2    0    0  0.64501339838E+02 -0.19664937986E+03 -0.32335960134E+03  0.38391774278E+03  0.00000000000E+00 0. -1.
</event>
<event>
 7    1  0.2900135E-009  0.1281734E+03  0.7561462E-02  0.1230191E+00
          2   -1    0    0  501    0  0.00000000000E+00  0.00000000000E+00  0.43994978117E+03  0.43994978117E+03  0.00000000000E+00 0. -1.
         -2   -1    0    0    0  501 -0.00000000000E+00 -0.00000000000E+00 -0.55396165686E+02  0.55396165686E+02  0.00000000000E+00 0.  1.
         25    2    1    2    0    0 -0.77982758825E+02  0.69385042019E+02  0.27064513693E+03  0.31589809945E+03  0.12508886587E+03 0.  0.
          5    1    3    3  502    0 -0.10575108019E+03  0.62101463244E+02  0.25488157284E+03  0.28288154990E+03  0.41800000000E+01 0. -1.
         -5    1    3    3    0  502  0.27768321369E+02  0.72835787750E+01  0.15763564082E+02  0.33016549547E+02  0.41800000000E+01 0. -1.
        -11    1    1    2    0    0  0.63244475628E+02 -0.59852028440E+02  0.12944502221E+03  0.15600686774E+03  0.00000000000E+00 0. -1.
         11    1    1    2    0    0  0.14738283197E+02 -0.95330135791E+01 -0.15536543649E+02  0.23440979674E+02  0.00000000000E+00 0.  1.
</event>
<event>
 7    1  0.2900135E-009  0.1377000E+03  0.7561462E-02  0.1216458E+00
          2   -1    0    0  501    0  0.00000000000E+00  0.00000000000E+00  0.58602110266E+03  0.58602110266E+03  0.00000000000E+00 0. -1.
         -2   -1    0    0    0  501 -0.00000000000E+00 -0.00000000000E+00 -0.54157345247E+02  0.54157345247E+02  0.00000000000E+00 0.  1.
         25    2    1    2    0    0 -0.23701272644E+02 -0.11549650011E+03  0.35740087779E+03  0.39659060554E+03  0.12509008391E+03 0.  0.
          5    1    3    3  502    0 -0.39686468531E+02 -0.75876351415E+02  0.33936868320E+03  0.35002973020E+03  0.41800000000E+01 0. -1.
         -5    1    3    3    0  502  0.15985195887E+02 -0.39620148697E+02  0.18032194589E+02  0.46560875336E+02  0.41800000000E+01 0. -1.
        -11    1    1    2    0    0  0.43952152471E+02  0.18555336891E+02  0.12311133862E+03  0.13203217006E+03  0.00000000000E+00 0. -1.
         11    1    1    2    0    0 -0.20250879828E+02  0.96941163221E+02  0.51351541000E+02  0.11155567231E+03  0.00000000000E+00 0.  1.
</event>
<event>
 7    1  0.2900135E-009  0.9921679E+02  0.7561462E-02  0.1281952E+00
          1   -1    0    0  501    0  0.00000000000E+00  0.00000000000E+00  0.33426512160E+03  0.33426512160E+03  0.00000000000E+00 0. -1.
         -1   -1    0    0    0  501 -0.00000000000E+00 -0.00000000000E+00 -0.43292982460E+02  0.43292982460E+02  0.00000000000E+00 0.  1.
         25    2    1    2    0    0 -0.15625778629E+02 -0.19869068435E+02  0.24129909607E+03  0.27296893705E+03  0.12509133459E+03 0.  0.
          5    1    3    3  502    0  0.44910355513E+02  0.16014738069E+02  0.15103736153E+03  0.15843979565E+03  0.41800000000E+01 0. -1.
         -5    1    3    3    0  502 -0.60536134142E+02 -0.35883806504E+02  0.90261734538E+02  0.11452914139E+03  0.41800000000E+01 0. -1.
        -11    1    1    2    0    0 -0.30179666031E+02  0.87950530880E-01 -0.49784947299E+01  0.30587667233E+02  0.00000000000E+00 0.  1.
         11    1    1    2    0    0  0.45805444659E+02  0.19781117904E+02  0.54651537795E+02  0.74001499778E+02  0.00000000000E+00 0. -1.
</event>
<event>
 6    1  0.2900135E-009  0.1177980E+03  0.7561462E-02  0.1246775E+00
         -1   -1    0    0    0  501 -0.00000000000E+00  0.00000000000E+00  0.49022380817E+02  0.49022380817E+02  0.00000000000E+00 0.  1.
          1   -1    0    0  501    0  0.00000000000E+00 -0.00000000000E+00 -0.31274482226E+03  0.31274482226E+03  0.00000000000E+00 0. -1.
          5    1    1    2  502    0  0.75648285500E+02 -0.27366538143E+02 -0.82138401234E+02  0.11504685944E+03  0.41800000000E+01 0.  1.
         -5    1    1    2    0  502 -0.25588367093E+02  0.46102481943E+02 -0.26897990703E+02  0.59339511926E+02  0.41800000000E+01 0.  1.
        -11    1    1    2    0    0 -0.36192523381E+02 -0.53572905389E+02 -0.73085516045E+02  0.97577905266E+02  0.00000000000E+00 0.  1.
         11    1    1    2    0    0 -0.13867395026E+02  0.34836961589E+02 -0.81600533462E+02  0.89802926449E+02  0.00000000000E+00 0. -1.
</event>
<event>
 7    1  0.2900135E-009  0.2239044E+03  0.7561462E-02  0.1131005E+00
         -3   -1    0    0    0  501 -0.00000000000E+00  0.00000000000E+00  0.64316529281E+03  0.64316529281E+03  0.00000000000E+00 0.  1.
          3   -1    0    0  501    0  0.00000000000E+00 -0.00000000000E+00 -0.83374757959E+02  0.83374757959E+02  0.00000000000E+00 0. -1.
         25    2    1    2    0    0 -0.15213959558E+03  0.13430217548E+03  0.24809209504E+03  0.34406537902E+03  0.12509103301E+03 0.  0.
          5    1    3    3  502    0 -0.16886234591E+03  0.95317665795E+02  0.21856329039E+03  0.29221111133E+03  0.41800000000E+01 0. -1.
         -5    1    3    3    0  502  0.16722750330E+02  0.38984509682E+02  0.29528804649E+02  0.51854267691E+02  0.41800000000E+01 0. -1.
        -11    1    1    2    0    0  0.67562126955E+02 -0.98371450664E+02  0.11672935116E+03  0.16693509136E+03  0.00000000000E+00 0. -1.
         11    1    1    2    0    0  0.84577468627E+02 -0.35930724813E+02  0.19496908864E+03  0.21553958038E+03  0.00000000000E+00 0.  1.
</event>
<event>
 7    1  0.2900135E-009  0.2707787E+03  0.7561462E-02  0.1100835E+00
          1   -1    0    0  501    0  0.00000000000E+00  0.00000000000E+00  0.12554005926E+04  0.12554005926E+04  0.00000000000E+00 0. -1.
         -1   -1    0    0    0  501 -0.00000000000E+00 -0.00000000000E+00 -0.70478437908E+02  0.70478437908E+02  0.00000000000E+00 0.  1.
         25    2    1    2    0    0  0.22827806761E+03  0.13162661068E+03  0.79296540384E+03  0.84491306431E+03  0.12509002266E+03 0.  0.
          5    1    3    3  502    0  0.17601769650E+02 -0.40720185154E+01  0.67803848436E+01  0.19744610612E+02  0.41800000000E+01 0. -1.
         -5    1    3    3    0  502  0.21067629796E+03  0.13569862920E+03  0.78618501899E+03  0.82516845370E+03  0.41800000000E+01 0. -1.
        -11    1    1    2    0    0 -0.11782734661E+02 -0.31929441828E+02  0.90359214683E+02  0.96556251841E+02  0.00000000000E+00 0.  1.
         11    1    1    2    0    0 -0.21649533295E+03 -0.99697168856E+02  0.30159753619E+03  0.38440971437E+03  0.00000000000E+00 0. -1.
</event>
<event>
 7    1  0.2900135E-009  0.9719499E+02  0.7561462E-02  0.1286308E+00
          1   -1    0    0  501    0  0.00000000000E+00  0.00000000000E+00  0.68911120758E+02  0.68911120758E+02  0.00000000000E+00 0. -1.
         -1   -1    0    0    0  501 -0.00000000000E+00 -0.00000000000E+00 -0.19731151266E+03  0.19731151266E+03  0.00000000000E+00 0.  1.
         25    2    1    2    0    0 -0.37068809681E+02 -0.34966836163E+02 -0.75246921916E+02  0.15462099736E+03  0.12509507299E+03 0.  0.
          5    1    3    3  502    0 -0.22861130003E+02 -0.79286862767E+02 -0.68664805150E+02  0.10743074857E+03  0.41800000000E+01 0.  1.
         -5    1    3    3    0  502 -0.14207679677E+02  0.44320026604E+02 -0.65821167661E+01  0.47190248793E+02  0.41800000000E+01 0.  1.
        -11    1    1    2    0    0  0.22459597527E+02  0.42893057262E+02 -0.71814671408E+02  0.86611748116E+02  0.00000000000E+00 0.  1.
         11    1    1    2    0    0  0.14609212153E+02 -0.79262210982E+01  0.18661201421E+02  0.24989887937E+02  0.00000000000E+00 0. -1.
</event>
<event>
 7    1  0.2900135E-009  0.7613635E+02  0.7561462E-02  0.1340388E+00
          1   -1    0    0  501    0  0.00000000000E+00  0.00000000000E+00  0.48254869982E+03  0.48254869982E+03  0.00000000000E+00 0. -1.
         -1   -1    0    0    0  501 -0.00000000000E+00 -0.00000000000E+00 -0.29821409490E+02  0.29821409490E+02  0.00000000000E+00 0.  1.
         25    2    1    2    0    0 -0.15068439007E+02 -0.47013305220E+02  0.27800950398E+03  0.30882604292E+03  0.12508769629E+03 0.  0.
          5    1    3    3  502    0 -0.10858447879E+02 -0.16862971327E+02 -0.73881122489E+01  0.21778941547E+02  0.41800000000E+01 0. -1.
         -5    1    3    3    0  502 -0.42099911275E+01 -0.30150333893E+02  0.28539761623E+03  0.28704710138E+03  0.41800000000E+01 0. -1.
        -11    1    1    2    0    0  0.11140756373E+02 -0.25818237960E+02  0.27925369851E+02  0.39629839077E+02  0.00000000000E+00 0.  1.
         11    1    1    2    0    0  0.39276826335E+01  0.72831543181E+02  0.14679241649E+03  0.16391422730E+03  0.00000000000E+00 0. -1.
</event>
<event>
 7    1  0.2900135E-009  0.1088371E+03  0.7561462E-02  0.1262739E+00
         -1   -1    0    0    0  501 -0.00000000000E+00  0.00000000000E+00  0.19635842269E+03  0.19635842269E+03  0.00000000000E+00 0.  1.
          1   -1    0    0  501    0  0.00000000000E+00 -0.00000000000E+00 -0.19927761421E+03  0.19927761421E+03  0.00000000000E+00 0. -1.
         25    2    1    2    0    0 -0.72753326035E+02 -0.12058104432E+02  0.14498546899E+03  0.20520355731E+03  0.12509703986E+03 0.  0.
          5    1    3    3  502    0 -0.75369447377E+02  0.12197013569E+02  0.15923570909E+03  0.17664315494E+03  0.41800000000E+01 0. -1.
         -5    1    3    3    0  502  0.26161213419E+01 -0.24255118001E+02 -0.14250240105E+02  0.28560402363E+02  0.41800000000E+01 0. -1.
        -11    1    1    2    0    0  0.64295855609E+02  0.47552863031E+02 -0.78714936921E+02  0.11221084228E+03  0.00000000000E+00 0. -1.
         11    1    1    2    0    0  0.84574704258E+01 -0.35494758599E+02 -0.69189723590E+02  0.78221637316E+02  0.00000000000E+00 0.  1.
</event>
<event>
 7    1  0.2900135E-009  0.8805192E+02  0.7561462E-02  0.1307639E+00
          1   -1    0    0  501    0  0.00000000000E+00  0.00000000000E+00  0.16663618771E+03  0.16663618771E+03  0.00000000000E+00 0. -1.
         -1   -1    0    0    0  501 -0.00000000000E+00 -0.00000000000E+00 -0.73253654843E+02  0.73253654843E+02  0.00000000000E+00 0.  1.
         25    2    1    2    0    0  0.80840744665E+01  0.18230661570E+02  0.46050645731E+02  0.13474935790E+03  0.12505606024E+03 0.  0.
          5    1    3    3  502    0  0.64199821362E+02 -0.73837988356E+01  0.25475854325E+02  0.69589001299E+02  0.41800000000E+01 0. -1.
         -5    1    3    3    0  502 -0.56115746895E+02  0.25614460406E+02  0.20574791406E+02  0.65160356605E+02  0.41800000000E+01 0. -1.
        -11    1    1    2    0    0 -0.25774310447E+02 -0.18665819833E+02  0.69698755268E+02  0.76620130481E+02  0.00000000000E+00 0. -1.
         11    1    1    2    0    0  0.17690235981E+02  0.43515826342E+00 -0.22366868133E+02  0.28520354168E+02  0.00000000000E+00 0.  1.
</event>
<event>
 7    1  0.2900135E-009  0.1416673E+03  0.7561462E-02  0.1211103E+00
          2   -1    0    0  501    0  0.00000000000E+00  0.00000000000E+00  0.22478203903E+03  0.22478203903E+03  0.00000000000E+00 0. -1.
         -2   -1    0    0    0  501 -0.00000000000E+00 -0.00000000000E+00 -0.12293255372E+03  0.12293255372E+03  0.00000000000E+00 0.  1.
         25    2    1    2    0    0  0.17401919439E+02  0.12874132920E+03  0.35760412646E+02  0.18385968234E+03  0.12509364107E+03 0.  0.
          5    1    3    3  502    0 -0.28182662626E+02  0.77736671669E+02  0.68920115215E+02  0.10772514691E+03  0.41800000000E+01 0. -1.
         -5    1    3    3    0  502  0.45584582065E+02  0.51004657528E+02 -0.33159702569E+02  0.76134535436E+02  0.41800000000E+01 0. -1.
        -11    1    1    2    0    0  0.10980858975E+01 -0.77852165146E+02 -0.71377449662E+00  0.77863180545E+02  0.00000000000E+00 0.  1.
         11    1    1    2    0    0 -0.18500005337E+02 -0.50889164052E+02  0.66802847165E+02  0.85991729862E+02  0.00000000000E+00 0. -1.
</event>
<event>
 7    1  0.2900135E-009  0.1157657E+03  0.7561462E-02  0.1250250E+00
         -1   -1    0    0    0  501 -0.00000000000E+00  0.00000000000E+00  0.44855106805E+02  0.44855106805E+02  0.00000000000E+00 0.  1.
          1   -1    0    0  501    0  0.00000000000E+00 -0.00000000000E+00 -0.37879092999E+03  0.37879092999E+03  0.00000000000E+00 0. -1.
         25    2    1    2    0    0  0.18016619806E+02 -0.54010989888E+02 -0.11143590280E+03  0.17693881587E+03  0.12509036138E+03 0.  0.
          5    1    3    3  502    0  0.51759552370E+02  0.19071583174E+02 -0.32706608542E+02  0.64264851892E+02  0.41800000000E+01 0.  1.
         -5    1    3    3    0  502 -0.33742932565E+02 -0.73082573062E+02 -0.78729294261E+02  0.11267396398E+03  0.41800000000E+01 0.  1.
        -11    1    1    2    0    0  0.26100893587E+02  0.30330319128E+00 -0.20827066170E+02  0.33393342511E+02  0.00000000000E+00 0.  1.
         11    1    1    2    0    0 -0.44117513392E+02  0.53707686697E+02 -0.20167285421E+03  0.21331387842E+03  0.00000000000E+00 0. -1.
</event>
<event>
 7    1  0.2900135E-009  0.8235916E+02  0.7561462E-02  0.1322487E+00
          1   -1    0    0  501    0  0.00000000000E+00  0.00000000000E+00  0.11062209500E+03  0.11062209500E+03  0.00000000000E+00 0. -1.
         -1   -1    0    0    0  501 -0.00000000000E+00 -0.00000000000E+00 -0.13281675854E+03  0.13281675854E+03  0.00000000000E+00 0.  1.
         25    2    1    2    0    0  0.51985390611E+02 -0.12957623473E+02 -0.63585512188E+01  0.13622542111E+03  0.12508618365E+03 0.  0.
          5    1    3    3  502    0 -0.35218291221E+01 -0.23851768494E+02  0.50373486833E+02  0.56002417058E+02  0.41800000000E+01 0. -1.
         -5    1    3    3    0  502  0.55507219733E+02  0.10894145021E+02 -0.56732038051E+02  0.80223004056E+02  0.41800000000E+01 0. -1.
        -11    1    1    2    0    0 -0.66167026172E+02  0.30673351098E+01 -0.40091757064E+02  0.77426306134E+02  0.00000000000E+00 0.  1.
         11    1    1    2    0    0  0.14181635561E+02  0.98902883631E+01  0.24255644735E+02  0.29787126290E+02  0.00000000000E+00 0. -1.
</event>
<event>
 7    1  0.2900135E-009  0.8569720E+02  0.7561462E-02  0.1313619E+00
          1   -1    0    0  501    0  0.00000000000E+00  0.00000000000E+00  0.61358908746E+03  0.61358908746E+03  0.00000000000E+00 0. -1.
         -1   -1    0    0    0  501 -0.00000000000E+00 -0.00000000000E+00 -0.25646860006E+02  0.25646860006E+02  0.00000000000E+00 0.  1.
         25    2    1    2    0    0  0.28435169508E+02  0.85911073375E+01  0.46779335949E+03  0.48513919166E+03  0.12508813736E+03 0.  0.
          5    1    3    3  502    0 -0.12439651034E+02 -0.40878845707E+02  0.69529872808E+02  0.81717198660E+02  0.41800000000E+01 0. -1.
         -5    1    3    3    0  502  0.40874820542E+02  0.49469953044E+02  0.39826348669E+03  0.40342199300E+03  0.41800000000E+01 0. -1.
        -11    1    1    2    0    0 -0.45623938963E+02 -0.17642018665E+01  0.12654280290E+03  0.13452783050E+03  0.00000000000E+00 0. -1.
         11    1    1    2    0    0  0.17188769455E+02 -0.68269054710E+01 -0.63939349339E+01  0.19568925306E+02  0.00000000000E+00 0.  1.
</event>
<event>
 6    1  0.2900135E-009  0.1042928E+03  0.7561462E-02  0.1271519E+00
         -1   -1    0    0    0  501 -0.00000000000E+00  0.00000000000E+00  0.36268273570E+02  0.36268273570E+02  0.00000000000E+00 0.  1.
          1   -1    0    0  501    0  0.00000000000E+00 -0.00000000000E+00 -0.36801693838E+03  0.36801693838E+03  0.00000000000E+00 0. -1.
          5    1    1    2  502    0 -0.75414777564E+02 -0.15527616135E+02 -0.93307410515E+02  0.12104644065E+03  0.41800000000E+01 0.  1.
         -5    1    1    2    0  502  0.41270090399E+02  0.90811497842E+01 -0.13640089903E+03  0.14285784998E+03  0.41800000000E+01 0.  1.
        -11    1    1    2    0    0 -0.13026350273E+02  0.32578337404E+02 -0.15372540191E+02  0.38305989888E+02  0.00000000000E+00 0.  1.
         11    1    1    2    0    0  0.47171037438E+02 -0.26131871053E+02 -0.86667815070E+02  0.10207493143E+03  0.00000000000E+00 0. -1.
</event>
<event>
 7    1  0.2900135E-009  0.1130356E+03  0.7561462E-02  0.1255050E+00
         -1   -1    0    0    0  501 -0.00000000000E+00  0.00000000000E+00  0.13897200242E+03  0.13897200242E+03  0.00000000000E+00 0.  1.
          1   -1    0    0  501    0  0.00000000000E+00 -0.00000000000E+00 -0.11682832779E+03  0.11682832779E+03  0.00000000000E+00 0. -1.
         25    2    1    2    0    0  0.46094179557E+02 -0.23898500709E+02  0.53197409653E+02  0.14551254073E+03  0.12509245937E+03 0.  0.
          5    1    3    3  502    0 -0.33721732254E+02 -0.37427631686E+02  0.37505716341E+02  0.62945484334E+02  0.41800000000E+01 0. -1.
         -5    1    3    3    0  502  0.79815911812E+02  0.13529130977E+02  0.15691693312E+02  0.82567056398E+02  0.41800000000E+01 0. -1.
        -11    1    1    2    0    0  0.90816859953E+01 -0.21285163709E+02 -0.31356540677E+02  0.38971372286E+02  0.00000000000E+00 0. -1.
         11    1    1    2    0    0 -0.55175865553E+02  0.45183664418E+02  0.30280565438E+00  0.71316417191E+02  0.00000000000E+00 0.  1.
</event>
<event>
 7    1  0.2900135E-009  0.7649083E+02  0.7561462E-02  0.1339316E+00
          2   -1    0    0  501    0  0.00000000000E+00  0.00000000000E+00  0.90457855358E+02  0.90457855358E+02  0.00000000000E+00 0. -1.
         -2   -1    0    0    0  501 -0.00000000000E+00 -0.00000000000E+00 -0.16596549987E+03  0.16596549987E+03  0.00000000000E+00 0.  1.
         25    2    1    2    0    0 -0.17613516974E+02 -0.50893680799E+02 -0.68183049374E+02  0.15230919070E+03  0.12509499840E+03 0.  0.
          5    1    3    3  502    0 -0.21980148412E+02 -0.44557701117E+01 -0.95437260939E+02  0.98126061711E+02  0.41800000000E+01 0.  1.
         -5    1    3    3    0  502  0.43666314378E+01 -0.46437910687E+02  0.27254211565E+02  0.54183128990E+02  0.41800000000E+01 0.  1.
        -11    1    1    2    0    0 -0.24092704388E+02  0.21756751073E+02 -0.33713172220E+02  0.46801630347E+02  0.00000000000E+00 0.  1.
         11    1    1    2    0    0  0.41706221363E+02  0.29136929726E+02  0.26388577079E+02  0.57312534183E+02  0.00000000000E+00 0. -1.
</event>
<event>
 7    1  0.2900135E-009  0.2016644E+03  0.7561462E-02  0.1148342E+00
         -1   -1    0    0    0  501 -0.00000000000E+00  0.00000000000E+00  0.65078033820E+02  0.65078033820E+02  0.00000000000E+00 0.  1.
          1   -1    0    0  501    0  0.00000000000E+00 -0.00000000000E+00 -0.74194166553E+03  0.74194166553E+03  0.00000000000E+00 0. -1.
         25    2    1    2    0    0 -0.12647771272E+03 -0.13384145671E+03 -0.42369712262E+03  0.47862007974E+03  0.12509109348E+03 0.  0.
          5    1    3    3  502    0 -0.99318382074E+01 -0.87633753206E+02 -0.11192705530E+03  0.14256035290E+03  0.41800000000E+01 0. -1.
         -5    1    3    3    0  502 -0.11654587451E+03 -0.46207703500E+02 -0.31177006732E+03  0.33605972684E+03  0.41800000000E+01 0. -1.
        -11    1    1    2    0    0  0.14625962601E+02  0.43253975348E+02 -0.13390792860E+03  0.14147847365E+03  0.00000000000E+00 0. -1.
         11    1    1    2    0    0  0.11185175012E+03  0.90587481357E+02 -0.11925858049E+03  0.18692114595E+03  0.00000000000E+00 0.  1.
</event>
<event>
 7    1  0.2946973E-009  0.8002308E+02  0.7561462E-02  0.1328986E+00
         -3   -1    0    0    0  501 -0.00000000000E+00  0.00000000000E+00  0.18086536964E+03  0.18086536964E+03  0.00000000000E+00 0.  1.
          3   -1    0    0  501    0  0.00000000000E+00 -0.00000000000E+00 -0.78428688868E+02  0.78428688868E+02  0.00000000000E+00 0. -1.
         25    2    1    2    0    0  0.28290187293E+02  0.23615621905E+02  0.94078781637E+02  0.16079760682E+03  0.12508805262E+03 0.  0.
          5    1    3    3  502    0 -0.34047067594E+02 -0.56804505657E+01 -0.97669610229E+01  0.36115595773E+02  0.41800000000E+01 0. -1.
         -5    1    3    3    0  502  0.62337254887E+02  0.29296072470E+02  0.10384574266E+03  0.12468201104E+03  0.41800000000E+01 0. -1.
        -11    1    1    2    0    0 -0.13637480536E+02 -0.35098879221E+02 -0.34938508114E+02  0.51367417175E+02  0.00000000000E+00 0. -1.
         11    1    1    2    0    0 -0.14652706757E+02  0.11483257316E+02  0.43296407253E+02  0.47129034522E+02  0.00000000000E+00 0.  1.
</event>
<event>
 7    1  0.2900135E-009  0.8631704E+02  0.7561462E-02  0.1312024E+00
         -2   -1    0    0    0  501 -0.00000000000E+00  0.00000000000E+00  0.38651954976E+03  0.38651954976E+03  0.00000000000E+00 0.  1.
          2   -1    0    0  501    0  0.00000000000E+00 -0.00000000000E+00 -0.38323892913E+02  0.38323892913E+02  0.00000000000E+00 0. -1.
         25    2    1    2    0    0 -0.18533395181E+02 -0.35819878013E+02  0.13225746300E+03  0.18645503105E+03  0.12508753610E+03 0.  0.
          5    1    3    3  502    0  0.38316436733E+01 -0.51051451437E+02  0.14674729400E+03  0.15547724233E+03  0.41800000000E+01 0. -1.
         -5    1    3    3    0  502 -0.22365038855E+02  0.15231573424E+02 -0.14489830993E+02  0.30977788723E+02  0.41800000000E+01 0. -1.
        -11    1    1    2    0    0  0.51450988765E+02  0.32379452067E+02  0.93260331322E+02  0.11132440235E+03  0.00000000000E+00 0. -1.
         11    1    1    2    0    0 -0.32917593584E+02  0.34404259458E+01  0.12267786253E+03  0.12706400927E+03  0.00000000000E+00 0.  1.
</event>
<event>
 7    1  0.2900135E-009  0.1481544E+03  0.7561462E-02  0.1202759E+00
          1   -1    0    0  501    0  0.00000000000E+00  0.00000000000E+00  0.15018297771E+03  0.15018297771E+03  0.00000000000E+00 0. -1.
         -1   -1    0    0    0  501 -0.00000000000E+00 -0.00000000000E+00 -0.17509868367E+03  0.17509868367E+03  0.00000000000E+00 0.  1.
         25    2    1    2    0    0  0.76950963542E+02  0.84943237863E+02  0.27275763850E+02  0.17183873195E+03  0.12509107904E+03 0.  0.
          5    1    3    3  502    0  0.29956123975E+02  0.11148006386E+03  0.17385497595E+02  0.11681139469E+03  0.41800000000E+01 0. -1.
         -5    1    3    3    0  502  0.46994839567E+02 -0.26536825996E+02  0.98902662550E+01  0.55027337265E+02  0.41800000000E+01 0. -1.
        -11    1    1    2    0    0 -0.65143831085E+02 -0.92137643231E+02 -0.15085629311E+02  0.11384480770E+03  0.00000000000E+00 0. -1.
         11    1    1    2    0    0 -0.11807132457E+02  0.71944053681E+01 -0.37105840501E+02  0.39598121733E+02  0.00000000000E+00 0.  1.
</event>
<event>
 7    1  0.2900135E-009  0.1151519E+03  0.7561462E-02  0.1251316E+00
          2   -1    0    0  501    0  0.00000000000E+00  0.00000000000E+00  0.44067947053E+03  0.44067947053E+03  0.00000000000E+00 0. -1.
         -2   -1    0    0    0  501 -0.00000000000E+00 -0.00000000000E+00 -0.51862838745E+02  0.51862838745E+02  0.00000000000E+00 0.  1.
         25    2    1    2    0    0  0.79609727182E+02 -0.47603015216E+02  0.28642351389E+03  0.32602075469E+03  0.12508935789E+03 0.  0.
          5    1    3    3  502    0  0.29570221793E+02  0.29202886995E+01  0.23800879825E+03  0.23989286473E+03  0.41800000000E+01 0.  1.
         -5    1    3    3    0  502  0.50039505389E+02 -0.50523303916E+02  0.48414715641E+02  0.86127889959E+02  0.41800000000E+01 0.  1.
        -11    1    1    2    0    0 -0.20855716995E+02 -0.26991611421E+02  0.14266487668E+02  0.36973513342E+02  0.00000000000E+00 0.  1.
         11    1    1    2    0    0 -0.58754010187E+02  0.74594626637E+02  0.88126630231E+02  0.12954804125E+03  0.00000000000E+00 0. -1.
</event>
<event>
 7    1  0.2900135E-009  0.8682578E+02  0.7561462E-02  0.1310726E+00
          2   -1    0    0  501    0  0.00000000000E+00  0.00000000000E+00  0.31666377651E+03  0.31666377651E+03  0.00000000000E+00 0. -1.
         -2   -1    0    0    0  501 -0.00000000000E+00 -0.00000000000E+00 -0.40028265197E+02  0.40028265197E+02  0.00000000000E+00 0.  1.
         25    2    1    2    0    0 -0.16134309708E+02  0.28389323281E+02  0.18626082957E+03  0.22673099859E+03  0.12509028526E+03 0.  0.
          5    1    3    3  502    0 -0.52941646218E+01 -0.36413744190E+02  0.96818262885E+01  0.38277919291E+02  0.41800000000E+01 0.  1.
         -5    1    3    3    0  502 -0.10840145086E+02  0.64803067471E+02  0.17657900328E+03  0.18845307930E+03  0.41800000000E+01 0.  1.
        -11    1    1    2    0    0 -0.21936761993E+02 -0.23909605487E+02  0.85336858507E+02  0.91297700854E+02  0.00000000000E+00 0. -1.
         11    1    1    2    0    0  0.38071071701E+02 -0.44797177942E+01  0.50378232410E+01  0.38663342264E+02  0.00000000000E+00 0.  1.
</event>
<event>
 7    1  0.2900135E-009  0.1078456E+03  0.7561462E-02  0.1264612E+00
         -2   -1    0    0    0  501 -0.00000000000E+00  0.00000000000E+00  0.35032451717E+03  0.35032451717E+03  0.00000000000E+00 0. -1.
          2   -1    0    0  501    0  0.00000000000E+00 -0.00000000000E+00 -0.51054881401E+02  0.51054881401E+02  0.00000000000E+00 0.  1.
         25    2    1    2    0    0 -0.25580138699E+02  0.29681252388E+02  0.61405618807E+02  0.14476548993E+03  0.12510426378E+03 0.  0.
          5    1    3    3  502    0  0.25941055245E+02  0.60379083454E+02  0.11961994158E+02  0.66926330918E+02  0.41800000000E+01 0. -1.
         -5    1    3    3    0  502 -0.51521193944E+02 -0.30697831066E+02  0.49443624650E+02  0.77839159014E+02  0.41800000000E+01 0. -1.
        -11    1    1    2    0    0  0.73726153263E+01  0.28147222893E+02  0.12663757978E+03  0.12993728574E+03  0.00000000000E+00 0.  1.
         11    1    1    2    0    0  0.18207523372E+02 -0.57828475281E+02  0.11122643718E+03  0.12667662290E+03  0.00000000000E+00 0. -1.
</event>
<event>
 7    1  0.2900135E-009  0.1266455E+03  0.7561462E-02  0.1232520E+00
          2   -1    0    0  501    0  0.00000000000E+00  0.00000000000E+00  0.71502775026E+03  0.71502775026E+03  0.00000000000E+00 0. -1.
         -2   -1    0    0    0  501 -0.00000000000E+00 -0.00000000000E+00 -0.40121749959E+02  0.40121749959E+02  0.00000000000E+00 0.  1.
         25    2    1    2    0    0  0.41665707194E+02 -0.80650520689E+02  0.15395084019E+03  0.21814865449E+03  0.12508971428E+03 0.  0.
          5    1    3    3  502    0 -0.41150775030E+01  0.22613220049E+02 -0.42202128985E+01  0.23739717369E+02  0.41800000000E+01 0.  1.
         -5    1    3    3    0  502  0.45780784697E+02 -0.10326374074E+03  0.15817105309E+03  0.19440893712E+03  0.41800000000E+01 0.  1.
        -11    1    1    2    0    0 -0.30149242652E+02 -0.49243664305E+01  0.53237033327E+02  0.61379214191E+02  0.00000000000E+00 0.  1.
         11    1    1    2    0    0 -0.11516464543E+02  0.85574887120E+02  0.46771812678E+03  0.47562163153E+03  0.00000000000E+00 0. -1.
</event>
<event>
 7    1  0.2900135E-009  0.7921380E+02  0.7561462E-02  0.1331297E+00
         -2   -1    0    0    0  501 -0.00000000000E+00  0.00000000000E+00  0.18400680162E+03  0.18400680162E+03  0.00000000000E+00 0.  1.
          2   -1    0    0  501    0  0.00000000000E+00 -0.00000000000E+00 -0.77272572715E+02  0.77272572715E+02  0.00000000000E+00 0. -1.
         25    2    1    2    0    0 -0.26123534218E+02  0.38863936528E+02  0.43336774539E+02  0.14042354744E+03  0.12509137479E+03 0.  0.
          5    1    3    3  502    0  0.37379913991E+01 -0.12338820956E+01  0.78785004893E+02  0.78993951925E+02  0.41800000000E+01 0. -1.
         -5    1    3    3    0  502 -0.29861525617E+02  0.40097818623E+02 -0.35448230353E+02  0.61429595519E+02  0.41800000000E+01 0. -1.
        -11    1    1    2    0    0  0.44668704503E+00  0.29492606841E+02  0.13658238522E+02  0.32504782219E+02  0.00000000000E+00 0.  1.
         11    1    1    2    0    0  0.25676847172E+02 -0.68356543369E+02  0.49739215844E+02  0.88351044673E+02  0.00000000000E+00 0. -1.
</event>
<event>
 7    1  0.2900135E-009  0.1060201E+03  0.7561462E-02  0.1268123E+00
         -1   -1    0    0    0  501 -0.00000000000E+00  0.00000000000E+00  0.37610441507E+02  0.37610441507E+02  0.00000000000E+00 0.  1.
          1   -1    0    0  501    0  0.00000000000E+00 -0.00000000000E+00 -0.33968077378E+03  0.33968077378E+03  0.00000000000E+00 0. -1.
         25    2    1    2    0    0  0.29454042000E+02  0.94060530213E+01 -0.19841901719E+03  0.23658628660E+03  0.12508777000E+03 0.  0.
          5    1    3    3  502    0  0.54254523322E+02 -0.42763940859E+02 -0.12702349279E+03  0.14465389057E+03  0.41800000000E+01 0. -1.
         -5    1    3    3    0  502 -0.24800481322E+02  0.52169993880E+02 -0.71395524404E+02  0.91932396032E+02  0.41800000000E+01 0. -1.
        -11    1    1    2    0    0  0.22796353700E+02  0.14956799374E+02 -0.67139538674E+02  0.72464455031E+02  0.00000000000E+00 0. -1.
         11    1    1    2    0    0 -0.52250395700E+02 -0.24362852395E+02 -0.36511776411E+02  0.68240473653E+02  0.00000000000E+00 0.  1.
</event>
<event>
 7    1  0.2900135E-009  0.1084854E+03  0.7561462E-02  0.1263401E+00
          3   -1    0    0  501    0  0.00000000000E+00  0.00000000000E+00  0.63438455416E+03  0.63438455416E+03  0.00000000000E+00 0. -1.
         -3   -1    0    0    0  501 -0.00000000000E+00 -0.00000000000E+00 -0.24503653963E+02  0.24503653963E+02  0.00000000000E+00 0.  1.
         25    2    1    2    0    0 -0.67107442066E+01  0.38162765556E+02  0.47049424660E+03  0.48837996685E+03  0.12509486469E+03 0.  0.
          5    1    3    3  502    0 -0.36330797859E+02 -0.29323779227E+02  0.28338042700E+03  0.28723117816E+03  0.41800000000E+01 0. -1.
         -5    1    3    3    0  502  0.29620053652E+02  0.67486544783E+02  0.18711381959E+03  0.20114878868E+03  0.41800000000E+01 0. -1.
        -11    1    1    2    0    0  0.42126194100E+02 -0.43392043332E+02  0.70585371609E+02  0.92950418714E+02  0.00000000000E+00 0.  1.
         11    1    1    2    0    0 -0.35415449893E+02  0.52292777763E+01  0.68801281997E+02  0.77557822569E+02  0.00000000000E+00 0. -1.
</event>
<event>
 7    1  0.2900135E-009  0.7514324E+02  0.7561462E-02  0.1343428E+00
         -1   -1    0    0    0  501 -0.00000000000E+00  0.00000000000E+00  0.91252719333E+01  0.91252719333E+01  0.00000000000E+00 0.  1.
          1   -1    0    0  501    0  0.00000000000E+00 -0.00000000000E+00 -0.14065587688E+04  0.14065587688E+04  0.00000000000E+00 0. -1.
         25    2    1    2    0    0 -0.36703196448E+02 -0.87051931778E+00 -0.10675216849E+04  0.10754521210E+04  0.12508730746E+03 0.  0.
          5    1    3    3  502    0  0.20640674216E+01  0.21856507049E+02 -0.32473244974E+02  0.39420189165E+02  0.41800000000E+01 0. -1.
         -5    1    3    3    0  502 -0.38767263869E+02 -0.22727026366E+02 -0.10350484399E+04  0.10360319318E+04  0.41800000000E+01 0. -1.
        -11    1    1    2    0    0  0.57954915354E+02 -0.10197528644E+02 -0.24812402208E+03  0.25500645509E+03  0.00000000000E+00 0. -1.
         11    1    1    2    0    0 -0.21251718907E+02  0.11068047962E+02 -0.81787789913E+02  0.85225464628E+02  0.00000000000E+00 0.  1.
</event>
<event>
 7    1  0.2900135E-009  0.9649860E+02  0.7561462E-02  0.1287836E+00
         -2   -1    0    0    0  501 -0.00000000000E+00  0.00000000000E+00  0.24867265760E+02  0.24867265760E+02  0.00000000000E+00 0.  1.
          2   -1    0    0  501    0  0.00000000000E+00 -0.00000000000E+00 -0.69427001551E+03  0.69427001551E+03  0.00000000000E+00 0. -1.
         25    2    1    2    0    0 -0.38482579183E+02 -0.56335550524E+02 -0.42296057871E+03  0.44631555360E+03  0.12508924451E+03 0.  0.
          5    1    3    3  502    0 -0.19719863326E+02  0.17587120180E+00 -0.35616428663E+03  0.35673432048E+03  0.41800000000E+01 0. -1.
         -5    1    3    3    0  502 -0.18762715858E+02 -0.56511421725E+02 -0.66796292082E+02  0.89581233123E+02  0.41800000000E+01 0. -1.
        -11    1    1    2    0    0 -0.25864850874E+02  0.38486057307E+02 -0.13679743461E+03  0.14444274033E+03  0.00000000000E+00 0. -1.
         11    1    1    2    0    0  0.64347430057E+02  0.17849493216E+02 -0.10964473643E+03  0.12837898734E+03  0.00000000000E+00 0.  1.
</event>
<event>
 7    1  0.2900135E-009  0.1052003E+03  0.7561462E-02  0.1269726E+00
         -2   -1    0    0    0  501 -0.00000000000E+00  0.00000000000E+00  0.12837662622E+02  0.12837662622E+02  0.00000000000E+00 0.  1.
          2   -1    0    0  501    0  0.00000000000E+00 -0.00000000000E+00 -0.14155711498E+04  0.14155711498E+04  0.00000000000E+00 0. -1.
         25    2    1    2    0    0  0.36633828988E+02 -0.57834883496E+02 -0.98989426286E+03  0.10001123861E+04  0.12508885633E+03 0.  0.
          5    1    3    3  502    0  0.70731058829E+02 -0.49614491469E+02 -0.40408623268E+03  0.41324040980E+03  0.41800000000E+01 0. -1.
         -5    1    3    3    0  502 -0.34097229841E+02 -0.82203920267E+01 -0.58580803018E+03  0.58687197629E+03  0.41800000000E+01 0. -1.
        -11    1    1    2    0    0 -0.45607556579E+02  0.63340631582E+02 -0.41003999342E+03  0.41740254076E+03  0.00000000000E+00 0. -1.
         11    1    1    2    0    0  0.89737275911E+01 -0.55057480868E+01 -0.27992308608E+01  0.10893885546E+02  0.00000000000E+00 0.  1.
</event>
<event>
 7    1  0.2900135E-009  0.1314884E+03  0.7561462E-02  0.1225264E+00
          2   -1    0    0  501    0  0.00000000000E+00  0.00000000000E+00  0.45007623339E+03  0.45007623339E+03  0.00000000000E+00 0. -1.
         -2   -1    0    0    0  501 -0.00000000000E+00 -0.00000000000E+00 -0.45209427776E+02  0.45209427776E+02  0.00000000000E+00 0.  1.
         25    2    1    2    0    0 -0.31004857700E+02  0.87814400935E+02  0.22574853236E+03  0.27437697468E+03  0.12509058381E+03 0.  0.
          5    1    3    3  502    0 -0.16943908613E+02  0.11655484083E+03  0.14144680745E+03  0.18411083265E+03  0.41800000000E+01 0.  1.
         -5    1    3    3    0  502 -0.14060949087E+02 -0.28740439893E+02  0.84301724911E+02  0.90266142033E+02  0.41800000000E+01 0.  1.
        -11    1    1    2    0    0  0.19833806477E+02  0.41094203529E+01  0.11460896183E+01  0.20287452684E+02  0.00000000000E+00 0. -1.
         11    1    1    2    0    0  0.11171051224E+02 -0.91923821288E+02  0.17797218364E+03  0.20062123381E+03  0.00000000000E+00 0.  1.
</event>
<event>
 7    1  0.2900135E-009  0.9552356E+02  0.7561462E-02  0.1290001E+00
         -2   -1    0    0    0  501 -0.00000000000E+00  0.00000000000E+00  0.53915352974E+02  0.53915352974E+02  0.00000000000E+00 0.  1.
          2   -1    0    0  501    0  0.00000000000E+00 -0.00000000000E+00 -0.23242974918E+03  0.23242974918E+03  0.00000000000E+00 0. -1.
         25    2    1    2    0    0  0.15873815999E+02 -0.22391530437E+02 -0.11224913808E+03  0.17029542193E+03  0.12508918043E+03 0.  0.
          5    1    3    3  502    0  0.27743771539E+02 -0.58997707425E+02 -0.11416903575E+03  0.13153891996E+03  0.41800000000E+01 0.  1.
         -5    1    3    3    0  502 -0.11869955541E+02  0.36606176988E+02  0.19198976651E+01  0.38756501974E+02  0.41800000000E+01 0.  1.
        -11    1    1    2    0    0 -0.34890650137E+02  0.45336298883E+02 -0.64473306464E+02  0.86194806745E+02  0.00000000000E+00 0. -1.
         11    1    1    2    0    0  0.19016834138E+02 -0.22944768446E+02 -0.17919516631E+01  0.29854873479E+02  0.00000000000E+00 0.  1.
</event>
<event>
 7    1  0.2900135E-009  0.1224333E+03  0.7561462E-02  0.1239136E+00
         -2   -1    0    0    0  501 -0.00000000000E+00  0.00000000000E+00  0.12225970070E+02  0.12225970070E+02  0.00000000000E+00 0. -1.
          2   -1    0    0  501    0  0.00000000000E+00 -0.00000000000E+00 -0.12410412927E+04  0.12410412927E+04  0.00000000000E+00 0.  1.
         25    2    1    2    0    0 -0.58468010312E+02  0.19508980963E+01 -0.72220242715E+03  0.73528656888E+03  0.12509068057E+03 0.  0.
          5    1    3    3  502    0 -0.41082930535E+02 -0.59891481092E+02 -0.33940528579E+03  0.34711412693E+03  0.41800000000E+01 0.  1.
         -5    1    3    3    0  502 -0.17385079777E+02  0.61842379188E+02 -0.38279714135E+03  0.38817244195E+03  0.41800000000E+01 0.  1.
        -11    1    1    2    0    0  0.73251619304E+02 -0.27484905427E+02 -0.38083302144E+03  0.38878658667E+03  0.00000000000E+00 0.  1.
         11    1    1    2    0    0 -0.14783608992E+02  0.25534007331E+02 -0.12577987402E+03  0.12919410720E+03  0.00000000000E+00 0. -1.
</event>
<event>
 7    1  0.2900135E-009  0.9910356E+02  0.7561462E-02  0.1282192E+00
         -1   -1    0    0    0  501 -0.00000000000E+00  0.00000000000E+00  0.45603145542E+02  0.45603145542E+02  0.00000000000E+00 0.  1.
          1   -1    0    0  501    0  0.00000000000E+00 -0.00000000000E+00 -0.36656696354E+03  0.36656696354E+03  0.00000000000E+00 0. -1.
         25    2    1    2    0    0  0.96522612090E+01 -0.86195745601E+00 -0.67136156611E+02  0.14228230685E+03  0.12507230789E+03 0.  0.
          5    1    3    3  502    0  0.18850372495E+01 -0.60359982797E+02 -0.14246422855E+02  0.62187730726E+02  0.41800000000E+01 0. -1.
         -5    1    3    3    0  502  0.77672239595E+01  0.59498025341E+02 -0.52889733756E+02  0.80094576123E+02  0.41800000000E+01 0. -1.
        -11    1    1    2    0    0  0.76767246954E+01 -0.35991234711E+02 -0.50294379682E+02  0.62320347445E+02  0.00000000000E+00 0.  1.
         11    1    1    2    0    0 -0.17328985904E+02  0.36853192167E+02 -0.20353328170E+03  0.20756745478E+03  0.00000000000E+00 0. -1.
</event>
<event>
 7    1  0.2900135E-009  0.9336373E+02  0.7561462E-02  0.1294904E+00
          1   -1    0    0  501    0  0.00000000000E+00  0.00000000000E+00  0.17249019083E+03  0.17249019083E+03  0.00000000000E+00 0. -1.
         -1   -1    0    0    0  501 -0.00000000000E+00 -0.00000000000E+00 -0.26100489438E+03  0.26100489438E+03  0.00000000000E+00 0.  1.
         25    2    1    2    0    0 -0.37198298693E+02  0.73008132998E+02 -0.21188157446E+03  0.25931510062E+03  0.12504646697E+03 0.  0.
          5    1    3    3  502    0 -0.67403925433E+01  0.73567447404E+02 -0.21597192801E+03  0.22829574744E+03  0.41800000000E+01 0.  1.
         -5    1    3    3    0  502 -0.30457906150E+02 -0.55931440571E+00  0.40903535482E+01  0.31019353181E+02  0.41800000000E+01 0.  1.
        -11    1    1    2    0    0  0.23716349402E+02 -0.49419842211E+02  0.13417457517E+03  0.14493999674E+03  0.00000000000E+00 0. -1.
         11    1    1    2    0    0  0.13481949291E+02 -0.23588290787E+02 -0.10807704249E+02  0.29239987860E+02  0.00000000000E+00 0.  1.
</event>
<event>
 6    1  0.2900135E-009  0.1167173E+03  0.7561462E-02  0.1248613E+00
         -1   -1    0    0    0  501 -0.00000000000E+00  0.00000000000E+00  0.39806201978E+02  0.39806201978E+02  0.00000000000E+00 0.  1.
          1   -1    0    0  501    0  0.00000000000E+00 -0.00000000000E+00 -0.35624383494E+03  0.35624383494E+03  0.00000000000E+00 0. -1.
          5    1    1    2  502    0 -0.41863794059E+02  0.47221725053E+02 -0.10537327681E+03  0.12289616933E+03  0.41800000000E+01 0. -1.
         -5    1    1    2    0  502  0.17326824049E+02 -0.62568719014E+02 -0.10400539533E+03  0.12267704793E+03  0.41800000000E+01 0. -1.
        -11    1    1    2    0    0  0.16855691403E+02 -0.43049681353E+02 -0.55176945657E+02  0.71985309122E+02  0.00000000000E+00 0. -1.
         11    1    1    2    0    0  0.76812786081E+01  0.58396675314E+02 -0.51882015158E+02  0.78491510532E+02  0.00000000000E+00 0.  1.
</event>
<event>
 7    1  0.2900135E-009  0.1055773E+03  0.7561462E-02  0.1268986E+00
         -2   -1    0    0    0  501 -0.00000000000E+00  0.00000000000E+00  0.18661075378E+02  0.18661075378E+02  0.00000000000E+00 0.  1.
          2   -1    0    0  501    0  0.00000000000E+00 -0.00000000000E+00 -0.68582504927E+03  0.68582504927E+03  0.00000000000E+00 0. -1.
         25    2    1    2    0    0  0.19538226732E+02 -0.17446059365E+02 -0.46279644239E+03  0.48011917109E+03  0.12509102316E+03 0.  0.
          5    1    3    3  502    0 -0.20753267261E+02  0.45657153417E+02 -0.23390614027E+03  0.23925891544E+03  0.41800000000E+01 0.  1.
         -5    1    3    3    0  502  0.40291493993E+02 -0.63103212782E+02 -0.22889030211E+03  0.24086025565E+03  0.41800000000E+01 0.  1.
        -11    1    1    2    0    0 -0.42942484745E+02  0.35952164432E+02 -0.88604513916E+02  0.10482068026E+03  0.00000000000E+00 0.  1.
         11    1    1    2    0    0  0.23404258013E+02 -0.18506105067E+02 -0.11576301759E+03  0.11954627330E+03  0.00000000000E+00 0. -1.
</event>
<event>
 7    1  0.2900135E-009  0.1511919E+03  0.7561462E-02  0.1199016E+00
         -1   -1    0    0    0  501 -0.00000000000E+00  0.00000000000E+00  0.22828256791E+02  0.22828256791E+02  0.00000000000E+00 0.  1.
          1   -1    0    0  501    0  0.00000000000E+00 -0.00000000000E+00 -0.19318836511E+04  0.19318836511E+04  0.00000000000E+00 0. -1.
         25    2    1    2    0    0  0.26578372068E+02  0.12982730096E+03 -0.15716794123E+04  0.15822093103E+04  0.12509431891E+03 0.  0.
          5    1    3    3  502    0 -0.20609668102E+02  0.37318729985E+02 -0.13185456242E+03  0.13863817677E+03  0.41800000000E+01 0. -1.
         -5    1    3    3    0  502  0.47188040171E+02  0.92508570975E+02 -0.14398248498E+04  0.14435711335E+04  0.41800000000E+01 0. -1.
        -11    1    1    2    0    0 -0.44051485098E+02 -0.13089563113E+03 -0.27522711466E+03  0.30793532476E+03  0.00000000000E+00 0.  1.
         11    1    1    2    0    0  0.17473113030E+02  0.10683301698E+01 -0.62148867369E+02  0.64567272852E+02  0.00000000000E+00 0. -1.
</event>
<event>
 7    1  0.2900135E-009  0.3079752E+03  0.7561462E-02  0.1081320E+00
          1   -1    0    0  501    0  0.00000000000E+00  0.00000000000E+00  0.22886187035E+03  0.22886187035E+03  0.00000000000E+00 0. -1.
         -1   -1    0    0    0  501 -0.00000000000E+00 -0.00000000000E+00 -0.41786472165E+03  0.41786472165E+03  0.00000000000E+00 0.  1.
         25    2    1    2    0    0  0.15355255727E+03  0.24395246086E+03 -0.68385375608E+02  0.32158495550E+03  0.12509649477E+03 0.  0.
          5    1    3    3  502    0  0.63143773625E+02  0.20667432477E+03 -0.41709283637E+02  0.22013302662E+03  0.41800000000E+01 0. -1.
         -5    1    3    3    0  502  0.90408783646E+02  0.37278136083E+02 -0.26676091970E+02  0.10145192888E+03  0.41800000000E+01 0. -1.
        -11    1    1    2    0    0 -0.34668675730E+02 -0.49960898169E+01 -0.15145896065E+02  0.38161186538E+02  0.00000000000E+00 0.  1.
         11    1    1    2    0    0 -0.11888388154E+03 -0.23895637104E+03 -0.10547157962E+03  0.28698044996E+03  0.00000000000E+00 0. -1.
</event>
<event>
 7    1  0.2900135E-009  0.1156116E+03  0.7561462E-02  0.1250517E+00
          2   -1    0    0  501    0  0.00000000000E+00  0.00000000000E+00  0.11812988765E+04  0.11812988765E+04  0.00000000000E+00 0.  1.
         -2   -1    0    0    0  501 -0.00000000000E+00 -0.00000000000E+00 -0.14353417278E+02  0.14353417278E+02  0.00000000000E+00 0. -1.
         25    2    1    2    0    0  0.50092954463E+01 -0.59839109318E+02  0.76688082058E+03  0.77933311196E+03  0.12509234337E+03 0.  0.
          5    1    3    3  502    0 -0.53908659573E+02 -0.21462740856E+02  0.20633863334E+03  0.21438259451E+03  0.41800000000E+01 0. -1.
         -5    1    3    3    0  502  0.58917955020E+02 -0.38376368462E+02  0.56054218725E+03  0.56495051745E+03  0.41800000000E+01 0. -1.
        -11    1    1    2    0    0 -0.16330888051E+01  0.81083335912E+02  0.37316686301E+03  0.38187783648E+03  0.00000000000E+00 0.  1.
         11    1    1    2    0    0 -0.33762066412E+01 -0.21244226594E+02  0.26897775587E+02  0.34441345304E+02  0.00000000000E+00 0. -1.
</event>
<event>
 7    1  0.2900135E-009  0.1177712E+03  0.7561462E-02  0.1246820E+00
          1   -1    0    0  501    0  0.00000000000E+00  0.00000000000E+00  0.38567508885E+03  0.38567508885E+03  0.00000000000E+00 0. -1.
         -1   -1    0    0    0  501 -0.00000000000E+00 -0.00000000000E+00 -0.44216195239E+02  0.44216195239E+02  0.00000000000E+00 0.  1.
         25    2    1    2    0    0  0.51877101315E+02  0.35255555669E+02  0.12738749793E+03  0.18923453422E+03  0.12509175219E+03 0.  0.
          5    1    3    3  502    0 -0.33479108560E+02 -0.84479504758E+01  0.73660472704E+01  0.35552069273E+02  0.41800000000E+01 0. -1.
         -5    1    3    3    0  502  0.85356209876E+02  0.43703506145E+02  0.12002145066E+03  0.15368246495E+03  0.41800000000E+01 0. -1.
        -11    1    1    2    0    0  0.19385750678E+02 -0.26709456515E+02  0.10520367097E+03  0.11025885353E+03  0.00000000000E+00 0. -1.
         11    1    1    2    0    0 -0.71262851993E+02 -0.85460991543E+01  0.10886772471E+03  0.13039789633E+03  0.00000000000E+00 0.  1.
</event>
<event>
 7    1  0.2900135E-009  0.1798797E+03  0.7561462E-02  0.1167919E+00
          3   -1    0    0  501    0  0.00000000000E+00  0.00000000000E+00  0.40826101173E+03  0.40826101173E+03  0.00000000000E+00 0. -1.
         -3   -1    0    0    0  501 -0.00000000000E+00 -0.00000000000E+00 -0.94990298913E+02  0.94990298913E+02  0.00000000000E+00 0.  1.
         25    2    1    2    0    0 -0.14353880263E+03  0.52678957199E+02  0.83832601365E+02  0.21460235753E+03  0.12509119239E+03 0.  0.
          5    1    3    3  502    0 -0.45229507045E+02 -0.32298596878E+02 -0.67547909756E+01  0.56142740127E+02  0.41800000000E+01 0. -1.
         -5    1    3    3    0  502 -0.98309295588E+02  0.84977554078E+02  0.90587392341E+02  0.15845961740E+03  0.41800000000E+01 0. -1.
        -11    1    1    2    0    0  0.99503656104E+02 -0.75037058525E+02  0.14886683918E+03  0.19414652595E+03  0.00000000000E+00 0. -1.
         11    1    1    2    0    0  0.44035146530E+02  0.22358101326E+02  0.80571272271E+02  0.94502427165E+02  0.00000000000E+00 0.  1.
</event>
<event>
 7    1  0.3389076E-009  0.1514362E+03  0.7561462E-02  0.1198719E+00
          2   -1    0    0  501    0  0.00000000000E+00  0.00000000000E+00  0.22195965100E+03  0.22195965100E+03  0.00000000000E+00 0. -1.
         -2   -1    0    0    0  501 -0.00000000000E+00 -0.00000000000E+00 -0.11220526022E+03  0.11220526022E+03  0.00000000000E+00 0.  1.
         25    2    1    2    0    0 -0.69718732032E+02 -0.89562024386E+02  0.46229985528E+02  0.17512407711E+03  0.12509665468E+03 0.  0.
          5    1    3    3  502    0  0.19111256991E+02  0.16294637894E+02  0.24200953524E+02  0.35127110888E+02  0.41800000000E+01 0.  1.
         -5    1    3    3    0  502 -0.88829989023E+02 -0.10585666228E+03  0.22029032005E+02  0.13999696622E+03  0.41800000000E+01 0.  1.
        -11    1    1    2    0    0  0.71074709709E+02  0.26150093170E+02  0.57967903458E+02  0.95371481924E+02  0.00000000000E+00 0. -1.
         11    1    1    2    0    0 -0.13559776772E+01  0.63411931217E+02  0.55565018026E+01  0.63669352191E+02  0.00000000000E+00 0.  1.
</event>
<event>
 7    1  0.2900135E-009  0.1200970E+03  0.7561462E-02  0.1242937E+00
          1   -1    0    0  501    0  0.00000000000E+00  0.00000000000E+00  0.19283254857E+03  0.19283254857E+03  0.00000000000E+00 0. -1.
         -1   -1    0    0    0  501 -0.00000000000E+00 -0.00000000000E+00 -0.14318144059E+03  0.14318144059E+03  0.00000000000E+00 0.  1.
         25    2    1    2    0    0  0.21313457539E+02  0.97068374816E+02  0.10499974483E+03  0.19117740898E+03  0.12508925784E+03 0.  0.
          5    1    3    3  502    0  0.49534445558E+02  0.10031577216E+03  0.11526234233E+03  0.16068539261E+03  0.41800000000E+01 0. -1.
         -5    1    3    3    0  502 -0.28220988019E+02 -0.32473973428E+01 -0.10262597504E+02  0.30492016361E+02  0.41800000000E+01 0. -1.
        -11    1    1    2    0    0 -0.74197909960E+01 -0.46204644627E+02  0.21612085986E+02  0.51546141894E+02  0.00000000000E+00 0. -1.
         11    1    1    2    0    0 -0.13893666543E+02 -0.50863730189E+02 -0.76960722827E+02  0.93290438292E+02  0.00000000000E+00 0.  1.
</event>
<event>
 7    1  0.2900135E-009  0.1099973E+03  0.7561462E-02  0.1260575E+00
         -3   -1    0    0    0  501 -0.00000000000E+00  0.00000000000E+00  0.36818189739E+03  0.36818189739E+03  0.00000000000E+00 0.  1.
          3   -1    0    0  501    0  0.00000000000E+00 -0.00000000000E+00 -0.46129254832E+02  0.46129254832E+02  0.00000000000E+00 0. -1.
         25    2    1    2    0    0  0.10647792450E+02 -0.24090686332E+02  0.28532557317E+03  0.31265663422E+03  0.12509896709E+03 0.  0.
          5    1    3    3  502    0  0.65333274866E+02 -0.28143332959E+02  0.13622957209E+03  0.15374151263E+03  0.41800000000E+01 0. -1.
         -5    1    3    3    0  502 -0.54685482416E+02  0.40526466270E+01  0.14909600108E+03  0.15891512159E+03  0.41800000000E+01 0. -1.
        -11    1    1    2    0    0 -0.42359178408E+02  0.40001181541E+02  0.30043396244E+02  0.65551507824E+02  0.00000000000E+00 0.  1.
         11    1    1    2    0    0  0.31711385958E+02 -0.15910495210E+02  0.66836731471E+01  0.36103010178E+02  0.00000000000E+00 0. -1.
</event>
<event>
 7    1  0.2900135E-009  0.1014436E+03  0.7561462E-02  0.1277289E+00
          1   -1    0    0  501    0  0.00000000000E+00  0.00000000000E+00  0.26670834659E+02  0.26670834659E+02  0.00000000000E+00 0. -1.
         -1   -1    0    0    0  501 -0.00000000000E+00 -0.00000000000E+00 -0.46549646436E+03  0.46549646436E+03  0.00000000000E+00 0.  1.
         25    2    1    2    0    0  0.15118403095E+02 -0.18474752785E+02 -0.25673434173E+03  0.28658518879E+03  0.12509462662E+03 0.  0.
          5    1    3    3  502    0 -0.15198243490E+02 -0.66588626711E+02 -0.11512518814E+03  0.13392652148E+03  0.41800000000E+01 0. -1.
         -5    1    3    3    0  502  0.30316646585E+02  0.48113873926E+02 -0.14160915359E+03  0.15265866731E+03  0.41800000000E+01 0. -1.
        -11    1    1    2    0    0 -0.41636991702E+02  0.26948297841E+02 -0.49398814161E+02  0.70000661961E+02  0.00000000000E+00 0. -1.
         11    1    1    2    0    0  0.26518588607E+02 -0.84735450555E+01 -0.13269247382E+03  0.13558144827E+03  0.00000000000E+00 0.  1.
</event>
<event>
 7    1  0.2900135E-009  0.1130658E+03  0.7561462E-02  0.1254995E+00
          1   -1    0    0  501    0  0.00000000000E+00  0.00000000000E+00  0.26995728598E+02  0.26995728598E+02  0.00000000000E+00 0. -1.
         -1   -1    0    0    0  501 -0.00000000000E+00 -0.00000000000E+00 -0.67910885163E+03  0.67910885163E+03  0.00000000000E+00 0.  1.
         25    2    1    2    0    0  0.29697389899E+02 -0.74133580898E+02 -0.37375277657E+03  0.40214198390E+03  0.12509721994E+03 0.  0.
          5    1    3    3  502    0 -0.40924230437E+02 -0.62124943514E+02 -0.15621594385E+03  0.17307569083E+03  0.41800000000E+01 0. -1.
         -5    1    3    3    0  502  0.70621620336E+02 -0.12008637385E+02 -0.21753683273E+03  0.22906629308E+03  0.41800000000E+01 0. -1.
        -11    1    1    2    0    0 -0.11911888480E+02  0.30743926355E+02 -0.14587445890E+02  0.36053788601E+02  0.00000000000E+00 0. -1.
         11    1    1    2    0    0 -0.17785501418E+02  0.43389654543E+02 -0.26377290056E+03  0.26790880772E+03  0.00000000000E+00 0.  1.
</event>
<event>
 7    1  0.2900135E-009  0.1148609E+03  0.7561462E-02  0.1251824E+00
         -2   -1    0    0    0  501 -0.00000000000E+00  0.00000000000E+00  0.72044055920E+02  0.72044055920E+02  0.00000000000E+00 0.  1.
          2   -1    0    0  501    0  0.00000000000E+00 -0.00000000000E+00 -0.27223464282E+03  0.27223464282E+03  0.00000000000E+00 0. -1.
         25    2    1    2    0    0  0.72776000894E+02 -0.28385640448E+02 -0.50229749986E+02  0.15579463705E+03  0.12508737050E+03 0.  0.
          5    1    3    3  502    0  0.17970477965E+02 -0.53811680521E+02 -0.71713176424E+02  0.91536261184E+02  0.41800000000E+01 0. -1.
         -5    1    3    3    0  502  0.54805522928E+02  0.25426040072E+02  0.21483426438E+02  0.64258375864E+02  0.41800000000E+01 0. -1.
        -11    1    1    2    0    0 -0.51385686449E+02  0.56873913954E+02 -0.11748741523E+03  0.14027980467E+03  0.00000000000E+00 0. -1.
         11    1    1    2    0    0 -0.21390314445E+02 -0.28488273505E+02 -0.32473421687E+02  0.48204257026E+02  0.00000000000E+00 0.  1.
</event>
<event>
 7    1  0.2900135E-009  0.9093923E+02  0.7561462E-02  0.1300593E+00
         -2   -1    0    0    0  501 -0.00000000000E+00  0.00000000000E+00  0.66453919669E+02  0.66453919669E+02  0.00000000000E+00 0.  1.
          2   -1    0    0  501    0  0.00000000000E+00 -0.00000000000E+00 -0.19860999603E+03  0.19860999603E+03  0.00000000000E+00 0. -1.
         25    2    1    2    0    0  0.21961733138E+02  0.24026717433E+02 -0.99383472136E+02  0.16304731834E+03  0.12509097733E+03 0.  0.
          5    1    3    3  502    0 -0.26218865186E+02  0.45925246206E+02 -0.96208427807E+02  0.10986396639E+03  0.41800000000E+01 0.  1.
         -5    1    3    3    0  502  0.48180598325E+02 -0.21898528773E+02 -0.31750443288E+01  0.53183351943E+02  0.41800000000E+01 0.  1.
        -11    1    1    2    0    0 -0.40849990511E+02  0.49546867934E+01  0.14332208527E+02  0.43573878037E+02  0.00000000000E+00 0.  1.
         11    1    1    2    0    0  0.18888257372E+02 -0.28981404226E+02 -0.47104812748E+02  0.58442719320E+02  0.00000000000E+00 0. -1.
</event>
<event>
 7    1  0.2900135E-009  0.4089852E+03  0.7561462E-02  0.1040712E+00
          1   -1    0    0  501    0  0.00000000000E+00  0.00000000000E+00  0.33803524321E+03  0.33803524321E+03  0.00000000000E+00 0. -1.
         -1   -1    0    0    0  501 -0.00000000000E+00 -0.00000000000E+00 -0.54599995535E+03  0.54599995535E+03  0.00000000000E+00 0.  1.
         25    2    1    2    0    0 -0.23945398262E+03 -0.31790411349E+03  0.17812653573E+02  0.41756842920E+03  0.12507944381E+03 0.  0.
          5    1    3    3  502    0 -0.96707247556E+01  0.80600770513E+01  0.13188068823E+02  0.18705221695E+02  0.41800000000E+01 0.  1.
         -5    1    3    3    0  502 -0.22978325787E+03 -0.32596419055E+03  0.46245847497E+01  0.39886320750E+03  0.41800000000E+01 0.  1.
        -11    1    1    2    0    0  0.24221570326E+02  0.86565592021E+02 -0.71377259430E+02  0.11478240002E+03  0.00000000000E+00 0.  1.
         11    1    1    2    0    0  0.21523241230E+03  0.23133852147E+03 -0.15440010628E+03  0.35168436934E+03  0.00000000000E+00 0. -1.
</event>
<event>
 7    1  0.2900135E-009  0.1332628E+03  0.7561462E-02  0.1222693E+00
          2   -1    0    0  501    0  0.00000000000E+00  0.00000000000E+00  0.79483798094E+03  0.79483798094E+03  0.00000000000E+00 0. -1.
         -2   -1    0    0    0  501 -0.00000000000E+00 -0.00000000000E+00 -0.26048259906E+02  0.26048259906E+02  0.00000000000E+00 0.  1.
         25    2    1    2    0    0  0.75103548530E+02  0.46246717459E+02  0.56828335308E+03  0.58853475042E+03  0.12509149127E+03 0.  0.
          5    1    3    3  502    0  0.37560639435E+02  0.88490920754E+02  0.37072135821E+03  0.38300553850E+03  0.41800000000E+01 0.  1.
         -5    1    3    3    0  502  0.37542909094E+02 -0.42244203295E+02  0.19756199487E+03  0.20552921192E+03  0.41800000000E+01 0.  1.
        -11    1    1    2    0    0 -0.51889156029E+02  0.99452727832E+01  0.12282622409E+03  0.13370742047E+03  0.00000000000E+00 0.  1.
         11    1    1    2    0    0 -0.23214392500E+02 -0.56191990242E+02  0.77680143863E+02  0.98644069954E+02  0.00000000000E+00 0. -1.
</event>
<event>
 7    1  0.2900135E-009  0.7743343E+02  0.7561462E-02  0.1336497E+00
          2   -1    0    0  501    0  0.00000000000E+00  0.00000000000E+00  0.17751102161E+03  0.17751102161E+03  0.00000000000E+00 0.  1.
         -2   -1    0    0    0  501 -0.00000000000E+00 -0.00000000000E+00 -0.73790648698E+02  0.73790648698E+02  0.00000000000E+00 0. -1.
         25    2    1    2    0    0  0.94582699469E+01  0.24997352842E+02  0.95109997287E+02  0.15939888594E+03  0.12509103379E+03 0.  0.
          5    1    3    3  502    0  0.11745176256E+02  0.45850097934E+02 -0.12945393351E+02  0.49246687755E+02  0.41800000000E+01 0. -1.
         -5    1    3    3    0  502 -0.22869063088E+01 -0.20852745093E+02  0.10805539064E+03  0.11015219818E+03  0.41800000000E+01 0. -1.
        -11    1    1    2    0    0 -0.34355284164E+02 -0.43145399895E+02  0.20555850474E+02  0.58858763755E+02  0.00000000000E+00 0.  1.
         11    1    1    2    0    0  0.24897014217E+02  0.18148047053E+02 -0.11945474852E+02  0.33044020612E+02  0.00000000000E+00 0. -1.
</event>
<event>
 7    1  0.2900135E-009  0.1040200E+03  0.7561462E-02  0.1272062E+00
         -1   -1    0    0    0  501 -0.00000000000E+00  0.00000000000E+00  0.33987695629E+03  0.33987695629E+03  0.00000000000E+00 0.  1.
          1   -1    0    0  501    0  0.00000000000E+00 -0.00000000000E+00 -0.72938806505E+02  0.72938806505E+02  0.00000000000E+00 0. -1.
         25    2    1    2    0    0 -0.59287247043E+02 -0.37721672606E+02  0.25479449233E+02  0.14572193553E+03  0.12509107848E+03 0.  0.
          5    1    3    3  502    0 -0.65747561625E+02 -0.45846394963E+01  0.65624888142E+02  0.93101337920E+02  0.41800000000E+01 0.  1.
         -5    1    3    3    0  502  0.64603145815E+01 -0.33137033110E+02 -0.40145438909E+02  0.52620597611E+02  0.41800000000E+01 0.  1.
        -11    1    1    2    0    0 -0.52025613806E+01  0.42965298274E+02  0.56678481809E+02  0.71312928707E+02  0.00000000000E+00 0.  1.
         11    1    1    2    0    0  0.64489808424E+02 -0.52436256677E+01  0.18478021875E+03  0.19578089856E+03  0.00000000000E+00 0. -1.
</event>
<event>
 7    1  0.2900135E-009  0.7997184E+02  0.7561462E-02  0.1329131E+00
         -2   -1    0    0    0  501 -0.00000000000E+00  0.00000000000E+00  0.73598965362E+02  0.73598965362E+02  0.00000000000E+00 0.  1.
          2   -1    0    0  501    0  0.00000000000E+00 -0.00000000000E+00 -0.22298960252E+03  0.22298960252E+03  0.00000000000E+00 0. -1.
         25    2    1    2    0    0  0.70689838644E+01 -0.16133508303E+01 -0.17145715315E+03  0.21236302278E+03  0.12509166497E+03 0.  0.
          5    1    3    3  502    0  0.42497927466E+02  0.45142488625E+01 -0.64383646415E+01  0.43420930678E+02  0.41800000000E+01 0. -1.
         -5    1    3    3    0  502 -0.35428943602E+02 -0.61275996928E+01 -0.16501878851E+03  0.16894209210E+03  0.41800000000E+01 0. -1.
        -11    1    1    2    0    0  0.35512909177E+02  0.11046724382E+02  0.14712117544E+02  0.39995540257E+02  0.00000000000E+00 0. -1.
         11    1    1    2    0    0 -0.42581893042E+02 -0.94333735517E+01  0.73543984524E+01  0.44230004840E+02  0.00000000000E+00 0.  1.
</event>
<event>
 7    1  0.2900135E-009  0.1037888E+03  0.7561462E-02  0.1272524E+00
         -3   -1    0    0    0  501 -0.00000000000E+00  0.00000000000E+00  0.58995381411E+02  0.58995381411E+02  0.00000000000E+00 0.  1.
          3   -1    0    0  501    0  0.00000000000E+00 -0.00000000000E+00 -0.21096859616E+03  0.21096859616E+03  0.00000000000E+00 0. -1.
         25    2    1    2    0    0  0.24001790877E+02  0.38309843683E+01 -0.93869612031E+02  0.15827124427E+03  0.12509004873E+03 0.  0.
          5    1    3    3  502    0 -0.11134997083E+02 -0.50907873881E+02 -0.12025664363E+02  0.53644093678E+02  0.41800000000E+01 0. -1.
         -5    1    3    3    0  502  0.35136787960E+02  0.54738858249E+02 -0.81843947668E+02  0.10462715059E+03  0.41800000000E+01 0. -1.
        -11    1    1    2    0    0 -0.31613235181E+02  0.36953247236E+02 -0.12851248793E+02  0.50300036933E+02  0.00000000000E+00 0.  1.
         11    1    1    2    0    0  0.76114443047E+01 -0.40784231604E+02 -0.45252353920E+02  0.61392696367E+02  0.00000000000E+00 0. -1.
</event>
<event>
 7    1  0.2900135E-009  0.6749368E+02  0.7561462E-02  0.1368829E+00
          1   -1    0    0  501    0  0.00000000000E+00  0.00000000000E+00  0.16809097001E+03  0.16809097001E+03  0.00000000000E+00 0. -1.
         -1   -1    0    0    0  501 -0.00000000000E+00 -0.00000000000E+00 -0.10862230296E+03  0.10862230296E+03  0.00000000000E+00 0.  1.
         25    2    1    2    0    0 -0.60228377023E+02 -0.12699599692E+02 -0.87403671441E+01  0.13968807117E+03  0.12509047117E+03 0.  0.
          5    1    3    3  502    0 -0.25383869735E+02 -0.10337825287E+02  0.57977785822E+02  0.64265912607E+02  0.41800000000E+01 0.  1.
         -5    1    3    3    0  502 -0.34844507288E+02 -0.23617744050E+01 -0.66718152966E+02  0.75422158559E+02  0.41800000000E+01 0.  1.
        -11    1    1    2    0    0  0.44148207978E+02 -0.90239542335E+01 -0.16594019435E+02  0.48019345047E+02  0.00000000000E+00 0.  1.
         11    1    1    2    0    0  0.16080169044E+02  0.21723553925E+02  0.84803053632E+02  0.89005856756E+02  0.00000000000E+00 0. -1.
</event>
<event>
 7    1  0.2900135E-009  0.1329485E+03  0.7561462E-02  0.1223145E+00
          1   -1    0    0  501    0  0.00000000000E+00  0.00000000000E+00  0.59378721627E+03  0.59378721627E+03  0.00000000000E+00 0. -1.
         -1   -1    0    0    0  501 -0.00000000000E+00 -0.00000000000E+00 -0.45952430342E+02  0.45952430342E+02  0.00000000000E+00 0.  1.
         25    2    1    2    0    0  0.26354804707E+02 -0.96984944948E+02  0.15041522398E+03  0.21993920020E+03  0.12509139420E+03 0.  0.
          5    1    3    3  502    0  0.72695810553E+02 -0.39472674672E+02  0.55943911796E+02  0.99949820334E+02  0.41800000000E+01 0.  1.
         -5    1    3    3    0  502 -0.46341005846E+02 -0.57512270276E+02  0.94471312185E+02  0.11998937987E+03  0.41800000000E+01 0.  1.
        -11    1    1    2    0    0  0.10403425019E+02  0.39608385914E+02  0.44962222101E+02  0.60816584112E+02  0.00000000000E+00 0.  1.
         11    1    1    2    0    0 -0.36758229726E+02  0.57376559034E+02  0.35245733984E+03  0.35898386229E+03  0.00000000000E+00 0. -1.
</event>
<event>
 7    1  0.2900135E-009  0.1385894E+03  0.7561462E-02  0.1215240E+00
          1   -1    0    0  501    0  0.00000000000E+00  0.00000000000E+00  0.42234999553E+03  0.42234999553E+03  0.00000000000E+00 0. -1.
         -1   -1    0    0    0  501 -0.00000000000E+00 -0.00000000000E+00 -0.49224312751E+02  0.49224312751E+02  0.00000000000E+00 0.  1.
         25    2    1    2    0    0  0.77238969271E+02 -0.49715409585E+02  0.17884674206E+03  0.23679592452E+03  0.12509465376E+03 0.  0.
          5    1    3    3  502    0  0.97909739697E+02 -0.59626006385E+01  0.15295872628E+03  0.18175729444E+03  0.41800000000E+01 0.  1.
         -5    1    3    3    0  502 -0.20670770426E+02 -0.43752808947E+02  0.25888015775E+02  0.55038630084E+02  0.41800000000E+01 0.  1.
        -11    1    1    2    0    0 -0.71334566965E+02 -0.85675041500E+01  0.89884904376E+02  0.11507092859E+03  0.00000000000E+00 0.  1.
         11    1    1    2    0    0 -0.59044023060E+01  0.58282913736E+02  0.10439403634E+03  0.11970745517E+03  0.00000000000E+00 0. -1.
</event>
<event>
 7    1  0.2900135E-009  0.1610650E+03  0.7561462E-02  0.1187500E+00
         -2   -1    0    0    0  501 -0.00000000000E+00  0.00000000000E+00  0.16716015480E+02  0.16716015480E+02  0.00000000000E+00 0.  1.
          2   -1    0    0  501    0  0.00000000000E+00 -0.00000000000E+00 -0.16010510669E+04  0.16010510669E+04  0.00000000000E+00 0. -1.
         25    2    1    2    0    0  0.98215846250E+02 -0.65669741970E+02 -0.95608730163E+03  0.97144702046E+03  0.12509003863E+03 0.  0.
          5    1    3    3  502    0 -0.29411937191E+01 -0.70107837338E+02 -0.35822629918E+03  0.36505795883E+03  0.41800000000E+01 0. -1.
         -5    1    3    3    0  502  0.10115703997E+03  0.44380953672E+01 -0.59786100245E+03  0.60638906164E+03  0.41800000000E+01 0. -1.
        -11    1    1    2    0    0  0.18191694173E+02  0.34956332448E+01 -0.10906510889E+03  0.11062709960E+03  0.00000000000E+00 0. -1.
         11    1    1    2    0    0 -0.11640754042E+03  0.62174108726E+02 -0.51918264088E+03  0.53569296230E+03  0.00000000000E+00 0.  1.
</event>
<event>
 7    1  0.2900135E-009  0.1207856E+03  0.7561462E-02  0.1241807E+00
          3   -1    0    0  501    0  0.00000000000E+00  0.00000000000E+00  0.50677899663E+03  0.50677899663E+03  0.00000000000E+00 0. -1.
         -3   -1    0    0    0  501 -0.00000000000E+00 -0.00000000000E+00 -0.45451630054E+02  0.45451630054E+02  0.00000000000E+00 0.  1.
         25    2    1    2    0    0 -0.92114818812E+02 -0.24305642055E+02  0.33193149227E+03  0.36729021712E+03  0.12509070289E+03 0.  0.
          5    1    3    3  502    0 -0.55043553883E+02 -0.46871477921E+02  0.31026370525E+03  0.31860283655E+03  0.41800000000E+01 0.  1.
         -5    1    3    3    0  502 -0.37071264929E+02  0.22565835865E+02  0.21667787022E+02  0.48687380564E+02  0.41800000000E+01 0.  1.
        -11    1    1    2    0    0  0.83619349015E+02 -0.15334686813E+02  0.58252121609E+02  0.10305657583E+03  0.00000000000E+00 0.  1.
         11    1    1    2    0    0  0.84954697969E+01  0.39640328868E+02  0.71143752697E+02  0.81883833738E+02  0.00000000000E+00 0. -1.
</event>
<event>
 7    1  0.2900135E-009  0.1114536E+03  0.7561462E-02  0.1257901E+00
          2   -1    0    0  501    0  0.00000000000E+00  0.00000000000E+00  0.65104457233E+02  0.65104457233E+02  0.00000000000E+00 0. -1.
         -2   -1    0    0    0  501 -0.00000000000E+00 -0.00000000000E+00 -0.26903331229E+03  0.26903331229E+03  0.00000000000E+00 0.  1.
         25    2    1    2    0    0  0.61762027912E+02  0.50617982300E+02 -0.11407274198E+03  0.18718173131E+03  0.12509069450E+03 0.  0.
          5    1    3    3  502    0 -0.60790677771E+01 -0.12094909972E+02 -0.90690356189E+02  0.91790277361E+02  0.41800000000E+01 0.  1.
         -5    1    3    3    0  502  0.67841095689E+02  0.62712892272E+02 -0.23382385788E+02  0.95391453949E+02  0.41800000000E+01 0.  1.
        -11    1    1    2    0    0  0.71650321884E+01 -0.46671879324E+02 -0.34991731153E+02  0.58770938865E+02  0.00000000000E+00 0.  1.
         11    1    1    2    0    0 -0.68927060100E+02 -0.39461029763E+01 -0.54864381921E+02  0.88185099344E+02  0.00000000000E+00 0. -1.
</event>
<event>
 7    1  0.2900135E-009  0.6066296E+02  0.7561462E-02  0.1395070E+00
          2   -1    0    0  501    0  0.00000000000E+00  0.00000000000E+00  0.26085142981E+03  0.26085142981E+03  0.00000000000E+00 0.  1.
         -2   -1    0    0    0  501 -0.00000000000E+00 -0.00000000000E+00 -0.45915719635E+02  0.45915719635E+02  0.00000000000E+00 0. -1.
         25    2    1    2    0    0  0.97755087662E+01  0.16295668203E+02  0.11758796728E+03  0.17272873218E+03  0.12508867054E+03 0.  0.
          5    1    3    3  502    0  0.20023934096E+02 -0.76459676315E+01 -0.21806229454E+02  0.30861023973E+02  0.41800000000E+01 0. -1.
         -5    1    3    3    0  502 -0.10248425329E+02  0.23941635835E+02  0.13939419673E+03  0.14186770820E+03  0.41800000000E+01 0. -1.
        -11    1    1    2    0    0 -0.36749902597E+02 -0.25365126985E+02  0.95614265254E+02  0.10552740273E+03  0.00000000000E+00 0.  1.
         11    1    1    2    0    0  0.26974393831E+02  0.90694587814E+01  0.17334776444E+01  0.28511014536E+02  0.00000000000E+00 0. -1.
</event>
<event>
 7    1  0.2900135E-009  0.1207946E+03  0.7561462E-02  0.1241792E+00
          1   -1    0    0  501    0  0.00000000000E+00  0.00000000000E+00  0.28609205255E+03  0.28609205255E+03  0.00000000000E+00 0. -1.
         -1   -1    0    0    0  501 -0.00000000000E+00 -0.00000000000E+00 -0.95260517907E+02  0.95260517907E+02  0.00000000000E+00 0.  1.
         25    2    1    2    0    0 -0.40545214600E+02  0.83978199975E+02  0.51172477171E+01  0.15611493251E+03  0.12509769555E+03 0.  0.
          5    1    3    3  502    0  0.33416399795E+02  0.69857602510E+01  0.30865060209E+02  0.46212346437E+02  0.41800000000E+01 0.  1.
         -5    1    3    3    0  502 -0.73961614395E+02  0.76992439724E+02 -0.25747812492E+02  0.10990258608E+03  0.41800000000E+01 0.  1.
        -11    1    1    2    0    0  0.40716400088E+02 -0.42440675677E+02  0.17154914795E+03  0.18135089289E+03  0.00000000000E+00 0. -1.
         11    1    1    2    0    0 -0.17118548778E+00 -0.41537524297E+02  0.14165138970E+02  0.43886745052E+02  0.00000000000E+00 0.  1.
</event>
<event>
 7    1  0.2900135E-009  0.1275238E+03  0.7561462E-02  0.1231177E+00
         -2   -1    0    0    0  501 -0.00000000000E+00  0.00000000000E+00  0.17556251448E+02  0.17556251448E+02  0.00000000000E+00 0.  1.
          2   -1    0    0  501    0  0.00000000000E+00 -0.00000000000E+00 -0.14382185655E+04  0.14382185655E+04  0.00000000000E+00 0. -1.
         25    2    1    2    0    0 -0.26218417220E+02  0.97980252849E+02 -0.10080815196E+04  0.10208638155E+04  0.12508814597E+03 0.  0.
          5    1    3    3  502    0  0.26206033775E+02 -0.13585555580E+02 -0.35412019583E+03  0.35537291543E+03  0.41800000000E+01 0.  1.
         -5    1    3    3    0  502 -0.52424450995E+02  0.11156580843E+03 -0.65396132375E+03  0.66549090004E+03  0.41800000000E+01 0.  1.
        -11    1    1    2    0    0  0.24557270612E+02 -0.76375071206E+02 -0.40353035315E+03  0.41142794868E+03  0.00000000000E+00 0. -1.
         11    1    1    2    0    0  0.16611466082E+01 -0.21605181644E+02 -0.90504413655E+01  0.23483052843E+02  0.00000000000E+00 0.  1.
</event>
<event>
 7    1  0.2900135E-009  0.1110631E+03  0.7561462E-02  0.1258614E+00
          1   -1    0    0  501    0  0.00000000000E+00  0.00000000000E+00  0.81767879755E+03  0.81767879755E+03  0.00000000000E+00 0. -1.
         -1   -1    0    0    0  501 -0.00000000000E+00 -0.00000000000E+00 -0.16076438189E+02  0.16076438189E+02  0.00000000000E+00 0.  1.
         25    2    1    2    0    0 -0.24421337629E+02  0.27532327806E+01  0.35618164529E+03  0.37830894288E+03  0.12509320446E+03 0.  0.
          5    1    3    3  502    0 -0.73538497575E+02  0.17534985809E+02  0.19903964486E+03  0.21295454674E+03  0.41800000000E+01 0.  1.
         -5    1    3    3    0  502  0.49117159947E+02 -0.14781753028E+02  0.15714200043E+03  0.16535439614E+03  0.41800000000E+01 0.  1.
        -11    1    1    2    0    0 -0.19316726119E+02 -0.35427917068E+02  0.19905483073E+03  0.20310366529E+03  0.00000000000E+00 0. -1.
         11    1    1    2    0    0  0.43738063748E+02  0.32674684287E+02  0.24636588334E+03  0.25234262757E+03  0.00000000000E+00 0.  1.
</event>
<event>
 7    1  0.2900135E-009  0.2258341E+03  0.7561462E-02  0.1129607E+00
          2   -1    0    0  501    0  0.00000000000E+00  0.00000000000E+00  0.53601362750E+03  0.53601362750E+03  0.00000000000E+00 0. -1.
         -2   -1    0    0    0  501 -0.00000000000E+00 -0.00000000000E+00 -0.16057192427E+03  0.16057192427E+03  0.00000000000E+00 0.  1.
         25    2    1    2    0    0 -0.10748415243E+03 -0.18150480380E+03  0.39410368713E+03  0.46417928798E+03  0.12509140000E+03 0.  0.
          5    1    3    3  502    0 -0.11565906912E+03 -0.19356197126E+03  0.34002219453E+03  0.40801448768E+03  0.41800000000E+01 0.  1.
         -5    1    3    3    0  502  0.81749166864E+01  0.12057167464E+02  0.54081492607E+02  0.56164800299E+02  0.41800000000E+01 0.  1.
        -11    1    1    2    0    0  0.32639335306E+02  0.51157729953E+02 -0.50283772201E+02  0.78809246221E+02  0.00000000000E+00 0.  1.
         11    1    1    2    0    0  0.74844817128E+02  0.13034707385E+03  0.31621788290E+02  0.15359701757E+03  0.00000000000E+00 0. -1.
</event>
<event>
 7    1  0.2900135E-009  0.6323684E+02  0.7561462E-02  0.1384729E+00
          1   -1    0    0  501    0  0.00000000000E+00  0.00000000000E+00  0.10656916649E+03  0.10656916649E+03  0.00000000000E+00 0. -1.
         -1   -1    0    0    0  501 -0.00000000000E+00 -0.00000000000E+00 -0.11526419113E+03  0.11526419113E+03  0.00000000000E+00 0.  1.
         25    2    1    2    0    0 -0.30863085470E+02  0.20156315274E+02  0.23533161689E+02  0.13251626286E+03  0.12509173887E+03 0.  0.
          5    1    3    3  502    0  0.15765909864E+02  0.31792579725E+02 -0.39420345402E+02  0.53204962842E+02  0.41800000000E+01 0.  1.
         -5    1    3    3    0  502 -0.46628995334E+02 -0.11636264451E+02  0.62953507091E+02  0.79311300022E+02  0.41800000000E+01 0.  1.
        -11    1    1    2    0    0  0.11324573303E+02 -0.19974607320E+02 -0.54827887376E+02  0.59441804584E+02  0.00000000000E+00 0.  1.
         11    1    1    2    0    0  0.19538512167E+02 -0.18170795449E+00  0.22599701044E+02  0.29875290170E+02  0.00000000000E+00 0. -1.
</event>
<event>
 7    1  0.2900135E-009  0.1118717E+03  0.7561462E-02  0.1257143E+00
          2   -1    0    0  501    0  0.00000000000E+00  0.00000000000E+00  0.47327817049E+03  0.47327817049E+03  0.00000000000E+00 0. -1.
         -2   -1    0    0    0  501 -0.00000000000E+00 -0.00000000000E+00 -0.27898772276E+02  0.27898772276E+02  0.00000000000E+00 0.  1.
         25    2    1    2    0    0  0.85476798672E+01  0.35082641306E+02  0.23539333266E+03  0.26899919956E+03  0.12508674490E+03 0.  0.
          5    1    3    3  502    0  0.56261560474E+02 -0.15763681486E+02  0.85660566425E+02  0.10377409061E+03  0.41800000000E+01 0. -1.
         -5    1    3    3    0  502 -0.47713880606E+02  0.50846322792E+02  0.14973276624E+03  0.16522510895E+03  0.41800000000E+01 0. -1.
        -11    1    1    2    0    0  0.69579401430E+01  0.28772651443E+02  0.38726184233E+02  0.48744186805E+02  0.00000000000E+00 0.  1.
         11    1    1    2    0    0 -0.15505620010E+02 -0.63855292749E+02  0.17125988132E+03  0.18343355640E+03  0.00000000000E+00 0. -1.
</event>
<event>
 7    1  0.2900135E-009  0.8146040E+02  0.7561462E-02  0.1324957E+00
          1   -1    0    0  501    0  0.00000000000E+00  0.00000000000E+00  0.18198378032E+03  0.18198378032E+03  0.00000000000E+00 0. -1.
         -1   -1    0    0    0  501 -0.00000000000E+00 -0.00000000000E+00 -0.85727814523E+02  0.85727814523E+02  0.00000000000E+00 0.  1.
         25    2    1    2    0    0  0.46840808301E+01 -0.50522221539E+02  0.14153742055E+02  0.13572826557E+03  0.12508956063E+03 0.  0.
          5    1    3    3  502    0  0.93118044585E+01 -0.16660787956E+01 -0.52131660336E+02  0.53147605122E+02  0.41800000000E+01 0. -1.
         -5    1    3    3    0  502 -0.46277236284E+01 -0.48856142744E+02  0.66285402391E+02  0.82580660447E+02  0.41800000000E+01 0. -1.
        -11    1    1    2    0    0 -0.26818408158E+02  0.69294653998E+02  0.58126699068E+02  0.94338164246E+02  0.00000000000E+00 0. -1.
         11    1    1    2    0    0  0.22134327328E+02 -0.18772432459E+02  0.23975524679E+02  0.37645165032E+02  0.00000000000E+00 0.  1.
</event>
<event>
 7    1  0.2900135E-009  0.3199991E+03  0.7561462E-02  0.1075650E+00
         -2   -1    0    0    0  501 -0.00000000000E+00  0.00000000000E+00  0.56840671257E+02  0.56840671257E+02  0.00000000000E+00 0.  1.
          2   -1    0    0  501    0  0.00000000000E+00 -0.00000000000E+00 -0.24003758864E+04  0.24003758864E+04  0.00000000000E+00 0. -1.
         25    2    1    2    0    0  0.54158307919E+02  0.30275754858E+03 -0.61240254429E+03  0.69662054503E+03  0.12509217391E+03 0.  0.
          5    1    3    3  502    0  0.73881205582E+02  0.28890768579E+03 -0.50517873760E+03  0.58664223575E+03  0.41800000000E+01 0. -1.
         -5    1    3    3    0  502 -0.19722897663E+02  0.13849862791E+02 -0.10722380669E+03  0.10997830928E+03  0.41800000000E+01 0. -1.
        -11    1    1    2    0    0 -0.73648782578E+02 -0.21054552525E+03 -0.13272167867E+04  0.13458298407E+04  0.00000000000E+00 0.  1.
         11    1    1    2    0    0  0.19490474659E+02 -0.92212023329E+02 -0.40391588421E+03  0.41476617192E+03  0.00000000000E+00 0. -1.
</event>
<event>
 7    1  0.2900135E-009  0.1370748E+03  0.7561462E-02  0.1217320E+00
          3   -1    0    0  501    0  0.00000000000E+00  0.00000000000E+00  0.11048681129E+03  0.11048681129E+03  0.00000000000E+00 0. -1.
         -3   -1    0    0    0  501 -0.00000000000E+00 -0.00000000000E+00 -0.36959436189E+03  0.36959436189E+03  0.00000000000E+00 0.  1.
         25    2    1    2    0    0  0.17166515481E+02  0.13057167447E+03 -0.26277047202E+03  0.31943572452E+03  0.12508880729E+03 0.  0.
          5    1    3    3  502    0 -0.17223153930E+01  0.50111179856E+01  0.13645207122E+02  0.15223066418E+02  0.41800000000E+01 0. -1.
         -5    1    3    3    0  502  0.18888830874E+02  0.12556055648E+03 -0.27641567914E+03  0.30421265810E+03  0.41800000000E+01 0. -1.
        -11    1    1    2    0    0  0.16636983925E+02 -0.30659443469E+02  0.36193756109E+02  0.50267073609E+02  0.00000000000E+00 0.  1.
         11    1    1    2    0    0 -0.33803499406E+02 -0.99912230997E+02 -0.32530834690E+02  0.11037837506E+03  0.00000000000E+00 0. -1.
</event>
<event>
 7    1  0.2900135E-009  0.1003772E+03  0.7561462E-02  0.1279505E+00
         -1   -1    0    0    0  501 -0.00000000000E+00  0.00000000000E+00  0.20776374900E+02  0.20776374900E+02  0.00000000000E+00 0.  1.
          1   -1    0    0  501    0  0.00000000000E+00 -0.00000000000E+00 -0.63625826891E+03  0.63625826891E+03  0.00000000000E+00 0. -1.
         25    2    1    2    0    0 -0.30123960013E+02 -0.22451567897E+02 -0.33834116751E+03  0.36267663001E+03  0.12509223179E+03 0.  0.
          5    1    3    3  502    0 -0.20562890479E+02 -0.64680236652E+02 -0.10348705837E+03  0.12382814352E+03  0.41800000000E+01 0. -1.
         -5    1    3    3    0  502 -0.95610695336E+01  0.42228668756E+02 -0.23485410914E+03  0.23884848649E+03  0.41800000000E+01 0. -1.
        -11    1    1    2    0    0  0.56195753660E+02  0.21915328394E+01 -0.10533057155E+03  0.11940391471E+03  0.00000000000E+00 0.  1.
         11    1    1    2    0    0 -0.26071793647E+02  0.20260035057E+02 -0.17181015495E+03  0.17495409909E+03  0.00000000000E+00 0. -1.
</event>
<event>
 7    1  0.2900135E-009  0.1210254E+03  0.7561462E-02  0.1241415E+00
         -1   -1    0    0    0  501 -0.00000000000E+00  0.00000000000E+00  0.37113883297E+02  0.37113883297E+02  0.00000000000E+00 0.  1.
          1   -1    0    0  501    0  0.00000000000E+00 -0.00000000000E+00 -0.70074331318E+03  0.70074331318E+03  0.00000000000E+00 0. -1.
         25    2    1    2    0    0  0.29862297254E+01  0.10874419315E+03 -0.24790856663E+03  0.29822785203E+03  0.12508787794E+03 0.  0.
          5    1    3    3  502    0 -0.39267399702E+01  0.85507098690E+02 -0.25783128222E+03  0.27170080181E+03  0.41800000000E+01 0.  1.
         -5    1    3    3    0  502  0.69129696955E+01  0.23237094460E+02  0.99227155890E+01  0.26527050224E+02  0.41800000000E+01 0.  1.
        -11    1    1    2    0    0  0.35276853992E+02 -0.42332743955E+02 -0.94516145834E+02  0.10940667010E+03  0.00000000000E+00 0.  1.
         11    1    1    2    0    0 -0.38263083718E+02 -0.66411449195E+02 -0.32120471742E+03  0.33022267434E+03  0.00000000000E+00 0. -1.
</event>
<event>
 7    1  0.2900135E-009  0.1217415E+03  0.7561462E-02  0.1240251E+00
          2   -1    0    0  501    0  0.00000000000E+00  0.00000000000E+00  0.13055521182E+04  0.13055521182E+04  0.00000000000E+00 0. -1.
         -2   -1    0    0    0  501 -0.00000000000E+00 -0.00000000000E+00 -0.15985311418E+02  0.15985311418E+02  0.00000000000E+00 0.  1.
         25    2    1    2    0    0  0.79556955365E+02 -0.38651829440E+02  0.83621583810E+03  0.85013386660E+03  0.12508952870E+03 0.  0.
          5    1    3    3  502    0 -0.11491546724E+02 -0.27134212641E+02  0.51979142603E+03  0.52064279512E+03  0.41800000000E+01 0. -1.
         -5    1    3    3    0  502  0.91048502089E+02 -0.11517616798E+02  0.31642441207E+03  0.32949107148E+03  0.41800000000E+01 0. -1.
        -11    1    1    2    0    0 -0.78382451401E+02 -0.46627192946E+01  0.20947448739E+03  0.22370764517E+03  0.00000000000E+00 0.  1.
         11    1    1    2    0    0 -0.11745039642E+01  0.43314548734E+02  0.24387648125E+03  0.24769591781E+03  0.00000000000E+00 0. -1.
</event>
<event>
 7    1  0.2900135E-009  0.1139943E+03  0.7561462E-02  0.1253347E+00
         -2   -1    0    0    0  501 -0.00000000000E+00  0.00000000000E+00  0.81973368011E+02  0.81973368011E+02  0.00000000000E+00 0.  1.
          2   -1    0    0  501    0  0.00000000000E+00 -0.00000000000E+00 -0.19439954104E+03  0.19439954104E+03  0.00000000000E+00 0. -1.
         25    2    1    2    0    0  0.11084008910E+02  0.36122254213E+02 -0.51870637452E+01  0.13077953240E+03  0.12509479590E+03 0.  0.
          5    1    3    3  502    0 -0.16788194194E+02  0.77936793817E+02 -0.82587904671E+01  0.80259998223E+02  0.41800000000E+01 0.  1.
         -5    1    3    3    0  502  0.27872203105E+02 -0.41814539604E+02  0.30717267219E+01  0.50519534175E+02  0.41800000000E+01 0.  1.
        -11    1    1    2    0    0  0.30483555497E+02  0.13206383541E+02 -0.45192897710E+02  0.56089693575E+02  0.00000000000E+00 0. -1.
         11    1    1    2    0    0 -0.41567564407E+02 -0.49328637754E+02 -0.62046211570E+02  0.89503683073E+02  0.00000000000E+00 0.  1.
</event>
<event>
 7    1  0.2900135E-009  0.1146935E+03  0.7561462E-02  0.1252117E+00
          3   -1    0    0  501    0  0.00000000000E+00  0.00000000000E+00  0.16265358521E+03  0.16265358521E+03  0.00000000000E+00 0. -1.
         -3   -1    0    0    0  501 -0.00000000000E+00 -0.00000000000E+00 -0.15876667400E+03  0.15876667400E+03  0.00000000000E+00 0.  1.
         25    2    1    2    0    0  0.77090112638E+02 -0.54476133526E+02 -0.69754363228E+02  0.17154081683E+03  0.12510014413E+03 0.  0.
          5    1    3    3  502    0 -0.54240837925E+01 -0.75691010625E+01 -0.75664769690E+02  0.76350126051E+02  0.41800000000E+01 0. -1.
         -5    1    3    3    0  502  0.82514196431E+02 -0.46907032463E+02  0.59104064612E+01  0.95190690782E+02  0.41800000000E+01 0. -1.
        -11    1    1    2    0    0 -0.92339811451E+02  0.57286551611E+02  0.45620545081E+02  0.11785424858E+03  0.00000000000E+00 0. -1.
         11    1    1    2    0    0  0.15249698813E+02 -0.28104180853E+01  0.28020729363E+02  0.32025193796E+02  0.00000000000E+00 0.  1.
</event>
<event>
 7    1  0.2900135E-009  0.1022211E+03  0.7561462E-02  0.1275693E+00
         -1   -1    0    0    0  501 -0.00000000000E+00  0.00000000000E+00  0.67877289856E+02  0.67877289856E+02  0.00000000000E+00 0.  1.
          1   -1    0    0  501    0  0.00000000000E+00 -0.00000000000E+00 -0.34303575279E+03  0.34303575279E+03  0.00000000000E+00 0. -1.
         25    2    1    2    0    0 -0.24821264462E+02 -0.84198665201E+02 -0.22989632478E+03  0.27605141680E+03  0.12508618699E+03 0.  0.
          5    1    3    3  502    0  0.75867489666E+01 -0.24054179692E+02  0.93376509766E+01  0.27218127164E+02  0.41800000000E+01 0. -1.
         -5    1    3    3    0  502 -0.32408013428E+02 -0.60144485509E+02 -0.23923397576E+03  0.24883328963E+03  0.41800000000E+01 0. -1.
        -11    1    1    2    0    0  0.33452719045E+02  0.88730769259E+01 -0.47784136833E+02  0.59001183366E+02  0.00000000000E+00 0. -1.
         11    1    1    2    0    0 -0.86314545832E+01  0.75325588275E+02  0.25219986781E+01  0.75860442488E+02  0.00000000000E+00 0.  1.
</event>
<event>
 7    1  0.2900135E-009  0.3348166E+03  0.7561462E-02  0.1069025E+00
         -2   -1    0    0    0  501 -0.00000000000E+00  0.00000000000E+00  0.60172979261E+03  0.60172979261E+03  0.00000000000E+00 0.  1.
          2   -1    0    0  501    0  0.00000000000E+00 -0.00000000000E+00 -0.21355675483E+03  0.21355675483E+03  0.00000000000E+00 0. -1.
         25    2    1    2    0    0  0.12431486455E+03  0.30302418639E+03  0.30616236852E+03  0.46546874587E+03  0.12509162403E+03 0.  0.
          5    1    3    3  502    0  0.13626808892E+03  0.23004727844E+03  0.19128158057E+03  0.32878086599E+03  0.41800000000E+01 0. -1.
         -5    1    3    3    0  502 -0.11953224374E+02  0.72976907949E+02  0.11488078794E+03  0.13668787988E+03  0.41800000000E+01 0. -1.
        -11    1    1    2    0    0 -0.10882938425E+03 -0.24467817708E+03  0.10150554822E+03  0.28638195044E+03  0.00000000000E+00 0.  1.
         11    1    1    2    0    0 -0.15485480297E+02 -0.58346009308E+02 -0.19494878960E+02  0.63435851125E+02  0.00000000000E+00 0. -1.
</event>
<event>
 7    1  0.2900135E-009  0.1146674E+03  0.7561462E-02  0.1252163E+00
         -1   -1    0    0    0  501 -0.00000000000E+00  0.00000000000E+00  0.41826259396E+03  0.41826259396E+03  0.00000000000E+00 0.  1.
          1   -1    0    0  501    0  0.00000000000E+00 -0.00000000000E+00 -0.56179164735E+02  0.56179164735E+02  0.00000000000E+00 0. -1.
         25    2    1    2    0    0  0.31964740893E+01  0.10522283905E+03  0.23593479979E+03  0.28704447465E+03  0.12508891787E+03 0.  0.
          5    1    3    3  502    0 -0.13624777700E+02  0.97437228814E+02  0.71940556954E+02  0.12195312321E+03  0.41800000000E+01 0.  1.
         -5    1    3    3    0  502  0.16821251790E+02  0.77856102336E+01  0.16399424283E+03  0.16509135144E+03  0.41800000000E+01 0.  1.
        -11    1    1    2    0    0  0.17364448104E+02 -0.50457468913E+02  0.11645920750E+03  0.12810240918E+03  0.00000000000E+00 0.  1.
         11    1    1    2    0    0 -0.20560922193E+02 -0.54765370134E+02  0.96894219426E+01  0.59294874863E+02  0.00000000000E+00 0. -1.
</event>
<event>
 7    1  0.2900135E-009  0.2044762E+03  0.7561462E-02  0.1146016E+00
          2   -1    0    0  501    0  0.00000000000E+00  0.00000000000E+00  0.46102149984E+03  0.46102149984E+03  0.00000000000E+00 0. -1.
         -2   -1    0    0    0  501 -0.00000000000E+00 -0.00000000000E+00 -0.17963456909E+03  0.17963456909E+03  0.00000000000E+00 0.  1.
         25    2    1    2    0    0 -0.81793136051E+02 -0.17683570294E+03  0.34702291511E+03  0.41717327562E+03  0.12509058853E+03 0.  0.
          5    1    3    3  502    0 -0.89408393216E+02 -0.10897138980E+03  0.13827660393E+03  0.19750067384E+03  0.41800000000E+01 0.  1.
         -5    1    3    3    0  502  0.76152571647E+01 -0.67864313132E+02  0.20874631118E+03  0.21967260178E+03  0.41800000000E+01 0.  1.
        -11    1    1    2    0    0  0.45203615381E+02  0.14190293051E+03 -0.82381829245E+02  0.17019569419E+03  0.00000000000E+00 0.  1.
         11    1    1    2    0    0  0.36589520670E+02  0.34932772424E+02  0.16745844880E+02  0.53287099122E+02  0.00000000000E+00 0. -1.
</event>
<event>
 7    1  0.2900135E-009  0.8668543E+02  0.7561462E-02  0.1311083E+00
          2   -1    0    0  501    0  0.00000000000E+00  0.00000000000E+00  0.14720660032E+03  0.14720660032E+03  0.00000000000E+00 0. -1.
         -2   -1    0    0    0  501 -0.00000000000E+00 -0.00000000000E+00 -0.10710526753E+03  0.10710526753E+03  0.00000000000E+00 0.  1.
         25    2    1    2    0    0  0.58480113544E+02 -0.24111731176E+02  0.13410737688E+02  0.14081868275E+03  0.12509498097E+03 0.  0.
          5    1    3    3  502    0  0.59212221384E+02 -0.11392987705E+02  0.64266928371E+02  0.88224700693E+02  0.41800000000E+01 0. -1.
         -5    1    3    3    0  502 -0.73210783943E+00 -0.12718743472E+02 -0.50856190683E+02  0.52593982053E+02  0.41800000000E+01 0. -1.
        -11    1    1    2    0    0 -0.46203498757E+02 -0.22448518341E+02  0.38163885159E+02  0.63993604396E+02  0.00000000000E+00 0.  1.
         11    1    1    2    0    0 -0.12276614787E+02  0.46560249517E+02 -0.11473290059E+02  0.49499580710E+02  0.00000000000E+00 0. -1.
</event>
<event>
 7    1  0.2900135E-009  0.1201301E+03  0.7561462E-02  0.1242883E+00
          2   -1    0    0  501    0  0.00000000000E+00  0.00000000000E+00  0.42172223700E+03  0.42172223700E+03  0.00000000000E+00 0. -1.
         -2   -1    0    0    0  501 -0.00000000000E+00 -0.00000000000E+00 -0.34599959018E+02  0.34599959018E+02  0.00000000000E+00 0.  1.
         25    2    1    2    0    0  0.63529372346E+02 -0.86407006178E+01  0.24443699410E+03  0.28197131597E+03  0.12509091130E+03 0.  0.
          5    1    3    3  502    0  0.50580509791E+02  0.55297873978E+02  0.13682016921E+03  0.15605599617E+03  0.41800000000E+01 0.  1.
         -5    1    3    3    0  502  0.12948862554E+02 -0.63938574595E+02  0.10761682489E+03  0.12591531980E+03  0.41800000000E+01 0.  1.
        -11    1    1    2    0    0 -0.26039124197E+02 -0.34147456509E+02  0.68798508222E+02  0.81100675142E+02  0.00000000000E+00 0. -1.
         11    1    1    2    0    0 -0.37490248148E+02  0.42788157127E+02  0.73886775660E+02  0.93250204900E+02  0.00000000000E+00 0.  1.
</event>
<event>
 7    1  0.2900135E-009  0.7061261E+02  0.7561462E-02  0.1358022E+00
          2   -1    0    0  501    0  0.00000000000E+00  0.00000000000E+00  0.39345684449E+03  0.39345684449E+03  0.00000000000E+00 0. -1.
         -2   -1    0    0    0  501 -0.00000000000E+00 -0.00000000000E+00 -0.39226549415E+02  0.39226549415E+02  0.00000000000E+00 0.  1.
         25    2    1    2    0    0  0.44715173527E+02  0.13446110530E+02  0.26920142285E+03  0.30049677253E+03  0.12509460261E+03 0.  0.
          5    1    3    3  502    0  0.42058694822E+01  0.59854471153E+01 -0.12881206498E+02  0.15391971807E+02  0.41800000000E+01 0.  1.
         -5    1    3    3    0  502  0.40509304045E+02  0.74606634150E+01  0.28208262935E+03  0.28510480072E+03  0.41800000000E+01 0.  1.
        -11    1    1    2    0    0  0.20433139379E+01 -0.38361105357E+02  0.65082138354E+02  0.75574031710E+02  0.00000000000E+00 0. -1.
         11    1    1    2    0    0 -0.46758487465E+02  0.24914994827E+02  0.19946733872E+02  0.56612589672E+02  0.00000000000E+00 0.  1.
</event>
<event>
 7    1  0.3221870E-009  0.9394409E+02  0.7561462E-02  0.1293572E+00
         -2   -1    0    0    0  501 -0.00000000000E+00  0.00000000000E+00  0.15341834549E+02  0.15341834549E+02  0.00000000000E+00 0.  1.
          2   -1    0    0  501    0  0.00000000000E+00 -0.00000000000E+00 -0.11988575076E+04  0.11988575076E+04  0.00000000000E+00 0. -1.
         25    2    1    2    0    0  0.27315819676E+02 -0.66537494013E+02 -0.81705235880E+03  0.82969414790E+03  0.12507769552E+03 0.  0.
          5    1    3    3  502    0 -0.82094396275E+01 -0.49363211041E+02 -0.75073416643E+03  0.75241171080E+03  0.41800000000E+01 0.  1.
         -5    1    3    3    0  502  0.35525259304E+02 -0.17174282971E+02 -0.66318192374E+02  0.77282437099E+02  0.41800000000E+01 0.  1.
        -11    1    1    2    0    0 -0.48612438161E+02  0.56239232567E+02 -0.34380065443E+03  0.35174551939E+03  0.00000000000E+00 0. -1.
         11    1    1    2    0    0  0.21296618484E+02  0.10298261446E+02 -0.22662659846E+02  0.32759674891E+02  0.00000000000E+00 0.  1.
</event>
<event>
 7    1  0.2900135E-009  0.8804749E+02  0.7561462E-02  0.1307650E+00
         -1   -1    0    0    0  501 -0.00000000000E+00  0.00000000000E+00  0.38169264854E+02  0.38169264854E+02  0.00000000000E+00 0.  1.
          1   -1    0    0  501    0  0.00000000000E+00 -0.00000000000E+00 -0.33790022980E+03  0.33790022980E+03  0.00000000000E+00 0. -1.
         25    2    1    2    0    0  0.25291322646E+02 -0.90827566255E+01 -0.19050286415E+03  0.22947348066E+03  0.12507833389E+03 0.  0.
          5    1    3    3  502    0 -0.23211714108E+02 -0.46699411432E+02 -0.14136761779E+03  0.15073783353E+03  0.41800000000E+01 0.  1.
         -5    1    3    3    0  502  0.48503036754E+02  0.37616654807E+02 -0.49135246364E+02  0.78735647127E+02  0.41800000000E+01 0.  1.
        -11    1    1    2    0    0 -0.93090124131E+01  0.32554184229E+02 -0.11298782784E+03  0.11795203204E+03  0.00000000000E+00 0.  1.
         11    1    1    2    0    0 -0.15982310233E+02 -0.23471427604E+02  0.37597270506E+01  0.28643981944E+02  0.00000000000E+00 0. -1.
</event>
<event>
 7    1  0.2978777E-009  0.1186641E+03  0.7561462E-02  0.1245317E+00
          2   -1    0    0  501    0  0.00000000000E+00  0.00000000000E+00  0.25090473878E+03  0.25090473878E+03  0.00000000000E+00 0. -1.
         -2   -1    0    0    0  501 -0.00000000000E+00 -0.00000000000E+00 -0.90938486858E+02  0.90938486858E+02  0.00000000000E+00 0.  1.
         25    2    1    2    0    0  0.27686306796E+02  0.94189105973E+02  0.12712156757E+03  0.20358020234E+03  0.12508751567E+03 0.  0.
          5    1    3    3  502    0 -0.33829819616E+02  0.28130908484E+02  0.99847044995E+02  0.10919116036E+03  0.41800000000E+01 0. -1.
         -5    1    3    3    0  502  0.61516126412E+02  0.66058197488E+02  0.27274522574E+02  0.94389041979E+02  0.41800000000E+01 0. -1.
        -11    1    1    2    0    0 -0.11714493852E+02 -0.81590217606E+02  0.61697332719E+02  0.10295996231E+03  0.00000000000E+00 0. -1.
         11    1    1    2    0    0 -0.15971812945E+02 -0.12598888367E+02 -0.28852648366E+02  0.35303060980E+02  0.00000000000E+00 0.  1.
</event>
<event>
 7    1  0.2900135E-009  0.2235438E+03  0.7561462E-02  0.1131268E+00
         -2   -1    0    0    0  501 -0.00000000000E+00  0.00000000000E+00  0.50371652869E+02  0.50371652869E+02  0.00000000000E+00 0. -1.
          2   -1    0    0  501    0  0.00000000000E+00 -0.00000000000E+00 -0.10915855809E+04  0.10915855809E+04  0.00000000000E+00 0.  1.
         25    2    1    2    0    0  0.94133326941E+02 -0.17895929924E+03 -0.70690666868E+03  0.74582318653E+03  0.12509066041E+03 0.  0.
          5    1    3    3  502    0 -0.23772937368E+02 -0.24071423498E+01 -0.97835111324E+02  0.10079746174E+03  0.41800000000E+01 0. -1.
         -5    1    3    3    0  502  0.11790626431E+03 -0.17655215689E+03 -0.60907155735E+03  0.64502572479E+03  0.41800000000E+01 0. -1.
        -11    1    1    2    0    0 -0.75630397374E+02  0.81098517399E+02 -0.20319181576E+03  0.23148183627E+03  0.00000000000E+00 0. -1.
         11    1    1    2    0    0 -0.18502929567E+02  0.97860781843E+02 -0.13111544357E+03  0.16465221094E+03  0.00000000000E+00 0.  1.
</event>
<event>
 7    1  0.2900135E-009  0.1833495E+03  0.7561462E-02  0.1164600E+00
          1   -1    0    0  501    0  0.00000000000E+00  0.00000000000E+00  0.55357718828E+03  0.55357718828E+03  0.00000000000E+00 0. -1.
         -1   -1    0    0    0  501 -0.00000000000E+00 -0.00000000000E+00 -0.13954988106E+03  0.13954988106E+03  0.00000000000E+00 0.  1.
         25    2    1    2    0    0  0.10236949861E+03 -0.14109779947E+03  0.44679811940E+03  0.49563795827E+03  0.12506127664E+03 0.  0.
          5    1    3    3  502    0  0.34450663626E+02 -0.69053654897E+02  0.34507164495E+03  0.35362008997E+03  0.41800000000E+01 0. -1.
         -5    1    3    3    0  502  0.67918834982E+02 -0.72044144575E+02  0.10172647445E+03  0.14201786830E+03  0.41800000000E+01 0. -1.
        -11    1    1    2    0    0 -0.19590876614E+02  0.92019032817E+02  0.47447832431E+01  0.94200943812E+02  0.00000000000E+00 0.  1.
         11    1    1    2    0    0 -0.82778621994E+02  0.49078766655E+02 -0.37515595424E+02  0.10328816726E+03  0.00000000000E+00 0. -1.
</event>
<event>
 7    1  0.2900135E-009  0.2151088E+03  0.7561462E-02  0.1137583E+00
          2   -1    0    0  501    0  0.00000000000E+00  0.00000000000E+00  0.61281663192E+03  0.61281663192E+03  0.00000000000E+00 0.  1.
         -2   -1    0    0    0  501 -0.00000000000E+00 -0.00000000000E+00 -0.94630154510E+02  0.94630154510E+02  0.00000000000E+00 0. -1.
         25    2    1    2    0    0 -0.18493261260E+03  0.94413367150E+02  0.30836697101E+03  0.39225005765E+03  0.12512379398E+03 0.  0.
          5    1    3    3  502    0 -0.50126066999E+02 -0.10889205191E+02  0.15191684883E+03  0.16039762698E+03  0.41800000000E+01 0.  1.
         -5    1    3    3    0  502 -0.13480654560E+03  0.10530257234E+03  0.15645012218E+03  0.23185243067E+03  0.41800000000E+01 0.  1.
        -11    1    1    2    0    0  0.54247632390E+02 -0.27164962748E+02  0.13980111995E+03  0.15239781481E+03  0.00000000000E+00 0.  1.
         11    1    1    2    0    0  0.13068498021E+03 -0.67248404402E+02  0.70018386453E+02  0.16279891397E+03  0.00000000000E+00 0. -1.
</event>
<event>
 7    1  0.2900135E-009  0.2865171E+03  0.7561462E-02  0.1092182E+00
          2   -1    0    0  501    0  0.00000000000E+00  0.00000000000E+00  0.81365665687E+02  0.81365665687E+02  0.00000000000E+00 0. -1.
         -2   -1    0    0    0  501 -0.00000000000E+00 -0.00000000000E+00 -0.14453075953E+04  0.14453075953E+04  0.00000000000E+00 0.  1.
         25    2    1    2    0    0  0.10290774368E+02  0.26575904256E+03 -0.11089568822E+04  0.11472428662E+04  0.12508820377E+03 0.  0.
          5    1    3    3  502    0  0.23443874019E+02 -0.21899836559E+01 -0.61964050595E+02  0.66418575892E+02  0.41800000000E+01 0. -1.
         -5    1    3    3    0  502 -0.13153099651E+02  0.26794902621E+03 -0.10469928317E+04  0.10808242904E+04  0.41800000000E+01 0. -1.
        -11    1    1    2    0    0  0.32686231779E+02 -0.43346119904E+02 -0.54516321979E+02  0.76937021133E+02  0.00000000000E+00 0. -1.
         11    1    1    2    0    0 -0.42977006148E+02 -0.22241292265E+03 -0.20046872538E+03  0.30249337361E+03  0.00000000000E+00 0.  1.
</event>
<event>
 7    1  0.2900135E-009  0.1100053E+03  0.7561462E-02  0.1260560E+00
         -1   -1    0    0    0  501 -0.00000000000E+00  0.00000000000E+00  0.70350092759E+02  0.70350092759E+02  0.00000000000E+00 0.  1.
          1   -1    0    0  501    0  0.00000000000E+00 -0.00000000000E+00 -0.21812043806E+03  0.21812043806E+03  0.00000000000E+00 0. -1.
         25    2    1    2    0    0 -0.58938056546E+02  0.14371498030E+02 -0.98999892937E+02  0.17067149927E+03  0.12509015707E+03 0.  0.
          5    1    3    3  502    0  0.30206622442E+00  0.56114889196E+02 -0.12308254789E+02  0.57601541381E+02  0.41800000000E+01 0. -1.
         -5    1    3    3    0  502 -0.59240122771E+02 -0.41743391166E+02 -0.86691638148E+02  0.11306995789E+03  0.41800000000E+01 0. -1.
        -11    1    1    2    0    0  0.62008776060E+02  0.13207327783E+02 -0.20181959961E+01  0.63431813238E+02  0.00000000000E+00 0.  1.
         11    1    1    2    0    0 -0.30707195133E+01 -0.27578825813E+02 -0.46752256369E+02  0.54367218313E+02  0.00000000000E+00 0. -1.
</event>
<event>
 7    1  0.2900135E-009  0.4250505E+03  0.7561462E-02  0.1035435E+00
         -2   -1    0    0    0  501 -0.00000000000E+00  0.00000000000E+00  0.18697000262E+03  0.18697000262E+03  0.00000000000E+00 0.  1.
          2   -1    0    0  501    0  0.00000000000E+00 -0.00000000000E+00 -0.11070678871E+04  0.11070678871E+04  0.00000000000E+00 0. -1.
         25    2    1    2    0    0 -0.24284135885E+03 -0.33321151210E+03 -0.68663393196E+03  0.81062654618E+03  0.12508958188E+03 0.  0.
          5    1    3    3  502    0 -0.19738515485E+02 -0.11828098100E+03 -0.21797006071E+03  0.24881402538E+03  0.41800000000E+01 0. -1.
         -5    1    3    3    0  502 -0.22310284337E+03 -0.21493053109E+03 -0.46866387125E+03  0.56181252080E+03  0.41800000000E+01 0. -1.
        -11    1    1    2    0    0  0.19945588216E+03  0.20981096597E+03 -0.13352922978E+03  0.31879985191E+03  0.00000000000E+00 0.  1.
         11    1    1    2    0    0  0.43385476689E+02  0.12340054612E+03 -0.99934722787E+02  0.16461149167E+03  0.00000000000E+00 0. -1.
</event>
<event>
 7    1  0.2900135E-009  0.1113181E+03  0.7561462E-02  0.1258148E+00
          1   -1    0    0  501    0  0.00000000000E+00  0.00000000000E+00  0.52372256659E+03  0.52372256659E+03  0.00000000000E+00 0.  1.
         -1   -1    0    0    0  501 -0.00000000000E+00 -0.00000000000E+00 -0.39342295174E+02  0.39342295174E+02  0.00000000000E+00 0. -1.
         25    2    1    2    0    0  0.59824529689E+02 -0.56767093133E+02  0.18037503411E+03  0.23448525554E+03  0.12508678955E+03 0.  0.
          5    1    3    3  502    0 -0.22512346615E+02 -0.44637619420E+02  0.20495813624E+02  0.54192929370E+02  0.41800000000E+01 0.  1.
         -5    1    3    3    0  502  0.82336876304E+02 -0.12129473713E+02  0.15987922049E+03  0.18029232617E+03  0.41800000000E+01 0.  1.
        -11    1    1    2    0    0 -0.24642033880E+02  0.46270614707E+02  0.27964947571E+03  0.28452070028E+03  0.00000000000E+00 0.  1.
         11    1    1    2    0    0 -0.35182495809E+02  0.10496478426E+02  0.24355761594E+02  0.44058905950E+02  0.00000000000E+00 0. -1.
</event>
<event>
 7    1  0.2900135E-009  0.1436779E+03  0.7561462E-02  0.1208464E+00
         -4   -1    0    0    0  501 -0.00000000000E+00  0.00000000000E+00  0.52984558302E+03  0.52984558302E+03  0.00000000000E+00 0.  1.
          4   -1    0    0  501    0  0.00000000000E+00 -0.00000000000E+00 -0.47277869018E+02  0.47277869018E+02  0.00000000000E+00 0. -1.
         25    2    1    2    0    0 -0.11290541434E+03 -0.37294058923E+02  0.22586419609E+03  0.28425348677E+03  0.12508769023E+03 0.  0.
          5    1    3    3  502    0 -0.39102081779E+02  0.42773425484E+02  0.11474357232E+03  0.12861608964E+03  0.41800000000E+01 0. -1.
         -5    1    3    3    0  502 -0.73803332564E+02 -0.80067484407E+02  0.11112062377E+03  0.15563739713E+03  0.41800000000E+01 0. -1.
        -11    1    1    2    0    0  0.51524864612E+02  0.26557073680E+02  0.48621233846E+02  0.75657876103E+02  0.00000000000E+00 0. -1.
         11    1    1    2    0    0  0.61380549731E+02  0.10736985242E+02  0.20808228407E+03  0.21721208917E+03  0.00000000000E+00 0.  1.
</event>
<event>
 7    1  0.2900135E-009  0.1428127E+03  0.7561462E-02  0.1209594E+00
          1   -1    0    0  501    0  0.00000000000E+00  0.00000000000E+00  0.17706877453E+03  0.17706877453E+03  0.00000000000E+00 0. -1.
         -1   -1    0    0    0  501 -0.00000000000E+00 -0.00000000000E+00 -0.17202630189E+03  0.17202630189E+03  0.00000000000E+00 0.  1.
         25    2    1    2    0    0 -0.13704301393E+03 -0.85053719432E+01  0.45652222991E+01  0.18579946188E+03  0.12508984676E+03 0.  0.
          5    1    3    3  502    0 -0.12511577404E+03 -0.22069718860E+02  0.50101772883E+02  0.13663341264E+03  0.41800000000E+01 0. -1.
         -5    1    3    3    0  502 -0.11927239885E+02  0.13564346917E+02 -0.45536550584E+02  0.49166049238E+02  0.41800000000E+01 0. -1.
        -11    1    1    2    0    0  0.11350016598E+03  0.17352845426E+02  0.35496510720E+02  0.12018074387E+03  0.00000000000E+00 0. -1.
         11    1    1    2    0    0  0.23542847944E+02 -0.88474734831E+01 -0.35019260378E+02  0.43114870680E+02  0.00000000000E+00 0.  1.
</event>
<event>
 7    1  0.3877691E-009  0.8752648E+02  0.7561462E-02  0.1308955E+00
         -2   -1    0    0    0  501 -0.00000000000E+00  0.00000000000E+00  0.35749567361E+02  0.35749567361E+02  0.00000000000E+00 0.  1.
          2   -1    0    0  501    0  0.00000000000E+00 -0.00000000000E+00 -0.45629428226E+03  0.45629428226E+03  0.00000000000E+00 0. -1.
         25    2    1    2    0    0 -0.54132692811E+02 -0.31015154509E+02 -0.28271808353E+03  0.31538484897E+03  0.12508317220E+03 0.  0.
          5    1    3    3  502    0 -0.54652502287E+02 -0.57029136240E+02 -0.27745724666E+03  0.28851206995E+03  0.41800000000E+01 0. -1.
         -5    1    3    3    0  502  0.51980947617E+00  0.26013981731E+02 -0.52608368679E+01  0.26872779014E+02  0.41800000000E+01 0. -1.
        -11    1    1    2    0    0  0.99332248514E+01  0.22491155750E+02 -0.12831727910E+03  0.13065161751E+03  0.00000000000E+00 0. -1.
         11    1    1    2    0    0  0.44199467960E+02  0.85239987587E+01 -0.95093522731E+01  0.46007383140E+02  0.00000000000E+00 0.  1.
</event>
<event>
 7    1  0.2900135E-009  0.8912674E+02  0.7561462E-02  0.1304980E+00
          2   -1    0    0  501    0  0.00000000000E+00  0.00000000000E+00  0.90950098937E+02  0.90950098937E+02  0.00000000000E+00 0. -1.
         -2   -1    0    0    0  501 -0.00000000000E+00 -0.00000000000E+00 -0.16278946514E+03  0.16278946514E+03  0.00000000000E+00 0.  1.
         25    2    1    2    0    0  0.31552776452E+02 -0.41964590187E+02 -0.24977344488E+02  0.13794069400E+03  0.12508861975E+03 0.  0.
          5    1    3    3  502    0 -0.12225317898E+02 -0.47757561541E+02 -0.62590771914E+02  0.79782956894E+02  0.41800000000E+01 0. -1.
         -5    1    3    3    0  502  0.43778094350E+02  0.57929713546E+01  0.37613427425E+02  0.58157737101E+02  0.41800000000E+01 0. -1.
        -11    1    1    2    0    0  0.10212020356E+02  0.41413031174E+02 -0.58537760513E+02  0.72429233853E+02  0.00000000000E+00 0.  1.
         11    1    1    2    0    0 -0.41764796808E+02  0.55155901303E+00  0.11675738801E+02  0.43369636225E+02  0.00000000000E+00 0. -1.
</event>
<event>
 7    1  0.2900135E-009  0.1150009E+03  0.7561462E-02  0.1251580E+00
          3   -1    0    0  501    0  0.00000000000E+00  0.00000000000E+00  0.30184134078E+02  0.30184134078E+02  0.00000000000E+00 0.  1.
         -3   -1    0    0    0  501 -0.00000000000E+00 -0.00000000000E+00 -0.61588109212E+03  0.61588109212E+03  0.00000000000E+00 0. -1.
         25    2    1    2    0    0  0.59678870731E+02 -0.26216890871E+02 -0.43440781898E+03  0.45673536185E+03  0.12509254410E+03 0.  0.
          5    1    3    3  502    0  0.89517619674E+02 -0.19862495002E+02 -0.19695158634E+03  0.21729087119E+03  0.41800000000E+01 0. -1.
         -5    1    3    3    0  502 -0.29838748943E+02 -0.63543958690E+01 -0.23745623265E+03  0.23944449066E+03  0.41800000000E+01 0. -1.
        -11    1    1    2    0    0 -0.56868134516E+02  0.54636005237E+02 -0.13528815936E+03  0.15659490367E+03  0.00000000000E+00 0.  1.
         11    1    1    2    0    0 -0.28107362150E+01 -0.28419114366E+02 -0.16000979691E+02  0.32734960677E+02  0.00000000000E+00 0. -1.
</event>
<event>
 7    1  0.2900135E-009  0.1510384E+03  0.7561462E-02  0.1199203E+00
         -1   -1    0    0    0  501 -0.00000000000E+00  0.00000000000E+00  0.20344229556E+03  0.20344229556E+03  0.00000000000E+00 0.  1.
          1   -1    0    0  501    0  0.00000000000E+00 -0.00000000000E+00 -0.27438502643E+03  0.27438502643E+03  0.00000000000E+00 0. -1.
         25    2    1    2    0    0 -0.26486669448E+02 -0.10430935853E+03 -0.21825664930E+03  0.27361609879E+03  0.12509124118E+03 0.  0.
          5    1    3    3  502    0 -0.29805767645E+02  0.20507712515E+02 -0.27699093293E+02  0.45756553921E+02  0.41800000000E+01 0.  1.
         -5    1    3    3    0  502  0.33190981971E+01 -0.12481707105E+03 -0.19055755600E+03  0.22785954487E+03  0.41800000000E+01 0.  1.
        -11    1    1    2    0    0  0.56235212052E+02  0.93433385390E+02  0.10527278249E+03  0.15157359702E+03  0.00000000000E+00 0.  1.
         11    1    1    2    0    0 -0.29748542605E+02  0.10875973142E+02  0.42041135940E+02  0.52637626181E+02  0.00000000000E+00 0. -1.
</event>
<event>
 7    1  0.2900135E-009  0.1879118E+03  0.7561462E-02  0.1160358E+00
         -2   -1    0    0    0  501 -0.00000000000E+00  0.00000000000E+00  0.13484002992E+03  0.13484002992E+03  0.00000000000E+00 0.  1.
          2   -1    0    0  501    0  0.00000000000E+00 -0.00000000000E+00 -0.29226307440E+03  0.29226307440E+03  0.00000000000E+00 0. -1.
         25    2    1    2    0    0  0.11864341238E+03  0.11057844098E+03 -0.12288366791E+03  0.23885403851E+03  0.12508798889E+03 0.  0.
          5    1    3    3  502    0  0.33131745934E+02  0.11172762538E+03 -0.51920565899E+02  0.12764792370E+03  0.41800000000E+01 0. -1.
         -5    1    3    3    0  502  0.85511666446E+02 -0.11491844071E+01 -0.70963102012E+02  0.11120611481E+03  0.41800000000E+01 0. -1.
        -11    1    1    2    0    0 -0.70658796073E+02 -0.24035214666E+02  0.17188829783E+02  0.76588594946E+02  0.00000000000E+00 0.  1.
         11    1    1    2    0    0 -0.47984616307E+02 -0.86543226312E+02 -0.51728206353E+02  0.11166047087E+03  0.00000000000E+00 0. -1.
</event>
<event>
 7    1  0.2900135E-009  0.1152063E+03  0.7561462E-02  0.1251221E+00
          1   -1    0    0  501    0  0.00000000000E+00  0.00000000000E+00  0.42180360710E+03  0.42180360710E+03  0.00000000000E+00 0.  1.
         -1   -1    0    0    0  501 -0.00000000000E+00 -0.00000000000E+00 -0.34556095761E+02  0.34556095761E+02  0.00000000000E+00 0. -1.
         25    2    1    2    0    0 -0.17363585138E+02 -0.49684155525E+02  0.23081318126E+03  0.26775440187E+03  0.12509070979E+03 0.  0.
          5    1    3    3  502    0 -0.71170516699E+02 -0.21500500501E+02  0.11719822758E+03  0.13885391935E+03  0.41800000000E+01 0. -1.
         -5    1    3    3    0  502  0.53806931562E+02 -0.28183655025E+02  0.11361495368E+03  0.12890048252E+03  0.41800000000E+01 0. -1.
        -11    1    1    2    0    0  0.17803280879E+02  0.71276442399E+02  0.77573533954E+02  0.10684072829E+03  0.00000000000E+00 0. -1.
         11    1    1    2    0    0 -0.43969574173E+00 -0.21592286873E+02  0.78860796120E+02  0.81764572704E+02  0.00000000000E+00 0.  1.
</event>
<event>
 7    1  0.2900135E-009  0.5796743E+02  0.7561462E-02  0.1406565E+00
         -1   -1    0    0    0  501 -0.00000000000E+00  0.00000000000E+00  0.81293593949E+02  0.81293593949E+02  0.00000000000E+00 0.  1.
          1   -1    0    0  501    0  0.00000000000E+00 -0.00000000000E+00 -0.14981279358E+03  0.14981279358E+03  0.00000000000E+00 0. -1.
         25    2    1    2    0    0  0.21174035799E+02  0.10223487479E+02 -0.41719643871E+02  0.13394826030E+03  0.12509495699E+03 0.  0.
          5    1    3    3  502    0  0.35067851766E+01  0.23451791118E+02  0.41374862809E+02  0.47871032174E+02  0.41800000000E+01 0. -1.
         -5    1    3    3    0  502  0.17667250623E+02 -0.13228303639E+02 -0.83094506680E+02  0.86077228128E+02  0.41800000000E+01 0. -1.
        -11    1    1    2    0    0 -0.37999242178E+02 -0.26228206362E+02 -0.47359981648E+02  0.66142490706E+02  0.00000000000E+00 0. -1.
         11    1    1    2    0    0  0.16825206379E+02  0.16004718883E+02  0.20560425887E+02  0.31015636522E+02  0.00000000000E+00 0.  1.
</event>
<event>
 7    1  0.2900135E-009  0.1134988E+03  0.7561462E-02  0.1254225E+00
         -1   -1    0    0    0  501 -0.00000000000E+00  0.00000000000E+00  0.89258903188E+02  0.89258903188E+02  0.00000000000E+00 0.  1.
          1   -1    0    0  501    0  0.00000000000E+00 -0.00000000000E+00 -0.18027656615E+03  0.18027656615E+03  0.00000000000E+00 0. -1.
         25    2    1    2    0    0  0.21540169912E+02  0.50560040772E+02 -0.16040059770E+02  0.13757051984E+03  0.12509223705E+03 0.  0.
          5    1    3    3  502    0 -0.46511648424E+02  0.28869551645E+02 -0.32978536793E+02  0.64045614528E+02  0.41800000000E+01 0. -1.
         -5    1    3    3    0  502  0.68051818336E+02  0.21690489127E+02  0.16938477023E+02  0.73524905312E+02  0.41800000000E+01 0. -1.
        -11    1    1    2    0    0 -0.53402805467E+02 -0.40861090166E+02 -0.24656559383E+02  0.71620068709E+02  0.00000000000E+00 0. -1.
         11    1    1    2    0    0  0.31862635555E+02 -0.96989506061E+01 -0.50321043804E+02  0.60344880785E+02  0.00000000000E+00 0.  1.
</event>
<event>
 7    1  0.2900135E-009  0.9757437E+02  0.7561462E-02  0.1285481E+00
         -2   -1    0    0    0  501 -0.00000000000E+00  0.00000000000E+00  0.17835482597E+03  0.17835482597E+03  0.00000000000E+00 0.  1.
          2   -1    0    0  501    0  0.00000000000E+00 -0.00000000000E+00 -0.83662954791E+02  0.83662954791E+02  0.00000000000E+00 0. -1.
         25    2    1    2    0    0 -0.42746681095E+02  0.36830259211E+02  0.46174000344E+02  0.14478236413E+03  0.12508456307E+03 0.  0.
          5    1    3    3  502    0 -0.42720336273E+02  0.55406761304E+02  0.79756879770E+02  0.10617706250E+03  0.41800000000E+01 0.  1.
         -5    1    3    3    0  502 -0.26344822166E-01 -0.18576502093E+02 -0.33582879426E+02  0.38605301639E+02  0.41800000000E+01 0.  1.
        -11    1    1    2    0    0  0.90885938158E+01 -0.62832871323E+02  0.22392456708E+02  0.67320088930E+02  0.00000000000E+00 0.  1.
         11    1    1    2    0    0  0.33658087279E+02  0.26002612111E+02  0.26125414132E+02  0.49915327701E+02  0.00000000000E+00 0. -1.
</event>
<event>
 7    1  0.2900135E-009  0.1748964E+03  0.7561462E-02  0.1172836E+00
         -1   -1    0    0    0  501 -0.00000000000E+00  0.00000000000E+00  0.77833336110E+02  0.77833336110E+02  0.00000000000E+00 0.  1.
          1   -1    0    0  501    0  0.00000000000E+00 -0.00000000000E+00 -0.65385058648E+03  0.65385058648E+03  0.00000000000E+00 0. -1.
         25    2    1    2    0    0 -0.23374619224E+02  0.16028107838E+03 -0.11563027972E+03  0.23505979156E+03  0.12508535929E+03 0.  0.
          5    1    3    3  502    0  0.49819484780E+01  0.53194747752E+02 -0.11198078950E+03  0.12414374981E+03  0.41800000000E+01 0.  1.
         -5    1    3    3    0  502 -0.28356567702E+02  0.10708633063E+03 -0.36494902186E+01  0.11091604175E+03  0.41800000000E+01 0.  1.
        -11    1    1    2    0    0  0.35207471590E+02 -0.16771579373E+03 -0.41096511512E+03  0.44526450495E+03  0.00000000000E+00 0.  1.
         11    1    1    2    0    0 -0.11832852366E+02  0.74347153503E+01 -0.49421855532E+02  0.51359626086E+02  0.00000000000E+00 0. -1.
</event>
<event>
 7    1  0.2900135E-009  0.7543048E+02  0.7561462E-02  0.1342543E+00
         -2   -1    0    0    0  501 -0.00000000000E+00  0.00000000000E+00  0.89869039203E+02  0.89869039203E+02  0.00000000000E+00 0.  1.
          2   -1    0    0  501    0  0.00000000000E+00 -0.00000000000E+00 -0.17648760833E+03  0.17648760833E+03  0.00000000000E+00 0. -1.
         25    2    1    2    0    0  0.14604888063E+01  0.32064190970E+02 -0.10500851293E+03  0.16644659640E+03  0.12508971299E+03 0.  0.
          5    1    3    3  502    0 -0.83537683355E+01 -0.36429356950E+02 -0.87068590804E+02  0.94843531133E+02  0.41800000000E+01 0.  1.
         -5    1    3    3    0  502  0.98142571418E+01  0.68493547920E+02 -0.17939922124E+02  0.71603065268E+02  0.41800000000E+01 0.  1.
        -11    1    1    2    0    0 -0.13167131797E+02 -0.28974915062E+02 -0.33746109431E+02  0.46386624843E+02  0.00000000000E+00 0. -1.
         11    1    1    2    0    0  0.11706642991E+02 -0.30892759076E+01  0.52136053229E+02  0.53523426292E+02  0.00000000000E+00 0.  1.
</event>
<event>
 7    1  0.2900135E-009  0.1236689E+03  0.7561462E-02  0.1237164E+00
          1   -1    0    0  501    0  0.00000000000E+00  0.00000000000E+00  0.22134419331E+03  0.22134419331E+03  0.00000000000E+00 0. -1.
         -1   -1    0    0    0  501 -0.00000000000E+00 -0.00000000000E+00 -0.77529946491E+02  0.77529946491E+02  0.00000000000E+00 0.  1.
         25    2    1    2    0    0  0.36639785173E+02  0.50973624836E+02  0.36256065055E+02  0.14456948319E+03  0.12508017001E+03 0.  0.
          5    1    3    3  502    0  0.82337314223E+02  0.21240525302E+02  0.25165399983E+02  0.88777040866E+02  0.41800000000E+01 0. -1.
         -5    1    3    3    0  502 -0.45697529050E+02  0.29733099534E+02  0.11090665072E+02  0.55792442327E+02  0.41800000000E+01 0. -1.
        -11    1    1    2    0    0 -0.36546731263E+02 -0.75034745266E+02  0.97179284484E+02  0.12810031185E+03  0.00000000000E+00 0. -1.
         11    1    1    2    0    0 -0.93053909929E-01  0.24061120430E+02  0.10378897277E+02  0.26204344755E+02  0.00000000000E+00 0.  1.
</event>
<event>
 7    1  0.2900135E-009  0.1164837E+03  0.7561462E-02  0.1249013E+00
         -2   -1    0    0    0  501 -0.00000000000E+00  0.00000000000E+00  0.33816163190E+02  0.33816163190E+02  0.00000000000E+00 0. -1.
          2   -1    0    0  501    0  0.00000000000E+00 -0.00000000000E+00 -0.59135510631E+03  0.59135510631E+03  0.00000000000E+00 0.  1.
         25    2    1    2    0    0 -0.19772680351E+02 -0.83134263675E+02 -0.36840600760E+03  0.39833245886E+03  0.12507396475E+03 0.  0.
          5    1    3    3  502    0 -0.46692438843E+02 -0.61108129062E+02 -0.35074155191E+03  0.35909817031E+03  0.41800000000E+01 0. -1.
         -5    1    3    3    0  502  0.26919758492E+02 -0.22026134613E+02 -0.17664455694E+02  0.39234288552E+02  0.41800000000E+01 0. -1.
        -11    1    1    2    0    0  0.34308568425E+02  0.95723645462E+02 -0.13244678526E+03  0.16697977450E+03  0.00000000000E+00 0. -1.
         11    1    1    2    0    0 -0.14535888074E+02 -0.12589381788E+02 -0.56686150266E+02  0.59859036142E+02  0.00000000000E+00 0.  1.
</event>
<event>
 7    1  0.2900135E-009  0.1397126E+03  0.7561462E-02  0.1213716E+00
         -2   -1    0    0    0  501 -0.00000000000E+00  0.00000000000E+00  0.22251760587E+03  0.22251760587E+03  0.00000000000E+00 0.  1.
          2   -1    0    0  501    0  0.00000000000E+00 -0.00000000000E+00 -0.90657796803E+02  0.90657796803E+02  0.00000000000E+00 0. -1.
         25    2    1    2    0    0 -0.66812429867E+02 -0.59492903006E+02  0.92679228506E+02  0.17955527146E+03  0.12508936734E+03 0.  0.
          5    1    3    3  502    0 -0.61491164711E+02  0.26144346964E+02  0.30855537952E+02  0.73717208561E+02  0.41800000000E+01 0. -1.
         -5    1    3    3    0  502 -0.53212651558E+01 -0.85637249971E+02  0.61823690554E+02  0.10583806290E+03  0.41800000000E+01 0. -1.
        -11    1    1    2    0    0  0.59024967531E+02  0.82977925357E+02  0.24095406668E+02  0.10464163374E+03  0.00000000000E+00 0. -1.
         11    1    1    2    0    0  0.77874623362E+01 -0.23485022351E+02  0.15085173894E+02  0.28978497474E+02  0.00000000000E+00 0.  1.
</event>
<event>
 6    1  0.2900135E-009  0.1107102E+03  0.7561462E-02  0.1259260E+00
         -1   -1    0    0    0  501 -0.00000000000E+00  0.00000000000E+00  0.38100369714E+02  0.38100369714E+02  0.00000000000E+00 0.  1.
          1   -1    0    0  501    0  0.00000000000E+00 -0.00000000000E+00 -0.54479270112E+03  0.54479270112E+03  0.00000000000E+00 0. -1.
          5    1    1    2  502    0 -0.99821946824E+02 -0.39277219055E+02 -0.26462455276E+03  0.28557091471E+03  0.41800000000E+01 0. -1.
         -5    1    1    2    0  502  0.32219912171E+02  0.14096807523E+02 -0.12473996908E+03  0.12967025491E+03  0.41800000000E+01 0. -1.
        -11    1    1    2    0    0  0.60385329943E+02  0.91540567106E+01 -0.13763687267E+02  0.62606899890E+02  0.00000000000E+00 0.  1.
         11    1    1    2    0    0  0.72167047096E+01  0.16026354821E+02 -0.10356412230E+03  0.10504500132E+03  0.00000000000E+00 0. -1.
</event>
<event>
 7    1  0.2900135E-009  0.1132935E+03  0.7561462E-02  0.1254590E+00
         -2   -1    0    0    0  501 -0.00000000000E+00  0.00000000000E+00  0.31517645354E+02  0.31517645354E+02  0.00000000000E+00 0.  1.
          2   -1    0    0  501    0  0.00000000000E+00 -0.00000000000E+00 -0.58758044638E+03  0.58758044638E+03  0.00000000000E+00 0. -1.
         25    2    1    2    0    0  0.20758821107E+02 -0.74204029568E+02 -0.35409378126E+03  0.38336550777E+03  0.12509812134E+03 0.  0.
          5    1    3    3  502    0 -0.43820850559E+02 -0.45067329976E+02 -0.24686885768E+03  0.25478036908E+03  0.41800000000E+01 0. -1.
         -5    1    3    3    0  502  0.64579671666E+02 -0.29136699592E+02 -0.10722492358E+03  0.12858513869E+03  0.41800000000E+01 0. -1.
        -11    1    1    2    0    0  0.98014539878E+01  0.56407232331E+02 -0.39738241094E+02  0.69691980634E+02  0.00000000000E+00 0.  1.
         11    1    1    2    0    0 -0.30560275095E+02  0.17796797237E+02 -0.16223077867E+03  0.16604060333E+03  0.00000000000E+00 0. -1.
</event>
<event>
 7    1  0.2900135E-009  0.8930075E+02  0.7561462E-02  0.1304554E+00
          2   -1    0    0  501    0  0.00000000000E+00  0.00000000000E+00  0.13386949779E+03  0.13386949779E+03  0.00000000000E+00 0. -1.
         -2   -1    0    0    0  501 -0.00000000000E+00 -0.00000000000E+00 -0.11551828665E+03  0.11551828665E+03  0.00000000000E+00 0.  1.
         25    2    1    2    0    0 -0.28214660111E+02 -0.35750551690E+02  0.50879212396E+02  0.14251421257E+03  0.12508971795E+03 0.  0.
          5    1    3    3  502    0  0.49676991952E+02 -0.18462683295E+02  0.18160310522E+02  0.56177784595E+02  0.41800000000E+01 0. -1.
         -5    1    3    3    0  502 -0.77891652063E+02 -0.17287868395E+02  0.32718901875E+02  0.86336427970E+02  0.41800000000E+01 0. -1.
        -11    1    1    2    0    0  0.10254275238E+02  0.12838052930E+02  0.32061312370E+02  0.36026289215E+02  0.00000000000E+00 0. -1.
         11    1    1    2    0    0  0.17960384873E+02  0.22912498760E+02 -0.64589313628E+02  0.70847282651E+02  0.00000000000E+00 0.  1.
</event>
<event>
 7    1  0.2900135E-009  0.1201745E+03  0.7561462E-02  0.1242809E+00
          1   -1    0    0  501    0  0.00000000000E+00  0.00000000000E+00  0.29330035886E+03  0.29330035886E+03  0.00000000000E+00 0. -1.
         -1   -1    0    0    0  501 -0.00000000000E+00 -0.00000000000E+00 -0.56295056483E+02  0.56295056483E+02  0.00000000000E+00 0.  1.
         25    2    1    2    0    0  0.40876256396E+02  0.54081264704E+02  0.15737700922E+03  0.21216817770E+03  0.12510859710E+03 0.  0.
          5    1    3    3  502    0  0.29601473968E+01 -0.38601703280E+02  0.65509618435E+02  0.76209162678E+02  0.41800000000E+01 0.  1.
         -5    1    3    3    0  502  0.37916108999E+02  0.92682967984E+02  0.91867390783E+02  0.13595901502E+03  0.41800000000E+01 0.  1.
        -11    1    1    2    0    0  0.10899786800E+02 -0.47800406048E+02  0.68267866698E+02  0.84048710842E+02  0.00000000000E+00 0. -1.
         11    1    1    2    0    0 -0.51776043196E+02 -0.62808586558E+01  0.11360426463E+02  0.53378526805E+02  0.00000000000E+00 0.  1.
</event>
<event>
 7    1  0.2900135E-009  0.9435602E+02  0.7561462E-02  0.1292633E+00
          2   -1    0    0  501    0  0.00000000000E+00  0.00000000000E+00  0.75339771047E+02  0.75339771047E+02  0.00000000000E+00 0. -1.
         -2   -1    0    0    0  501 -0.00000000000E+00 -0.00000000000E+00 -0.19637596543E+03  0.19637596543E+03  0.00000000000E+00 0.  1.
         25    2    1    2    0    0  0.29103472639E+02  0.15972001015E+02  0.41192257225E+00  0.12942157634E+03  0.12509059840E+03 0.  0.
          5    1    3    3  502    0  0.78303750451E+02  0.36330468615E+01 -0.10098922884E+01  0.78505851035E+02  0.41800000000E+01 0.  1.
         -5    1    3    3    0  502 -0.49200277812E+02  0.12338954153E+02  0.14218148606E+01  0.50915725310E+02  0.41800000000E+01 0.  1.
        -11    1    1    2    0    0  0.75685128740E+01 -0.20980966098E+02 -0.92457784002E+01  0.24144724967E+02  0.00000000000E+00 0. -1.
         11    1    1    2    0    0 -0.36671985513E+02  0.50089650829E+01 -0.11220233855E+03  0.11814943516E+03  0.00000000000E+00 0.  1.
</event>
<event>
 7    1  0.2900135E-009  0.1222403E+03  0.7561462E-02  0.1239446E+00
         -2   -1    0    0    0  501 -0.00000000000E+00  0.00000000000E+00  0.45652859195E+02  0.45652859195E+02  0.00000000000E+00 0.  1.
          2   -1    0    0  501    0  0.00000000000E+00 -0.00000000000E+00 -0.60539241855E+03  0.60539241855E+03  0.00000000000E+00 0. -1.
         25    2    1    2    0    0  0.13523575538E+02  0.10400139239E+03 -0.16587675186E+03  0.23272801217E+03  0.12509218251E+03 0.  0.
          5    1    3    3  502    0  0.23538485795E+02  0.63267127720E+02 -0.17670365395E+03  0.18920476602E+03  0.41800000000E+01 0.  1.
         -5    1    3    3    0  502 -0.10014910257E+02  0.40734264674E+02  0.10826902100E+02  0.43523246146E+02  0.41800000000E+01 0.  1.
        -11    1    1    2    0    0 -0.46455942359E+02 -0.34768683029E+02 -0.23303732291E+03  0.24015288833E+03  0.00000000000E+00 0. -1.
         11    1    1    2    0    0  0.32932366821E+02 -0.69232709365E+02 -0.16082548459E+03  0.17816437726E+03  0.00000000000E+00 0.  1.
</event>
<event>
 7    1  0.2900135E-009  0.2077826E+03  0.7561462E-02  0.1143334E+00
          2   -1    0    0  501    0  0.00000000000E+00  0.00000000000E+00  0.38711966584E+03  0.38711966584E+03  0.00000000000E+00 0.  1.
         -2   -1    0    0    0  501 -0.00000000000E+00 -0.00000000000E+00 -0.14095598816E+03  0.14095598816E+03  0.00000000000E+00 0. -1.
         25    2    1    2    0    0  0.11309065316E+03  0.14968661186E+03  0.22270222608E+03  0.31691290359E+03  0.12506769909E+03 0.  0.
          5    1    3    3  502    0  0.11425651745E+03  0.63253956082E+02  0.17403283423E+03  0.21762471029E+03  0.41800000000E+01 0. -1.
         -5    1    3    3    0  502 -0.11658642918E+01  0.86432655775E+02  0.48669391856E+02  0.99288193294E+02  0.41800000000E+01 0. -1.
        -11    1    1    2    0    0 -0.52809494703E+02 -0.22096278298E+02  0.38892443337E+02  0.69207733630E+02  0.00000000000E+00 0.  1.
         11    1    1    2    0    0 -0.60281158457E+02 -0.12759033356E+03 -0.15430991739E+02  0.14195501678E+03  0.00000000000E+00 0. -1.
</event>
<event>
 7    1  0.2900135E-009  0.6108871E+02  0.7561462E-02  0.1393319E+00
          2   -1    0    0  501    0  0.00000000000E+00  0.00000000000E+00  0.12653997422E+03  0.12653997422E+03  0.00000000000E+00 0. -1.
         -2   -1    0    0    0  501 -0.00000000000E+00 -0.00000000000E+00 -0.10733888719E+03  0.10733888719E+03  0.00000000000E+00 0.  1.
         25    2    1    2    0    0 -0.77099829375E+00 -0.41314594167E+02  0.30116023537E+02  0.13513756878E+03  0.12509075702E+03 0.  0.
          5    1    3    3  502    0 -0.13578844079E+02 -0.64923948957E+00  0.73088585651E+02  0.74459521022E+02  0.41800000000E+01 0.  1.
         -5    1    3    3    0  502  0.12807845785E+02 -0.40665354677E+02 -0.42972562114E+02  0.60678047755E+02  0.41800000000E+01 0.  1.
        -11    1    1    2    0    0 -0.23984447839E+02  0.12230811143E+02  0.31650826955E+02  0.41552633205E+02  0.00000000000E+00 0. -1.
         11    1    1    2    0    0  0.24755446133E+02  0.29083783024E+02 -0.42565763467E+02  0.57188659433E+02  0.00000000000E+00 0.  1.
</event>
<event>
 7    1  0.2900135E-009  0.2212515E+03  0.7561462E-02  0.1132953E+00
          1   -1    0    0  501    0  0.00000000000E+00  0.00000000000E+00  0.17951101706E+03  0.17951101706E+03  0.00000000000E+00 0. -1.
         -1   -1    0    0    0  501 -0.00000000000E+00 -0.00000000000E+00 -0.31310067111E+03  0.31310067111E+03  0.00000000000E+00 0.  1.
         25    2    1    2    0    0  0.17329479257E+03  0.10736936391E+03 -0.12329326560E+03  0.26908940310E+03  0.12509441266E+03 0.  0.
          5    1    3    3  502    0  0.56268981479E+02 -0.20703172507E+02 -0.58439125626E+02  0.83829728810E+02  0.41800000000E+01 0.  1.
         -5    1    3    3    0  502  0.11702581109E+03  0.12807253641E+03 -0.64854139971E+02  0.18525967429E+03  0.41800000000E+01 0.  1.
        -11    1    1    2    0    0 -0.92842829479E+02 -0.83700350737E+02  0.32802057230E+02  0.12923434009E+03  0.00000000000E+00 0.  1.
         11    1    1    2    0    0 -0.80451963094E+02 -0.23669013170E+02 -0.43098445675E+02  0.94287944986E+02  0.00000000000E+00 0. -1.
</event>
<event>
 7    1  0.2900135E-009  0.1977931E+03  0.7561462E-02  0.1151614E+00
         -2   -1    0    0    0  501 -0.00000000000E+00  0.00000000000E+00  0.56751284949E+02  0.56751284949E+02  0.00000000000E+00 0.  1.
          2   -1    0    0  501    0  0.00000000000E+00 -0.00000000000E+00 -0.98280785048E+03  0.98280785048E+03  0.00000000000E+00 0. -1.
         25    2    1    2    0    0  0.15304543177E+03 -0.10793319235E+03 -0.27192809870E+03  0.35307736390E+03  0.12508499446E+03 0.  0.
          5    1    3    3  502    0 -0.10229362579E+01 -0.17228790482E+02  0.91145425879E+01  0.19960583825E+02  0.41800000000E+01 0.  1.
         -5    1    3    3    0  502  0.15406836803E+03 -0.90704401868E+02 -0.28104264128E+03  0.33311678007E+03  0.41800000000E+01 0.  1.
        -11    1    1    2    0    0 -0.44715259400E+02 -0.18593896077E+01 -0.76638023531E+02  0.88748512121E+02  0.00000000000E+00 0. -1.
         11    1    1    2    0    0 -0.10833017237E+03  0.10979258196E+03 -0.57749044330E+03  0.59773325941E+03  0.00000000000E+00 0.  1.
</event>
<event>
 7    1  0.2900135E-009  0.2475501E+03  0.7561462E-02  0.1114863E+00
         -2   -1    0    0    0  501 -0.00000000000E+00  0.00000000000E+00  0.54087985618E+02  0.54087985618E+02  0.00000000000E+00 0.  1.
          2   -1    0    0  501    0  0.00000000000E+00 -0.00000000000E+00 -0.18378291958E+04  0.18378291958E+04  0.00000000000E+00 0. -1.
         25    2    1    2    0    0  0.22432951156E+03  0.10347842770E+03 -0.14147088585E+04  0.14415557740E+04  0.12510148067E+03 0.  0.
          5    1    3    3  502    0  0.18465423565E+03  0.91250806502E+02 -0.13420312594E+04  0.13577515495E+04  0.41800000000E+01 0. -1.
         -5    1    3    3    0  502  0.39675275909E+02  0.12227621195E+02 -0.72677599004E+02  0.83804224450E+02  0.41800000000E+01 0. -1.
        -11    1    1    2    0    0 -0.13687235980E+03 -0.56400643162E+02 -0.15462211884E+03  0.21406325014E+03  0.00000000000E+00 0.  1.
         11    1    1    2    0    0 -0.87457151754E+02 -0.47077784534E+02 -0.21441023294E+03  0.23629815737E+03  0.00000000000E+00 0. -1.
</event>
<event>
 7    1  0.2900135E-009  0.1241158E+03  0.7561462E-02  0.1236458E+00
          2   -1    0    0  501    0  0.00000000000E+00  0.00000000000E+00  0.65786279011E+03  0.65786279011E+03  0.00000000000E+00 0. -1.
         -2   -1    0    0    0  501 -0.00000000000E+00 -0.00000000000E+00 -0.35359136515E+02  0.35359136515E+02  0.00000000000E+00 0.  1.
         25    2    1    2    0    0 -0.83433325679E+02 -0.13133933489E+02  0.18759033967E+03  0.24077349867E+03  0.12509245414E+03 0.  0.
          5    1    3    3  502    0  0.14587441598E+02 -0.26411876926E+02  0.21217584138E+01  0.30534487942E+02  0.41800000000E+01 0. -1.
         -5    1    3    3    0  502 -0.98020767276E+02  0.13277943436E+02  0.18546858125E+03  0.21023901073E+03  0.41800000000E+01 0. -1.
        -11    1    1    2    0    0  0.10485751144E+02  0.39754027355E+02  0.90677000526E+02  0.99562302566E+02  0.00000000000E+00 0.  1.
         11    1    1    2    0    0  0.72947574535E+02 -0.26620093866E+02  0.34423631340E+03  0.35288612539E+03  0.00000000000E+00 0. -1.
</event>
<event>
 7    1  0.2900135E-009  0.1427127E+03  0.7561462E-02  0.1209725E+00
          2   -1    0    0  501    0  0.00000000000E+00  0.00000000000E+00  0.76836267220E+03  0.76836267220E+03  0.00000000000E+00 0. -1.
         -2   -1    0    0    0  501 -0.00000000000E+00 -0.00000000000E+00 -0.34507106766E+02  0.34507106766E+02  0.00000000000E+00 0.  1.
         25    2    1    2    0    0 -0.84556771967E+01 -0.98941464931E+02  0.53113918302E+03  0.55462562415E+03  0.12505934298E+03 0.  0.
          5    1    3    3  502    0 -0.23161390994E+02  0.22113449175E+02  0.62346904588E+02  0.70214411476E+02  0.41800000000E+01 0. -1.
         -5    1    3    3    0  502  0.14705713798E+02 -0.12105491411E+03  0.46879227843E+03  0.48441121267E+03  0.41800000000E+01 0. -1.
        -11    1    1    2    0    0  0.64079969361E+01  0.11487318752E+03  0.20162888448E+03  0.23214460729E+03  0.00000000000E+00 0.  1.
         11    1    1    2    0    0  0.20476802606E+01 -0.15931722584E+02  0.10874979328E+01  0.16099547531E+02  0.00000000000E+00 0. -1.
</event>
<event>
 7    1  0.2900135E-009  0.9628295E+02  0.7561462E-02  0.1288312E+00
          1   -1    0    0  501    0  0.00000000000E+00  0.00000000000E+00  0.41696740204E+02  0.41696740204E+02  0.00000000000E+00 0. -1.
         -1   -1    0    0    0  501 -0.00000000000E+00 -0.00000000000E+00 -0.28667512951E+03  0.28667512951E+03  0.00000000000E+00 0.  1.
         25    2    1    2    0    0 -0.14315766403E+02 -0.22608633497E+02 -0.14499165236E+03  0.19334650730E+03  0.12507678104E+03 0.  0.
          5    1    3    3  502    0  0.10518726799E+02 -0.71173479201E+02 -0.69527467239E+02  0.10013914747E+03  0.41800000000E+01 0. -1.
         -5    1    3    3    0  502 -0.24834493203E+02  0.48564845704E+02 -0.75464185123E+02  0.93207359834E+02  0.41800000000E+01 0. -1.
        -11    1    1    2    0    0 -0.20656684461E+02 -0.49787088265E+01 -0.85627552057E+02  0.88224508079E+02  0.00000000000E+00 0.  1.
         11    1    1    2    0    0  0.34972450865E+02  0.27587342323E+02 -0.14359184890E+02  0.46800854337E+02  0.00000000000E+00 0. -1.
</event>
<event>
 7    1  0.2900135E-009  0.1227098E+03  0.7561462E-02  0.1238692E+00
          1   -1    0    0  501    0  0.00000000000E+00  0.00000000000E+00  0.32524538301E+02  0.32524538301E+02  0.00000000000E+00 0. -1.
         -1   -1    0    0    0  501 -0.00000000000E+00 -0.00000000000E+00 -0.63727472400E+03  0.63727472400E+03  0.00000000000E+00 0.  1.
         25    2    1    2    0    0  0.90640402404E+01  0.81302355862E+02 -0.44341846115E+03  0.46793138314E+03  0.12509043828E+03 0.  0.
          5    1    3    3  502    0  0.12850109544E+02  0.11068847186E+03 -0.27282882876E+03  0.29473734973E+03  0.41800000000E+01 0. -1.
         -5    1    3    3    0  502 -0.37860693037E+01 -0.29386116000E+02 -0.17058963238E+03  0.17319403342E+03  0.41800000000E+01 0. -1.
        -11    1    1    2    0    0 -0.28555958776E+02 -0.79427866782E+02 -0.73631636308E+02  0.11200824375E+03  0.00000000000E+00 0. -1.
         11    1    1    2    0    0  0.19491918535E+02 -0.18744890801E+01 -0.87700088244E+02  0.89859635408E+02  0.00000000000E+00 0.  1.
</event>
<event>
 7    1  0.3761907E-009  0.1674834E+03  0.7561462E-02  0.1180498E+00
         -2   -1    0    0    0  501 -0.00000000000E+00  0.00000000000E+00  0.50077816530E+02  0.50077816530E+02  0.00000000000E+00 0.  1.
          2   -1    0    0  501    0  0.00000000000E+00 -0.00000000000E+00 -0.58159449165E+03  0.58159449165E+03  0.00000000000E+00 0. -1.
         25    2    1    2    0    0  0.92364492368E+02 -0.92753438078E+02 -0.30338902543E+03  0.35330748915E+03  0.12508749502E+03 0.  0.
          5    1    3    3  502    0 -0.29881246634E+02 -0.31498922241E+02 -0.61176109191E+02  0.75133612575E+02  0.41800000000E+01 0.  1.
         -5    1    3    3    0  502  0.12224573900E+03 -0.61254515837E+02 -0.24221291624E+03  0.27817387657E+03  0.41800000000E+01 0.  1.
        -11    1    1    2    0    0 -0.85227921499E+02  0.28447538016E+02 -0.97469884655E+02  0.13256484993E+03  0.00000000000E+00 0.  1.
         11    1    1    2    0    0 -0.71365708690E+01  0.64305900062E+02 -0.13065776503E+03  0.14579996910E+03  0.00000000000E+00 0. -1.
</event>
<event>
 7    1  0.3407248E-009  0.1810602E+03  0.7561462E-02  0.1166781E+00
          1   -1    0    0  501    0  0.00000000000E+00  0.00000000000E+00  0.82294936116E+03  0.82294936116E+03  0.00000000000E+00 0. -1.
         -1   -1    0    0    0  501 -0.00000000000E+00 -0.00000000000E+00 -0.41535956035E+02  0.41535956035E+02  0.00000000000E+00 0.  1.
         25    2    1    2    0    0  0.19053179778E+02  0.14647248163E+03  0.45901780799E+03  0.49815822350E+03  0.12508819313E+03 0.  0.
          5    1    3    3  502    0  0.22645341839E+02  0.16805730029E+03  0.38168178614E+03  0.41767753825E+03  0.41800000000E+01 0. -1.
         -5    1    3    3    0  502 -0.35921620608E+01 -0.21584818651E+02  0.77336021841E+02  0.80480685252E+02  0.41800000000E+01 0. -1.
        -11    1    1    2    0    0  0.20468623733E+02 -0.12205453988E+03  0.26509217382E+03  0.29255791885E+03  0.00000000000E+00 0. -1.
         11    1    1    2    0    0 -0.39521803511E+02 -0.24417941757E+02  0.57303423323E+02  0.73769174843E+02  0.00000000000E+00 0.  1.
</event>
<event>
 7    1  0.2900135E-009  0.1037980E+03  0.7561462E-02  0.1272506E+00
         -2   -1    0    0    0  501 -0.00000000000E+00  0.00000000000E+00  0.21578702882E+03  0.21578702882E+03  0.00000000000E+00 0.  1.
          2   -1    0    0  501    0  0.00000000000E+00 -0.00000000000E+00 -0.83736620859E+02  0.83736620859E+02  0.00000000000E+00 0. -1.
         25    2    1    2    0    0 -0.24615662732E+02 -0.64015772339E+02  0.30967638740E+02  0.14598062626E+03  0.12508956245E+03 0.  0.
          5    1    3    3  502    0 -0.21087641186E+02  0.84290998863E+01 -0.38866563448E+02  0.45208632914E+02  0.41800000000E+01 0. -1.
         -5    1    3    3    0  502 -0.35280215458E+01 -0.72444872225E+02  0.69834202188E+02  0.10077199335E+03  0.41800000000E+01 0. -1.
        -11    1    1    2    0    0 -0.31176369126E+02  0.67417113092E+01  0.12625562391E+02  0.34304831860E+02  0.00000000000E+00 0. -1.
         11    1    1    2    0    0  0.55792031858E+02  0.57274061030E+02  0.88457206826E+02  0.11923819155E+03  0.00000000000E+00 0.  1.
</event>
<event>
 7    1  0.2900135E-009  0.1572276E+03  0.7561462E-02  0.1191863E+00
         -2   -1    0    0    0  501 -0.00000000000E+00  0.00000000000E+00  0.40701239501E+02  0.40701239501E+02  0.00000000000E+00 0. -1.
          2   -1    0    0  501    0  0.00000000000E+00 -0.00000000000E+00 -0.99511906864E+03  0.99511906864E+03  0.00000000000E+00 0.  1.
         25    2    1    2    0    0 -0.60473065184E+02  0.12449652773E+03 -0.75173053597E+03  0.77453326040E+03  0.12508635307E+03 0.  0.
          5    1    3    3  502    0 -0.48746127624E+02  0.14008447792E+03 -0.48826816499E+03  0.51031668526E+03  0.41800000000E+01 0. -1.
         -5    1    3    3    0  502 -0.11726937559E+02 -0.15587950189E+02 -0.26346237098E+03  0.26421657513E+03  0.41800000000E+01 0. -1.
        -11    1    1    2    0    0  0.31096315615E+02 -0.18614841979E+02 -0.11539419929E+03  0.12095170283E+03  0.00000000000E+00 0.  1.
         11    1    1    2    0    0  0.29376749569E+02 -0.10588168575E+03 -0.87293093876E+02  0.14033534491E+03  0.00000000000E+00 0. -1.
</event>
<event>
 7    1  0.2900135E-009  0.9009423E+02  0.7561462E-02  0.1302624E+00
         -1   -1    0    0    0  501 -0.00000000000E+00  0.00000000000E+00  0.19450658259E+03  0.19450658259E+03  0.00000000000E+00 0.  1.
          1   -1    0    0  501    0  0.00000000000E+00 -0.00000000000E+00 -0.13862955233E+03  0.13862955233E+03  0.00000000000E+00 0. -1.
         25    2    1    2    0    0  0.32670694227E+02  0.30910134406E+02  0.14560811244E+03  0.19715660130E+03  0.12508474071E+03 0.  0.
          5    1    3    3  502    0 -0.66816854018E+01 -0.41801456100E+02  0.83342534109E+02  0.93570599248E+02  0.41800000000E+01 0. -1.
         -5    1    3    3    0  502  0.39352379629E+02  0.72711590506E+02  0.62265578334E+02  0.10358600205E+03  0.41800000000E+01 0. -1.
        -11    1    1    2    0    0 -0.87890745351E+01  0.61866272222E+01  0.17212548278E+02  0.20292708193E+02  0.00000000000E+00 0.  1.
         11    1    1    2    0    0 -0.23881619692E+02 -0.37096761629E+02 -0.10694363046E+03  0.11568682543E+03  0.00000000000E+00 0. -1.
</event>
<event>
 7    1  0.2900135E-009  0.2073857E+03  0.7561462E-02  0.1143653E+00
          1   -1    0    0  501    0  0.00000000000E+00  0.00000000000E+00  0.12818728865E+03  0.12818728865E+03  0.00000000000E+00 0. -1.
         -1   -1    0    0    0  501 -0.00000000000E+00 -0.00000000000E+00 -0.63050303547E+03  0.63050303547E+03  0.00000000000E+00 0.  1.
         25    2    1    2    0    0  0.18342006490E+03 -0.91071914075E+02 -0.47661118455E+03  0.53361270258E+03  0.12508909375E+03 0.  0.
          5    1    3    3  502    0  0.40466719852E+02 -0.15906824353E+02 -0.25858712543E+03  0.26225056018E+03  0.41800000000E+01 0. -1.
         -5    1    3    3    0  502  0.14295334505E+03 -0.75165089722E+02 -0.21802405912E+03  0.27136214240E+03  0.41800000000E+01 0. -1.
        -11    1    1    2    0    0 -0.86950674120E+02  0.18729309887E+02 -0.50055199161E+02  0.10206238162E+03  0.00000000000E+00 0.  1.
         11    1    1    2    0    0 -0.96469390780E+02  0.72342604188E+02  0.24350636887E+02  0.12301523993E+03  0.00000000000E+00 0. -1.
</event>
<event>
 7    1  0.2900135E-009  0.1174900E+03  0.7561462E-02  0.1247296E+00
          1   -1    0    0  501    0  0.00000000000E+00  0.00000000000E+00  0.57004644603E+03  0.57004644603E+03  0.00000000000E+00 0. -1.
         -1   -1    0    0    0  501 -0.00000000000E+00 -0.00000000000E+00 -0.27987804685E+02  0.27987804685E+02  0.00000000000E+00 0.  1.
         25    2    1    2    0    0 -0.49151553422E+02  0.49293192441E+02  0.35484437324E+03  0.38263294140E+03  0.12509094530E+03 0.  0.
          5    1    3    3  502    0 -0.37488849083E+02  0.83776698246E+02  0.16113310833E+03  0.18548665713E+03  0.41800000000E+01 0.  1.
         -5    1    3    3    0  502 -0.11662704339E+02 -0.34483505805E+02  0.19371126491E+03  0.19714628427E+03  0.41800000000E+01 0.  1.
        -11    1    1    2    0    0  0.54593090270E+02  0.22424739225E+01  0.99934308018E+02  0.11389600570E+03  0.00000000000E+00 0.  1.
         11    1    1    2    0    0 -0.54415368482E+01 -0.51535666364E+02  0.87279960083E+02  0.10150530362E+03  0.00000000000E+00 0. -1.
</event>
<event>
 7    1  0.2900135E-009  0.9586604E+02  0.7561462E-02  0.1289237E+00
         -2   -1    0    0    0  501 -0.00000000000E+00  0.00000000000E+00  0.68927895764E+02  0.68927895764E+02  0.00000000000E+00 0.  1.
          2   -1    0    0  501    0  0.00000000000E+00 -0.00000000000E+00 -0.25486157621E+03  0.25486157621E+03  0.00000000000E+00 0. -1.
         25    2    1    2    0    0  0.17284201112E+02 -0.62577843852E+02 -0.52507663268E+02  0.15040271332E+03  0.12509672787E+03 0.  0.
          5    1    3    3  502    0  0.10407808813E+02  0.29955294408E+02  0.15246641683E+02  0.35434088530E+02  0.41800000000E+01 0. -1.
         -5    1    3    3    0  502  0.68763922989E+01 -0.92533138259E+02 -0.67754304951E+02  0.11496862479E+03  0.41800000000E+01 0. -1.
        -11    1    1    2    0    0 -0.20149821361E+02  0.48901672399E+02 -0.14556577704E+03  0.15487667452E+03  0.00000000000E+00 0. -1.
         11    1    1    2    0    0  0.28656202490E+01  0.13676171453E+02  0.12139759865E+02  0.18510084132E+02  0.00000000000E+00 0.  1.
</event>
<event>
 7    1  0.2900135E-009  0.1557356E+03  0.7561462E-02  0.1193597E+00
          1   -1    0    0  501    0  0.00000000000E+00  0.00000000000E+00  0.10816264477E+03  0.10816264477E+03  0.00000000000E+00 0. -1.
         -1   -1    0    0    0  501 -0.00000000000E+00 -0.00000000000E+00 -0.23177788011E+03  0.23177788011E+03  0.00000000000E+00 0.  1.
         25    2    1    2    0    0  0.10303649842E+03 -0.18308627892E+02 -0.91004320711E+02  0.18677559586E+03  0.12510639855E+03 0.  0.
          5    1    3    3  502    0 -0.22492530212E+00  0.42496247221E+02 -0.17614943772E+02  0.46192426472E+02  0.41800000000E+01 0. -1.
         -5    1    3    3    0  502  0.10326142372E+03 -0.60804875113E+02 -0.73389376939E+02  0.14058316938E+03  0.41800000000E+01 0. -1.
        -11    1    1    2    0    0 -0.51496010157E+02 -0.44187292921E+02 -0.22710340423E+02  0.71554982216E+02  0.00000000000E+00 0. -1.
         11    1    1    2    0    0 -0.51540488263E+02  0.62495920814E+02 -0.99005742028E+01  0.81609946810E+02  0.00000000000E+00 0.  1.
</event>
<event>
 7    1  0.2900135E-009  0.9592955E+02  0.7561462E-02  0.1289096E+00
         -2   -1    0    0    0  501 -0.00000000000E+00  0.00000000000E+00  0.17956229408E+02  0.17956229408E+02  0.00000000000E+00 0.  1.
          2   -1    0    0  501    0  0.00000000000E+00 -0.00000000000E+00 -0.66213298994E+03  0.66213298994E+03  0.00000000000E+00 0. -1.
         25    2    1    2    0    0  0.23422435704E+02 -0.18420569426E+02 -0.33484696301E+03  0.35869279219E+03  0.12510037032E+03 0.  0.
          5    1    3    3  502    0 -0.10838300378E+02  0.39860930116E+02 -0.45811255998E+02  0.61826418956E+02  0.41800000000E+01 0. -1.
         -5    1    3    3    0  502  0.34260736082E+02 -0.58281499541E+02 -0.28903570701E+03  0.29686637323E+03  0.41800000000E+01 0. -1.
        -11    1    1    2    0    0  0.12239174317E+02  0.39381553496E+02 -0.20613281109E+03  0.21021760144E+03  0.00000000000E+00 0. -1.
         11    1    1    2    0    0 -0.35661610021E+02 -0.20960984071E+02 -0.10319698642E+03  0.11117882572E+03  0.00000000000E+00 0.  1.
</event>
<event>
 7    1  0.2900135E-009  0.1026118E+03  0.7561462E-02  0.1274898E+00
          2   -1    0    0  501    0  0.00000000000E+00  0.00000000000E+00  0.19750287035E+04  0.19750287035E+04  0.00000000000E+00 0.  1.
         -2   -1    0    0    0  501 -0.00000000000E+00 -0.00000000000E+00 -0.96394518090E+01  0.96394518090E+01  0.00000000000E+00 0. -1.
         25    2    1    2    0    0  0.66003932239E+01 -0.11197499407E+01  0.16801915581E+04  0.16848548492E+04  0.12508945614E+03 0.  0.
          5    1    3    3  502    0 -0.12183791866E+02  0.53450653082E+02  0.45700547956E+03  0.46030087752E+03  0.41800000000E+01 0.  1.
         -5    1    3    3    0  502  0.18784185090E+02 -0.54570403023E+02  0.12231860786E+04  0.12245539717E+04  0.41800000000E+01 0.  1.
        -11    1    1    2    0    0 -0.49362160171E+02  0.39733904232E+01  0.14630506763E+03  0.15445900266E+03  0.00000000000E+00 0.  1.
         11    1    1    2    0    0  0.42761766947E+02 -0.28536404825E+01  0.13889262599E+03  0.14535430345E+03  0.00000000000E+00 0. -1.
</event>
<event>
 7    1  0.2900135E-009  0.1312600E+03  0.7561462E-02  0.1225598E+00
          2   -1    0    0  501    0  0.00000000000E+00  0.00000000000E+00  0.16368101796E+03  0.16368101796E+03  0.00000000000E+00 0. -1.
         -2   -1    0    0    0  501 -0.00000000000E+00 -0.00000000000E+00 -0.17003883462E+03  0.17003883462E+03  0.00000000000E+00 0.  1.
         25    2    1    2    0    0 -0.99321650184E+02  0.52077803308E+02  0.50035676893E+02  0.17529278219E+03  0.12508837968E+03 0.  0.
          5    1    3    3  502    0 -0.12522382018E+02  0.16856837811E+02  0.75216256157E+02  0.78204351686E+02  0.41800000000E+01 0.  1.
         -5    1    3    3    0  502 -0.86799268166E+02  0.35220965497E+02 -0.25180579264E+02  0.97088430499E+02  0.41800000000E+01 0.  1.
        -11    1    1    2    0    0 -0.87554606258E+01  0.16967439860E+02 -0.12733238129E+02  0.22949672316E+02  0.00000000000E+00 0.  1.
         11    1    1    2    0    0  0.10807711081E+03 -0.69045243168E+02 -0.43660255426E+02  0.13547739807E+03  0.00000000000E+00 0. -1.
</event>
<event>
 7    1  0.2900135E-009  0.1500478E+03  0.7561462E-02  0.1200414E+00
         -2   -1    0    0    0  501 -0.00000000000E+00  0.00000000000E+00  0.75730164681E+02  0.75730164681E+02  0.00000000000E+00 0. -1.
          2   -1    0    0  501    0  0.00000000000E+00 -0.00000000000E+00 -0.36078240770E+03  0.36078240770E+03  0.00000000000E+00 0.  1.
         25    2    1    2    0    0 -0.89203900962E+02 -0.87417224247E+02 -0.14229362917E+03  0.22692910205E+03  0.12510089294E+03 0.  0.
          5    1    3    3  502    0 -0.80615403982E+02  0.38444350087E+01 -0.42308701460E+02  0.91220182301E+02  0.41800000000E+01 0.  1.
         -5    1    3    3    0  502 -0.85884969796E+01 -0.91261659256E+02 -0.99984927708E+02  0.13570891975E+03  0.41800000000E+01 0.  1.
        -11    1    1    2    0    0  0.39323777722E+02  0.56493033678E+02 -0.13345782668E+03  0.15016262468E+03  0.00000000000E+00 0.  1.
         11    1    1    2    0    0  0.49880123240E+02  0.30924190569E+02 -0.93007871784E+01  0.59420845660E+02  0.00000000000E+00 0. -1.
</event>
<event>
 7    1  0.2900135E-009  0.1503403E+03  0.7561462E-02  0.1200055E+00
          1   -1    0    0  501    0  0.00000000000E+00  0.00000000000E+00  0.14746490414E+04  0.14746490414E+04  0.00000000000E+00 0. -1.
         -1   -1    0    0    0  501 -0.00000000000E+00 -0.00000000000E+00 -0.15788547320E+02  0.15788547320E+02  0.00000000000E+00 0.  1.
         25    2    1    2    0    0  0.10362476901E+03 -0.22196827463E+02  0.80195563346E+03  0.81854218086E+03  0.12509065476E+03 0.  0.
          5    1    3    3  502    0  0.11513668637E+03 -0.52797086827E+02  0.54841258567E+03  0.56286572595E+03  0.41800000000E+01 0. -1.
         -5    1    3    3    0  502 -0.11511917361E+02  0.30600259364E+02  0.25354304779E+03  0.25567645491E+03  0.41800000000E+01 0. -1.
        -11    1    1    2    0    0 -0.24678522887E+02  0.51235402481E+02  0.24993050245E+03  0.25631884834E+03  0.00000000000E+00 0. -1.
         11    1    1    2    0    0 -0.78946246120E+02 -0.29038575018E+02  0.40697435822E+03  0.41557655957E+03  0.00000000000E+00 0.  1.
</event>
<event>
 7    1  0.2900135E-009  0.1470300E+03  0.7561462E-02  0.1204171E+00
         -1   -1    0    0    0  501 -0.00000000000E+00  0.00000000000E+00  0.21853015970E+03  0.21853015970E+03  0.00000000000E+00 0.  1.
          1   -1    0    0  501    0  0.00000000000E+00 -0.00000000000E+00 -0.12995057052E+03  0.12995057052E+03  0.00000000000E+00 0. -1.
         25    2    1    2    0    0  0.84491157173E+02 -0.70277278374E+02 -0.21861286174E+02  0.16793678710E+03  0.12508875701E+03 0.  0.
          5    1    3    3  502    0 -0.19356783278E+01 -0.74788870301E+02  0.10050430041E+02  0.75601623762E+02  0.41800000000E+01 0. -1.
         -5    1    3    3    0  502  0.86426835501E+02  0.45115919272E+01 -0.31911716214E+02  0.92335163336E+02  0.41800000000E+01 0. -1.
        -11    1    1    2    0    0 -0.27453500019E+02  0.70274117310E+02  0.95265045350E+02  0.12152191199E+03  0.00000000000E+00 0.  1.
         11    1    1    2    0    0 -0.57037657155E+02  0.31610637010E-02  0.15175830008E+02  0.59022031142E+02  0.00000000000E+00 0. -1.
</event>
<event>
 7    1  0.2900135E-009  0.1605243E+03  0.7561462E-02  0.1188106E+00
          3   -1    0    0  501    0  0.00000000000E+00  0.00000000000E+00  0.19674819650E+03  0.19674819650E+03  0.00000000000E+00 0. -1.
         -3   -1    0    0    0  501 -0.00000000000E+00 -0.00000000000E+00 -0.22019841583E+03  0.22019841583E+03  0.00000000000E+00 0.  1.
         25    2    1    2    0    0 -0.10101319568E+02 -0.13516851751E+03  0.81908764683E+02  0.20181578809E+03  0.12509197339E+03 0.  0.
          5    1    3    3  502    0  0.46469011364E+02 -0.53304009412E+02  0.73159767685E+02  0.10183570319E+03  0.41800000000E+01 0.  1.
         -5    1    3    3    0  502 -0.56570330932E+02 -0.81864508098E+02  0.87489969982E+01  0.99980084898E+02  0.41800000000E+01 0.  1.
        -11    1    1    2    0    0 -0.20487254597E+02  0.10728250976E+03 -0.12774629201E+03  0.16807254275E+03  0.00000000000E+00 0.  1.
         11    1    1    2    0    0  0.30588574164E+02  0.27886007746E+02  0.22387308002E+02  0.47058281492E+02  0.00000000000E+00 0. -1.
</event>
<event>
 7    1  0.2900135E-009  0.9689211E+02  0.7561462E-02  0.1286971E+00
         -1   -1    0    0    0  501 -0.00000000000E+00  0.00000000000E+00  0.19285970702E+02  0.19285970702E+02  0.00000000000E+00 0.  1.
          1   -1    0    0  501    0  0.00000000000E+00 -0.00000000000E+00 -0.62847312971E+03  0.62847312971E+03  0.00000000000E+00 0. -1.
         25    2    1    2    0    0 -0.70433147348E+01 -0.16356903633E+02 -0.35393904823E+03  0.37582101505E+03  0.12510567099E+03 0.  0.
          5    1    3    3  502    0  0.79704786328E+01  0.41099354928E+02 -0.26796213514E+03  0.27124502534E+03  0.41800000000E+01 0. -1.
         -5    1    3    3    0  502 -0.15013793368E+02 -0.57456258562E+02 -0.85976913089E+02  0.10457598971E+03  0.41800000000E+01 0. -1.
        -11    1    1    2    0    0 -0.17985559180E+02 -0.32578748020E+02 -0.79161525483E+02  0.87472294347E+02  0.00000000000E+00 0. -1.
         11    1    1    2    0    0  0.25028873915E+02  0.48935651653E+02 -0.17608658529E+03  0.18446579101E+03  0.00000000000E+00 0.  1.
</event>
<event>
 7    1  0.2900135E-009  0.1063117E+03  0.7561462E-02  0.1267557E+00
          1   -1    0    0  501    0  0.00000000000E+00  0.00000000000E+00  0.55219027918E+03  0.55219027918E+03  0.00000000000E+00 0. -1.
         -1   -1    0    0    0  501 -0.00000000000E+00 -0.00000000000E+00 -0.28005167003E+02  0.28005167003E+02  0.00000000000E+00 0.  1.
         25    2    1    2    0    0 -0.26262886629E+02  0.52062084583E+02  0.24771733184E+03  0.28355114033E+03  0.12504868183E+03 0.  0.
          5    1    3    3  502    0  0.18484863041E+02 -0.24215114644E+02  0.14307802732E+02  0.33915299761E+02  0.41800000000E+01 0.  1.
         -5    1    3    3    0  502 -0.44747749670E+02  0.76277199226E+02  0.23340952910E+03  0.24963584057E+03  0.41800000000E+01 0.  1.
        -11    1    1    2    0    0  0.59165279190E+01  0.18751404884E+02  0.14280409872E+02  0.24301246755E+02  0.00000000000E+00 0.  1.
         11    1    1    2    0    0  0.20346358710E+02 -0.70813489467E+02  0.26218737047E+03  0.27234305909E+03  0.00000000000E+00 0. -1.
</event>
<event>
 7    1  0.2900135E-009  0.1661830E+03  0.7561462E-02  0.1181888E+00
          1   -1    0    0  501    0  0.00000000000E+00  0.00000000000E+00  0.53321953478E+03  0.53321953478E+03  0.00000000000E+00 0. -1.
         -1   -1    0    0    0  501 -0.00000000000E+00 -0.00000000000E+00 -0.59709642667E+02  0.59709642667E+02  0.00000000000E+00 0.  1.
         25    2    1    2    0    0  0.12281889947E+03 -0.29598551530E+02  0.35298690723E+03  0.39523390182E+03  0.12509805814E+03 0.  0.
          5    1    3    3  502    0  0.41250891080E+02  0.49166920477E+02  0.12965902735E+03  0.14473409363E+03  0.41800000000E+01 0. -1.
         -5    1    3    3    0  502  0.81568008386E+02 -0.78765472007E+02  0.22332787987E+03  0.25049980819E+03  0.41800000000E+01 0. -1.
        -11    1    1    2    0    0 -0.59173843706E+02  0.59806668758E+02  0.81614914522E+02  0.11721508299E+03  0.00000000000E+00 0. -1.
         11    1    1    2    0    0 -0.63645055760E+02 -0.30208117228E+02  0.38908070363E+02  0.80480192647E+02  0.00000000000E+00 0.  1.
</event>
<event>
 7    1  0.2900135E-009  0.1147039E+03  0.7561462E-02  0.1252099E+00
          2   -1    0    0  501    0  0.00000000000E+00  0.00000000000E+00  0.49566820893E+03  0.49566820893E+03  0.00000000000E+00 0. -1.
         -2   -1    0    0    0  501 -0.00000000000E+00 -0.00000000000E+00 -0.34818351596E+02  0.34818351596E+02  0.00000000000E+00 0.  1.
         25    2    1    2    0    0 -0.69987374859E+01 -0.57266860632E+02  0.15934727276E+03  0.21063970513E+03  0.12509618854E+03 0.  0.
          5    1    3    3  502    0  0.30634036174E+02  0.21231304549E+02  0.11877218011E+02  0.39341494288E+02  0.41800000000E+01 0. -1.
         -5    1    3    3    0  502 -0.37632773660E+02 -0.78498165180E+02  0.14747005475E+03  0.17129821085E+03  0.41800000000E+01 0. -1.
        -11    1    1    2    0    0  0.44327180367E+02  0.11701863057E+02  0.10198129138E+03  0.11181241572E+03  0.00000000000E+00 0.  1.
         11    1    1    2    0    0 -0.37328442881E+02  0.45564997575E+02  0.19952129319E+03  0.20803443966E+03  0.00000000000E+00 0. -1.
</event>
<event>
 7    1  0.2900135E-009  0.1523370E+03  0.7561462E-02  0.1197630E+00
          2   -1    0    0  501    0  0.00000000000E+00  0.00000000000E+00  0.83746403187E+03  0.83746403187E+03  0.00000000000E+00 0.  1.
         -2   -1    0    0    0  501 -0.00000000000E+00 -0.00000000000E+00 -0.31978919328E+02  0.31978919328E+02  0.00000000000E+00 0. -1.
         25    2    1    2    0    0 -0.12101921707E+03  0.16131366216E+02  0.47288615514E+03  0.50415747267E+03  0.12509024604E+03 0.  0.
          5    1    3    3  502    0 -0.48181838530E+02 -0.40378248130E+02  0.31535157602E+03  0.32158355273E+03  0.41800000000E+01 0.  1.
         -5    1    3    3    0  502 -0.72837378544E+02  0.56509614345E+02  0.15753457912E+03  0.18257391995E+03  0.41800000000E+01 0.  1.
        -11    1    1    2    0    0  0.11572267041E+03  0.15999916180E+02  0.23574500240E+03  0.26310347759E+03  0.00000000000E+00 0.  1.
         11    1    1    2    0    0  0.52965466670E+01 -0.32131282396E+02  0.96853955003E+02  0.10218200093E+03  0.00000000000E+00 0. -1.
</event>
<event>
 7    1  0.2900135E-009  0.7663236E+02  0.7561462E-02  0.1338889E+00
         -2   -1    0    0    0  501 -0.00000000000E+00  0.00000000000E+00  0.54283679983E+02  0.54283679983E+02  0.00000000000E+00 0. -1.
          2   -1    0    0  501    0  0.00000000000E+00 -0.00000000000E+00 -0.38194139673E+03  0.38194139673E+03  0.00000000000E+00 0.  1.
         25    2    1    2    0    0 -0.27569695083E+01 -0.20361386772E+02 -0.31676116451E+03  0.34118333556E+03  0.12508495580E+03 0.  0.
          5    1    3    3  502    0  0.31505603172E+02 -0.24968439636E+02 -0.29968686272E+03  0.30239992410E+03  0.41800000000E+01 0.  1.
         -5    1    3    3    0  502 -0.34262572681E+02  0.46070528635E+01 -0.17074301796E+02  0.38783411462E+02  0.41800000000E+01 0.  1.
        -11    1    1    2    0    0 -0.35633269942E+02  0.17022054606E+02 -0.32250024373E+02  0.50985726845E+02  0.00000000000E+00 0.  1.
         11    1    1    2    0    0  0.38390239451E+02  0.33393321656E+01  0.21353472139E+02  0.44056014309E+02  0.00000000000E+00 0. -1.
</event>
<event>
 7    1  0.2900135E-009  0.1126841E+03  0.7561462E-02  0.1255679E+00
         -4   -1    0    0    0  501 -0.00000000000E+00  0.00000000000E+00  0.16382453814E+03  0.16382453814E+03  0.00000000000E+00 0. -1.
          4   -1    0    0  501    0  0.00000000000E+00 -0.00000000000E+00 -0.91985028403E+02  0.91985028403E+02  0.00000000000E+00 0.  1.
         25    2    1    2    0    0  0.29163906511E+02  0.47629640709E+02  0.55893047727E+02  0.14795567937E+03  0.12509090357E+03 0.  0.
          5    1    3    3  502    0  0.53891301689E+02 -0.24908740869E+02  0.16910094583E+02  0.61871976437E+02  0.41800000000E+01 0. -1.
         -5    1    3    3    0  502 -0.24727395178E+02  0.72538381578E+02  0.38982953144E+02  0.86083702930E+02  0.41800000000E+01 0. -1.
        -11    1    1    2    0    0  0.71239109328E+01 -0.52058461592E+02 -0.20342094153E+02  0.56343893412E+02  0.00000000000E+00 0.  1.
         11    1    1    2    0    0 -0.36287817444E+02  0.44288208833E+01  0.36288556166E+02  0.51509993767E+02  0.00000000000E+00 0. -1.
</event>
<event>
 7    1  0.2900135E-009  0.1070465E+03  0.7561462E-02  0.1266139E+00
          2   -1    0    0  501    0  0.00000000000E+00  0.00000000000E+00  0.75255562555E+03  0.75255562555E+03  0.00000000000E+00 0.  1.
         -2   -1    0    0    0  501 -0.00000000000E+00 -0.00000000000E+00 -0.23754836801E+02  0.23754836801E+02  0.00000000000E+00 0. -1.
         25    2    1    2    0    0  0.70269824498E+02 -0.51800478806E+01  0.50045124648E+03  0.52063851264E+03  0.12509328362E+03 0.  0.
          5    1    3    3  502    0  0.34692304078E+02  0.50543713143E+02  0.12384881527E+03  0.13825420191E+03  0.41800000000E+01 0. -1.
         -5    1    3    3    0  502  0.35577520420E+02 -0.55723761024E+02  0.37660243121E+03  0.38238431074E+03  0.41800000000E+01 0. -1.
        -11    1    1    2    0    0 -0.50201345764E+02 -0.20141947186E+02  0.47586725341E+02  0.72044219627E+02  0.00000000000E+00 0. -1.
         11    1    1    2    0    0 -0.20068478733E+02  0.25321995066E+02  0.18076281692E+03  0.18362773008E+03  0.00000000000E+00 0.  1.
</event>
<event>
 7    1  0.2900135E-009  0.2386201E+03  0.7561462E-02  0.1120715E+00
         -2   -1    0    0    0  501 -0.00000000000E+00  0.00000000000E+00  0.32095883844E+03  0.32095883844E+03  0.00000000000E+00 0. -1.
          2   -1    0    0  501    0  0.00000000000E+00 -0.00000000000E+00 -0.20750065092E+03  0.20750065092E+03  0.00000000000E+00 0.  1.
         25    2    1    2    0    0 -0.19741868423E+03 -0.11570473212E+03  0.10737149224E+03  0.28202544983E+03  0.12509194654E+03 0.  0.
          5    1    3    3  502    0 -0.17862763018E+03 -0.12068920524E+03  0.50047304412E+02  0.22135021935E+03  0.41800000000E+01 0.  1.
         -5    1    3    3    0  502 -0.18791054046E+02  0.49844731212E+01  0.57324187824E+02  0.60675230483E+02  0.41800000000E+01 0.  1.
        -11    1    1    2    0    0  0.17073676780E+03  0.61776845139E+02  0.25185899636E+02  0.18330780675E+03  0.00000000000E+00 0.  1.
         11    1    1    2    0    0  0.26681916423E+02  0.53927886982E+02 -0.19099204351E+02  0.63126232782E+02  0.00000000000E+00 0. -1.
</event>
<event>
 6    1  0.2900135E-009  0.1455710E+03  0.7561462E-02  0.1206023E+00
          2   -1    0    0  501    0  0.00000000000E+00  0.00000000000E+00  0.63180678259E+03  0.63180678259E+03  0.00000000000E+00 0. -1.
         -2   -1    0    0    0  501 -0.00000000000E+00 -0.00000000000E+00 -0.37515340399E+02  0.37515340399E+02  0.00000000000E+00 0.  1.
          5    1    1    2  502    0 -0.76117664833E+01  0.13084079545E+03  0.25596322695E+03  0.28759676405E+03  0.41800000000E+01 0.  1.
         -5    1    1    2    0  502  0.16453676534E+02 -0.24159867204E+02  0.10748482368E+03  0.11146695644E+03  0.41800000000E+01 0.  1.
        -11    1    1    2    0    0 -0.28112321733E+02 -0.10758153916E+03  0.14753112062E+03  0.18474177046E+03  0.00000000000E+00 0.  1.
         11    1    1    2    0    0  0.19270411682E+02  0.90061091399E+00  0.83312270936E+02  0.85516632037E+02  0.00000000000E+00 0. -1.
</event>
<event>
 7    1  0.2900135E-009  0.1104055E+03  0.7561462E-02  0.1259821E+00
          1   -1    0    0  501    0  0.00000000000E+00  0.00000000000E+00  0.91499454878E+03  0.91499454878E+03  0.00000000000E+00 0. -1.
         -1   -1    0    0    0  501 -0.00000000000E+00 -0.00000000000E+00 -0.25303792046E+02  0.25303792046E+02  0.00000000000E+00 0.  1.
         25    2    1    2    0    0  0.92274104599E+02  0.16676220488E+02  0.63355785169E+03  0.65256129475E+03  0.12509230696E+03 0.  0.
          5    1    3    3  502    0  0.38290205622E+02  0.15947606343E+02  0.44339536978E+02  0.60859945235E+02  0.41800000000E+01 0. -1.
         -5    1    3    3    0  502  0.53983898977E+02  0.72861414564E+00  0.58921831471E+03  0.59170134952E+03  0.41800000000E+01 0. -1.
        -11    1    1    2    0    0 -0.53831558067E+02 -0.50467729401E+02  0.10627897096E+03  0.12938333750E+03  0.00000000000E+00 0.  1.
         11    1    1    2    0    0 -0.38442546532E+02  0.33791508912E+02  0.14985393409E+03  0.15835370858E+03  0.00000000000E+00 0. -1.
</event>
<event>
 7    1  0.2900135E-009  0.1848565E+03  0.7561462E-02  0.1163184E+00
         -2   -1    0    0    0  501 -0.00000000000E+00  0.00000000000E+00  0.36909962068E+02  0.36909962068E+02  0.00000000000E+00 0.  1.
          2   -1    0    0  501    0  0.00000000000E+00 -0.00000000000E+00 -0.10748759022E+04  0.10748759022E+04  0.00000000000E+00 0. -1.
         25    2    1    2    0    0  0.12503172841E+03  0.10080025518E+03 -0.66621731696E+03  0.69662657029E+03  0.12509772367E+03 0.  0.
          5    1    3    3  502    0  0.13967029072E+03  0.10235083334E+03 -0.48937003287E+03  0.51911846882E+03  0.41800000000E+01 0. -1.
         -5    1    3    3    0  502 -0.14638562313E+02 -0.15505781607E+01 -0.17684728409E+03  0.17750810147E+03  0.41800000000E+01 0. -1.
        -11    1    1    2    0    0 -0.19121815392E+02  0.14978495757E+02 -0.26629544892E+02  0.36043471256E+02  0.00000000000E+00 0.  1.
         11    1    1    2    0    0 -0.10590991302E+03 -0.11577875094E+03 -0.34511907830E+03  0.37911582274E+03  0.00000000000E+00 0. -1.
</event>
<event>
 7    1  0.2900135E-009  0.1501114E+03  0.7561462E-02  0.1200336E+00
         -2   -1    0    0    0  501 -0.00000000000E+00  0.00000000000E+00  0.28901883386E+02  0.28901883386E+02  0.00000000000E+00 0. -1.
          2   -1    0    0  501    0  0.00000000000E+00 -0.00000000000E+00 -0.79321565259E+03  0.79321565259E+03  0.00000000000E+00 0.  1.
         25    2    1    2    0    0 -0.72400578756E+02 -0.86723832475E+02 -0.40457991579E+03  0.43828577445E+03  0.12508654964E+03 0.  0.
          5    1    3    3  502    0  0.21110787758E+02  0.17072917661E+02 -0.88902186984E+02  0.93049562749E+02  0.41800000000E+01 0.  1.
         -5    1    3    3    0  502 -0.93511366513E+02 -0.10379675014E+03 -0.31567772880E+03  0.34523621170E+03  0.41800000000E+01 0.  1.
        -11    1    1    2    0    0  0.55012285177E+02  0.97910365586E+02 -0.31817291657E+03  0.33741190858E+03  0.00000000000E+00 0.  1.
         11    1    1    2    0    0  0.17388293579E+02 -0.11186533111E+02 -0.41560936839E+02  0.46419852946E+02  0.00000000000E+00 0. -1.
</event>
<event>
 7    1  0.2900135E-009  0.2075525E+03  0.7561462E-02  0.1143519E+00
          2   -1    0    0  501    0  0.00000000000E+00  0.00000000000E+00  0.16881766234E+03  0.16881766234E+03  0.00000000000E+00 0. -1.
         -2   -1    0    0    0  501 -0.00000000000E+00 -0.00000000000E+00 -0.28194215398E+03  0.28194215398E+03  0.00000000000E+00 0.  1.
         25    2    1    2    0    0  0.98478838597E+02 -0.15978780973E+03 -0.37464481334E+02  0.22865071824E+03  0.12508931929E+03 0.  0.
          5    1    3    3  502    0  0.11329504765E+02 -0.11059543002E+03  0.20205988029E+02  0.11307281358E+03  0.41800000000E+01 0.  1.
         -5    1    3    3    0  502  0.87149333832E+02 -0.49192379717E+02 -0.57670469363E+02  0.11557790466E+03  0.41800000000E+01 0.  1.
        -11    1    1    2    0    0 -0.65074389264E+02  0.15725801570E+03 -0.80487225120E+02  0.18826298906E+03  0.00000000000E+00 0.  1.
         11    1    1    2    0    0 -0.33404449333E+02  0.25297940319E+01  0.48272148122E+01  0.33846109022E+02  0.00000000000E+00 0. -1.
</event>
<event>
 7    1  0.2900135E-009  0.1624868E+03  0.7561462E-02  0.1185917E+00
          1   -1    0    0  501    0  0.00000000000E+00  0.00000000000E+00  0.42970473518E+03  0.42970473518E+03  0.00000000000E+00 0. -1.
         -1   -1    0    0    0  501 -0.00000000000E+00 -0.00000000000E+00 -0.81404536855E+02  0.81404536855E+02  0.00000000000E+00 0.  1.
         25    2    1    2    0    0 -0.82496266847E+02  0.89277346511E+02  0.30234009439E+03  0.34904620626E+03  0.12509053834E+03 0.  0.
          5    1    3    3  502    0  0.31862470882E+02  0.29273466924E+02  0.99024461940E+02  0.10814559343E+03  0.41800000000E+01 0. -1.
         -5    1    3    3    0  502 -0.11435873773E+03  0.60003879587E+02  0.20331563245E+03  0.24090061283E+03  0.41800000000E+01 0. -1.
        -11    1    1    2    0    0  0.96798747662E+02 -0.46893318293E+02  0.17311811870E+02  0.10894347011E+03  0.00000000000E+00 0.  1.
         11    1    1    2    0    0 -0.14302480815E+02 -0.42384028219E+02  0.28648292060E+02  0.53119595664E+02  0.00000000000E+00 0. -1.
</event>
<event>
 6    1  0.2900135E-009  0.1314799E+03  0.7561462E-02  0.1225276E+00
          1   -1    0    0  501    0  0.00000000000E+00  0.00000000000E+00  0.13394426538E+03  0.13394426538E+03  0.00000000000E+00 0. -1.
         -1   -1    0    0    0  501 -0.00000000000E+00 -0.00000000000E+00 -0.13729808127E+03  0.13729808127E+03  0.00000000000E+00 0.  1.
          5    1    1    2  502    0  0.38697532355E+02  0.40868529298E+02  0.10573050831E+02  0.57419487121E+02  0.41800000000E+01 0.  1.
         -5    1    1    2    0  502 -0.89001501132E+02  0.20581134953E+02  0.38644504987E+01  0.91527354913E+02  0.41800000000E+01 0.  1.
        -11    1    1    2    0    0  0.73516595752E+02 -0.41208936297E+02  0.43089416989E+01  0.84388584893E+02  0.00000000000E+00 0. -1.
         11    1    1    2    0    0 -0.23212626975E+02 -0.20240727954E+02 -0.22100258920E+02  0.37906919731E+02  0.00000000000E+00 0.  1.
</event>
<event>
 7    1  0.2900135E-009  0.1085247E+03  0.7561462E-02  0.1263326E+00
         -2   -1    0    0    0  501 -0.00000000000E+00  0.00000000000E+00  0.32902761795E+03  0.32902761795E+03  0.00000000000E+00 0.  1.
          2   -1    0    0  501    0  0.00000000000E+00 -0.00000000000E+00 -0.49593247841E+02  0.49593247841E+02  0.00000000000E+00 0. -1.
         25    2    1    2    0    0 -0.29438235858E+02  0.65032915944E+02  0.12167009581E+03  0.18854083192E+03  0.12509253855E+03 0.  0.
          5    1    3    3  502    0 -0.61359739198E+02  0.79441898807E+02  0.58680280379E+02  0.11634810091E+03  0.41800000000E+01 0.  1.
         -5    1    3    3    0  502  0.31921503340E+02 -0.14408982863E+02  0.62989815430E+02  0.72192731009E+02  0.41800000000E+01 0.  1.
        -11    1    1    2    0    0  0.37621695157E+02 -0.39720873214E+02  0.36112009798E+02  0.65553161381E+02  0.00000000000E+00 0. -1.
         11    1    1    2    0    0 -0.81834592995E+01 -0.25312042730E+02  0.12165226450E+03  0.12452687249E+03  0.00000000000E+00 0.  1.
</event>
<event>
 7    1  0.2900135E-009  0.1490118E+03  0.7561462E-02  0.1201693E+00
         -2   -1    0    0    0  501 -0.00000000000E+00  0.00000000000E+00  0.26363094473E+02  0.26363094473E+02  0.00000000000E+00 0.  1.
          2   -1    0    0  501    0  0.00000000000E+00 -0.00000000000E+00 -0.86275379347E+03  0.86275379347E+03  0.00000000000E+00 0. -1.
         25    2    1    2    0    0  0.19868956172E+02  0.10867585407E+03 -0.46488681173E+03  0.49393449146E+03  0.12508524074E+03 0.  0.
          5    1    3    3  502    0  0.71869844726E+02  0.69807618933E+02 -0.31389947192E+03  0.32952803995E+03  0.41800000000E+01 0. -1.
         -5    1    3    3    0  502 -0.52000888554E+02  0.38868235132E+02 -0.15098733981E+03  0.16440645151E+03  0.41800000000E+01 0. -1.
        -11    1    1    2    0    0 -0.47706570917E+02 -0.76341786485E+02 -0.28217714873E+03  0.29618900813E+03  0.00000000000E+00 0.  1.
         11    1    1    2    0    0  0.27837614745E+02 -0.32334067580E+02 -0.89326738535E+02  0.98993388357E+02  0.00000000000E+00 0. -1.
</event>
<event>
 7    1  0.2900135E-009  0.9804790E+02  0.7561462E-02  0.1284455E+00
         -2   -1    0    0    0  501 -0.00000000000E+00  0.00000000000E+00  0.11100391578E+03  0.11100391578E+03  0.00000000000E+00 0.  1.
          2   -1    0    0  501    0  0.00000000000E+00 -0.00000000000E+00 -0.17535149729E+03  0.17535149729E+03  0.00000000000E+00 0. -1.
         25    2    1    2    0    0  0.15990556811E+02 -0.75133454813E+02  0.78791287308E+01  0.14700485968E+03  0.12509042394E+03 0.  0.
          5    1    3    3  502    0  0.20396400662E+02 -0.39380796636E+02  0.65326339015E+02  0.79068724998E+02  0.41800000000E+01 0.  1.
         -5    1    3    3    0  502 -0.44058438513E+01 -0.35752658176E+02 -0.57447210284E+02  0.67936134687E+02  0.41800000000E+01 0.  1.
        -11    1    1    2    0    0 -0.38315483352E+02  0.83159041416E+02 -0.41489924138E+02  0.10052321244E+03  0.00000000000E+00 0.  1.
         11    1    1    2    0    0  0.22324926541E+02 -0.80255866035E+01 -0.30736786100E+02  0.38827340949E+02  0.00000000000E+00 0. -1.
</event>
<event>
 7    1  0.4461689E-009  0.1208740E+03  0.7561462E-02  0.1241662E+00
         -2   -1    0    0    0  501 -0.00000000000E+00  0.00000000000E+00  0.19146190035E+02  0.19146190035E+02  0.00000000000E+00 0.  1.
          2   -1    0    0  501    0  0.00000000000E+00 -0.00000000000E+00 -0.98798667732E+03  0.98798667732E+03  0.00000000000E+00 0. -1.
         25    2    1    2    0    0 -0.67923339373E+02 -0.48872706300E+02 -0.50237191143E+03  0.52443287828E+03  0.12510069933E+03 0.  0.
          5    1    3    3  502    0 -0.11480935596E+02 -0.60836724831E+02 -0.98337872508E+02  0.11627866760E+03  0.41800000000E+01 0. -1.
         -5    1    3    3    0  502 -0.56442403778E+02  0.11964018531E+02 -0.40403403892E+03  0.40815421067E+03  0.41800000000E+01 0. -1.
        -11    1    1    2    0    0  0.41410683855E+02 -0.21491493731E+02 -0.13584157089E+03  0.14363029423E+03  0.00000000000E+00 0.  1.
         11    1    1    2    0    0  0.26512655518E+02  0.70364200031E+02 -0.33062700497E+03  0.33906969485E+03  0.00000000000E+00 0. -1.
</event>
<event>
 7    1  0.2900135E-009  0.8308469E+02  0.7561462E-02  0.1320519E+00
         -1   -1    0    0    0  501 -0.00000000000E+00  0.00000000000E+00  0.21419460321E+03  0.21419460321E+03  0.00000000000E+00 0.  1.
          1   -1    0    0  501    0  0.00000000000E+00 -0.00000000000E+00 -0.73667768232E+02  0.73667768232E+02  0.00000000000E+00 0. -1.
         25    2    1    2    0    0 -0.12582410393E+02 -0.52631724261E+02  0.37224933607E+02  0.14128720567E+03  0.12509181970E+03 0.  0.
          5    1    3    3  502    0 -0.10482952596E+02 -0.65595348065E+02  0.75474469831E+02  0.10063056185E+03  0.41800000000E+01 0.  1.
         -5    1    3    3    0  502 -0.20994577978E+01  0.12963623803E+02 -0.38249536224E+02  0.40656643818E+02  0.41800000000E+01 0.  1.
        -11    1    1    2    0    0  0.31450064268E+02  0.58202091601E+02  0.10771965865E+03  0.12641247908E+03  0.00000000000E+00 0.  1.
         11    1    1    2    0    0 -0.18867653875E+02 -0.55703673400E+01 -0.44177572756E+01  0.20162686686E+02  0.00000000000E+00 0. -1.
</event>
<event>
 7    1  0.2900135E-009  0.1141021E+03  0.7561462E-02  0.1253157E+00
         -4   -1    0    0    0  501 -0.00000000000E+00  0.00000000000E+00  0.76627925271E+03  0.76627925271E+03  0.00000000000E+00 0. -1.
          4   -1    0    0  501    0  0.00000000000E+00 -0.00000000000E+00 -0.24403217223E+02  0.24403217223E+02  0.00000000000E+00 0.  1.
         25    2    1    2    0    0  0.84922724452E+02 -0.12934285623E+02  0.39132564195E+03  0.41971727513E+03  0.12509063961E+03 0.  0.
          5    1    3    3  502    0  0.35299020186E+02  0.46006601963E+02  0.79523910292E+02  0.98509659214E+02  0.41800000000E+01 0. -1.
         -5    1    3    3    0  502  0.49623704265E+02 -0.58940887586E+02  0.31180173166E+03  0.32120761591E+03  0.41800000000E+01 0. -1.
        -11    1    1    2    0    0 -0.31022831621E+02  0.22286197370E+02  0.38785594271E+02  0.54437239074E+02  0.00000000000E+00 0.  1.
         11    1    1    2    0    0 -0.53899892831E+02 -0.93519117466E+01  0.31176479926E+03  0.31652795573E+03  0.00000000000E+00 0. -1.
</event>
<event>
 7    1  0.2900135E-009  0.7518845E+02  0.7561462E-02  0.1343288E+00
         -2   -1    0    0    0  501 -0.00000000000E+00  0.00000000000E+00  0.20541195280E+02  0.20541195280E+02  0.00000000000E+00 0. -1.
          2   -1    0    0  501    0  0.00000000000E+00 -0.00000000000E+00 -0.66024030234E+03  0.66024030234E+03  0.00000000000E+00 0.  1.
         25    2    1    2    0    0 -0.39753405333E+02  0.25200261595E+01 -0.39668394894E+03  0.41784186202E+03  0.12508789926E+03 0.  0.
          5    1    3    3  502    0 -0.42027510256E+02  0.15558560901E+02 -0.40083543025E+03  0.40335455245E+03  0.41800000000E+01 0.  1.
         -5    1    3    3    0  502  0.22741049226E+01 -0.13038534742E+02  0.41514813133E+01  0.14487309568E+02  0.41800000000E+01 0.  1.
        -11    1    1    2    0    0 -0.20627324588E+02  0.18343732594E+02 -0.13200268066E+03  0.13485802441E+03  0.00000000000E+00 0.  1.
         11    1    1    2    0    0  0.60380729921E+02 -0.20863758753E+02 -0.11101247746E+03  0.12808161119E+03  0.00000000000E+00 0. -1.
</event>
<event>
 7    1  0.2900135E-009  0.6491516E+02  0.7561462E-02  0.1378291E+00
          4   -1    0    0  501    0  0.00000000000E+00  0.00000000000E+00  0.68977969644E+02  0.68977969644E+02  0.00000000000E+00 0. -1.
         -4   -1    0    0    0  501 -0.00000000000E+00 -0.00000000000E+00 -0.18865772220E+03  0.18865772220E+03  0.00000000000E+00 0.  1.
         25    2    1    2    0    0  0.20033616816E+02  0.26214877222E+02 -0.56013169726E+02  0.14096549855E+03  0.12508089786E+03 0.  0.
          5    1    3    3  502    0 -0.10991668661E+02 -0.16111420849E+01  0.37053400789E+02  0.38908090018E+02  0.41800000000E+01 0.  1.
         -5    1    3    3    0  502  0.31025285477E+02  0.27826019307E+02 -0.93066570516E+02  0.10205740854E+03  0.41800000000E+01 0.  1.
        -11    1    1    2    0    0 -0.38940952399E+00 -0.47274887889E+02 -0.72494623212E+02  0.86547888821E+02  0.00000000000E+00 0.  1.
         11    1    1    2    0    0 -0.19644207292E+02  0.21060010667E+02  0.88280403851E+01  0.30122304468E+02  0.00000000000E+00 0. -1.
</event>
<event>
 7    1  0.2900135E-009  0.1058057E+03  0.7561462E-02  0.1268540E+00
         -2   -1    0    0    0  501 -0.00000000000E+00  0.00000000000E+00  0.53854453779E+02  0.53854453779E+02  0.00000000000E+00 0.  1.
          2   -1    0    0  501    0  0.00000000000E+00 -0.00000000000E+00 -0.34696620416E+03  0.34696620416E+03  0.00000000000E+00 0. -1.
         25    2    1    2    0    0  0.51596823885E+02 -0.44856433991E+02 -0.22914863237E+03  0.26987389586E+03  0.12509393289E+03 0.  0.
          5    1    3    3  502    0  0.82037966816E+02 -0.40330151362E+02 -0.93943080966E+02  0.13114695562E+03  0.41800000000E+01 0.  1.
         -5    1    3    3    0  502 -0.30441142932E+02 -0.45262826294E+01 -0.13520555140E+03  0.13872694024E+03  0.41800000000E+01 0.  1.
        -11    1    1    2    0    0 -0.40128099605E+02  0.58674836848E+02 -0.72438507983E+01  0.71452601292E+02  0.00000000000E+00 0.  1.
         11    1    1    2    0    0 -0.11468724279E+02 -0.13818402856E+02 -0.56719267213E+02  0.59494160783E+02  0.00000000000E+00 0. -1.
</event>
<event>
 7    1  0.2900135E-009  0.1745067E+03  0.7561462E-02  0.1173228E+00
          1   -1    0    0  501    0  0.00000000000E+00  0.00000000000E+00  0.23471222059E+03  0.23471222059E+03  0.00000000000E+00 0. -1.
         -1   -1    0    0    0  501 -0.00000000000E+00 -0.00000000000E+00 -0.20773751892E+03  0.20773751892E+03  0.00000000000E+00 0.  1.
         25    2    1    2    0    0 -0.15146535784E+03 -0.83440937419E+02 -0.70075148335E+02  0.22463682423E+03  0.12508809585E+03 0.  0.
          5    1    3    3  502    0 -0.14769077910E+03 -0.84652905147E+02 -0.97766303221E+02  0.19635275151E+03  0.41800000000E+01 0.  1.
         -5    1    3    3    0  502 -0.37745787389E+01  0.12119677284E+01  0.27691154886E+02  0.28284072715E+02  0.41800000000E+01 0.  1.
        -11    1    1    2    0    0  0.11031994940E+03  0.58831991491E+02  0.19354346092E+02  0.12651594829E+03  0.00000000000E+00 0.  1.
         11    1    1    2    0    0  0.41145408437E+02  0.24608945927E+02  0.77695503910E+02  0.91296966997E+02  0.00000000000E+00 0. -1.
</event>
<event>
 7    1  0.2900135E-009  0.8367050E+02  0.7561462E-02  0.1318946E+00
          1   -1    0    0  501    0  0.00000000000E+00  0.00000000000E+00  0.66777761135E+03  0.66777761135E+03  0.00000000000E+00 0. -1.
         -1   -1    0    0    0  501 -0.00000000000E+00 -0.00000000000E+00 -0.28873444022E+02  0.28873444022E+02  0.00000000000E+00 0.  1.
         25    2    1    2    0    0 -0.35360580790E+02  0.76561927514E+01  0.54871404951E+03  0.56395421233E+03  0.12509299549E+03 0.  0.
          5    1    3    3  502    0 -0.76465102541E+02 -0.97129796256E+01  0.24283040336E+03  0.25480449579E+03  0.41800000000E+01 0.  1.
         -5    1    3    3    0  502  0.41104521751E+02  0.17369172377E+02  0.30588364615E+03  0.30914971655E+03  0.41800000000E+01 0.  1.
        -11    1    1    2    0    0  0.28304402468E+02  0.69172610555E+01  0.10608105932E+03  0.11000990340E+03  0.00000000000E+00 0. -1.
         11    1    1    2    0    0  0.70561783219E+01 -0.14573453807E+02 -0.15890941500E+02  0.22686939638E+02  0.00000000000E+00 0.  1.
</event>
<event>
 7    1  0.2900135E-009  0.1150069E+03  0.7561462E-02  0.1251569E+00
          4   -1    0    0  501    0  0.00000000000E+00  0.00000000000E+00  0.20889530322E+03  0.20889530322E+03  0.00000000000E+00 0. -1.
         -4   -1    0    0    0  501 -0.00000000000E+00 -0.00000000000E+00 -0.12644662828E+03  0.12644662828E+03  0.00000000000E+00 0.  1.
         25    2    1    2    0    0  0.97148712802E+02  0.57518090757E+02  0.19813071153E+01  0.16851674812E+03  0.12509102948E+03 0.  0.
          5    1    3    3  502    0  0.28319088158E+02  0.11754469381E+02  0.59955608577E+02  0.67470628456E+02  0.41800000000E+01 0.  1.
         -5    1    3    3    0  502  0.68829624645E+02  0.45763621375E+02 -0.57974301461E+02  0.10104611967E+03  0.41800000000E+01 0.  1.
        -11    1    1    2    0    0 -0.14541509249E+02 -0.22039147665E+02  0.71804006549E+02  0.76504868326E+02  0.00000000000E+00 0. -1.
         11    1    1    2    0    0 -0.82607203554E+02 -0.35478943092E+02  0.86633612826E+01  0.90320315049E+02  0.00000000000E+00 0.  1.
</event>
<event>
 7    1  0.2900135E-009  0.1211982E+03  0.7561462E-02  0.1241133E+00
         -1   -1    0    0    0  501 -0.00000000000E+00  0.00000000000E+00  0.12471476555E+03  0.12471476555E+03  0.00000000000E+00 0.  1.
          1   -1    0    0  501    0  0.00000000000E+00 -0.00000000000E+00 -0.18107892421E+03  0.18107892421E+03  0.00000000000E+00 0. -1.
         25    2    1    2    0    0 -0.10398966988E+03 -0.13203615309E+01 -0.23634444080E+02  0.16438206309E+03  0.12508909194E+03 0.  0.
          5    1    3    3  502    0 -0.63207429388E-02  0.72924802699E+01  0.40814870594E+02  0.41671409504E+02  0.41800000000E+01 0. -1.
         -5    1    3    3    0  502 -0.10398334914E+03 -0.86128418008E+01 -0.64449314674E+02  0.12271065359E+03  0.41800000000E+01 0. -1.
        -11    1    1    2    0    0  0.51137806711E+02 -0.37985440516E+02 -0.39885342374E+02  0.75158562404E+02  0.00000000000E+00 0.  1.
         11    1    1    2    0    0  0.52851863174E+02  0.39305802047E+02  0.71556277957E+01  0.66253064266E+02  0.00000000000E+00 0. -1.
</event>
<event>
 7    1  0.2900135E-009  0.1004270E+03  0.7561462E-02  0.1279401E+00
          2   -1    0    0  501    0  0.00000000000E+00  0.00000000000E+00  0.49437630058E+03  0.49437630058E+03  0.00000000000E+00 0. -1.
         -2   -1    0    0    0  501 -0.00000000000E+00 -0.00000000000E+00 -0.23163777077E+02  0.23163777077E+02  0.00000000000E+00 0.  1.
         25    2    1    2    0    0  0.33126414629E+01  0.38194979641E+01  0.25704288434E+03  0.28590674513E+03  0.12508421308E+03 0.  0.
          5    1    3    3  502    0  0.21283869689E+02  0.54515919976E+02  0.19525831360E+03  0.20388298131E+03  0.41800000000E+01 0. -1.
         -5    1    3    3    0  502 -0.17971228226E+02 -0.50696422012E+02  0.61784570738E+02  0.82023763813E+02  0.41800000000E+01 0. -1.
        -11    1    1    2    0    0  0.42204552303E+02 -0.61738857670E+01  0.10448157106E+03  0.11285273498E+03  0.00000000000E+00 0.  1.
         11    1    1    2    0    0 -0.45517193766E+02  0.23543878029E+01  0.10968806810E+03  0.11878059754E+03  0.00000000000E+00 0. -1.
</event>
<event>
 7    1  0.2900135E-009  0.1081213E+03  0.7561462E-02  0.1264089E+00
          2   -1    0    0  501    0  0.00000000000E+00  0.00000000000E+00  0.25147479822E+03  0.25147479822E+03  0.00000000000E+00 0. -1.
         -2   -1    0    0    0  501 -0.00000000000E+00 -0.00000000000E+00 -0.11167343652E+03  0.11167343652E+03  0.00000000000E+00 0.  1.
         25    2    1    2    0    0  0.38520299020E+02 -0.19254730266E+02  0.20337660708E+03  0.24262418886E+03  0.12509953892E+03 0.  0.
          5    1    3    3  502    0  0.45797218821E+02  0.35817923786E+02  0.41841899592E+02  0.71753229039E+02  0.41800000000E+01 0. -1.
         -5    1    3    3    0  502 -0.72769198010E+01 -0.55072654052E+02  0.16153470749E+03  0.17087095982E+03  0.41800000000E+01 0. -1.
        -11    1    1    2    0    0  0.30793862494E+02  0.22613397711E+01 -0.22219841781E+02  0.38040728090E+02  0.00000000000E+00 0.  1.
         11    1    1    2    0    0 -0.69314161514E+02  0.16993390495E+02 -0.41355403594E+02  0.82483317788E+02  0.00000000000E+00 0. -1.
</event>
<event>
 7    1  0.2900135E-009  0.1099301E+03  0.7561462E-02  0.1260699E+00
         -2   -1    0    0    0  501 -0.00000000000E+00  0.00000000000E+00  0.13970603793E+03  0.13970603793E+03  0.00000000000E+00 0.  1.
          2   -1    0    0  501    0  0.00000000000E+00 -0.00000000000E+00 -0.20327408670E+03  0.20327408670E+03  0.00000000000E+00 0. -1.
         25    2    1    2    0    0 -0.21447287592E+02 -0.12292221792E+02  0.93337167592E+02  0.15801989326E+03  0.12508946778E+03 0.  0.
          5    1    3    3  502    0 -0.20718091306E+02  0.55129369220E+02  0.34164872553E+02  0.68214350210E+02  0.41800000000E+01 0. -1.
         -5    1    3    3    0  502 -0.72919628586E+00 -0.67421591012E+02  0.59172295039E+02  0.89805543047E+02  0.41800000000E+01 0. -1.
        -11    1    1    2    0    0  0.54097990865E+02  0.23165894273E+02 -0.12442078707E+03  0.13763641789E+03  0.00000000000E+00 0. -1.
         11    1    1    2    0    0 -0.32650703273E+02 -0.10873672481E+02 -0.32484429292E+02  0.47323813497E+02  0.00000000000E+00 0.  1.
</event>
<event>
 7    1  0.2900135E-009  0.1414565E+03  0.7561462E-02  0.1211382E+00
         -2   -1    0    0    0  501 -0.00000000000E+00  0.00000000000E+00  0.71936835059E+02  0.71936835059E+02  0.00000000000E+00 0.  1.
          2   -1    0    0  501    0  0.00000000000E+00 -0.00000000000E+00 -0.32305175339E+03  0.32305175339E+03  0.00000000000E+00 0. -1.
         25    2    1    2    0    0 -0.20029020090E+02 -0.90389894054E+02 -0.65309591230E+02  0.16876768680E+03  0.12508275184E+03 0.  0.
          5    1    3    3  502    0 -0.47761331298E+02  0.10570492962E+02 -0.93496857216E+01  0.49977686140E+02  0.41800000000E+01 0. -1.
         -5    1    3    3    0  502  0.27732311209E+02 -0.10096038702E+03 -0.55959905509E+02  0.11879000066E+03  0.41800000000E+01 0. -1.
        -11    1    1    2    0    0 -0.22467188361E+02 -0.63707187071E+01 -0.32584218623E+02  0.40088550897E+02  0.00000000000E+00 0. -1.
         11    1    1    2    0    0  0.42496208451E+02  0.96760612761E+02 -0.15322110848E+03  0.18613235076E+03  0.00000000000E+00 0.  1.
</event>
<event>
 7    1  0.2900135E-009  0.8059717E+02  0.7561462E-02  0.1327365E+00
          1   -1    0    0  501    0  0.00000000000E+00  0.00000000000E+00  0.29030302797E+03  0.29030302797E+03  0.00000000000E+00 0. -1.
         -1   -1    0    0    0  501 -0.00000000000E+00 -0.00000000000E+00 -0.68418213154E+02  0.68418213154E+02  0.00000000000E+00 0.  1.
         25    2    1    2    0    0  0.25121900140E+02  0.39179886898E+02  0.21627444130E+03  0.25414242783E+03  0.12509023248E+03 0.  0.
          5    1    3    3  502    0  0.21714810398E+02  0.61658243301E+02  0.22103875341E+03  0.23054039747E+03  0.41800000000E+01 0. -1.
         -5    1    3    3    0  502  0.34070897412E+01 -0.22478356403E+02 -0.47643121125E+01  0.23602030358E+02  0.41800000000E+01 0. -1.
        -11    1    1    2    0    0  0.17721899428E+02 -0.15927156773E+02  0.38851915330E+02  0.45576434339E+02  0.00000000000E+00 0. -1.
         11    1    1    2    0    0 -0.42843799568E+02 -0.23252730125E+02 -0.33241541815E+02  0.59002378951E+02  0.00000000000E+00 0.  1.
</event>
<event>
 7    1  0.2900135E-009  0.2307616E+03  0.7561462E-02  0.1126105E+00
          2   -1    0    0  501    0  0.00000000000E+00  0.00000000000E+00  0.80412517793E+03  0.80412517793E+03  0.00000000000E+00 0.  1.
         -2   -1    0    0    0  501 -0.00000000000E+00 -0.00000000000E+00 -0.68749185999E+02  0.68749185999E+02  0.00000000000E+00 0. -1.
         25    2    1    2    0    0 -0.10920445255E+03  0.17353972451E+03  0.31333899108E+03  0.39480596270E+03  0.12509506948E+03 0.  0.
          5    1    3    3  502    0 -0.16576824679E+02  0.13583340504E+03  0.14868482349E+03  0.20211421073E+03  0.41800000000E+01 0.  1.
         -5    1    3    3    0  502 -0.92627627869E+02  0.37706319475E+02  0.16465416759E+03  0.19269175197E+03  0.41800000000E+01 0.  1.
        -11    1    1    2    0    0  0.10725775501E+03 -0.87392248551E+02  0.26508046422E+03  0.29901385190E+03  0.00000000000E+00 0.  1.
         11    1    1    2    0    0  0.19466975385E+01 -0.86147475963E+02  0.15695653664E+03  0.17905454934E+03  0.00000000000E+00 0. -1.
</event>
<event>
 7    1  0.2900135E-009  0.1664806E+03  0.7561462E-02  0.1181569E+00
          1   -1    0    0  501    0  0.00000000000E+00  0.00000000000E+00  0.35988333894E+02  0.35988333894E+02  0.00000000000E+00 0. -1.
         -1   -1    0    0    0  501 -0.00000000000E+00 -0.00000000000E+00 -0.11289873500E+04  0.11289873500E+04  0.00000000000E+00 0.  1.
         25    2    1    2    0    0 -0.14037045266E+03  0.61768772555E+02 -0.77009207744E+03  0.79511533027E+03  0.12508930991E+03 0.  0.
          5    1    3    3  502    0 -0.23634306168E+02  0.25141654752E+02 -0.46617866964E+03  0.46747268119E+03  0.41800000000E+01 0.  1.
         -5    1    3    3    0  502 -0.11673614650E+03  0.36627117803E+02 -0.30391340780E+03  0.32764264908E+03  0.41800000000E+01 0.  1.
        -11    1    1    2    0    0  0.11858178830E+03 -0.83484395138E+02 -0.29315496549E+03  0.32706439510E+03  0.00000000000E+00 0.  1.
         11    1    1    2    0    0  0.21788664358E+02  0.21715622583E+02 -0.29751973198E+02  0.42795958546E+02  0.00000000000E+00 0. -1.
</event>
<event>
 7    1  0.2900135E-009  0.1027816E+03  0.7561462E-02  0.1274553E+00
         -3   -1    0    0    0  501 -0.00000000000E+00  0.00000000000E+00  0.29518143264E+03  0.29518143264E+03  0.00000000000E+00 0.  1.
          3   -1    0    0  501    0  0.00000000000E+00 -0.00000000000E+00 -0.49818563043E+02  0.49818563043E+02  0.00000000000E+00 0. -1.
         25    2    1    2    0    0  0.29387242805E+02 -0.42891630901E+02  0.11992312794E+03  0.18092485394E+03  0.12509573981E+03 0.  0.
          5    1    3    3  502    0  0.38522284745E+02 -0.67454274031E+02  0.24016519357E+02  0.81414440421E+02  0.41800000000E+01 0.  1.
         -5    1    3    3    0  502 -0.91350419400E+01  0.24562643130E+02  0.95906608586E+02  0.99510413522E+02  0.41800000000E+01 0.  1.
        -11    1    1    2    0    0 -0.23128177200E+02 -0.24418839334E+02  0.20949996093E+02  0.39624419634E+02  0.00000000000E+00 0. -1.
         11    1    1    2    0    0 -0.62590656053E+01  0.67310470235E+02  0.10448974556E+03  0.12445072210E+03  0.00000000000E+00 0.  1.
</event>
<event>
 7    1  0.2900135E-009  0.1243759E+03  0.7561462E-02  0.1236048E+00
         -1   -1    0    0    0  501 -0.00000000000E+00  0.00000000000E+00  0.43686705472E+02  0.43686705472E+02  0.00000000000E+00 0.  1.
          1   -1    0    0  501    0  0.00000000000E+00 -0.00000000000E+00 -0.59213342922E+03  0.59213342922E+03  0.00000000000E+00 0. -1.
         25    2    1    2    0    0 -0.84274197353E+02 -0.81432835455E+02 -0.31483176864E+03  0.35846894451E+03  0.12508994607E+03 0.  0.
          5    1    3    3  502    0  0.52045748981E+01 -0.13066368761E+02 -0.18895023147E+03  0.18951907547E+03  0.41800000000E+01 0.  1.
         -5    1    3    3    0  502 -0.89478772251E+02 -0.68366466694E+02 -0.12588153717E+03  0.16894986905E+03  0.41800000000E+01 0.  1.
        -11    1    1    2    0    0  0.67338047558E+02  0.44360940714E+02 -0.22010840416E+03  0.23441419601E+03  0.00000000000E+00 0. -1.
         11    1    1    2    0    0  0.16936149795E+02  0.37071894741E+02 -0.13506550952E+02  0.42936994168E+02  0.00000000000E+00 0.  1.
</event>
<event>
 7    1  0.2900135E-009  0.8949237E+02  0.7561462E-02  0.1304086E+00
          1   -1    0    0  501    0  0.00000000000E+00  0.00000000000E+00  0.24140786517E+03  0.24140786517E+03  0.00000000000E+00 0. -1.
         -1   -1    0    0    0  501 -0.00000000000E+00 -0.00000000000E+00 -0.80383332818E+02  0.80383332818E+02  0.00000000000E+00 0.  1.
         25    2    1    2    0    0  0.24373076746E+02  0.46865484536E+02  0.76632716645E+01  0.13600449971E+03  0.12509227673E+03 0.  0.
          5    1    3    3  502    0  0.38858725193E+01  0.54572552419E+02 -0.49969290648E+02  0.74213650299E+02  0.41800000000E+01 0. -1.
         -5    1    3    3    0  502  0.20487204227E+02 -0.77070678830E+01  0.57632562313E+02  0.61790849413E+02  0.41800000000E+01 0. -1.
        -11    1    1    2    0    0  0.32699594096E+02 -0.11370466609E+02  0.74633855528E+02  0.82272494528E+02  0.00000000000E+00 0. -1.
         11    1    1    2    0    0 -0.57072670842E+02 -0.35495017927E+02  0.78727405164E+02  0.10351420375E+03  0.00000000000E+00 0.  1.
</event>
<event>
 7    1  0.2900135E-009  0.1422128E+03  0.7561462E-02  0.1210382E+00
          2   -1    0    0  501    0  0.00000000000E+00  0.00000000000E+00  0.31698108419E+03  0.31698108419E+03  0.00000000000E+00 0. -1.
         -2   -1    0    0    0  501 -0.00000000000E+00 -0.00000000000E+00 -0.11092953265E+03  0.11092953265E+03  0.00000000000E+00 0.  1.
         25    2    1    2    0    0  0.12716746928E+03 -0.10989299795E+02  0.13459386298E+02  0.17922061782E+03  0.12508614958E+03 0.  0.
          5    1    3    3  502    0  0.71121815198E+02 -0.11831327363E+02  0.69227610369E+02  0.10004112825E+03  0.41800000000E+01 0.  1.
         -5    1    3    3    0  502  0.56045654086E+02  0.84202756725E+00 -0.55768224071E+02  0.79179489568E+02  0.41800000000E+01 0.  1.
        -11    1    1    2    0    0 -0.70621330723E+02  0.50669558110E+02  0.12320661172E+03  0.15078012350E+03  0.00000000000E+00 0.  1.
         11    1    1    2    0    0 -0.56546138561E+02 -0.39680258314E+02  0.69385553522E+02  0.97909875517E+02  0.00000000000E+00 0. -1.
</event>
<event>
 7    1  0.2900135E-009  0.1336658E+03  0.7561462E-02  0.1222115E+00
          2   -1    0    0  501    0  0.00000000000E+00  0.00000000000E+00  0.49085657370E+03  0.49085657370E+03  0.00000000000E+00 0.  1.
         -2   -1    0    0    0  501 -0.00000000000E+00 -0.00000000000E+00 -0.70377548325E+02  0.70377548325E+02  0.00000000000E+00 0. -1.
         25    2    1    2    0    0  0.78254359780E+02 -0.87553063104E+02  0.36435147726E+03  0.40272623809E+03  0.12508852938E+03 0.  0.
          5    1    3    3  502    0 -0.25442608741E+01 -0.43309475269E+01  0.20748600880E+03  0.20758888847E+03  0.41800000000E+01 0.  1.
         -5    1    3    3    0  502  0.80798620654E+02 -0.83222115577E+02  0.15686546846E+03  0.19513734962E+03  0.41800000000E+01 0.  1.
        -11    1    1    2    0    0  0.16862823663E+02  0.27443306713E+02  0.27628481239E+02  0.42436103506E+02  0.00000000000E+00 0.  1.
         11    1    1    2    0    0 -0.95117183443E+02  0.60109756391E+02  0.28499066882E+02  0.11607178043E+03  0.00000000000E+00 0. -1.
</event>
<event>
 7    1  0.2900135E-009  0.1662896E+03  0.7561462E-02  0.1181773E+00
         -2   -1    0    0    0  501 -0.00000000000E+00  0.00000000000E+00  0.33734631603E+02  0.33734631603E+02  0.00000000000E+00 0.  1.
          2   -1    0    0  501    0  0.00000000000E+00 -0.00000000000E+00 -0.11105056885E+04  0.11105056885E+04  0.00000000000E+00 0. -1.
         25    2    1    2    0    0 -0.15339807821E+03 -0.16112228491E+02 -0.68568524507E+03  0.71386651271E+03  0.12510223158E+03 0.  0.
          5    1    3    3  502    0  0.85222156373E+01  0.10459234566E+02 -0.21348547285E+03  0.21395219855E+03  0.41800000000E+01 0.  1.
         -5    1    3    3    0  502 -0.16192029384E+03 -0.26571463057E+02 -0.47219977222E+03  0.49991431415E+03  0.41800000000E+01 0.  1.
        -11    1    1    2    0    0  0.10543916080E+02  0.23296536390E+01  0.28008270330E+01  0.11155540527E+02  0.00000000000E+00 0.  1.
         11    1    1    2    0    0  0.14285416213E+03  0.13782574852E+02 -0.39388663883E+03  0.41921826684E+03  0.00000000000E+00 0. -1.
</event>
<event>
 7    1  0.2900135E-009  0.1779669E+03  0.7561462E-02  0.1169785E+00
          1   -1    0    0  501    0  0.00000000000E+00  0.00000000000E+00  0.42269304850E+03  0.42269304850E+03  0.00000000000E+00 0. -1.
         -1   -1    0    0    0  501 -0.00000000000E+00 -0.00000000000E+00 -0.75982958341E+02  0.75982958341E+02  0.00000000000E+00 0.  1.
         25    2    1    2    0    0  0.27349274632E+02 -0.14053771607E+03  0.19842845379E+03  0.27480515524E+03  0.12508073238E+03 0.  0.
          5    1    3    3  502    0  0.73832688440E+02 -0.54142487251E+02  0.88512947005E+02  0.12741541899E+03  0.41800000000E+01 0. -1.
         -5    1    3    3    0  502 -0.46483413808E+02 -0.86395228818E+02  0.10991550679E+03  0.14738973626E+03  0.41800000000E+01 0. -1.
        -11    1    1    2    0    0 -0.53457266755E+02  0.55192102367E+02  0.53153876588E+02  0.93430092202E+02  0.00000000000E+00 0.  1.
         11    1    1    2    0    0  0.26107992124E+02  0.85345613702E+02  0.95127759778E+02  0.13044075939E+03  0.00000000000E+00 0. -1.
</event>
<event>
 7    1  0.2900135E-009  0.1189902E+03  0.7561462E-02  0.1244772E+00
         -2   -1    0    0    0  501 -0.00000000000E+00  0.00000000000E+00  0.15337514867E+03  0.15337514867E+03  0.00000000000E+00 0.  1.
          2   -1    0    0  501    0  0.00000000000E+00 -0.00000000000E+00 -0.12319013105E+03  0.12319013105E+03  0.00000000000E+00 0. -1.
         25    2    1    2    0    0 -0.59958540603E+02 -0.51571720497E+02  0.29250112595E+02  0.15086430881E+03  0.12509916723E+03 0.  0.
          5    1    3    3  502    0 -0.74461552559E+02 -0.16698609219E+02  0.63762657845E+02  0.99531478914E+02  0.41800000000E+01 0. -1.
         -5    1    3    3    0  502  0.14503011956E+02 -0.34873111278E+02 -0.34512545250E+02  0.51332829901E+02  0.41800000000E+01 0. -1.
        -11    1    1    2    0    0  0.76211096770E+02  0.66755865779E+02  0.97372015708E+01  0.10178059727E+03  0.00000000000E+00 0.  1.
         11    1    1    2    0    0 -0.16252556167E+02 -0.15184145282E+02 -0.88022965494E+01  0.23920373626E+02  0.00000000000E+00 0. -1.
</event>
<event>
 7    1  0.2900135E-009  0.1037965E+03  0.7561462E-02  0.1272509E+00
         -2   -1    0    0    0  501 -0.00000000000E+00  0.00000000000E+00  0.67473002434E+03  0.67473002434E+03  0.00000000000E+00 0.  1.
          2   -1    0    0  501    0  0.00000000000E+00 -0.00000000000E+00 -0.23149621953E+02  0.23149621953E+02  0.00000000000E+00 0. -1.
         25    2    1    2    0    0 -0.32110791606E+02  0.53199929193E+01  0.52133605229E+03  0.53712049965E+03  0.12509095280E+03 0.  0.
          5    1    3    3  502    0  0.41175028368E+02  0.36574375992E+01  0.32241989187E+03  0.32508586386E+03  0.41800000000E+01 0.  1.
         -5    1    3    3    0  502 -0.73285819975E+02  0.16625553200E+01  0.19891616042E+03  0.21203463579E+03  0.41800000000E+01 0.  1.
        -11    1    1    2    0    0 -0.26760088125E+02  0.14584759032E+02  0.57554069204E+02  0.65125174813E+02  0.00000000000E+00 0. -1.
         11    1    1    2    0    0  0.58870879731E+02 -0.19904751951E+02  0.72690280899E+02  0.95633971829E+02  0.00000000000E+00 0.  1.
</event>
<event>
 7    1  0.2900135E-009  0.1014185E+03  0.7561462E-02  0.1277341E+00
         -2   -1    0    0    0  501 -0.00000000000E+00  0.00000000000E+00  0.17781082750E+02  0.17781082750E+02  0.00000000000E+00 0.  1.
          2   -1    0    0  501    0  0.00000000000E+00 -0.00000000000E+00 -0.96399924362E+03  0.96399924362E+03  0.00000000000E+00 0. -1.
         25    2    1    2    0    0  0.37486981556E+02  0.17231438976E+02 -0.75643827658E+03  0.76781773538E+03  0.12507202810E+03 0.  0.
          5    1    3    3  502    0 -0.22693869991E+02  0.34316534204E+02 -0.56202474239E+03  0.56354407078E+03  0.41800000000E+01 0. -1.
         -5    1    3    3    0  502  0.60180851547E+02 -0.17085095228E+02 -0.19441353420E+03  0.20427366461E+03  0.41800000000E+01 0. -1.
        -11    1    1    2    0    0 -0.25388588262E+01 -0.50482257066E+02 -0.99555244094E+02  0.11165191762E+03  0.00000000000E+00 0.  1.
         11    1    1    2    0    0 -0.34948122730E+02  0.33250818090E+02 -0.90224640195E+02  0.10231067337E+03  0.00000000000E+00 0. -1.
</event>
<event>
 7    1  0.2900135E-009  0.1551528E+03  0.7561462E-02  0.1194280E+00
         -1   -1    0    0    0  501 -0.00000000000E+00  0.00000000000E+00  0.11482578539E+03  0.11482578539E+03  0.00000000000E+00 0.  1.
          1   -1    0    0  501    0  0.00000000000E+00 -0.00000000000E+00 -0.22697211706E+03  0.22697211706E+03  0.00000000000E+00 0. -1.
         25    2    1    2    0    0 -0.10959853097E+03  0.38664926829E+02 -0.62418541843E+02  0.18179777981E+03  0.12509014278E+03 0.  0.
          5    1    3    3  502    0 -0.12625163239E+03 -0.20935386831E+01 -0.42532443926E+02  0.13330543414E+03  0.41800000000E+01 0.  1.
         -5    1    3    3    0  502  0.16653101421E+02  0.40758465512E+02 -0.19886097918E+02  0.48492345666E+02  0.41800000000E+01 0.  1.
        -11    1    1    2    0    0  0.44859956449E+02 -0.56924074346E+02 -0.57190843480E+02  0.92323120131E+02  0.00000000000E+00 0.  1.
         11    1    1    2    0    0  0.64738574521E+02  0.18259147517E+02  0.74630536548E+01  0.67677002511E+02  0.00000000000E+00 0. -1.
</event>
<event>
 7    1  0.2900135E-009  0.1460268E+03  0.7561462E-02  0.1205442E+00
          1   -1    0    0  501    0  0.00000000000E+00  0.00000000000E+00  0.33378783885E+03  0.33378783885E+03  0.00000000000E+00 0. -1.
         -1   -1    0    0    0  501 -0.00000000000E+00 -0.00000000000E+00 -0.70682681435E+02  0.70682681435E+02  0.00000000000E+00 0.  1.
         25    2    1    2    0    0 -0.47279432701E+02  0.91661920071E+02  0.18486650446E+03  0.24588757266E+03  0.12509125298E+03 0.  0.
          5    1    3    3  502    0 -0.71504874319E+02  0.47272756156E+01  0.81620707887E+02  0.10869547618E+03  0.41800000000E+01 0. -1.
         -5    1    3    3    0  502  0.24225441619E+02  0.86934644456E+02  0.10324579657E+03  0.13719209648E+03  0.41800000000E+01 0. -1.
        -11    1    1    2    0    0  0.24012089905E+01 -0.84436995695E+02  0.23998584702E+02  0.87814031420E+02  0.00000000000E+00 0.  1.
         11    1    1    2    0    0  0.44878223710E+02 -0.72249243766E+01  0.54240068253E+02  0.70768916197E+02  0.00000000000E+00 0. -1.
</event>
<event>
 7    1  0.2900135E-009  0.1333703E+03  0.7561462E-02  0.1222539E+00
          1   -1    0    0  501    0  0.00000000000E+00  0.00000000000E+00  0.80617636497E+02  0.80617636497E+02  0.00000000000E+00 0. -1.
         -1   -1    0    0    0  501 -0.00000000000E+00 -0.00000000000E+00 -0.24097966767E+03  0.24097966767E+03  0.00000000000E+00 0.  1.
         25    2    1    2    0    0 -0.47432005555E+01 -0.81296879421E+02 -0.47963512573E+02  0.15677960852E+03  0.12509063336E+03 0.  0.
          5    1    3    3  502    0  0.56480267477E+02 -0.58266354822E+02 -0.40563948056E+02  0.90817922243E+02  0.41800000000E+01 0.  1.
         -5    1    3    3    0  502 -0.61223468033E+02 -0.23030524599E+02 -0.73995645167E+01  0.65961686276E+02  0.41800000000E+01 0.  1.
        -11    1    1    2    0    0 -0.34404269080E+02  0.57903289489E+01 -0.25421458214E+02  0.43167489828E+02  0.00000000000E+00 0.  1.
         11    1    1    2    0    0  0.39147469636E+02  0.75506550472E+02 -0.86977060391E+02  0.12165020582E+03  0.00000000000E+00 0. -1.
</event>
<event>
 7    1  0.2900135E-009  0.1568215E+03  0.7561462E-02  0.1192333E+00
         -1   -1    0    0    0  501 -0.00000000000E+00  0.00000000000E+00  0.73223213795E+02  0.73223213795E+02  0.00000000000E+00 0.  1.
          1   -1    0    0  501    0  0.00000000000E+00 -0.00000000000E+00 -0.43344873331E+03  0.43344873331E+03  0.00000000000E+00 0. -1.
         25    2    1    2    0    0 -0.58032638274E+02  0.10380386827E+03 -0.30085829936E+03  0.34685195536E+03  0.12509009742E+03 0.  0.
          5    1    3    3  502    0 -0.27599302821E+02  0.12674944158E+03 -0.26132072147E+03  0.29177582889E+03  0.41800000000E+01 0.  1.
         -5    1    3    3    0  502 -0.30433335454E+02 -0.22945573313E+02 -0.39537577896E+02  0.55076126474E+02  0.41800000000E+01 0.  1.
        -11    1    1    2    0    0  0.73723699139E+02 -0.49035688339E+02 -0.51161845137E+02  0.10226053463E+03  0.00000000000E+00 0.  1.
         11    1    1    2    0    0 -0.15691060865E+02 -0.54768179927E+02 -0.82053750176E+01  0.57559457110E+02  0.00000000000E+00 0. -1.
</event>
<event>
 7    1  0.2900135E-009  0.1180526E+03  0.7561462E-02  0.1246345E+00
          1   -1    0    0  501    0  0.00000000000E+00  0.00000000000E+00  0.73086730049E+02  0.73086730049E+02  0.00000000000E+00 0. -1.
         -1   -1    0    0    0  501 -0.00000000000E+00 -0.00000000000E+00 -0.20496896973E+03  0.20496896973E+03  0.00000000000E+00 0.  1.
         25    2    1    2    0    0 -0.55461988741E+02 -0.35218267966E+02 -0.66722787710E+02  0.15625897361E+03  0.12509427581E+03 0.  0.
          5    1    3    3  502    0 -0.61039889691E+01 -0.71522722981E+02 -0.98867905005E+01  0.72580848785E+02  0.41800000000E+01 0. -1.
         -5    1    3    3    0  502 -0.49357999772E+02  0.36304455014E+02 -0.56835997209E+02  0.83678124824E+02  0.41800000000E+01 0. -1.
        -11    1    1    2    0    0  0.20231866534E+02  0.57598841274E+02 -0.35863850773E+02  0.70803748006E+02  0.00000000000E+00 0. -1.
         11    1    1    2    0    0  0.35230122207E+02 -0.22380573307E+02 -0.29295601197E+02  0.50992978161E+02  0.00000000000E+00 0.  1.
</event>
<event>
 7    1  0.2900135E-009  0.1904702E+03  0.7561462E-02  0.1158038E+00
          2   -1    0    0  501    0  0.00000000000E+00  0.00000000000E+00  0.75890036129E+03  0.75890036129E+03  0.00000000000E+00 0. -1.
         -2   -1    0    0    0  501 -0.00000000000E+00 -0.00000000000E+00 -0.57989178901E+02  0.57989178901E+02  0.00000000000E+00 0.  1.
         25    2    1    2    0    0  0.13910882865E+03 -0.98755299081E+02  0.27491598994E+03  0.34688916004E+03  0.12509761199E+03 0.  0.
          5    1    3    3  502    0  0.73549486929E+02  0.18480486398E+02  0.81884851706E+02  0.11168552612E+03  0.41800000000E+01 0.  1.
         -5    1    3    3    0  502  0.65559341718E+02 -0.11723578548E+03  0.19303113823E+03  0.23520363392E+03  0.41800000000E+01 0.  1.
        -11    1    1    2    0    0 -0.52908285208E+02  0.36831115649E+02  0.29215958722E+03  0.29918730275E+03  0.00000000000E+00 0. -1.
         11    1    1    2    0    0 -0.86200543438E+02  0.61924183432E+02  0.13383560523E+03  0.17081307740E+03  0.00000000000E+00 0.  1.
</event>
<event>
 7    1  0.2900135E-009  0.1224858E+03  0.7561462E-02  0.1239052E+00
         -1   -1    0    0    0  501 -0.00000000000E+00  0.00000000000E+00  0.23416643318E+03  0.23416643318E+03  0.00000000000E+00 0.  1.
          1   -1    0    0  501    0  0.00000000000E+00 -0.00000000000E+00 -0.84555740662E+02  0.84555740662E+02  0.00000000000E+00 0. -1.
         25    2    1    2    0    0  0.58394849900E+02  0.51995286656E+01  0.34218636235E+02  0.14232244970E+03  0.12509105096E+03 0.  0.
          5    1    3    3  502    0  0.24534962794E+02 -0.59772438362E+02  0.14964944042E+02  0.66453974578E+02  0.41800000000E+01 0.  1.
         -5    1    3    3    0  502  0.33859887106E+02  0.64971967028E+02  0.19253692193E+02  0.75868475122E+02  0.41800000000E+01 0.  1.
        -11    1    1    2    0    0 -0.80726923345E+02  0.76268785929E+01  0.28783898971E+02  0.86043699769E+02  0.00000000000E+00 0. -1.
         11    1    1    2    0    0  0.22332073445E+02 -0.12826407259E+02  0.86608157308E+02  0.90356024369E+02  0.00000000000E+00 0.  1.
</event>
<event>
 7    1  0.2900135E-009  0.1556349E+03  0.7561462E-02  0.1193715E+00
          1   -1    0    0  501    0  0.00000000000E+00  0.00000000000E+00  0.17904196632E+03  0.17904196632E+03  0.00000000000E+00 0. -1.
         -1   -1    0    0    0  501 -0.00000000000E+00 -0.00000000000E+00 -0.16486376882E+03  0.16486376882E+03  0.00000000000E+00 0.  1.
         25    2    1    2    0    0 -0.12743155598E+03 -0.28244430073E+02 -0.22475411339E+02  0.18215895351E+03  0.12506074900E+03 0.  0.
          5    1    3    3  502    0 -0.71295044920E+02 -0.77746949135E+02 -0.85610101113E+01  0.10591664092E+03  0.41800000000E+01 0.  1.
         -5    1    3    3    0  502 -0.56136511063E+02  0.49502519062E+02 -0.13914401227E+02  0.76242312591E+02  0.41800000000E+01 0.  1.
        -11    1    1    2    0    0  0.55745446205E+02  0.85642959042E+01 -0.28234598450E+02  0.63072137165E+02  0.00000000000E+00 0.  1.
         11    1    1    2    0    0  0.71686109777E+02  0.19680134169E+02  0.64888207287E+02  0.98674644468E+02  0.00000000000E+00 0. -1.
</event>
<event>
 7    1  0.2900135E-009  0.1074115E+03  0.7561462E-02  0.1265440E+00
         -1   -1    0    0    0  501 -0.00000000000E+00  0.00000000000E+00  0.34317785196E+03  0.34317785196E+03  0.00000000000E+00 0.  1.
          1   -1    0    0  501    0  0.00000000000E+00 -0.00000000000E+00 -0.46092865635E+02  0.46092865635E+02  0.00000000000E+00 0. -1.
         25    2    1    2    0    0 -0.35622173579E+01 -0.53841913408E+02  0.20498388234E+03  0.24612621090E+03  0.12509228051E+03 0.  0.
          5    1    3    3  502    0 -0.27211117897E+02 -0.76887900001E+02  0.19494549748E+03  0.21136086084E+03  0.41800000000E+01 0. -1.
         -5    1    3    3    0  502  0.23648900539E+02  0.23045986593E+02  0.10038384852E+02  0.34765350066E+02  0.41800000000E+01 0. -1.
        -11    1    1    2    0    0  0.33906036385E+02  0.59991167605E+02  0.88217212275E+02  0.11194121688E+03  0.00000000000E+00 0.  1.
         11    1    1    2    0    0 -0.30343819027E+02 -0.61492541973E+01  0.38838917087E+01  0.31203289813E+02  0.00000000000E+00 0. -1.
</event>
<event>
 7    1  0.2900135E-009  0.9189946E+02  0.7561462E-02  0.1298316E+00
         -2   -1    0    0    0  501 -0.00000000000E+00  0.00000000000E+00  0.57925032815E+03  0.57925032815E+03  0.00000000000E+00 0.  1.
          2   -1    0    0  501    0  0.00000000000E+00 -0.00000000000E+00 -0.38086552386E+02  0.38086552386E+02  0.00000000000E+00 0. -1.
         25    2    1    2    0    0 -0.41296781644E+02 -0.25573189139E+02  0.47849435387E+03  0.49695407371E+03  0.12508833885E+03 0.  0.
          5    1    3    3  502    0  0.47882006593E+01  0.45082297562E+02  0.23103518718E+03  0.23547838655E+03  0.41800000000E+01 0. -1.
         -5    1    3    3    0  502 -0.46084982303E+02 -0.70655486701E+02  0.24745916669E+03  0.26147568716E+03  0.41800000000E+01 0. -1.
        -11    1    1    2    0    0  0.20114838454E+02 -0.62021383189E+00  0.80005243126E+02  0.82497456439E+02  0.00000000000E+00 0.  1.
         11    1    1    2    0    0  0.21181943190E+02  0.26193402971E+02 -0.17335821229E+02  0.37885350390E+02  0.00000000000E+00 0. -1.
</event>
<event>
 7    1  0.2900135E-009  0.1113132E+03  0.7561462E-02  0.1258157E+00
         -1   -1    0    0    0  501 -0.00000000000E+00  0.00000000000E+00  0.16074125313E+02  0.16074125313E+02  0.00000000000E+00 0.  1.
          1   -1    0    0  501    0  0.00000000000E+00 -0.00000000000E+00 -0.85906950239E+03  0.85906950239E+03  0.00000000000E+00 0. -1.
         25    2    1    2    0    0 -0.27340417299E+02  0.32575875833E+02 -0.40503394504E+03  0.42603845568E+03  0.12509029929E+03 0.  0.
          5    1    3    3  502    0  0.23326021006E+02  0.66619924148E+02 -0.20460454227E+03  0.21647819444E+03  0.41800000000E+01 0.  1.
         -5    1    3    3    0  502 -0.50666438305E+02 -0.34044048316E+02 -0.20042940277E+03  0.20956026124E+03  0.41800000000E+01 0.  1.
        -11    1    1    2    0    0  0.47366665988E+02 -0.46472288434E+02 -0.38659477260E+03  0.39224838156E+03  0.00000000000E+00 0. -1.
         11    1    1    2    0    0 -0.20026248688E+02  0.13896412602E+02 -0.51366659436E+02  0.56856790459E+02  0.00000000000E+00 0.  1.
</event>
<event>
 7    1  0.2900135E-009  0.1065110E+03  0.7561462E-02  0.1267171E+00
         -1   -1    0    0    0  501 -0.00000000000E+00  0.00000000000E+00  0.11210621207E+03  0.11210621207E+03  0.00000000000E+00 0.  1.
          1   -1    0    0  501    0  0.00000000000E+00 -0.00000000000E+00 -0.11010518440E+03  0.11010518440E+03  0.00000000000E+00 0. -1.
         25    2    1    2    0    0 -0.26542190528E+02  0.93574772036E+01 -0.46982066256E+01  0.12829971012E+03  0.12508673876E+03 0.  0.
          5    1    3    3  502    0 -0.36614111344E+02 -0.49001240445E+02 -0.24044331387E+02  0.65858309927E+02  0.41800000000E+01 0. -1.
         -5    1    3    3    0  502  0.10071920816E+02  0.58358717648E+02  0.19346124762E+02  0.62441400190E+02  0.41800000000E+01 0. -1.
        -11    1    1    2    0    0  0.33661498877E+02 -0.44886311899E+02  0.11759172001E+02  0.57325000032E+02  0.00000000000E+00 0.  1.
         11    1    1    2    0    0 -0.71193083490E+01  0.35528834695E+02 -0.50599377059E+01  0.36586686318E+02  0.00000000000E+00 0. -1.
</event>
<event>
 7    1  0.2900135E-009  0.1400399E+03  0.7561462E-02  0.1213275E+00
          2   -1    0    0  501    0  0.00000000000E+00  0.00000000000E+00  0.92183058866E+02  0.92183058866E+02  0.00000000000E+00 0. -1.
         -2   -1    0    0    0  501 -0.00000000000E+00 -0.00000000000E+00 -0.21704858287E+03  0.21704858287E+03  0.00000000000E+00 0.  1.
         25    2    1    2    0    0 -0.30979206184E+02 -0.84515555676E+02 -0.61169759549E+02  0.16580724788E+03  0.12509082140E+03 0.  0.
          5    1    3    3  502    0 -0.18599926315E+02  0.31673726699E+02 -0.18537921679E+02  0.41355884250E+02  0.41800000000E+01 0. -1.
         -5    1    3    3    0  502 -0.12379279869E+02 -0.11618928238E+03 -0.42631837870E+02  0.12445136363E+03  0.41800000000E+01 0. -1.
        -11    1    1    2    0    0  0.51718016636E+02  0.15299419774E+02 -0.13977401064E+02  0.55715287226E+02  0.00000000000E+00 0. -1.
         11    1    1    2    0    0 -0.20738810452E+02  0.69216135902E+02 -0.49718363393E+02  0.87709106635E+02  0.00000000000E+00 0.  1.
</event>
<event>
 7    1  0.2900135E-009  0.1170937E+03  0.7561462E-02  0.1247970E+00
          2   -1    0    0  501    0  0.00000000000E+00  0.00000000000E+00  0.26927351851E+03  0.26927351851E+03  0.00000000000E+00 0. -1.
         -2   -1    0    0    0  501 -0.00000000000E+00 -0.00000000000E+00 -0.63587919161E+02  0.63587919161E+02  0.00000000000E+00 0.  1.
         25    2    1    2    0    0  0.49542126755E+02 -0.44354725562E+02  0.97106471832E+02  0.17175283722E+03  0.12509039219E+03 0.  0.
          5    1    3    3  502    0 -0.27785712893E+02 -0.19543913593E+02  0.82251906055E+02  0.89089050108E+02  0.41800000000E+01 0. -1.
         -5    1    3    3    0  502  0.77327839649E+02 -0.24810811970E+02  0.14854565777E+02  0.82663787112E+02  0.41800000000E+01 0. -1.
        -11    1    1    2    0    0 -0.79734684440E+02  0.29761966582E+02  0.83543081898E+02  0.11925955346E+03  0.00000000000E+00 0. -1.
         11    1    1    2    0    0  0.30192557684E+02  0.14592758981E+02  0.25036045621E+02  0.41849046997E+02  0.00000000000E+00 0.  1.
</event>
<event>
 7    1  0.2900135E-009  0.1235732E+03  0.7561462E-02  0.1237316E+00
          2   -1    0    0  501    0  0.00000000000E+00  0.00000000000E+00  0.21582604989E+03  0.21582604989E+03  0.00000000000E+00 0.  1.
         -2   -1    0    0    0  501 -0.00000000000E+00 -0.00000000000E+00 -0.89935026345E+02  0.89935026345E+02  0.00000000000E+00 0. -1.
         25    2    1    2    0    0  0.59208007255E+02  0.63390415902E+02  0.77804257953E+02  0.17095485266E+03  0.12509247036E+03 0.  0.
          5    1    3    3  502    0  0.43798365415E+01  0.73133122250E+02 -0.21672602661E+01  0.73415297828E+02  0.41800000000E+01 0. -1.
         -5    1    3    3    0  502  0.54828170714E+02 -0.97427063473E+01  0.79971518219E+02  0.97539554833E+02  0.41800000000E+01 0. -1.
        -11    1    1    2    0    0 -0.79265371858E+02 -0.52763119801E+02  0.56356240895E+02  0.11064796372E+03  0.00000000000E+00 0.  1.
         11    1    1    2    0    0  0.20057364602E+02 -0.10627296101E+02 -0.82694753080E+01  0.24158259852E+02  0.00000000000E+00 0. -1.
</event>
<event>
 7    1  0.4072122E-009  0.9115581E+02  0.7561462E-02  0.1300077E+00
          2   -1    0    0  501    0  0.00000000000E+00  0.00000000000E+00  0.90686401918E+03  0.90686401918E+03  0.00000000000E+00 0.  1.
         -2   -1    0    0    0  501 -0.00000000000E+00 -0.00000000000E+00 -0.15726983165E+02  0.15726983165E+02  0.00000000000E+00 0. -1.
         25    2    1    2    0    0 -0.47053482311E+02 -0.11690939876E+02  0.54641343161E+03  0.56264152200E+03  0.12508851172E+03 0.  0.
          5    1    3    3  502    0  0.28191871510E+00 -0.28513620050E+02  0.47130275560E+03  0.47218308508E+03  0.41800000000E+01 0.  1.
         -5    1    3    3    0  502 -0.47335401026E+02  0.16822680174E+02  0.75110676017E+02  0.90458436921E+02  0.41800000000E+01 0.  1.
        -11    1    1    2    0    0 -0.19503280453E+02 -0.21230157818E+02  0.11300869258E+03  0.11662787895E+03  0.00000000000E+00 0.  1.
         11    1    1    2    0    0  0.66556762764E+02  0.32921097694E+02  0.23171491183E+03  0.24332160139E+03  0.00000000000E+00 0. -1.
</event>
<event>
 7    1  0.2900135E-009  0.1137392E+03  0.7561462E-02  0.1253798E+00
         -1   -1    0    0    0  501 -0.00000000000E+00  0.00000000000E+00  0.79271426726E+02  0.79271426726E+02  0.00000000000E+00 0.  1.
          1   -1    0    0  501    0  0.00000000000E+00 -0.00000000000E+00 -0.18691402861E+03  0.18691402861E+03  0.00000000000E+00 0. -1.
         25    2    1    2    0    0 -0.58444811659E-01 -0.46108928541E+02 -0.86322912835E+02  0.15882737828E+03  0.12509378123E+03 0.  0.
          5    1    3    3  502    0  0.56025414198E+02 -0.40207932675E+02 -0.73443090048E+02  0.10083097124E+03  0.41800000000E+01 0.  1.
         -5    1    3    3    0  502 -0.56083859009E+02 -0.59009958663E+01 -0.12879822787E+02  0.57996407032E+02  0.41800000000E+01 0.  1.
        -11    1    1    2    0    0 -0.21729276633E+00 -0.27866521544E+02  0.59868586223E+01  0.28503205351E+02  0.00000000000E+00 0.  1.
         11    1    1    2    0    0  0.27573757799E+00  0.73975450085E+02 -0.27306547669E+02  0.78854871708E+02  0.00000000000E+00 0. -1.
</event>
<event>
 7    1  0.2900135E-009  0.1006857E+03  0.7561462E-02  0.1278861E+00
         -2   -1    0    0    0  501 -0.00000000000E+00  0.00000000000E+00  0.19040816285E+03  0.19040816285E+03  0.00000000000E+00 0. -1.
          2   -1    0    0  501    0  0.00000000000E+00 -0.00000000000E+00 -0.74974175723E+02  0.74974175723E+02  0.00000000000E+00 0.  1.
         25    2    1    2    0    0 -0.68112545236E+01  0.48212832957E+02  0.79868667479E+02  0.15622997355E+03  0.12513165123E+03 0.  0.
          5    1    3    3  502    0 -0.62122511873E+02  0.24545722613E+01  0.34893431610E+02  0.71416072252E+02  0.41800000000E+01 0. -1.
         -5    1    3    3    0  502  0.55311257350E+02  0.45758260696E+02  0.44975235869E+02  0.84813901295E+02  0.41800000000E+01 0. -1.
        -11    1    1    2    0    0  0.15532930425E+02 -0.54325552741E+02  0.60048971703E+02  0.82452511246E+02  0.00000000000E+00 0. -1.
         11    1    1    2    0    0 -0.87216759016E+01  0.61127197841E+01 -0.24483652057E+02  0.26699853777E+02  0.00000000000E+00 0.  1.
</event>
<event>
 7    1  0.2900135E-009  0.7125138E+02  0.7561462E-02  0.1355889E+00
         -1   -1    0    0    0  501 -0.00000000000E+00  0.00000000000E+00  0.62950377796E+03  0.62950377796E+03  0.00000000000E+00 0.  1.
          1   -1    0    0  501    0  0.00000000000E+00 -0.00000000000E+00 -0.35697746210E+02  0.35697746210E+02  0.00000000000E+00 0. -1.
         25    2    1    2    0    0 -0.32704039514E+02 -0.17773374407E+02  0.53785510132E+03  0.55346443775E+03  0.12509726935E+03 0.  0.
          5    1    3    3  502    0 -0.62289680669E+02 -0.62719093333E+01  0.12994823580E+03  0.14430300604E+03  0.41800000000E+01 0.  1.
         -5    1    3    3    0  502  0.29585641155E+02 -0.11501465074E+02  0.40790686552E+03  0.40916143171E+03  0.41800000000E+01 0.  1.
        -11    1    1    2    0    0  0.86449517655E+01 -0.84954647010E+01  0.71751849674E+02  0.72768372547E+02  0.00000000000E+00 0.  1.
         11    1    1    2    0    0  0.24059087748E+02  0.26268839108E+02 -0.15800919249E+02  0.38968713867E+02  0.00000000000E+00 0. -1.
</event>
<event>
 7    1  0.2900135E-009  0.1512317E+03  0.7561462E-02  0.1198968E+00
          1   -1    0    0  501    0  0.00000000000E+00  0.00000000000E+00  0.18755248432E+04  0.18755248432E+04  0.00000000000E+00 0. -1.
         -1   -1    0    0    0  501 -0.00000000000E+00 -0.00000000000E+00 -0.17993581706E+02  0.17993581706E+02  0.00000000000E+00 0.  1.
         25    2    1    2    0    0  0.13216882564E+03  0.44281991160E+02  0.12289887683E+04  0.12431776781E+04  0.12509138092E+03 0.  0.
          5    1    3    3  502    0  0.10798147623E+02 -0.82365698745E+01  0.10860719036E+02  0.17884873311E+02  0.41800000000E+01 0.  1.
         -5    1    3    3    0  502  0.12137067802E+03  0.52518561034E+02  0.12181280493E+04  0.12252928048E+04  0.41800000000E+01 0.  1.
        -11    1    1    2    0    0 -0.15518153898E+02  0.17950685796E+02  0.35231120225E+02  0.42476723664E+02  0.00000000000E+00 0.  1.
         11    1    1    2    0    0 -0.11665067175E+03 -0.62232676955E+02  0.59331137297E+03  0.60786402311E+03  0.00000000000E+00 0. -1.
</event>
<event>
 7    1  0.2900135E-009  0.1112498E+03  0.7561462E-02  0.1258273E+00
          2   -1    0    0  501    0  0.00000000000E+00  0.00000000000E+00  0.52538914212E+03  0.52538914212E+03  0.00000000000E+00 0. -1.
         -2   -1    0    0    0  501 -0.00000000000E+00 -0.00000000000E+00 -0.32145643893E+02  0.32145643893E+02  0.00000000000E+00 0.  1.
         25    2    1    2    0    0 -0.30848142122E+02 -0.51264172576E+02  0.35304751427E+03  0.37930159458E+03  0.12509008376E+03 0.  0.
          5    1    3    3  502    0 -0.61067426719E+02  0.78205364853E+01  0.24310160920E+03  0.25081119630E+03  0.41800000000E+01 0. -1.
         -5    1    3    3    0  502  0.30219284597E+02 -0.59084709061E+02  0.10994590508E+03  0.12849039828E+03  0.41800000000E+01 0. -1.
        -11    1    1    2    0    0  0.49062036572E+01 -0.18880731671E+02  0.19541684464E+00  0.19508742925E+02  0.00000000000E+00 0.  1.
         11    1    1    2    0    0  0.25941938464E+02  0.70144904247E+02  0.14000056711E+03  0.15872444851E+03  0.00000000000E+00 0. -1.
</event>
<event>
 7    1  0.2900135E-009  0.1817038E+03  0.7561462E-02  0.1166164E+00
          1   -1    0    0  501    0  0.00000000000E+00  0.00000000000E+00  0.54013499997E+03  0.54013499997E+03  0.00000000000E+00 0. -1.
         -1   -1    0    0    0  501 -0.00000000000E+00 -0.00000000000E+00 -0.70247624946E+02  0.70247624946E+02  0.00000000000E+00 0.  1.
         25    2    1    2    0    0  0.99808020187E+02 -0.10854575332E+03  0.34558980855E+03  0.39600916656E+03  0.12508845977E+03 0.  0.
          5    1    3    3  502    0 -0.44028513666E+00 -0.90421068415E+02  0.14368287696E+03  0.16981874159E+03  0.41800000000E+01 0. -1.
         -5    1    3    3    0  502  0.10024830532E+03 -0.18124684903E+02  0.20190693159E+03  0.22619042497E+03  0.41800000000E+01 0. -1.
        -11    1    1    2    0    0 -0.87890280559E+00  0.61284983530E+02  0.66486617987E+02  0.90427274910E+02  0.00000000000E+00 0. -1.
         11    1    1    2    0    0 -0.98929117382E+02  0.47260769788E+02  0.57810948495E+02  0.12394618345E+03  0.00000000000E+00 0.  1.
</event>
<event>
 7    1  0.2900135E-009  0.9059104E+02  0.7561462E-02  0.1301427E+00
         -2   -1    0    0    0  501 -0.00000000000E+00  0.00000000000E+00  0.31296712448E+02  0.31296712448E+02  0.00000000000E+00 0.  1.
          2   -1    0    0  501    0  0.00000000000E+00 -0.00000000000E+00 -0.43880704838E+03  0.43880704838E+03  0.00000000000E+00 0. -1.
         25    2    1    2    0    0 -0.23013197197E+02 -0.22617924686E+02 -0.29479046891E+03  0.32185742505E+03  0.12509837623E+03 0.  0.
          5    1    3    3  502    0 -0.48813080562E+02 -0.30520820757E+02 -0.52475507163E+02  0.78008900682E+02  0.41800000000E+01 0.  1.
         -5    1    3    3    0  502  0.25799883365E+02  0.79028960706E+01 -0.24231496175E+03  0.24384852436E+03  0.41800000000E+01 0.  1.
        -11    1    1    2    0    0  0.23003303315E+02 -0.33171304685E+02 -0.43530160435E+02  0.59366339666E+02  0.00000000000E+00 0. -1.
         11    1    1    2    0    0  0.98938821709E-02  0.55789229371E+02 -0.69189706583E+02  0.88879996111E+02  0.00000000000E+00 0.  1.
</event>
<event>
 7    1  0.2900135E-009  0.1049626E+03  0.7561462E-02  0.1270193E+00
         -3   -1    0    0    0  501 -0.00000000000E+00  0.00000000000E+00  0.22728795922E+02  0.22728795922E+02  0.00000000000E+00 0.  1.
          3   -1    0    0  501    0  0.00000000000E+00 -0.00000000000E+00 -0.82456245903E+03  0.82456245903E+03  0.00000000000E+00 0. -1.
         25    2    1    2    0    0 -0.41178414902E+02 -0.40456387060E-01 -0.65208709549E+03  0.66525776485E+03  0.12511854417E+03 0.  0.
          5    1    3    3  502    0 -0.74614808577E+02 -0.21708918254E+02 -0.55186781920E+03  0.55732773936E+03  0.41800000000E+01 0.  1.
         -5    1    3    3    0  502  0.33436393675E+02  0.21668461867E+02 -0.10021927629E+03  0.10793002549E+03  0.41800000000E+01 0.  1.
        -11    1    1    2    0    0  0.61676996314E+02  0.18567761951E+02 -0.13744299539E+03  0.15178732041E+03  0.00000000000E+00 0. -1.
         11    1    1    2    0    0 -0.20498581412E+02 -0.18527305564E+02 -0.12303572236E+02  0.30246169693E+02  0.00000000000E+00 0.  1.
</event>
<event>
 7    1  0.2900135E-009  0.2455749E+03  0.7561462E-02  0.1116134E+00
          2   -1    0    0  501    0  0.00000000000E+00  0.00000000000E+00  0.73260814533E+02  0.73260814533E+02  0.00000000000E+00 0. -1.
         -2   -1    0    0    0  501 -0.00000000000E+00 -0.00000000000E+00 -0.88175815067E+03  0.88175815067E+03  0.00000000000E+00 0.  1.
         25    2    1    2    0    0 -0.12378785247E+03  0.19342792163E+03 -0.42532471610E+03  0.49928642234E+03  0.12509206256E+03 0.  0.
          5    1    3    3  502    0 -0.14643101985E+03  0.13710320839E+03 -0.32397661160E+03  0.38107433735E+03  0.41800000000E+01 0.  1.
         -5    1    3    3    0  502  0.22643167372E+02  0.56324713243E+02 -0.10134810451E+03  0.11821208499E+03  0.41800000000E+01 0.  1.
        -11    1    1    2    0    0  0.93062088565E+02 -0.14729623823E+03 -0.20448800976E+03  0.26864861857E+03  0.00000000000E+00 0. -1.
         11    1    1    2    0    0  0.30725763908E+02 -0.46131683398E+02 -0.17868461027E+03  0.18708392430E+03  0.00000000000E+00 0.  1.
</event>
<event>
 7    1  0.2900135E-009  0.1445478E+03  0.7561462E-02  0.1207337E+00
          2   -1    0    0  501    0  0.00000000000E+00  0.00000000000E+00  0.66955816124E+03  0.66955816124E+03  0.00000000000E+00 0. -1.
         -2   -1    0    0    0  501 -0.00000000000E+00 -0.00000000000E+00 -0.41318787714E+02  0.41318787714E+02  0.00000000000E+00 0.  1.
         25    2    1    2    0    0 -0.60740983092E+01 -0.10453657697E+03  0.18545668122E+03  0.24699599804E+03  0.12509217339E+03 0.  0.
          5    1    3    3  502    0  0.25148816055E+02  0.20665705733E+02  0.50534755652E+02  0.60255856738E+02  0.41800000000E+01 0. -1.
         -5    1    3    3    0  502 -0.31222914365E+02 -0.12520228270E+03  0.13492192557E+03  0.18674014130E+03  0.41800000000E+01 0. -1.
        -11    1    1    2    0    0  0.30873574624E+02  0.15111752347E+02  0.52755724247E+02  0.62965936107E+02  0.00000000000E+00 0.  1.
         11    1    1    2    0    0 -0.24799476315E+02  0.89424824620E+02  0.39002696805E+03  0.40091501480E+03  0.00000000000E+00 0. -1.
</event>
<event>
 7    1  0.2900135E-009  0.1448318E+03  0.7561462E-02  0.1206971E+00
          2   -1    0    0  501    0  0.00000000000E+00  0.00000000000E+00  0.48829742467E+03  0.48829742467E+03  0.00000000000E+00 0. -1.
         -2   -1    0    0    0  501 -0.00000000000E+00 -0.00000000000E+00 -0.51763791875E+02  0.51763791875E+02  0.00000000000E+00 0.  1.
         25    2    1    2    0    0 -0.80231548165E+02 -0.69591029054E+02  0.30217562681E+03  0.34385682424E+03  0.12508954191E+03 0.  0.
          5    1    3    3  502    0  0.21658380151E+02 -0.38227090831E+02  0.16076859695E+03  0.16671655607E+03  0.41800000000E+01 0.  1.
         -5    1    3    3    0  502 -0.10188992832E+03 -0.31363938224E+02  0.14140702986E+03  0.17714026817E+03  0.41800000000E+01 0.  1.
        -11    1    1    2    0    0  0.43436589046E+02  0.87671494051E+02  0.71598864217E+02  0.12124118728E+03  0.00000000000E+00 0.  1.
         11    1    1    2    0    0  0.36794959119E+02 -0.18080464996E+02  0.62759141774E+02  0.74963205023E+02  0.00000000000E+00 0. -1.
</event>
<event>
 7    1  0.2900135E-009  0.1342725E+03  0.7561462E-02  0.1221250E+00
          2   -1    0    0  501    0  0.00000000000E+00  0.00000000000E+00  0.32506623840E+03  0.32506623840E+03  0.00000000000E+00 0. -1.
         -2   -1    0    0    0  501 -0.00000000000E+00 -0.00000000000E+00 -0.64275615878E+02  0.64275615878E+02  0.00000000000E+00 0.  1.
         25    2    1    2    0    0 -0.58125483959E+02  0.75710039557E+02  0.12776868963E+03  0.20268865104E+03  0.12508904522E+03 0.  0.
          5    1    3    3  502    0 -0.81846007724E+02  0.87395136205E+02  0.12878710068E+03  0.17589846081E+03  0.41800000000E+01 0.  1.
         -5    1    3    3    0  502  0.23720523765E+02 -0.11685096648E+02 -0.10184110498E+01  0.26790190227E+02  0.41800000000E+01 0.  1.
        -11    1    1    2    0    0  0.38218816680E+02 -0.89788126745E+02  0.72996673504E+02  0.12186508932E+03  0.00000000000E+00 0.  1.
         11    1    1    2    0    0  0.19906667279E+02  0.14078087188E+02  0.60025259389E+02  0.64788113923E+02  0.00000000000E+00 0. -1.
</event>
<event>
 7    1  0.2900135E-009  0.1602626E+03  0.7561462E-02  0.1188401E+00
          2   -1    0    0  501    0  0.00000000000E+00  0.00000000000E+00  0.62985734609E+03  0.62985734609E+03  0.00000000000E+00 0. -1.
         -2   -1    0    0    0  501 -0.00000000000E+00 -0.00000000000E+00 -0.48960914587E+02  0.48960914587E+02  0.00000000000E+00 0.  1.
         25    2    1    2    0    0  0.12426139638E+03 -0.26031542754E+02  0.21194872499E+03  0.27692609789E+03  0.12508903157E+03 0.  0.
          5    1    3    3  502    0  0.12684651775E+03 -0.59226861581E+02  0.19276575064E+03  0.23827288393E+03  0.41800000000E+01 0. -1.
         -5    1    3    3    0  502 -0.25851213657E+01  0.33195318827E+02  0.19182974346E+02  0.38653213958E+02  0.41800000000E+01 0. -1.
        -11    1    1    2    0    0 -0.66621108781E+02 -0.23773928548E+02  0.10086402971E+03  0.12319547192E+03  0.00000000000E+00 0.  1.
         11    1    1    2    0    0 -0.57640287600E+02  0.49805471302E+02  0.26808367681E+03  0.27869669086E+03  0.00000000000E+00 0. -1.
</event>
<event>
 7    1  0.2900135E-009  0.8146530E+02  0.7561462E-02  0.1324944E+00
          1   -1    0    0  501    0  0.00000000000E+00  0.00000000000E+00  0.47522776269E+03  0.47522776269E+03  0.00000000000E+00 0.  1.
         -1   -1    0    0    0  501 -0.00000000000E+00 -0.00000000000E+00 -0.26274408018E+02  0.26274408018E+02  0.00000000000E+00 0. -1.
         25    2    1    2    0    0 -0.79572418885E+01 -0.22940276827E+02  0.26970075637E+03  0.29828823994E+03  0.12509117516E+03 0.  0.
          5    1    3    3  502    0  0.92424220249E+01  0.26700209223E+02  0.23135770956E+03  0.23311410448E+03  0.41800000000E+01 0. -1.
         -5    1    3    3    0  502 -0.17199663913E+02 -0.49640486050E+02  0.38343046815E+02  0.65174135461E+02  0.41800000000E+01 0. -1.
        -11    1    1    2    0    0 -0.34668065327E+02  0.17057945742E+02  0.13907829710E+03  0.14434549176E+03  0.00000000000E+00 0.  1.
         11    1    1    2    0    0  0.42625307216E+02  0.58823310855E+01  0.40174301201E+02  0.58868439008E+02  0.00000000000E+00 0. -1.
</event>
<event>
 7    1  0.2900135E-009  0.1793623E+03  0.7561462E-02  0.1168422E+00
          1   -1    0    0  501    0  0.00000000000E+00  0.00000000000E+00  0.74764317575E+02  0.74764317575E+02  0.00000000000E+00 0. -1.
         -1   -1    0    0    0  501 -0.00000000000E+00 -0.00000000000E+00 -0.53698298770E+03  0.53698298770E+03  0.00000000000E+00 0.  1.
         25    2    1    2    0    0 -0.66691563582E+02  0.15281570968E+03 -0.21285110619E+03  0.29791477834E+03  0.12508883232E+03 0.  0.
          5    1    3    3  502    0 -0.49665099748E+02  0.16259279241E+03 -0.21866987440E+03  0.27701448454E+03  0.41800000000E+01 0.  1.
         -5    1    3    3    0  502 -0.17026463834E+02 -0.97770827273E+01  0.58187682123E+01  0.20900293798E+02  0.41800000000E+01 0.  1.
        -11    1    1    2    0    0  0.33214785045E+02 -0.10567666125E+03 -0.22558517001E+03  0.25131543447E+03  0.00000000000E+00 0.  1.
         11    1    1    2    0    0  0.33476778537E+02 -0.47139048432E+02 -0.23782393924E+02  0.62517092455E+02  0.00000000000E+00 0. -1.
</event>
<event>
 7    1  0.2900135E-009  0.1369176E+03  0.7561462E-02  0.1217538E+00
          1   -1    0    0  501    0  0.00000000000E+00  0.00000000000E+00  0.26146613038E+03  0.26146613038E+03  0.00000000000E+00 0. -1.
         -1   -1    0    0    0  501 -0.00000000000E+00 -0.00000000000E+00 -0.13059835362E+03  0.13059835362E+03  0.00000000000E+00 0.  1.
         25    2    1    2    0    0  0.12952962867E+03 -0.35038302048E+02  0.13796736015E+03  0.22953929104E+03  0.12509071249E+03 0.  0.
          5    1    3    3  502    0  0.11363951188E+03 -0.18792888657E+02  0.16027976689E+03  0.19741881217E+03  0.41800000000E+01 0. -1.
         -5    1    3    3    0  502  0.15890116790E+02 -0.16245413392E+02 -0.22312406746E+02  0.32120478868E+02  0.41800000000E+01 0. -1.
        -11    1    1    2    0    0 -0.80705642463E+02  0.12396967947E+02  0.40076397049E+02  0.90957150022E+02  0.00000000000E+00 0. -1.
         11    1    1    2    0    0 -0.48823986208E+02  0.22641334102E+02 -0.47175980440E+02  0.71568042935E+02  0.00000000000E+00 0.  1.
</event>
<event>
 7    1  0.2900135E-009  0.1605485E+03  0.7561462E-02  0.1188079E+00
         -1   -1    0    0    0  501 -0.00000000000E+00  0.00000000000E+00  0.11962365141E+03  0.11962365141E+03  0.00000000000E+00 0.  1.
          1   -1    0    0  501    0  0.00000000000E+00 -0.00000000000E+00 -0.22932740164E+03  0.22932740164E+03  0.00000000000E+00 0. -1.
         25    2    1    2    0    0  0.22213938568E+02  0.11752000037E+03 -0.94322403911E+02  0.19710027576E+03  0.12508954101E+03 0.  0.
          5    1    3    3  502    0  0.58813216479E+02  0.12192703776E+03 -0.67528590021E+02  0.15133664407E+03  0.41800000000E+01 0.  1.
         -5    1    3    3    0  502 -0.36599277912E+02 -0.44070373824E+01 -0.26793813889E+02  0.45763631684E+02  0.41800000000E+01 0.  1.
        -11    1    1    2    0    0 -0.21126026466E+02  0.83287262035E+01 -0.12592871593E+02  0.25966460855E+02  0.00000000000E+00 0.  1.
         11    1    1    2    0    0 -0.10879121020E+01 -0.12584872658E+03 -0.27884747344E+01  0.12588431644E+03  0.00000000000E+00 0. -1.
</event>
<event>
 7    1  0.2900135E-009  0.9896524E+02  0.7561462E-02  0.1282487E+00
          2   -1    0    0  501    0  0.00000000000E+00  0.00000000000E+00  0.29354361207E+03  0.29354361207E+03  0.00000000000E+00 0. -1.
         -2   -1    0    0    0  501 -0.00000000000E+00 -0.00000000000E+00 -0.67877248485E+02  0.67877248485E+02  0.00000000000E+00 0.  1.
         25    2    1    2    0    0  0.21749215822E+02 -0.43858652445E+02  0.25177425822E+02  0.13666824169E+03  0.12509074998E+03 0.  0.
          5    1    3    3  502    0 -0.28412910974E+01  0.28882736081E+02 -0.30055396118E+02  0.41989101138E+02  0.41800000000E+01 0. -1.
         -5    1    3    3    0  502  0.24590506919E+02 -0.72741388526E+02  0.55232821940E+02  0.94679140547E+02  0.41800000000E+01 0. -1.
        -11    1    1    2    0    0 -0.26255271442E+02 -0.16613418704E+02  0.12012008698E+03  0.12407328582E+03  0.00000000000E+00 0.  1.
         11    1    1    2    0    0  0.45060556206E+01  0.60472071149E+02  0.80368850789E+02  0.10067933305E+03  0.00000000000E+00 0. -1.
</event>
<event>
 7    1  0.2900135E-009  0.1574071E+03  0.7561462E-02  0.1191656E+00
          2   -1    0    0  501    0  0.00000000000E+00  0.00000000000E+00  0.42004728165E+03  0.42004728165E+03  0.00000000000E+00 0. -1.
         -2   -1    0    0    0  501 -0.00000000000E+00 -0.00000000000E+00 -0.64569684410E+02  0.64569684410E+02  0.00000000000E+00 0.  1.
         25    2    1    2    0    0 -0.12024023171E+03 -0.11058253194E+02  0.15250382676E+03  0.23126754187E+03  0.12508901015E+03 0.  0.
          5    1    3    3  502    0 -0.12311473149E+03  0.27446131521E+02  0.14405909517E+03  0.19152290345E+03  0.41800000000E+01 0. -1.
         -5    1    3    3    0  502  0.28744997841E+01 -0.38504384716E+02  0.84447315936E+01  0.39744638418E+02  0.41800000000E+01 0. -1.
        -11    1    1    2    0    0  0.65069269353E+02 -0.38503252243E+02  0.12214684839E+03  0.14365362098E+03  0.00000000000E+00 0. -1.
         11    1    1    2    0    0  0.55170962356E+02  0.49561505437E+02  0.80826922080E+02  0.10969580321E+03  0.00000000000E+00 0.  1.
</event>
<event>
 7    1  0.2900135E-009  0.1039341E+03  0.7561462E-02  0.1272234E+00
          2   -1    0    0  501    0  0.00000000000E+00  0.00000000000E+00  0.51367107914E+03  0.51367107914E+03  0.00000000000E+00 0. -1.
         -2   -1    0    0    0  501 -0.00000000000E+00 -0.00000000000E+00 -0.29364059492E+02  0.29364059492E+02  0.00000000000E+00 0.  1.
         25    2    1    2    0    0  0.40150480246E+02 -0.43344067119E+02  0.26418537368E+03  0.29821453793E+03  0.12508888740E+03 0.  0.
          5    1    3    3  502    0  0.77090667602E+02  0.89355039661E+00  0.11791473322E+03  0.14094369859E+03  0.41800000000E+01 0. -1.
         -5    1    3    3    0  502 -0.36940187356E+02 -0.44237617516E+02  0.14627064046E+03  0.15727083934E+03  0.41800000000E+01 0. -1.
        -11    1    1    2    0    0 -0.28786733357E+02  0.51422834269E+02  0.22293852098E+03  0.23059611453E+03  0.00000000000E+00 0. -1.
         11    1    1    2    0    0 -0.11363746890E+02 -0.80787671498E+01 -0.28168750052E+01  0.14224486171E+02  0.00000000000E+00 0.  1.
</event>
<event>
 7    1  0.2900135E-009  0.1428277E+03  0.7561462E-02  0.1209574E+00
          2   -1    0    0  501    0  0.00000000000E+00  0.00000000000E+00  0.81625719348E+03  0.81625719348E+03  0.00000000000E+00 0. -1.
         -2   -1    0    0    0  501 -0.00000000000E+00 -0.00000000000E+00 -0.39995340641E+02  0.39995340641E+02  0.00000000000E+00 0.  1.
         25    2    1    2    0    0  0.34520271856E+02  0.13023638231E+03  0.54613244428E+03  0.57624192112E+03  0.12506374578E+03 0.  0.
          5    1    3    3  502    0 -0.29197415068E+00  0.50082254488E+02  0.44778964376E+02  0.67312298387E+02  0.41800000000E+01 0.  1.
         -5    1    3    3    0  502  0.34812246006E+02  0.80154127824E+02  0.50135347990E+03  0.50892962273E+03  0.41800000000E+01 0.  1.
        -11    1    1    2    0    0 -0.52168228345E+02 -0.91110359786E+02  0.20487697842E+03  0.23021120302E+03  0.00000000000E+00 0. -1.
         11    1    1    2    0    0  0.17647956490E+02 -0.39126022527E+02  0.25252430137E+02  0.49799409985E+02  0.00000000000E+00 0.  1.
</event>
<event>
 7    1  0.2900135E-009  0.1358165E+03  0.7561462E-02  0.1219072E+00
          2   -1    0    0  501    0  0.00000000000E+00  0.00000000000E+00  0.30256995523E+03  0.30256995523E+03  0.00000000000E+00 0. -1.
         -2   -1    0    0    0  501 -0.00000000000E+00 -0.00000000000E+00 -0.91875114987E+02  0.91875114987E+02  0.00000000000E+00 0.  1.
         25    2    1    2    0    0 -0.37426616913E+02  0.11592528255E+03  0.15193236488E+03  0.23145271442E+03  0.12508993854E+03 0.  0.
          5    1    3    3  502    0 -0.54905237534E+01  0.28995660381E+02  0.13368755788E+03  0.13696981311E+03  0.41800000000E+01 0.  1.
         -5    1    3    3    0  502 -0.31936093160E+02  0.86929622170E+02  0.18244807005E+02  0.94482901308E+02  0.41800000000E+01 0.  1.
        -11    1    1    2    0    0 -0.80042518844E+01 -0.10098022577E+03  0.24666634635E+02  0.10425697535E+03  0.00000000000E+00 0.  1.
         11    1    1    2    0    0  0.45430868797E+02 -0.14945056783E+02  0.34095840722E+02  0.58735380449E+02  0.00000000000E+00 0. -1.
</event>
<event>
 7    1  0.2900135E-009  0.7182926E+02  0.7561462E-02  0.1353981E+00
          2   -1    0    0  501    0  0.00000000000E+00  0.00000000000E+00  0.54741651705E+02  0.54741651705E+02  0.00000000000E+00 0.  1.
         -2   -1    0    0    0  501 -0.00000000000E+00 -0.00000000000E+00 -0.25585329572E+03  0.25585329572E+03  0.00000000000E+00 0. -1.
         25    2    1    2    0    0  0.64144947935E+01  0.28887546663E+02 -0.16242582373E+03  0.20713815319E+03  0.12509368568E+03 0.  0.
          5    1    3    3  502    0 -0.20754628599E+02 -0.20495304530E+02 -0.14504493737E+03  0.14800783213E+03  0.41800000000E+01 0.  1.
         -5    1    3    3    0  502  0.27169123393E+02  0.49382851193E+02 -0.17380886363E+02  0.59130321060E+02  0.41800000000E+01 0.  1.
        -11    1    1    2    0    0 -0.26906794480E+02 -0.25175174857E+02  0.19476405520E+02  0.41678476343E+02  0.00000000000E+00 0.  1.
         11    1    1    2    0    0  0.20492299686E+02 -0.37123718056E+01 -0.58162225803E+02  0.61778317889E+02  0.00000000000E+00 0. -1.
</event>
<event>
 7    1  0.2900135E-009  0.1167019E+03  0.7561462E-02  0.1248639E+00
         -1   -1    0    0    0  501 -0.00000000000E+00  0.00000000000E+00  0.74400437069E+03  0.74400437069E+03  0.00000000000E+00 0.  1.
          1   -1    0    0  501    0  0.00000000000E+00 -0.00000000000E+00 -0.32151878576E+02  0.32151878576E+02  0.00000000000E+00 0. -1.
         25    2    1    2    0    0  0.97613807373E+02 -0.15255221962E+02  0.50211846292E+03  0.52680832467E+03  0.12507151136E+03 0.  0.
          5    1    3    3  502    0  0.56796545311E+02 -0.42309153846E+02  0.44848670551E+03  0.45406355225E+03  0.41800000000E+01 0.  1.
         -5    1    3    3    0  502  0.40817262062E+02  0.27053931884E+02  0.53631757409E+02  0.72744772426E+02  0.41800000000E+01 0.  1.
        -11    1    1    2    0    0 -0.27523282940E+02  0.31018638956E+02  0.15088643629E+03  0.15648132069E+03  0.00000000000E+00 0. -1.
         11    1    1    2    0    0 -0.70090524433E+02 -0.15763416994E+02  0.58847592897E+02  0.92866603902E+02  0.00000000000E+00 0.  1.
</event>
<event>
 7    1  0.2900135E-009  0.1013966E+03  0.7561462E-02  0.1277386E+00
         -3   -1    0    0    0  501 -0.00000000000E+00  0.00000000000E+00  0.99102732481E+02  0.99102732481E+02  0.00000000000E+00 0.  1.
          3   -1    0    0  501    0  0.00000000000E+00 -0.00000000000E+00 -0.31357012701E+03  0.31357012701E+03  0.00000000000E+00 0. -1.
         25    2    1    2    0    0  0.56554755473E+00  0.68099354316E+02  0.25509169393E+02  0.14469184783E+03  0.12508865338E+03 0.  0.
          5    1    3    3  502    0 -0.21824625165E+02  0.51162423510E+02 -0.43068787397E+02  0.70471985149E+02  0.41800000000E+01 0.  1.
         -5    1    3    3    0  502  0.22390172720E+02  0.16936930806E+02  0.68577956790E+02  0.74219862686E+02  0.41800000000E+01 0.  1.
        -11    1    1    2    0    0  0.37935376228E+02  0.27078376139E+01 -0.64452420253E+02  0.74836753207E+02  0.00000000000E+00 0.  1.
         11    1    1    2    0    0 -0.38500923783E+02 -0.70807191930E+02 -0.17552414367E+03  0.19314425845E+03  0.00000000000E+00 0. -1.
</event>
<event>
 7    1  0.2900135E-009  0.1369552E+03  0.7561462E-02  0.1217486E+00
          1   -1    0    0  501    0  0.00000000000E+00  0.00000000000E+00  0.10988344160E+04  0.10988344160E+04  0.00000000000E+00 0. -1.
         -1   -1    0    0    0  501 -0.00000000000E+00 -0.00000000000E+00 -0.26979419362E+02  0.26979419362E+02  0.00000000000E+00 0.  1.
         25    2    1    2    0    0  0.10675563961E+03 -0.16053339260E+02  0.82545474125E+03  0.84182989932E+03  0.12509026038E+03 0.  0.
          5    1    3    3  502    0  0.13245639651E+03 -0.31128236883E+01  0.59747892319E+03  0.61200728975E+03  0.41800000000E+01 0.  1.
         -5    1    3    3    0  502 -0.25700756905E+02 -0.12940515572E+02  0.22797581806E+03  0.22982260957E+03  0.41800000000E+01 0.  1.
        -11    1    1    2    0    0 -0.53623921617E+02  0.23641212904E+02  0.40583262643E+02  0.71284171622E+02  0.00000000000E+00 0.  1.
         11    1    1    2    0    0 -0.53131717990E+02 -0.75878736439E+01  0.20581699274E+03  0.21269976442E+03  0.00000000000E+00 0. -1.
</event>
<event>
 7    1  0.2900135E-009  0.1437869E+03  0.7561462E-02  0.1208322E+00
         -2   -1    0    0    0  501 -0.00000000000E+00  0.00000000000E+00  0.55117951210E+03  0.55117951210E+03  0.00000000000E+00 0. -1.
          2   -1    0    0  501    0  0.00000000000E+00 -0.00000000000E+00 -0.42697465056E+02  0.42697465056E+02  0.00000000000E+00 0.  1.
         25    2    1    2    0    0 -0.90861778423E+02  0.50716727800E+02  0.22175403035E+03  0.27504824518E+03  0.12509451604E+03 0.  0.
          5    1    3    3  502    0 -0.34974108385E+01  0.71091636584E+02  0.11756573569E+03  0.13749700827E+03  0.41800000000E+01 0.  1.
         -5    1    3    3    0  502 -0.87364367584E+02 -0.20374908784E+02  0.10418829466E+03  0.13755123691E+03  0.41800000000E+01 0.  1.
        -11    1    1    2    0    0  0.77556728662E+00 -0.35014424308E+02  0.29371373791E+02  0.45708741096E+02  0.00000000000E+00 0.  1.
         11    1    1    2    0    0  0.90086211136E+02 -0.15702303492E+02  0.25735664290E+03  0.27311999087E+03  0.00000000000E+00 0. -1.
</event>
<event>
 7    1  0.2900135E-009  0.1392809E+03  0.7561462E-02  0.1214300E+00
         -1   -1    0    0    0  501 -0.00000000000E+00  0.00000000000E+00  0.10679677195E+04  0.10679677195E+04  0.00000000000E+00 0.  1.
          1   -1    0    0  501    0  0.00000000000E+00 -0.00000000000E+00 -0.21449089752E+02  0.21449089752E+02  0.00000000000E+00 0. -1.
         25    2    1    2    0    0  0.40570505676E+02 -0.86637799330E+02  0.72280970867E+03  0.73976564114E+03  0.12508898696E+03 0.  0.
          5    1    3    3  502    0 -0.30102841913E+02  0.47822419661E+01  0.65528142773E+02  0.72391027239E+02  0.41800000000E+01 0.  1.
         -5    1    3    3    0  502  0.70673347589E+02 -0.91420041296E+02  0.65728156590E+03  0.66737461390E+03  0.41800000000E+01 0.  1.
        -11    1    1    2    0    0 -0.61243918109E+02  0.23273854007E+02  0.16065847621E+03  0.17350399351E+03  0.00000000000E+00 0.  1.
         11    1    1    2    0    0  0.20673412433E+02  0.63363945324E+02  0.16305044486E+03  0.17614717459E+03  0.00000000000E+00 0. -1.
</event>
<event>
 7    1  0.2900135E-009  0.9723101E+02  0.7561462E-02  0.1286229E+00
          2   -1    0    0  501    0  0.00000000000E+00  0.00000000000E+00  0.62412577957E+02  0.62412577957E+02  0.00000000000E+00 0. -1.
         -2   -1    0    0    0  501 -0.00000000000E+00 -0.00000000000E+00 -0.22655404572E+03  0.22655404572E+03  0.00000000000E+00 0.  1.
         25    2    1    2    0    0 -0.11067566483E+02  0.40654451485E+01 -0.15122126656E+03  0.19660587730E+03  0.12508789174E+03 0.  0.
          5    1    3    3  502    0 -0.45969159357E+02 -0.39357183883E+02 -0.11501930963E+03  0.13003486273E+03  0.41800000000E+01 0. -1.
         -5    1    3    3    0  502  0.34901592875E+02  0.43422629031E+02 -0.36201956922E+02  0.66571014580E+02  0.41800000000E+01 0. -1.
        -11    1    1    2    0    0 -0.31019303237E+02  0.11470727379E+02 -0.29711615314E+02  0.44458462012E+02  0.00000000000E+00 0.  1.
         11    1    1    2    0    0  0.42086869720E+02 -0.15536172527E+02  0.16791414104E+02  0.47902284363E+02  0.00000000000E+00 0. -1.
</event>
<event>
 7    1  0.2900135E-009  0.1008717E+03  0.7561462E-02  0.1278473E+00
         -3   -1    0    0    0  501 -0.00000000000E+00  0.00000000000E+00  0.85366981291E+02  0.85366981291E+02  0.00000000000E+00 0.  1.
          3   -1    0    0  501    0  0.00000000000E+00 -0.00000000000E+00 -0.14057793440E+03  0.14057793440E+03  0.00000000000E+00 0. -1.
         25    2    1    2    0    0  0.41408948218E+00  0.11306275435E+02 -0.16228598398E+02  0.12664863695E+03  0.12509399067E+03 0.  0.
          5    1    3    3  502    0  0.53820673118E+02  0.28152892845E+02 -0.31366281850E+02  0.68487708879E+02  0.41800000000E+01 0. -1.
         -5    1    3    3    0  502 -0.53406583635E+02 -0.16846617409E+02  0.15137683452E+02  0.58160928071E+02  0.41800000000E+01 0. -1.
        -11    1    1    2    0    0 -0.27587734681E+02  0.26428049733E+02 -0.36330552140E+02  0.52720337028E+02  0.00000000000E+00 0.  1.
         11    1    1    2    0    0  0.27173645199E+02 -0.37734325168E+02 -0.26518025671E+01  0.46575941710E+02  0.00000000000E+00 0. -1.
</event>
<event>
 7    1  0.2900135E-009  0.1025445E+03  0.7561462E-02  0.1275034E+00
          3   -1    0    0  501    0  0.00000000000E+00  0.00000000000E+00  0.67874568640E+02  0.67874568640E+02  0.00000000000E+00 0. -1.
         -3   -1    0    0    0  501 -0.00000000000E+00 -0.00000000000E+00 -0.23905481231E+03  0.23905481231E+03  0.00000000000E+00 0.  1.
         25    2    1    2    0    0 -0.34879461535E+01 -0.67728906026E+02 -0.10473031411E+03  0.17667883447E+03  0.12509037283E+03 0.  0.
          5    1    3    3  502    0 -0.42370696766E+02 -0.54150690038E+02 -0.11497691772E+03  0.13403259747E+03  0.41800000000E+01 0. -1.
         -5    1    3    3    0  502  0.38882750613E+02 -0.13578215988E+02  0.10246603608E+02  0.42646236998E+02  0.41800000000E+01 0. -1.
        -11    1    1    2    0    0 -0.15585404523E+02 -0.74304546090E+01 -0.47337602652E+02  0.50388144585E+02  0.00000000000E+00 0.  1.
         11    1    1    2    0    0  0.19073350677E+02  0.75159360635E+02 -0.19112326907E+02  0.79862401898E+02  0.00000000000E+00 0. -1.
</event>
<event>
 7    1  0.2900135E-009  0.8471273E+02  0.7561462E-02  0.1316186E+00
         -3   -1    0    0    0  501 -0.00000000000E+00  0.00000000000E+00  0.13544852439E+03  0.13544852439E+03  0.00000000000E+00 0.  1.
          3   -1    0    0  501    0  0.00000000000E+00 -0.00000000000E+00 -0.12361164968E+03  0.12361164968E+03  0.00000000000E+00 0. -1.
         25    2    1    2    0    0 -0.45838909581E+02 -0.93150848393E+01  0.59339486299E+02  0.14618799983E+03  0.12514703441E+03 0.  0.
          5    1    3    3  502    0 -0.45651755792E+02  0.39781262336E+02 -0.95981402821E+01  0.61451023887E+02  0.41800000000E+01 0.  1.
         -5    1    3    3    0  502 -0.18715378918E+00 -0.49096347175E+02  0.68937626581E+02  0.84736975938E+02  0.41800000000E+01 0.  1.
        -11    1    1    2    0    0  0.10914974718E+02 -0.13784186004E+02  0.24155768396E+02  0.29877108356E+02  0.00000000000E+00 0.  1.
         11    1    1    2    0    0  0.34923934863E+02  0.23099270843E+02 -0.71658379981E+02  0.82995065885E+02  0.00000000000E+00 0. -1.
</event>
<event>
 7    1  0.2900135E-009  0.1234025E+03  0.7561462E-02  0.1237587E+00
         -2   -1    0    0    0  501 -0.00000000000E+00  0.00000000000E+00  0.48310843386E+02  0.48310843386E+02  0.00000000000E+00 0.  1.
          2   -1    0    0  501    0  0.00000000000E+00 -0.00000000000E+00 -0.37305631804E+03  0.37305631804E+03  0.00000000000E+00 0. -1.
         25    2    1    2    0    0 -0.40360360625E+02 -0.42316512339E+02 -0.98740057953E+02  0.16975427441E+03  0.12508904313E+03 0.  0.
          5    1    3    3  502    0  0.74126538773E-01  0.42885623848E+02 -0.38388613464E+02  0.57709100420E+02  0.41800000000E+01 0.  1.
         -5    1    3    3    0  502 -0.40434487164E+02 -0.85202136187E+02 -0.60351444489E+02  0.11204517399E+03  0.41800000000E+01 0.  1.
        -11    1    1    2    0    0 -0.30215217513E+02  0.12625996400E+02 -0.51233780577E+02  0.60805225324E+02  0.00000000000E+00 0.  1.
         11    1    1    2    0    0  0.70575578139E+02  0.29690515938E+02 -0.17477163612E+03  0.19080766169E+03  0.00000000000E+00 0. -1.
</event>
<event>
 7    1  0.2900135E-009  0.1116315E+03  0.7561462E-02  0.1257578E+00
         -2   -1    0    0    0  501 -0.00000000000E+00  0.00000000000E+00  0.30535368336E+02  0.30535368336E+02  0.00000000000E+00 0.  1.
          2   -1    0    0  501    0  0.00000000000E+00 -0.00000000000E+00 -0.46527696442E+03  0.46527696442E+03  0.00000000000E+00 0. -1.
         25    2    1    2    0    0 -0.36541031905E+02  0.32726775865E+02 -0.29006405250E+03  0.31967187684E+03  0.12508663165E+03 0.  0.
          5    1    3    3  502    0 -0.56154962010E+02 -0.32371925692E+02 -0.11954722298E+03  0.13605268190E+03  0.41800000000E+01 0.  1.
         -5    1    3    3    0  502  0.19613930105E+02  0.65098701557E+02 -0.17051682952E+03  0.18361919493E+03  0.41800000000E+01 0.  1.
        -11    1    1    2    0    0 -0.21637677550E+02  0.31140348711E+01 -0.79010619331E+01  0.23244635566E+02  0.00000000000E+00 0.  1.
         11    1    1    2    0    0  0.58178709455E+02 -0.35840810736E+02 -0.13677648165E+03  0.15289582035E+03  0.00000000000E+00 0. -1.
</event>
<event>
 7    1  0.2900135E-009  0.8561568E+02  0.7561462E-02  0.1313830E+00
          3   -1    0    0  501    0  0.00000000000E+00  0.00000000000E+00  0.31465583974E+02  0.31465583974E+02  0.00000000000E+00 0. -1.
         -3   -1    0    0    0  501 -0.00000000000E+00 -0.00000000000E+00 -0.42356041890E+03  0.42356041890E+03  0.00000000000E+00 0.  1.
         25    2    1    2    0    0  0.26985648731E+02 -0.28853139527E+02 -0.21625190953E+03  0.25293134656E+03  0.12509455944E+03 0.  0.
          5    1    3    3  502    0  0.41815955937E+02  0.26658743816E+02 -0.30312726273E+02  0.58271747587E+02  0.41800000000E+01 0.  1.
         -5    1    3    3    0  502 -0.14830307207E+02 -0.55511883343E+02 -0.18593918325E+03  0.19465959897E+03  0.41800000000E+01 0.  1.
        -11    1    1    2    0    0 -0.41052751487E+02  0.13944545076E+02 -0.17633929706E+03  0.18159109678E+03  0.00000000000E+00 0.  1.
         11    1    1    2    0    0  0.14067102756E+02  0.14908594451E+02  0.49637166645E+00  0.20503559527E+02  0.00000000000E+00 0. -1.
</event>
<event>
 7    1  0.2900135E-009  0.4859588E+02  0.7561462E-02  0.1453066E+00
         -1   -1    0    0    0  501 -0.00000000000E+00  0.00000000000E+00  0.46626786785E+03  0.46626786785E+03  0.00000000000E+00 0.  1.
          1   -1    0    0  501    0  0.00000000000E+00 -0.00000000000E+00 -0.32613038379E+02  0.32613038379E+02  0.00000000000E+00 0. -1.
         25    2    1    2    0    0  0.72635563040E+01 -0.20175239412E+01  0.35990877798E+03  0.38110127081E+03  0.12508805098E+03 0.  0.
          5    1    3    3  502    0 -0.20378706525E+02  0.13527884207E+02  0.34485764507E+03  0.34574927779E+03  0.41800000000E+01 0. -1.
         -5    1    3    3    0  502  0.27642262829E+02 -0.15545408149E+02  0.15051132906E+02  0.35351993021E+02  0.41800000000E+01 0. -1.
        -11    1    1    2    0    0 -0.23632629206E+02  0.37514129019E+01  0.90905179774E+02  0.94001733876E+02  0.00000000000E+00 0.  1.
         11    1    1    2    0    0  0.16369072902E+02 -0.17338889607E+01 -0.17159128275E+02  0.23777901543E+02  0.00000000000E+00 0. -1.
</event>
<event>
 7    1  0.2900135E-009  0.9689776E+02  0.7561462E-02  0.1286958E+00
          1   -1    0    0  501    0  0.00000000000E+00  0.00000000000E+00  0.13958770709E+04  0.13958770709E+04  0.00000000000E+00 0. -1.
         -1   -1    0    0    0  501 -0.00000000000E+00 -0.00000000000E+00 -0.90217610996E+01  0.90217610996E+01  0.00000000000E+00 0.  1.
         25    2    1    2    0    0 -0.15715344066E+02 -0.79703497159E+01  0.96518944075E+03  0.97342083848E+03  0.12508786409E+03 0.  0.
          5    1    3    3  502    0  0.39320297478E+02  0.15704413174E+02  0.14708488424E+03  0.15311482606E+03  0.41800000000E+01 0.  1.
         -5    1    3    3    0  502 -0.55035641544E+02 -0.23674762890E+02  0.81810455650E+03  0.82030601242E+03  0.41800000000E+01 0.  1.
        -11    1    1    2    0    0  0.21314776642E+02  0.47081666650E+02  0.22142488252E+03  0.22737629964E+03  0.00000000000E+00 0. -1.
         11    1    1    2    0    0 -0.55994325765E+01 -0.39111316935E+02  0.20024098652E+03  0.20410169387E+03  0.00000000000E+00 0.  1.
</event>
<event>
 7    1  0.2900135E-009  0.9173171E+02  0.7561462E-02  0.1298711E+00
         -1   -1    0    0    0  501 -0.00000000000E+00  0.00000000000E+00  0.24331080580E+03  0.24331080580E+03  0.00000000000E+00 0.  1.
          1   -1    0    0  501    0  0.00000000000E+00 -0.00000000000E+00 -0.64760567231E+02  0.64760567231E+02  0.00000000000E+00 0. -1.
         25    2    1    2    0    0  0.48783677519E+02  0.40654193487E+02  0.99221036127E+02  0.17182339585E+03  0.12508339103E+03 0.  0.
          5    1    3    3  502    0  0.28360922240E+02 -0.43197079863E+01 -0.24870673312E+02  0.38197180241E+02  0.41800000000E+01 0.  1.
         -5    1    3    3    0  502  0.20422755280E+02  0.44973901474E+02  0.12409170944E+03  0.13362621561E+03  0.41800000000E+01 0.  1.
        -11    1    1    2    0    0 -0.66337770739E+02 -0.66955896826E+01  0.70458620573E+02  0.97004886273E+02  0.00000000000E+00 0.  1.
         11    1    1    2    0    0  0.17554093220E+02 -0.33958603805E+02  0.88705818688E+01  0.39243090906E+02  0.00000000000E+00 0. -1.
</event>
<event>
 7    1  0.2900135E-009  0.1032470E+03  0.7561462E-02  0.1273612E+00
          1   -1    0    0  501    0  0.00000000000E+00  0.00000000000E+00  0.85708457711E+02  0.85708457711E+02  0.00000000000E+00 0.  1.
         -1   -1    0    0    0  501 -0.00000000000E+00 -0.00000000000E+00 -0.21788512257E+03  0.21788512257E+03  0.00000000000E+00 0. -1.
         25    2    1    2    0    0  0.13418581166E+02 -0.67353977764E+02 -0.22719059746E+02  0.14449986425E+03  0.12508972160E+03 0.  0.
          5    1    3    3  502    0 -0.22794780454E+02 -0.14029674983E+02 -0.62860250965E+02  0.68449377992E+02  0.41800000000E+01 0.  1.
         -5    1    3    3    0  502  0.36213361620E+02 -0.53324302782E+02  0.40141191220E+02  0.76050486254E+02  0.41800000000E+01 0.  1.
        -11    1    1    2    0    0 -0.45900627024E+02  0.72221627369E+01 -0.36168056595E+02  0.58882556956E+02  0.00000000000E+00 0. -1.
         11    1    1    2    0    0  0.32482045858E+02  0.60131815028E+02 -0.73289548514E+02  0.10021115907E+03  0.00000000000E+00 0.  1.
</event>
<event>
 7    1  0.3136036E-009  0.8199935E+02  0.7561462E-02  0.1323471E+00
          1   -1    0    0  501    0  0.00000000000E+00  0.00000000000E+00  0.78002583466E+03  0.78002583466E+03  0.00000000000E+00 0. -1.
         -1   -1    0    0    0  501 -0.00000000000E+00 -0.00000000000E+00 -0.23545758747E+02  0.23545758747E+02  0.00000000000E+00 0.  1.
         25    2    1    2    0    0 -0.32829702334E+02  0.15445800488E+02  0.63148349521E+03  0.64477543229E+03  0.12509033237E+03 0.  0.
          5    1    3    3  502    0 -0.32418083066E+02  0.35669567396E+02  0.84258719044E+02  0.97160970985E+02  0.41800000000E+01 0. -1.
         -5    1    3    3    0  502 -0.41161926792E+00 -0.20223766908E+02  0.54722477616E+03  0.54761446130E+03  0.41800000000E+01 0. -1.
        -11    1    1    2    0    0 -0.89343844822E+00 -0.48048151694E+02  0.82635370565E+02  0.95593031032E+02  0.00000000000E+00 0. -1.
         11    1    1    2    0    0  0.33723140782E+02  0.32602351206E+02  0.42361210141E+02  0.63203130089E+02  0.00000000000E+00 0.  1.
</event>
<event>
 7    1  0.2900135E-009  0.8242227E+02  0.7561462E-02  0.1322315E+00
         -1   -1    0    0    0  501 -0.00000000000E+00  0.00000000000E+00  0.51120227257E+03  0.51120227257E+03  0.00000000000E+00 0.  1.
          1   -1    0    0  501    0  0.00000000000E+00 -0.00000000000E+00 -0.29410585458E+02  0.29410585458E+02  0.00000000000E+00 0. -1.
         25    2    1    2    0    0  0.49575796401E+02  0.23022968336E+02  0.21412863393E+03  0.25394317115E+03  0.12509294803E+03 0.  0.
          5    1    3    3  502    0  0.40025030139E+02  0.37670002602E+02  0.22585111697E+03  0.23248060472E+03  0.41800000000E+01 0. -1.
         -5    1    3    3    0  502  0.95507662619E+01 -0.14647034266E+02 -0.11722483047E+02  0.21462566430E+02  0.41800000000E+01 0. -1.
        -11    1    1    2    0    0 -0.65063887066E+02 -0.13156446579E+01  0.11898174652E+03  0.13561598846E+03  0.00000000000E+00 0. -1.
         11    1    1    2    0    0  0.15488090665E+02 -0.21707323678E+02  0.14868130666E+03  0.15105369842E+03  0.00000000000E+00 0.  1.
</event>
<event>
 7    1  0.2900135E-009  0.1099637E+03  0.7561462E-02  0.1260637E+00
          2   -1    0    0  501    0  0.00000000000E+00  0.00000000000E+00  0.47352666336E+03  0.47352666336E+03  0.00000000000E+00 0. -1.
         -2   -1    0    0    0  501 -0.00000000000E+00 -0.00000000000E+00 -0.41966802838E+02  0.41966802838E+02  0.00000000000E+00 0.  1.
         25    2    1    2    0    0  0.48075390894E+02  0.43636184963E+02  0.34876823740E+03  0.37616846146E+03  0.12509223851E+03 0.  0.
          5    1    3    3  502    0  0.48260882035E+02 -0.22350445267E+02  0.26036404208E+03  0.26577351626E+03  0.41800000000E+01 0. -1.
         -5    1    3    3    0  502 -0.18549114184E+00  0.65986630230E+02  0.88404195315E+02  0.11039494520E+03  0.41800000000E+01 0. -1.
        -11    1    1    2    0    0 -0.69112664885E+02 -0.37037097315E+02  0.86738191072E+02  0.11692656163E+03  0.00000000000E+00 0.  1.
         11    1    1    2    0    0  0.21037273991E+02 -0.65990876478E+01 -0.39465679473E+01  0.22398443101E+02  0.00000000000E+00 0. -1.
</event>
<event>
 6    1  0.2900135E-009  0.1041592E+03  0.7561462E-02  0.1271785E+00
         -3   -1    0    0    0  501 -0.00000000000E+00  0.00000000000E+00  0.23037632346E+02  0.23037632346E+02  0.00000000000E+00 0.  1.
          3   -1    0    0  501    0  0.00000000000E+00 -0.00000000000E+00 -0.79530001751E+03  0.79530001751E+03  0.00000000000E+00 0. -1.
          5    1    1    2  502    0  0.16272935870E+02 -0.15614747259E+02 -0.21288371378E+01  0.23035475279E+02  0.41800000000E+01 0.  1.
         -5    1    1    2    0  502 -0.13280272271E+01 -0.63923505050E+02 -0.41563981569E+03  0.42054952971E+03  0.41800000000E+01 0.  1.
        -11    1    1    2    0    0 -0.28662122759E+02  0.95821681327E+02 -0.30078154733E+03  0.31697452754E+03  0.00000000000E+00 0. -1.
         11    1    1    2    0    0  0.13717214116E+02 -0.16283429017E+02 -0.53712185005E+02  0.57778117326E+02  0.00000000000E+00 0.  1.
</event>
<event>
 7    1  0.2900135E-009  0.1098076E+03  0.7561462E-02  0.1260927E+00
          2   -1    0    0  501    0  0.00000000000E+00  0.00000000000E+00  0.52359947834E+03  0.52359947834E+03  0.00000000000E+00 0. -1.
         -2   -1    0    0    0  501 -0.00000000000E+00 -0.00000000000E+00 -0.29515575554E+02  0.29515575554E+02  0.00000000000E+00 0.  1.
         25    2    1    2    0    0  0.32256012010E+02  0.47189761023E+02  0.32174043702E+03  0.34990226550E+03  0.12508941893E+03 0.  0.
          5    1    3    3  502    0 -0.42630712461E+02 -0.42150029473E+01  0.14338332230E+03  0.14970435334E+03  0.41800000000E+01 0.  1.
         -5    1    3    3    0  502  0.74886724471E+02  0.51404763970E+02  0.17835711472E+03  0.20019791216E+03  0.41800000000E+01 0.  1.
        -11    1    1    2    0    0  0.12731865748E+02  0.75409871258E+01 -0.20864864973E+01  0.14943905719E+02  0.00000000000E+00 0.  1.
         11    1    1    2    0    0 -0.44987877757E+02 -0.54730748149E+02  0.17442995226E+03  0.18826888267E+03  0.00000000000E+00 0. -1.
</event>
<event>
 7    1  0.2900135E-009  0.1091440E+03  0.7561462E-02  0.1262163E+00
         -1   -1    0    0    0  501 -0.00000000000E+00  0.00000000000E+00  0.18237984788E+02  0.18237984788E+02  0.00000000000E+00 0.  1.
          1   -1    0    0  501    0  0.00000000000E+00 -0.00000000000E+00 -0.65978877608E+03  0.65978877608E+03  0.00000000000E+00 0. -1.
         25    2    1    2    0    0  0.13608275453E+02  0.11151671203E+02 -0.38544166573E+03  0.40560256200E+03  0.12505445090E+03 0.  0.
          5    1    3    3  502    0 -0.35791508144E+02  0.50842389509E+02 -0.20823235168E+03  0.21735722973E+03  0.41800000000E+01 0. -1.
         -5    1    3    3    0  502  0.49399783597E+02 -0.39690718306E+02 -0.17720931405E+03  0.18824533228E+03  0.41800000000E+01 0. -1.
        -11    1    1    2    0    0 -0.54760195852E+01  0.40149759267E+02 -0.12485885029E+03  0.13126965550E+03  0.00000000000E+00 0.  1.
         11    1    1    2    0    0 -0.81322558677E+01 -0.51301430470E+02 -0.13125027527E+03  0.14115454337E+03  0.00000000000E+00 0. -1.
</event>
<event>
 7    1  0.2900135E-009  0.1182723E+03  0.7561462E-02  0.1245975E+00
         -2   -1    0    0    0  501 -0.00000000000E+00  0.00000000000E+00  0.13754320130E+02  0.13754320130E+02  0.00000000000E+00 0.  1.
          2   -1    0    0  501    0  0.00000000000E+00 -0.00000000000E+00 -0.14978586095E+04  0.14978586095E+04  0.00000000000E+00 0. -1.
         25    2    1    2    0    0  0.19289570946E+02 -0.61990212955E+02 -0.11511746564E+04  0.11597697252E+04  0.12509137392E+03 0.  0.
          5    1    3    3  502    0 -0.32425466405E+02  0.98298963415E+01 -0.11902588089E+03  0.12382516083E+03  0.41800000000E+01 0.  1.
         -5    1    3    3    0  502  0.51715037351E+02 -0.71820109296E+02 -0.10321487755E+04  0.10359445644E+04  0.41800000000E+01 0.  1.
        -11    1    1    2    0    0  0.38061340435E+02  0.26064781828E+02 -0.13481035097E+03  0.14248462799E+03  0.00000000000E+00 0. -1.
         11    1    1    2    0    0 -0.57350911382E+02  0.35925431127E+02 -0.19811928198E+03  0.20935857644E+03  0.00000000000E+00 0.  1.
</event>
<event>
 7    1  0.2900135E-009  0.1152886E+03  0.7561462E-02  0.1251078E+00
          1   -1    0    0  501    0  0.00000000000E+00  0.00000000000E+00  0.16048172505E+03  0.16048172505E+03  0.00000000000E+00 0. -1.
         -1   -1    0    0    0  501 -0.00000000000E+00 -0.00000000000E+00 -0.10221595867E+03  0.10221595867E+03  0.00000000000E+00 0.  1.
         25    2    1    2    0    0  0.46308075465E+02 -0.20847565530E+02 -0.15412421533E+02  0.13588552665E+03  0.12509306445E+03 0.  0.
          5    1    3    3  502    0 -0.42481059215E+02 -0.76906186973E+01 -0.15409912135E+02  0.46029597000E+02  0.41800000000E+01 0. -1.
         -5    1    3    3    0  502  0.88789134680E+02 -0.13156946833E+02 -0.25093981278E-02  0.89855929651E+02  0.41800000000E+01 0. -1.
        -11    1    1    2    0    0 -0.42318003052E+02 -0.26435682536E+02  0.58725583361E+02  0.77060708760E+02  0.00000000000E+00 0. -1.
         11    1    1    2    0    0 -0.39900724131E+01  0.47283248067E+02  0.14952604549E+02  0.49751448304E+02  0.00000000000E+00 0.  1.
</event>
<event>
 7    1  0.2900135E-009  0.7088181E+02  0.7561462E-02  0.1357120E+00
         -1   -1    0    0    0  501 -0.00000000000E+00  0.00000000000E+00  0.13432132882E+03  0.13432132882E+03  0.00000000000E+00 0. -1.
          1   -1    0    0  501    0  0.00000000000E+00 -0.00000000000E+00 -0.94929132775E+02  0.94929132775E+02  0.00000000000E+00 0.  1.
         25    2    1    2    0    0  0.11182968809E+02  0.32850105488E+02  0.22806278122E+02  0.13180422377E+03  0.12509212149E+03 0.  0.
          5    1    3    3  502    0 -0.73966153436E+01  0.40438022973E+02 -0.44925179022E+02  0.61038411928E+02  0.41800000000E+01 0. -1.
         -5    1    3    3    0  502  0.18579584153E+02 -0.75879174845E+01  0.67731457144E+02  0.70765811843E+02  0.41800000000E+01 0. -1.
        -11    1    1    2    0    0  0.28890843122E+02 -0.26814438249E+02  0.35203391486E+02  0.52848592100E+02  0.00000000000E+00 0. -1.
         11    1    1    2    0    0 -0.40073811931E+02 -0.60356672390E+01 -0.18617473566E+02  0.44597645719E+02  0.00000000000E+00 0.  1.
</event>
<event>
 7    1  0.2900135E-009  0.9798574E+02  0.7561462E-02  0.1284590E+00
          2   -1    0    0  501    0  0.00000000000E+00  0.00000000000E+00  0.50960570821E+03  0.50960570821E+03  0.00000000000E+00 0. -1.
         -2   -1    0    0    0  501 -0.00000000000E+00 -0.00000000000E+00 -0.27715074493E+02  0.27715074493E+02  0.00000000000E+00 0.  1.
         25    2    1    2    0    0 -0.28555097659E+02  0.33267740242E+02  0.21281333918E+03  0.25071681599E+03  0.12508904166E+03 0.  0.
          5    1    3    3  502    0 -0.24864830180E+02 -0.28631838608E+02  0.17242710975E+03  0.17659734578E+03  0.41800000000E+01 0. -1.
         -5    1    3    3    0  502 -0.36902674791E+01  0.61899578850E+02  0.40386229433E+02  0.74119470207E+02  0.41800000000E+01 0. -1.
        -11    1    1    2    0    0 -0.18271616144E+02 -0.43988014718E+02  0.98836485832E+02  0.10971530580E+03  0.00000000000E+00 0.  1.
         11    1    1    2    0    0  0.46826713803E+02  0.10720274476E+02  0.17024080870E+03  0.17688866091E+03  0.00000000000E+00 0. -1.
</event>
<event>
 7    1  0.2900135E-009  0.1022245E+03  0.7561462E-02  0.1275687E+00
          1   -1    0    0  501    0  0.00000000000E+00  0.00000000000E+00  0.27989256724E+03  0.27989256724E+03  0.00000000000E+00 0. -1.
         -1   -1    0    0    0  501 -0.00000000000E+00 -0.00000000000E+00 -0.51757771275E+02  0.51757771275E+02  0.00000000000E+00 0.  1.
         25    2    1    2    0    0 -0.15462608392E+02 -0.28308836622E+02  0.19890511095E+03  0.23717452682E+03  0.12509208817E+03 0.  0.
          5    1    3    3  502    0 -0.23206976787E+02 -0.75088971231E+02  0.98700791757E+02  0.12623880570E+03  0.41800000000E+01 0.  1.
         -5    1    3    3    0  502  0.77443683945E+01  0.46780134608E+02  0.10020431919E+03  0.11093572112E+03  0.41800000000E+01 0.  1.
        -11    1    1    2    0    0 -0.28677064514E+02  0.12024233975E+02  0.35294257001E+02  0.47038716065E+02  0.00000000000E+00 0. -1.
         11    1    1    2    0    0  0.44139672906E+02  0.16284602648E+02 -0.60645719882E+01  0.47437095622E+02  0.00000000000E+00 0.  1.
</event>
<event>
 7    1  0.2900135E-009  0.1899389E+03  0.7561462E-02  0.1158516E+00
         -2   -1    0    0    0  501 -0.00000000000E+00  0.00000000000E+00  0.38789895446E+02  0.38789895446E+02  0.00000000000E+00 0.  1.
          2   -1    0    0  501    0  0.00000000000E+00 -0.00000000000E+00 -0.12110110725E+04  0.12110110725E+04  0.00000000000E+00 0. -1.
         25    2    1    2    0    0  0.14836626530E+03  0.11437044347E+03 -0.62253331045E+03  0.66204046110E+03  0.12512674575E+03 0.  0.
          5    1    3    3  502    0  0.14348749359E+03  0.10667610195E+03 -0.38736487972E+03  0.42665849808E+03  0.41800000000E+01 0. -1.
         -5    1    3    3    0  502  0.48787717063E+01  0.76943415173E+01 -0.23516843072E+03  0.23538196302E+03  0.41800000000E+01 0. -1.
        -11    1    1    2    0    0 -0.82733044135E+02 -0.40248004568E+02 -0.38292993512E+03  0.39382736532E+03  0.00000000000E+00 0. -1.
         11    1    1    2    0    0 -0.65633221163E+02 -0.74122438898E+02 -0.16675793149E+03  0.19393314153E+03  0.00000000000E+00 0.  1.
</event>
<event>
 7    1  0.2900135E-009  0.9272368E+02  0.7561462E-02  0.1296387E+00
         -4   -1    0    0    0  501 -0.00000000000E+00  0.00000000000E+00  0.54952767959E+03  0.54952767959E+03  0.00000000000E+00 0. -1.
          4   -1    0    0  501    0  0.00000000000E+00 -0.00000000000E+00 -0.23177044324E+02  0.23177044324E+02  0.00000000000E+00 0.  1.
         25    2    1    2    0    0 -0.15436327047E+02  0.24491210945E+02  0.34059943624E+03  0.36399569859E+03  0.12508714170E+03 0.  0.
          5    1    3    3  502    0  0.14954986022E+02 -0.33971589361E+02  0.24489569695E+03  0.24772786536E+03  0.41800000000E+01 0.  1.
         -5    1    3    3    0  502 -0.30391313069E+02  0.58462800307E+02  0.95703739291E+02  0.11626783323E+03  0.41800000000E+01 0.  1.
        -11    1    1    2    0    0  0.14169659632E+01 -0.51564801507E+02  0.59127110312E+02  0.78466245742E+02  0.00000000000E+00 0.  1.
         11    1    1    2    0    0  0.14019361084E+02  0.27073590562E+02  0.12662408871E+03  0.13024277958E+03  0.00000000000E+00 0. -1.
</event>
<event>
 7    1  0.2900135E-009  0.1376969E+03  0.7561462E-02  0.1216462E+00
         -1   -1    0    0    0  501 -0.00000000000E+00  0.00000000000E+00  0.69163888503E+02  0.69163888503E+02  0.00000000000E+00 0.  1.
          1   -1    0    0  501    0  0.00000000000E+00 -0.00000000000E+00 -0.38321179368E+03  0.38321179368E+03  0.00000000000E+00 0. -1.
         25    2    1    2    0    0 -0.10553298705E+03  0.44536459545E+02 -0.22121972008E+03  0.27875812209E+03  0.12508884240E+03 0.  0.
          5    1    3    3  502    0 -0.12622936543E+03  0.26999788929E+02 -0.12900290261E+03  0.18254331700E+03  0.41800000000E+01 0. -1.
         -5    1    3    3    0  502  0.20696378378E+02  0.17536670616E+02 -0.92216817471E+02  0.96214805092E+02  0.41800000000E+01 0. -1.
        -11    1    1    2    0    0  0.85476144839E+02 -0.48604927541E+02 -0.23179314502E+02  0.10102420967E+03  0.00000000000E+00 0.  1.
         11    1    1    2    0    0  0.20056842212E+02  0.40684679963E+01 -0.69648870591E+02  0.72593350426E+02  0.00000000000E+00 0. -1.
</event>
<event>
 7    1  0.2900135E-009  0.1601110E+03  0.7561462E-02  0.1188572E+00
         -3   -1    0    0    0  501 -0.00000000000E+00  0.00000000000E+00  0.18511418145E+03  0.18511418145E+03  0.00000000000E+00 0.  1.
          3   -1    0    0  501    0  0.00000000000E+00 -0.00000000000E+00 -0.14956725443E+03  0.14956725443E+03  0.00000000000E+00 0. -1.
         25    2    1    2    0    0 -0.32577824161E+02  0.12281392100E+03  0.27122376915E+01  0.17832596574E+03  0.12509284554E+03 0.  0.
          5    1    3    3  502    0  0.25675647709E+02 -0.72086318502E+01  0.21561338848E+02  0.34548038893E+02  0.41800000000E+01 0.  1.
         -5    1    3    3    0  502 -0.58253471869E+02  0.13002255285E+03 -0.18849101156E+02  0.14377792685E+03  0.41800000000E+01 0.  1.
        -11    1    1    2    0    0  0.33066419647E+02 -0.56736264792E+01  0.18577504208E+02  0.38349730224E+02  0.00000000000E+00 0. -1.
         11    1    1    2    0    0 -0.48859548625E+00 -0.11714029452E+03  0.14257185119E+02  0.11800573992E+03  0.00000000000E+00 0.  1.
</event>
<event>
 7    1  0.3051198E-009  0.1250680E+03  0.7561462E-02  0.1234963E+00
         -2   -1    0    0    0  501 -0.00000000000E+00  0.00000000000E+00  0.31950884988E+02  0.31950884988E+02  0.00000000000E+00 0.  1.
          2   -1    0    0  501    0  0.00000000000E+00 -0.00000000000E+00 -0.70005585693E+03  0.70005585693E+03  0.00000000000E+00 0. -1.
         25    2    1    2    0    0  0.92501471998E+02  0.37631614681E+02 -0.30467747135E+03  0.34416384808E+03  0.12509089509E+03 0.  0.
          5    1    3    3  502    0  0.81567187007E+02  0.69640956663E+02 -0.28560466682E+03  0.30510746787E+03  0.41800000000E+01 0. -1.
         -5    1    3    3    0  502  0.10934284992E+02 -0.32009341982E+02 -0.19072804523E+02  0.39056380206E+02  0.41800000000E+01 0. -1.
        -11    1    1    2    0    0 -0.63046027652E+02 -0.46063571017E+02 -0.34112412240E+03  0.34994616881E+03  0.00000000000E+00 0. -1.
         11    1    1    2    0    0 -0.29455444347E+02  0.84319563356E+01 -0.22303378194E+02  0.37896725032E+02  0.00000000000E+00 0.  1.
</event>
<event>
 7    1  0.2900135E-009  0.1779534E+03  0.7561462E-02  0.1169799E+00
          2   -1    0    0  501    0  0.00000000000E+00  0.00000000000E+00  0.46537765858E+03  0.46537765858E+03  0.00000000000E+00 0.  1.
         -2   -1    0    0    0  501 -0.00000000000E+00 -0.00000000000E+00 -0.10198716990E+03  0.10198716990E+03  0.00000000000E+00 0. -1.
         25    2    1    2    0    0 -0.15220487466E+03  0.54586697921E+02  0.58168117064E+02  0.21254842282E+03  0.12508905124E+03 0.  0.
          5    1    3    3  502    0 -0.35886398630E+02  0.67046954941E+02 -0.10427295260E+02  0.76872157899E+02  0.41800000000E+01 0. -1.
         -5    1    3    3    0  502 -0.11631847603E+03 -0.12460257020E+02  0.68595412324E+02  0.13567626492E+03  0.41800000000E+01 0. -1.
        -11    1    1    2    0    0  0.92319820924E+02 -0.42322612613E+02  0.10761387082E+03  0.14796924703E+03  0.00000000000E+00 0. -1.
         11    1    1    2    0    0  0.59885053738E+02 -0.12264085308E+02  0.19760850078E+03  0.20684715863E+03  0.00000000000E+00 0.  1.
</event>
<event>
 7    1  0.2900135E-009  0.1102951E+03  0.7561462E-02  0.1260024E+00
         -2   -1    0    0    0  501 -0.00000000000E+00  0.00000000000E+00  0.34231042670E+02  0.34231042670E+02  0.00000000000E+00 0.  1.
          2   -1    0    0  501    0  0.00000000000E+00 -0.00000000000E+00 -0.68755654922E+03  0.68755654922E+03  0.00000000000E+00 0. -1.
         25    2    1    2    0    0 -0.15618048246E+02  0.57692823287E+02 -0.56557666213E+03  0.58232020714E+03  0.12508987812E+03 0.  0.
          5    1    3    3  502    0  0.32942450242E+02 -0.44488361861E+01 -0.36832695077E+03  0.36984755270E+03  0.41800000000E+01 0. -1.
         -5    1    3    3    0  502 -0.48560498488E+02  0.62141659473E+02 -0.19724971135E+03  0.21247265444E+03  0.41800000000E+01 0. -1.
        -11    1    1    2    0    0  0.81285655165E+01  0.24378936037E+02 -0.25342826968E+02  0.36092450434E+02  0.00000000000E+00 0. -1.
         11    1    1    2    0    0  0.74894827291E+01 -0.82071759324E+02 -0.62406017453E+02  0.10337493431E+03  0.00000000000E+00 0.  1.
</event>
<event>
 7    1  0.2900135E-009  0.1106582E+03  0.7561462E-02  0.1259356E+00
         -4   -1    0    0    0  501 -0.00000000000E+00  0.00000000000E+00  0.13471290607E+03  0.13471290607E+03  0.00000000000E+00 0.  1.
          4   -1    0    0  501    0  0.00000000000E+00 -0.00000000000E+00 -0.16295337522E+03  0.16295337522E+03  0.00000000000E+00 0. -1.
         25    2    1    2    0    0 -0.44224485492E+02 -0.37742265797E+02  0.66788266058E+02  0.15326345924E+03  0.12509489083E+03 0.  0.
          5    1    3    3  502    0 -0.68320978554E+02 -0.69266106906E+02  0.54082921632E+02  0.11139113290E+03  0.41800000000E+01 0.  1.
         -5    1    3    3    0  502  0.24096493063E+02  0.31523841109E+02  0.12705344426E+02  0.41872326341E+02  0.41800000000E+01 0.  1.
        -11    1    1    2    0    0 -0.16176237171E+01  0.38159097013E+02  0.76861705827E+00  0.38201101601E+02  0.00000000000E+00 0.  1.
         11    1    1    2    0    0  0.45842109209E+02 -0.41683121622E+00 -0.95797352266E+02  0.10620172045E+03  0.00000000000E+00 0. -1.
</event>
<event>
 7    1  0.2900135E-009  0.2079832E+03  0.7561462E-02  0.1143173E+00
         -2   -1    0    0    0  501 -0.00000000000E+00  0.00000000000E+00  0.75916789299E+02  0.75916789299E+02  0.00000000000E+00 0.  1.
          2   -1    0    0  501    0  0.00000000000E+00 -0.00000000000E+00 -0.58980322897E+03  0.58980322897E+03  0.00000000000E+00 0. -1.
         25    2    1    2    0    0 -0.13909277314E+03 -0.11378733747E+03 -0.23058952271E+03  0.31797931648E+03  0.12507981459E+03 0.  0.
          5    1    3    3  502    0 -0.13967512456E+03 -0.41296837719E+02 -0.16499336148E+03  0.22012462597E+03  0.41800000000E+01 0. -1.
         -5    1    3    3    0  502  0.58235141888E+00 -0.72490499747E+02 -0.65596161228E+02  0.97854690509E+02  0.41800000000E+01 0. -1.
        -11    1    1    2    0    0  0.14061125740E+03  0.12390256987E+03 -0.28011643562E+03  0.33702906407E+03  0.00000000000E+00 0. -1.
         11    1    1    2    0    0 -0.15184842572E+01 -0.10115232402E+02 -0.31804813433E+01  0.10711637716E+02  0.00000000000E+00 0.  1.
</event>
<event>
 7    1  0.2900135E-009  0.1022257E+03  0.7561462E-02  0.1275684E+00
          1   -1    0    0  501    0  0.00000000000E+00  0.00000000000E+00  0.12385562616E+04  0.12385562616E+04  0.00000000000E+00 0. -1.
         -1   -1    0    0    0  501 -0.00000000000E+00 -0.00000000000E+00 -0.19568760761E+02  0.19568760761E+02  0.00000000000E+00 0.  1.
         25    2    1    2    0    0 -0.45944970379E+02 -0.38546091764E+02  0.10367099891E+04  0.10459513091E+04  0.12509915293E+03 0.  0.
          5    1    3    3  502    0 -0.85339493973E+02 -0.20252296474E+02  0.51617497352E+03  0.52359054655E+03  0.41800000000E+01 0.  1.
         -5    1    3    3    0  502  0.39394523594E+02 -0.18293795290E+02  0.52053501557E+03  0.52236076257E+03  0.41800000000E+01 0.  1.
        -11    1    1    2    0    0  0.36106158066E+02  0.31211228144E+01  0.12308797545E+02  0.38274045447E+02  0.00000000000E+00 0.  1.
         11    1    1    2    0    0  0.98388123134E+01  0.35424968950E+02  0.16996871423E+03  0.17389966782E+03  0.00000000000E+00 0. -1.
</event>
<event>
 7    1  0.2900135E-009  0.9298026E+02  0.7561462E-02  0.1295791E+00
         -1   -1    0    0    0  501 -0.00000000000E+00  0.00000000000E+00  0.11303211849E+02  0.11303211849E+02  0.00000000000E+00 0.  1.
          1   -1    0    0  501    0  0.00000000000E+00 -0.00000000000E+00 -0.20850059672E+04  0.20850059672E+04  0.00000000000E+00 0. -1.
         25    2    1    2    0    0 -0.47384218885E+02 -0.25204830828E+02 -0.17504397403E+04  0.17557239972E+04  0.12508765846E+03 0.  0.
          5    1    3    3  502    0  0.15209911810E+02 -0.34137221908E+02 -0.13304113068E+04  0.13309426768E+04  0.41800000000E+01 0. -1.
         -5    1    3    3    0  502 -0.62594130695E+02  0.89323910797E+01 -0.42002843352E+03  0.42478132041E+03  0.41800000000E+01 0. -1.
        -11    1    1    2    0    0 -0.14833269362E+02  0.16463770269E+02 -0.16961917957E+02  0.27906778248E+02  0.00000000000E+00 0.  1.
         11    1    1    2    0    0  0.62217488247E+02  0.87410605586E+01 -0.30630109709E+03  0.31267840358E+03  0.00000000000E+00 0. -1.
</event>
<event>
 7    1  0.2900135E-009  0.9381351E+02  0.7561462E-02  0.1293871E+00
          2   -1    0    0  501    0  0.00000000000E+00  0.00000000000E+00  0.49689152388E+03  0.49689152388E+03  0.00000000000E+00 0. -1.
         -2   -1    0    0    0  501 -0.00000000000E+00 -0.00000000000E+00 -0.34879177248E+02  0.34879177248E+02  0.00000000000E+00 0.  1.
         25    2    1    2    0    0  0.84712042110E+01  0.42715746764E+02  0.38145379242E+03  0.40379082787E+03  0.12507454019E+03 0.  0.
          5    1    3    3  502    0  0.52078710842E+02  0.54231233328E+02  0.14881094017E+03  0.16677945648E+03  0.41800000000E+01 0. -1.
         -5    1    3    3    0  502 -0.43607506631E+02 -0.11515486564E+02  0.23264285225E+03  0.23701137139E+03  0.41800000000E+01 0. -1.
        -11    1    1    2    0    0 -0.61268329604E+01  0.11356794796E+02 -0.13992208680E+02  0.19034095038E+02  0.00000000000E+00 0.  1.
         11    1    1    2    0    0 -0.23443712506E+01 -0.54072541560E+02  0.94550762892E+02  0.10894577821E+03  0.00000000000E+00 0. -1.
</event>
<event>
 7    1  0.2900135E-009  0.2311268E+03  0.7561462E-02  0.1125849E+00
          2   -1    0    0  501    0  0.00000000000E+00  0.00000000000E+00  0.24160210234E+03  0.24160210234E+03  0.00000000000E+00 0.  1.
         -2   -1    0    0    0  501 -0.00000000000E+00 -0.00000000000E+00 -0.26629982833E+03  0.26629982833E+03  0.00000000000E+00 0. -1.
         25    2    1    2    0    0  0.94856641281E+02 -0.19107326154E+03 -0.96634515903E+02  0.26550453437E+03  0.12509058491E+03 0.  0.
          5    1    3    3  502    0  0.10842858738E+03 -0.79601828078E+02 -0.59640073872E+02  0.14719925409E+03  0.41800000000E+01 0. -1.
         -5    1    3    3    0  502 -0.13571946097E+02 -0.11147143346E+03 -0.36994442030E+02  0.11830528027E+03  0.41800000000E+01 0. -1.
        -11    1    1    2    0    0 -0.72892423380E+01  0.40246728136E+02  0.53031107856E+02  0.66971864092E+02  0.00000000000E+00 0.  1.
         11    1    1    2    0    0 -0.87567398943E+02  0.15082653341E+03  0.18905682058E+02  0.17542553221E+03  0.00000000000E+00 0. -1.
</event>
<event>
 7    1  0.2900135E-009  0.1014692E+03  0.7561462E-02  0.1277236E+00
          2   -1    0    0  501    0  0.00000000000E+00  0.00000000000E+00  0.41155548143E+03  0.41155548143E+03  0.00000000000E+00 0. -1.
         -2   -1    0    0    0  501 -0.00000000000E+00 -0.00000000000E+00 -0.31627079156E+02  0.31627079156E+02  0.00000000000E+00 0.  1.
         25    2    1    2    0    0  0.21791405012E+02 -0.25648417559E+02  0.21885796995E+03  0.25431984708E+03  0.12508823665E+03 0.  0.
          5    1    3    3  502    0  0.68395170694E+02  0.11818250492E+02  0.12137222664E+03  0.13987944888E+03  0.41800000000E+01 0.  1.
         -5    1    3    3    0  502 -0.46603765682E+02 -0.37466668051E+02  0.97485743316E+02  0.11444039820E+03  0.41800000000E+01 0.  1.
        -11    1    1    2    0    0  0.14644976979E+02  0.33167674557E+02  0.16960526552E+02  0.40027858388E+02  0.00000000000E+00 0.  1.
         11    1    1    2    0    0 -0.36436381991E+02 -0.75192569980E+01  0.14410990577E+03  0.14883485512E+03  0.00000000000E+00 0. -1.
</event>
<event>
 7    1  0.2900135E-009  0.1253845E+03  0.7561462E-02  0.1234470E+00
          2   -1    0    0  501    0  0.00000000000E+00  0.00000000000E+00  0.11317146364E+04  0.11317146364E+04  0.00000000000E+00 0. -1.
         -2   -1    0    0    0  501 -0.00000000000E+00 -0.00000000000E+00 -0.19152392155E+02  0.19152392155E+02  0.00000000000E+00 0.  1.
         25    2    1    2    0    0 -0.49754120615E+02 -0.77603019203E+02  0.79135713720E+03  0.80646927639E+03  0.12509545977E+03 0.  0.
          5    1    3    3  502    0 -0.82613063777E+02 -0.73051911583E+02  0.70974902580E+03  0.71827755925E+03  0.41800000000E+01 0. -1.
         -5    1    3    3    0  502  0.32858943163E+02 -0.45511076193E+01  0.81608111394E+02  0.88191717137E+02  0.41800000000E+01 0. -1.
        -11    1    1    2    0    0  0.41554686701E+02  0.15527423083E+02  0.53655871238E+02  0.69619288798E+02  0.00000000000E+00 0.  1.
         11    1    1    2    0    0  0.81994339140E+01  0.62075596120E+02  0.26754923582E+03  0.27477846338E+03  0.00000000000E+00 0. -1.
</event>
<event>
 7    1  0.2900135E-009  0.6830777E+02  0.7561462E-02  0.1365944E+00
          1   -1    0    0  501    0  0.00000000000E+00  0.00000000000E+00  0.33567382889E+03  0.33567382889E+03  0.00000000000E+00 0. -1.
         -1   -1    0    0    0  501 -0.00000000000E+00 -0.00000000000E+00 -0.49022638981E+02  0.49022638981E+02  0.00000000000E+00 0.  1.
         25    2    1    2    0    0 -0.10067624706E+02 -0.67086307078E+02  0.15303245317E+03  0.20896814217E+03  0.12508726175E+03 0.  0.
          5    1    3    3  502    0 -0.78007354203E+01 -0.50487235610E+02 -0.36033179427E+01  0.51383545351E+02  0.41800000000E+01 0.  1.
         -5    1    3    3    0  502 -0.22668892855E+01 -0.16599071468E+02  0.15663577111E+03  0.15758459682E+03  0.41800000000E+01 0.  1.
        -11    1    1    2    0    0  0.38905063719E+01  0.44695326834E+02  0.51296126517E+01  0.45156629708E+02  0.00000000000E+00 0.  1.
         11    1    1    2    0    0  0.61771183338E+01  0.22390980244E+02  0.12848912408E+03  0.13057169600E+03  0.00000000000E+00 0. -1.
</event>
<event>
 7    1  0.3123769E-009  0.1981034E+03  0.7561462E-02  0.1151349E+00
          3   -1    0    0  501    0  0.00000000000E+00  0.00000000000E+00  0.11717771044E+04  0.11717771044E+04  0.00000000000E+00 0. -1.
         -3   -1    0    0    0  501 -0.00000000000E+00 -0.00000000000E+00 -0.41715622972E+02  0.41715622972E+02  0.00000000000E+00 0.  1.
         25    2    1    2    0    0 -0.16717369801E+03  0.91300456838E+02  0.65021436509E+03  0.68899090949E+03  0.12508770546E+03 0.  0.
          5    1    3    3  502    0 -0.63449916492E+02 -0.83666068927E+00  0.80370252391E+02  0.10248630042E+03  0.41800000000E+01 0.  1.
         -5    1    3    3    0  502 -0.10372378151E+03  0.92137117527E+02  0.56984411270E+03  0.58650460907E+03  0.41800000000E+01 0.  1.
        -11    1    1    2    0    0  0.95772996070E+02 -0.72094953095E+02  0.18437355036E+03  0.21991760982E+03  0.00000000000E+00 0.  1.
         11    1    1    2    0    0  0.71400701936E+02 -0.19205503743E+02  0.29547356597E+03  0.30458420805E+03  0.00000000000E+00 0. -1.
</event>
<event>
 7    1  0.2940070E-009  0.1593485E+03  0.7561462E-02  0.1189434E+00
         -2   -1    0    0    0  501 -0.00000000000E+00  0.00000000000E+00  0.97852180700E+02  0.97852180700E+02  0.00000000000E+00 0.  1.
          2   -1    0    0  501    0  0.00000000000E+00 -0.00000000000E+00 -0.33420342473E+03  0.33420342473E+03  0.00000000000E+00 0. -1.
         25    2    1    2    0    0 -0.67136325095E+02  0.97640497623E+02 -0.26528981564E+02  0.17433483319E+03  0.12509154359E+03 0.  0.
          5    1    3    3  502    0 -0.58088644892E+01  0.10799163993E+03 -0.48488355294E+01  0.10833707032E+03  0.41800000000E+01 0.  1.
         -5    1    3    3    0  502 -0.61327460605E+02 -0.10351142302E+02 -0.21680146035E+02  0.65997762866E+02  0.41800000000E+01 0.  1.
        -11    1    1    2    0    0  0.76030943454E+02 -0.32999883109E+02 -0.98986326188E+02  0.12910456777E+03  0.00000000000E+00 0.  1.
         11    1    1    2    0    0 -0.88946183590E+01 -0.64640614514E+02 -0.11083593628E+03  0.12861620446E+03  0.00000000000E+00 0. -1.
</event>
<event>
 7    1  0.2900135E-009  0.7231067E+02  0.7561462E-02  0.1352407E+00
         -2   -1    0    0    0  501 -0.00000000000E+00  0.00000000000E+00  0.18526405068E+03  0.18526405068E+03  0.00000000000E+00 0.  1.
          2   -1    0    0  501    0  0.00000000000E+00 -0.00000000000E+00 -0.76332224905E+02  0.76332224905E+02  0.00000000000E+00 0. -1.
         25    2    1    2    0    0 -0.23715722615E+02 -0.41240312371E+02  0.67950379090E+02  0.15009352767E+03  0.12509042396E+03 0.  0.
          5    1    3    3  502    0 -0.33758119826E+02 -0.40718615683E+02 -0.23477284321E+02  0.58019579423E+02  0.41800000000E+01 0. -1.
         -5    1    3    3    0  502  0.10042397211E+02 -0.52169668872E+00  0.91427663411E+02  0.92073948248E+02  0.41800000000E+01 0. -1.
        -11    1    1    2    0    0  0.42585881492E+02  0.93212659348E+01 -0.13467682708E+02  0.45626985201E+02  0.00000000000E+00 0. -1.
         11    1    1    2    0    0 -0.18870158877E+02  0.31919046437E+02  0.54449129394E+02  0.65875762714E+02  0.00000000000E+00 0.  1.
</event>
<event>
 7    1  0.2900135E-009  0.1430830E+03  0.7561462E-02  0.1209240E+00
          2   -1    0    0  501    0  0.00000000000E+00  0.00000000000E+00  0.20223523096E+03  0.20223523096E+03  0.00000000000E+00 0. -1.
         -2   -1    0    0    0  501 -0.00000000000E+00 -0.00000000000E+00 -0.17668600342E+03  0.17668600342E+03  0.00000000000E+00 0.  1.
         25    2    1    2    0    0 -0.86685379976E+02 -0.11001809429E+03 -0.51502689545E+02  0.19472779843E+03  0.12509217513E+03 0.  0.
          5    1    3    3  502    0 -0.57683575324E+02 -0.55031570954E+02  0.35782851667E+02  0.87485733336E+02  0.41800000000E+01 0.  1.
         -5    1    3    3    0  502 -0.29001804651E+02 -0.54986523336E+02 -0.87285541212E+02  0.10724206510E+03  0.41800000000E+01 0.  1.
        -11    1    1    2    0    0  0.17702318914E+02  0.48381430015E+02  0.75832712281E+02  0.91677342442E+02  0.00000000000E+00 0. -1.
         11    1    1    2    0    0  0.68983061062E+02  0.61636664275E+02  0.12192047987E+01  0.92516093502E+02  0.00000000000E+00 0.  1.
</event>
<event>
 7    1  0.2900135E-009  0.6811625E+02  0.7561462E-02  0.1366619E+00
          2   -1    0    0  501    0  0.00000000000E+00  0.00000000000E+00  0.32861476627E+02  0.32861476627E+02  0.00000000000E+00 0.  1.
         -2   -1    0    0    0  501 -0.00000000000E+00 -0.00000000000E+00 -0.45709168347E+03  0.45709168347E+03  0.00000000000E+00 0. -1.
         25    2    1    2    0    0 -0.69046426332E+00 -0.83360723664E+01 -0.35191168365E+03  0.37357614724E+03  0.12508931950E+03 0.  0.
          5    1    3    3  502    0 -0.37853783664E+02 -0.28584003204E+02 -0.51387429088E+02  0.70057793608E+02  0.41800000000E+01 0. -1.
         -5    1    3    3    0  502  0.37163319401E+02  0.20247930838E+02 -0.30052425456E+03  0.30351835363E+03  0.41800000000E+01 0. -1.
        -11    1    1    2    0    0  0.22137297319E+02 -0.20998799498E+01  0.14364308518E+02  0.26472680023E+02  0.00000000000E+00 0.  1.
         11    1    1    2    0    0 -0.21446833055E+02  0.10435952316E+02 -0.86682831719E+02  0.89904332841E+02  0.00000000000E+00 0. -1.
</event>
<event>
 7    1  0.2900135E-009  0.1278158E+03  0.7561462E-02  0.1230733E+00
         -1   -1    0    0    0  501 -0.00000000000E+00  0.00000000000E+00  0.23209758695E+02  0.23209758695E+02  0.00000000000E+00 0.  1.
          1   -1    0    0  501    0  0.00000000000E+00 -0.00000000000E+00 -0.10883940247E+04  0.10883940247E+04  0.00000000000E+00 0. -1.
         25    2    1    2    0    0  0.78549095168E+02  0.45156754998E+02 -0.83013838270E+03  0.84438503274E+03  0.12508899312E+03 0.  0.
          5    1    3    3  502    0  0.69170216792E+02 -0.24444784729E+02 -0.57669973640E+03  0.58136230077E+03  0.41800000000E+01 0. -1.
         -5    1    3    3    0  502  0.93788783767E+01  0.69601539727E+02 -0.25343864630E+03  0.26302273197E+03  0.41800000000E+01 0. -1.
        -11    1    1    2    0    0  0.10351668088E+02  0.28820076928E+01  0.65975288592E+00  0.10765606087E+02  0.00000000000E+00 0.  1.
         11    1    1    2    0    0 -0.88900763257E+02 -0.48038762690E+02 -0.23570563615E+03  0.25645314453E+03  0.00000000000E+00 0. -1.
</event>
<event>
 7    1  0.2900135E-009  0.7847661E+02  0.7561462E-02  0.1333431E+00
         -1   -1    0    0    0  501 -0.00000000000E+00  0.00000000000E+00  0.51128928760E+02  0.51128928760E+02  0.00000000000E+00 0.  1.
          1   -1    0    0  501    0  0.00000000000E+00 -0.00000000000E+00 -0.23047446192E+03  0.23047446192E+03  0.00000000000E+00 0. -1.
         25    2    1    2    0    0  0.19719018904E+02 -0.78024165029E+01 -0.90475254162E+02  0.15583574686E+03  0.12509712617E+03 0.  0.
          5    1    3    3  502    0 -0.24393632526E+02  0.46250538213E+02 -0.18799188744E+02  0.55722917100E+02  0.41800000000E+01 0.  1.
         -5    1    3    3    0  502  0.44112651429E+02 -0.54052954716E+02 -0.71676065418E+02  0.10011282976E+03  0.41800000000E+01 0.  1.
        -11    1    1    2    0    0 -0.14268835772E+02  0.18042829588E+02 -0.10410668055E+03  0.10661774856E+03  0.00000000000E+00 0. -1.
         11    1    1    2    0    0 -0.54501831323E+01 -0.10240413085E+02  0.15236401545E+02  0.19149895257E+02  0.00000000000E+00 0.  1.
</event>
<event>
 7    1  0.2900135E-009  0.1320547E+03  0.7561462E-02  0.1224438E+00
          1   -1    0    0  501    0  0.00000000000E+00  0.00000000000E+00  0.10516438657E+04  0.10516438657E+04  0.00000000000E+00 0. -1.
         -1   -1    0    0    0  501 -0.00000000000E+00 -0.00000000000E+00 -0.17544225472E+02  0.17544225472E+02  0.00000000000E+00 0.  1.
         25    2    1    2    0    0  0.35265164606E+02  0.71516261178E+02  0.64837753175E+03  0.66513472834E+03  0.12511025421E+03 0.  0.
          5    1    3    3  502    0  0.39432301229E+02 -0.25277983139E+02  0.14288097554E+03  0.15042050520E+03  0.41800000000E+01 0.  1.
         -5    1    3    3    0  502 -0.41671366229E+01  0.96794244317E+02  0.50549655621E+03  0.51471422314E+03  0.41800000000E+01 0.  1.
        -11    1    1    2    0    0  0.30259302420E+02 -0.15996773292E+02  0.99373714865E+02  0.10510307962E+03  0.00000000000E+00 0. -1.
         11    1    1    2    0    0 -0.65524467026E+02 -0.55519487887E+02  0.28634839362E+03  0.29895028323E+03  0.00000000000E+00 0.  1.
</event>
<event>
 7    1  0.2900135E-009  0.1262336E+03  0.7561462E-02  0.1233154E+00
         -1   -1    0    0    0  501 -0.00000000000E+00  0.00000000000E+00  0.21535121701E+03  0.21535121701E+03  0.00000000000E+00 0.  1.
          1   -1    0    0  501    0  0.00000000000E+00 -0.00000000000E+00 -0.93295029083E+02  0.93295029083E+02  0.00000000000E+00 0. -1.
         25    2    1    2    0    0 -0.88440310348E+02  0.21188156453E+01  0.77374785756E+02  0.17163767046E+03  0.12508578886E+03 0.  0.
          5    1    3    3  502    0 -0.11151813195E+03  0.30642113190E+02  0.52263257076E+02  0.12698091705E+03  0.41800000000E+01 0.  1.
         -5    1    3    3    0  502  0.23077821598E+02 -0.28523297545E+02  0.25111528680E+02  0.44656753411E+02  0.41800000000E+01 0.  1.
        -11    1    1    2    0    0  0.52274216103E+02  0.21601927319E+02  0.67533984089E+02  0.88091293213E+02  0.00000000000E+00 0.  1.
         11    1    1    2    0    0  0.36166094245E+02 -0.23720742964E+02 -0.22852581916E+02  0.48917282426E+02  0.00000000000E+00 0. -1.
</event>
<event>
 7    1  0.2900135E-009  0.2828610E+03  0.7561462E-02  0.1094137E+00
          1   -1    0    0  501    0  0.00000000000E+00  0.00000000000E+00  0.14315769803E+04  0.14315769803E+04  0.00000000000E+00 0. -1.
         -1   -1    0    0    0  501 -0.00000000000E+00 -0.00000000000E+00 -0.59621986451E+02  0.59621986451E+02  0.00000000000E+00 0.  1.
         25    2    1    2    0    0 -0.25407599599E+03  0.86472371018E+02  0.60572494583E+03  0.67422738472E+03  0.12509106130E+03 0.  0.
          5    1    3    3  502    0 -0.17095094392E+03  0.10629960266E+03  0.34087318395E+03  0.39589876318E+03  0.41800000000E+01 0. -1.
         -5    1    3    3    0  502 -0.83125052070E+02 -0.19827231642E+02  0.26485176188E+03  0.27832862154E+03  0.41800000000E+01 0. -1.
        -11    1    1    2    0    0  0.37901030327E+02  0.14035678181E+02  0.67310546151E+02  0.78512406567E+02  0.00000000000E+00 0.  1.
         11    1    1    2    0    0  0.21617496566E+03 -0.10050804920E+03  0.69891950183E+03  0.73845917542E+03  0.00000000000E+00 0. -1.
</event>
<event>
 7    1  0.2900135E-009  0.7813094E+02  0.7561462E-02  0.1334441E+00
          2   -1    0    0  501    0  0.00000000000E+00  0.00000000000E+00  0.16064470901E+02  0.16064470901E+02  0.00000000000E+00 0. -1.
         -2   -1    0    0    0  501 -0.00000000000E+00 -0.00000000000E+00 -0.81994266935E+03  0.81994266935E+03  0.00000000000E+00 0.  1.
         25    2    1    2    0    0 -0.21133588729E+01 -0.27770223115E+02 -0.37467848379E+03  0.39598918923E+03  0.12509124746E+03 0.  0.
          5    1    3    3  502    0  0.22359075225E+02 -0.97737593165E+00 -0.35254514851E+03  0.35327954604E+03  0.41800000000E+01 0. -1.
         -5    1    3    3    0  502 -0.24472434098E+02 -0.26792847183E+02 -0.22133335277E+02  0.42709643189E+02  0.41800000000E+01 0. -1.
        -11    1    1    2    0    0  0.46245271521E+02  0.29608143709E+01 -0.20705675453E+03  0.21217891308E+03  0.00000000000E+00 0. -1.
         11    1    1    2    0    0 -0.44131912649E+02  0.24809408744E+02 -0.22214296013E+03  0.22783903795E+03  0.00000000000E+00 0.  1.
</event>
<event>
 7    1  0.2900135E-009  0.1376396E+03  0.7561462E-02  0.1216541E+00
         -3   -1    0    0    0  501 -0.00000000000E+00  0.00000000000E+00  0.29683653283E+02  0.29683653283E+02  0.00000000000E+00 0.  1.
          3   -1    0    0  501    0  0.00000000000E+00 -0.00000000000E+00 -0.93852907826E+03  0.93852907826E+03  0.00000000000E+00 0. -1.
         25    2    1    2    0    0 -0.96000956125E+02  0.50481139054E+02 -0.67468366390E+03  0.69470200258E+03  0.12509315365E+03 0.  0.
          5    1    3    3  502    0 -0.95802851531E+02 -0.16581384388E+02 -0.43688145039E+03  0.44758910036E+03  0.41800000000E+01 0.  1.
         -5    1    3    3    0  502 -0.19810459386E+00  0.67062523442E+02 -0.23780221351E+03  0.24711290222E+03  0.41800000000E+01 0.  1.
        -11    1    1    2    0    0  0.51571634315E+02 -0.39614540711E+02 -0.45459325006E+02  0.79344158775E+02  0.00000000000E+00 0.  1.
         11    1    1    2    0    0  0.44429321809E+02 -0.10866598343E+02 -0.18870243607E+03  0.19416657018E+03  0.00000000000E+00 0. -1.
</event>
<event>
 7    1  0.2900135E-009  0.7926324E+02  0.7561462E-02  0.1331155E+00
         -3   -1    0    0    0  501 -0.00000000000E+00  0.00000000000E+00  0.79161846074E+02  0.79161846074E+02  0.00000000000E+00 0.  1.
          3   -1    0    0  501    0  0.00000000000E+00 -0.00000000000E+00 -0.13563484631E+03  0.13563484631E+03  0.00000000000E+00 0. -1.
         25    2    1    2    0    0 -0.24094996265E+01  0.16095676685E+02 -0.43369746790E+02  0.13338319730E+03  0.12508103728E+03 0.  0.
          5    1    3    3  502    0  0.18185037187E+02  0.64595106973E+02 -0.37765013801E+01  0.67342095193E+02  0.41800000000E+01 0.  1.
         -5    1    3    3    0  502 -0.20594536813E+02 -0.48499430288E+02 -0.39593245410E+02  0.66041102103E+02  0.41800000000E+01 0.  1.
        -11    1    1    2    0    0  0.30244737434E+01 -0.27172376875E+02  0.27824525955E+02  0.39008841960E+02  0.00000000000E+00 0.  1.
         11    1    1    2    0    0 -0.61497411687E+00  0.11076700190E+02 -0.40927779396E+02  0.42404653124E+02  0.00000000000E+00 0. -1.
</event>
<event>
 7    1  0.2900135E-009  0.1939438E+03  0.7561462E-02  0.1154952E+00
         -1   -1    0    0    0  501 -0.00000000000E+00  0.00000000000E+00  0.87172199113E+02  0.87172199113E+02  0.00000000000E+00 0.  1.
          1   -1    0    0  501    0  0.00000000000E+00 -0.00000000000E+00 -0.48847214543E+03  0.48847214543E+03  0.00000000000E+00 0. -1.
         25    2    1    2    0    0 -0.10957188383E+03 -0.13251839541E+03 -0.25030342716E+03  0.32842902793E+03  0.12508676145E+03 0.  0.
          5    1    3    3  502    0 -0.99867290472E+02 -0.15691551529E+03 -0.21859273670E+03  0.28704740303E+03  0.41800000000E+01 0.  1.
         -5    1    3    3    0  502 -0.97045933564E+01  0.24397119877E+02 -0.31710690453E+02  0.41381624902E+02  0.41800000000E+01 0.  1.
        -11    1    1    2    0    0  0.23222974978E+02  0.53016267944E+02 -0.25010775315E+01  0.57933467205E+02  0.00000000000E+00 0.  1.
         11    1    1    2    0    0  0.86348908850E+02  0.79502127467E+02 -0.14849544162E+03  0.18928184941E+03  0.00000000000E+00 0. -1.
</event>
<event>
 7    1  0.2900135E-009  0.1892486E+03  0.7561462E-02  0.1159141E+00
         -2   -1    0    0    0  501 -0.00000000000E+00  0.00000000000E+00  0.63778255815E+03  0.63778255815E+03  0.00000000000E+00 0. -1.
          2   -1    0    0  501    0  0.00000000000E+00 -0.00000000000E+00 -0.65713207570E+02  0.65713207570E+02  0.00000000000E+00 0.  1.
         25    2    1    2    0    0 -0.16193132642E+03  0.46084027975E+02  0.37067933602E+03  0.42590928969E+03  0.12510020295E+03 0.  0.
          5    1    3    3  502    0 -0.45418206320E+02 -0.40578567153E+02  0.76994710526E+02  0.98260324783E+02  0.41800000000E+01 0. -1.
         -5    1    3    3    0  502 -0.11651312010E+03  0.86662595128E+02  0.29368462550E+03  0.32764896491E+03  0.41800000000E+01 0. -1.
        -11    1    1    2    0    0  0.45567455037E+02 -0.30366929772E+02  0.12773296523E+03  0.13897573093E+03  0.00000000000E+00 0. -1.
         11    1    1    2    0    0  0.11636387139E+03 -0.15717098203E+02  0.73657049324E+02  0.13861074509E+03  0.00000000000E+00 0.  1.
</event>
<event>
 7    1  0.4215491E-009  0.1313027E+03  0.7561462E-02  0.1225535E+00
          1   -1    0    0  501    0  0.00000000000E+00  0.00000000000E+00  0.10725378645E+04  0.10725378645E+04  0.00000000000E+00 0. -1.
         -1   -1    0    0    0  501 -0.00000000000E+00 -0.00000000000E+00 -0.20141687555E+02  0.20141687555E+02  0.00000000000E+00 0.  1.
         25    2    1    2    0    0  0.55516036584E+02  0.78415681078E+02  0.66140017416E+03  0.67994649558E+03  0.12508396022E+03 0.  0.
          5    1    3    3  502    0  0.89884155163E+02  0.31271843671E+02  0.33211398188E+03  0.34550580156E+03  0.41800000000E+01 0. -1.
         -5    1    3    3    0  502 -0.34368118579E+02  0.47143837408E+02  0.32928619229E+03  0.33444069401E+03  0.41800000000E+01 0. -1.
        -11    1    1    2    0    0 -0.55002669953E+01 -0.52001922188E+02  0.73297377949E+02  0.90038649826E+02  0.00000000000E+00 0.  1.
         11    1    1    2    0    0 -0.50015769588E+02 -0.26413758890E+02  0.31769862486E+03  0.32269440669E+03  0.00000000000E+00 0. -1.
</event>
<event>
 7    1  0.2900135E-009  0.1345397E+03  0.7561462E-02  0.1220871E+00
          2   -1    0    0  501    0  0.00000000000E+00  0.00000000000E+00  0.90231838513E+03  0.90231838513E+03  0.00000000000E+00 0. -1.
         -2   -1    0    0    0  501 -0.00000000000E+00 -0.00000000000E+00 -0.33322830429E+02  0.33322830429E+02  0.00000000000E+00 0.  1.
         25    2    1    2    0    0 -0.11905903961E+03  0.18516561220E+02  0.31319310311E+03  0.35812720953E+03  0.12508900997E+03 0.  0.
          5    1    3    3  502    0 -0.55948781152E+02 -0.11677532656E+02  0.26765345727E+02  0.63249403263E+02  0.41800000000E+01 0. -1.
         -5    1    3    3    0  502 -0.63110258460E+02  0.30194093876E+02  0.28642775738E+03  0.29487780626E+03  0.41800000000E+01 0. -1.
        -11    1    1    2    0    0  0.71545323975E+02  0.26440336067E+02  0.17167035065E+03  0.18785242624E+03  0.00000000000E+00 0. -1.
         11    1    1    2    0    0  0.47513715636E+02 -0.44956897287E+02  0.38413210094E+03  0.38966157979E+03  0.00000000000E+00 0.  1.
</event>
<event>
 7    1  0.2900135E-009  0.1082825E+03  0.7561462E-02  0.1263784E+00
          1   -1    0    0  501    0  0.00000000000E+00  0.00000000000E+00  0.72063215586E+03  0.72063215586E+03  0.00000000000E+00 0. -1.
         -1   -1    0    0    0  501 -0.00000000000E+00 -0.00000000000E+00 -0.42535933828E+02  0.42535933828E+02  0.00000000000E+00 0.  1.
         25    2    1    2    0    0  0.25706238370E+02  0.63760001439E+02  0.60853190024E+03  0.62504754687E+03  0.12508882350E+03 0.  0.
          5    1    3    3  502    0 -0.15304123850E+02 -0.28049409870E+02  0.26874118038E+03  0.27066636295E+03  0.41800000000E+01 0.  1.
         -5    1    3    3    0  502  0.41010362219E+02  0.91809411309E+02  0.33979071986E+03  0.35438118392E+03  0.41800000000E+01 0.  1.
        -11    1    1    2    0    0 -0.40627835857E+01 -0.61838656059E+02 -0.33253480626E+01  0.62061127393E+02  0.00000000000E+00 0.  1.
         11    1    1    2    0    0 -0.21643454784E+02 -0.19213453803E+01  0.72889669857E+02  0.76059415426E+02  0.00000000000E+00 0. -1.
</event>
<event>
 7    1  0.2900135E-009  0.9610742E+02  0.7561462E-02  0.1288701E+00
          2   -1    0    0  501    0  0.00000000000E+00  0.00000000000E+00  0.25710794634E+03  0.25710794634E+03  0.00000000000E+00 0. -1.
         -2   -1    0    0    0  501 -0.00000000000E+00 -0.00000000000E+00 -0.72700655040E+02  0.72700655040E+02  0.00000000000E+00 0.  1.
         25    2    1    2    0    0 -0.43188958099E+02  0.71235408578E+02  0.11349612021E+03  0.18833248140E+03  0.12509190505E+03 0.  0.
          5    1    3    3  502    0 -0.46710470384E+02  0.53341937932E+02  0.13935707655E+03  0.15641322697E+03  0.41800000000E+01 0.  1.
         -5    1    3    3    0  502  0.35215122855E+01  0.17893470646E+02 -0.25860956339E+02  0.31919254429E+02  0.41800000000E+01 0.  1.
        -11    1    1    2    0    0  0.36496039943E+02 -0.61018286017E+01  0.66188487497E+02  0.75829473959E+02  0.00000000000E+00 0. -1.
         11    1    1    2    0    0  0.66929181555E+01 -0.65133579976E+02  0.47226835917E+01  0.65646646024E+02  0.00000000000E+00 0.  1.
</event>
