<event>
 7    1  0.6095443E-006  0.1466519E+03  0.7546771E-02  0.1225375E+00
          2   -1    0    0  501    0  0.00000000000E+00  0.00000000000E+00  0.57650109716E+03  0.57650109716E+03  0.00000000000E+00 0. -1.
         -2   -1    0    0    0  501 -0.00000000000E+00 -0.00000000000E+00 -0.27514243035E+02  0.27514243035E+02  0.00000000000E+00 0.  1.
         23    2    1    2    0    0 -0.67813803460E+02  0.35783408358E+02  0.24372390323E+03  0.28444355232E+03  0.12501051634E+03 0.  0.
          5    1    3    3  502    0 -0.21404432610E+02 -0.38554680597E+02  0.14834418791E+03  0.15483120234E+03  0.47000000000E+01 0. -1.
         -5    1    3    3    0  502 -0.46409370850E+02  0.74338088956E+02  0.95379715326E+02  0.12961234998E+03  0.47000000000E+01 0. -1.
        -11    1    1    2    0    0  0.37845425276E+02 -0.44125844960E+02  0.14318946171E+03  0.15453992479E+03  0.00000000000E+00 0.  1.
         11    1    1    2    0    0  0.29968378184E+02  0.83424366017E+01  0.16207348918E+03  0.16503186309E+03  0.00000000000E+00 0. -1.
<mgrwt>
<rscale>  0 0.13141262E+03</rscale>
<asrwt>0</asrwt>
<pdfrwt beam="1">  1        2 0.88692467E-01 0.14665195E+03</pdfrwt>
<pdfrwt beam="2">  1       -2 0.42329609E-02 0.14665195E+03</pdfrwt>
<totfact> 0.12747167E+04</totfact>
</mgrwt>
</event>
<event>
 7    1  0.6095443E-006  0.1460305E+03  0.7546771E-02  0.1214860E+00
         -2   -1    0    0    0  501 -0.00000000000E+00  0.00000000000E+00  0.20842155673E+02  0.20842155673E+02  0.00000000000E+00 0.  1.
          2   -1    0    0  501    0  0.00000000000E+00 -0.00000000000E+00 -0.88187483292E+03  0.88187483292E+03  0.00000000000E+00 0. -1.
         23    2    1    2    0    0  0.74181599593E+02 -0.14062625319E+02 -0.38029483673E+03  0.40736845790E+03  0.12499692195E+03 0.  0.
          5    1    3    3  502    0  0.18850407416E+02 -0.30924442224E+02 -0.18481871542E+02  0.40930777690E+02  0.47000000000E+01 0. -1.
         -5    1    3    3    0  502  0.55331192177E+02  0.16861816905E+02 -0.36181296519E+03  0.36643768021E+03  0.47000000000E+01 0. -1.
        -11    1    1    2    0    0 -0.58445532527E+02  0.47478745652E+02 -0.39306832095E+03  0.40021596232E+03  0.00000000000E+00 0. -1.
         11    1    1    2    0    0 -0.15736067066E+02 -0.33416120333E+02 -0.87669519566E+02  0.95132568376E+02  0.00000000000E+00 0.  1.
<mgrwt>
<rscale>  0 0.13886810E+03</rscale>
<asrwt>0</asrwt>
<pdfrwt beam="2">  1        2 0.13567306E+00 0.14603047E+03</pdfrwt>
<pdfrwt beam="1">  1       -2 0.32064854E-02 0.14603047E+03</pdfrwt>
<totfact> 0.11537146E+04</totfact>
</mgrwt>
</event>
<event>
 6    1  0.6095443E-006  0.1514932E+03  0.7546771E-02  0.1259543E+00
         -2   -1    0    0    0  501 -0.00000000000E+00  0.00000000000E+00  0.47114074157E+02  0.47114074157E+02  0.00000000000E+00 0.  1.
          2   -1    0    0  501    0  0.00000000000E+00 -0.00000000000E+00 -0.20845637242E+03  0.20845637242E+03  0.00000000000E+00 0. -1.
          5    1    1    2  502    0 -0.80768310026E+01  0.67571761277E+01 -0.13045851377E+03  0.13096720370E+03  0.47000000000E+01 0. -1.
         -5    1    1    2    0  502  0.91090699899E+01 -0.43653372244E+02  0.27130197694E+02  0.52409251963E+02  0.47000000000E+01 0.  1.
        -11    1    1    2    0    0  0.36098114886E+01  0.23662824637E+02 -0.51375772261E+02  0.56678302588E+02  0.00000000000E+00 0. -1.
         11    1    1    2    0    0 -0.46420504759E+01  0.13233371479E+02 -0.66382099211E+01  0.15515688327E+02  0.00000000000E+00 0.  1.
<mgrwt>
<rscale>  0 0.11055645E+03</rscale>
<asrwt>0</asrwt>
<pdfrwt beam="2">  1        2 0.32070211E-01 0.15149318E+03</pdfrwt>
<pdfrwt beam="1">  1       -2 0.72483192E-02 0.15149318E+03</pdfrwt>
<totfact> 0.16956564E+04</totfact>
</mgrwt>
</event>
<event>
 7    1  0.6095443E-006  0.1625020E+03  0.7546771E-02  0.1193085E+00
         -2   -1    0    0    0  501 -0.00000000000E+00  0.00000000000E+00  0.30746153224E+03  0.30746153224E+03  0.00000000000E+00 0.  1.
          2   -1    0    0  501    0  0.00000000000E+00 -0.00000000000E+00 -0.74476911112E+02  0.74476911112E+02  0.00000000000E+00 0. -1.
         23    2    1    2    0    0  0.72141236541E+02 -0.74699962765E+02  0.14465540192E+03  0.21755936129E+03  0.12498979132E+03 0.  0.
          5    1    3    3  502    0  0.23901042723E+01  0.13276151803E+02 -0.16035853234E+02  0.21475739663E+02  0.47000000000E+01 0. -1.
         -5    1    3    3    0  502  0.69751132268E+02 -0.87976114569E+02  0.16069125515E+03  0.19608362163E+03  0.47000000000E+01 0. -1.
        -11    1    1    2    0    0 -0.64029372050E+02  0.22120348241E+02  0.88154875417E+02  0.11117712153E+03  0.00000000000E+00 0.  1.
         11    1    1    2    0    0 -0.81118644905E+01  0.52579614525E+02  0.17434379122E+00  0.53201960536E+02  0.00000000000E+00 0. -1.
<mgrwt>
<rscale>  0 0.15617399E+03</rscale>
<asrwt>0</asrwt>
<pdfrwt beam="2">  1        2 0.11457987E-01 0.16250197E+03</pdfrwt>
<pdfrwt beam="1">  1       -2 0.47301773E-01 0.16250197E+03</pdfrwt>
<totfact> 0.22615547E+03</totfact>
</mgrwt>
</event>
<event>
 7    1  0.6095443E-006  0.1771721E+03  0.7546771E-02  0.1176072E+00
          3   -1    0    0  501    0  0.00000000000E+00  0.00000000000E+00  0.35019410384E+02  0.35019410384E+02  0.00000000000E+00 0. -1.
         -3   -1    0    0    0  501 -0.00000000000E+00 -0.00000000000E+00 -0.82978551305E+03  0.82978551305E+03  0.00000000000E+00 0.  1.
         23    2    1    2    0    0 -0.12537343854E+03 -0.67812275220E+01 -0.51075654744E+03  0.54061280521E+03  0.12500188102E+03 0.  0.
          5    1    3    3  502    0 -0.61821035310E+02 -0.19885650936E+02 -0.72061057532E+02  0.97119336554E+02  0.47000000000E+01 0.  1.
         -5    1    3    3    0  502 -0.63552403230E+02  0.13104423414E+02 -0.43869548991E+03  0.44349346865E+03  0.47000000000E+01 0.  1.
        -11    1    1    2    0    0  0.64323759870E+01 -0.97152702707E+01  0.38660293090E+01  0.12276323549E+02  0.00000000000E+00 0. -1.
         11    1    1    2    0    0  0.11894106255E+03  0.16496497793E+02 -0.28787558453E+03  0.31191579468E+03  0.00000000000E+00 0.  1.
<mgrwt>
<rscale>  0 0.17171458E+03</rscale>
<asrwt>0</asrwt>
<pdfrwt beam="1">  1        3 0.53876013E-02 0.17717210E+03</pdfrwt>
<pdfrwt beam="2">  1       -3 0.12765932E+00 0.17717210E+03</pdfrwt>
<totfact> 0.24863108E+02</totfact>
</mgrwt>
</event>
<event>
 7    1  0.6095443E-006  0.1853594E+03  0.7546771E-02  0.1167646E+00
         -1   -1    0    0    0  501 -0.00000000000E+00  0.00000000000E+00  0.74123105758E+02  0.74123105758E+02  0.00000000000E+00 0.  1.
          1   -1    0    0  501    0  0.00000000000E+00 -0.00000000000E+00 -0.45915783956E+03  0.45915783956E+03  0.00000000000E+00 0. -1.
         23    2    1    2    0    0 -0.47705835168E+02 -0.12828855320E+03 -0.11986393858E+03  0.22073845722E+03  0.12499721250E+03 0.  0.
          5    1    3    3  502    0 -0.45132624024E+02 -0.15307061490E+03 -0.10794463354E+03  0.19272182234E+03  0.47000000000E+01 0. -1.
         -5    1    3    3    0  502 -0.25732111437E+01  0.24782061693E+02 -0.11919305043E+02  0.28016634881E+02  0.47000000000E+01 0. -1.
        -11    1    1    2    0    0  0.17156028591E+02  0.45469911569E+02 -0.21067777779E+02  0.52968796812E+02  0.00000000000E+00 0.  1.
         11    1    1    2    0    0  0.30549806577E+02  0.82818641634E+02 -0.24410301744E+03  0.25957369129E+03  0.00000000000E+00 0. -1.
<mgrwt>
<rscale>  0 0.18016269E+03</rscale>
<asrwt>0</asrwt>
<pdfrwt beam="2">  1        1 0.70639666E-01 0.18535939E+03</pdfrwt>
<pdfrwt beam="1">  1       -1 0.11403555E-01 0.18535939E+03</pdfrwt>
<totfact> 0.24781011E+03</totfact>
</mgrwt>
</event>
<event>
 7    1  0.6095443E-006  0.1494751E+03  0.7546771E-02  0.1210171E+00
         -3   -1    0    0    0  501 -0.00000000000E+00  0.00000000000E+00  0.37669321066E+02  0.37669321066E+02  0.00000000000E+00 0.  1.
          3   -1    0    0  501    0  0.00000000000E+00 -0.00000000000E+00 -0.59935817085E+03  0.59935817085E+03  0.00000000000E+00 0. -1.
         23    2    1    2    0    0  0.68423793997E+02  0.45136207355E+02 -0.16949518690E+03  0.22598986105E+03  0.12499482435E+03 0.  0.
          5    1    3    3  502    0  0.60520168237E+02  0.75161271841E+02 -0.16890357295E+03  0.19458266753E+03  0.47000000000E+01 0. -1.
         -5    1    3    3    0  502  0.79036257598E+01 -0.30025064486E+02 -0.59161394956E+00  0.31407193517E+02  0.47000000000E+01 0. -1.
        -11    1    1    2    0    0  0.88241482595E+00 -0.50870954972E+02 -0.20857535131E+03  0.21469119658E+03  0.00000000000E+00 0. -1.
         11    1    1    2    0    0 -0.69306208823E+02  0.57347476178E+01 -0.18361831157E+03  0.19634643429E+03  0.00000000000E+00 0.  1.
<mgrwt>
<rscale>  0 0.14237319E+03</rscale>
<asrwt>0</asrwt>
<pdfrwt beam="2">  1        3 0.92208948E-01 0.14947508E+03</pdfrwt>
<pdfrwt beam="1">  1       -3 0.57952803E-02 0.14947508E+03</pdfrwt>
<totfact> 0.46162200E+02</totfact>
</mgrwt>
</event>
<event>
 7    1  0.6095443E-006  0.2474718E+03  0.7546771E-02  0.1117400E+00
          4   -1    0    0  501    0  0.00000000000E+00  0.00000000000E+00  0.11067300359E+04  0.11067300359E+04  0.00000000000E+00 0. -1.
         -4   -1    0    0    0  501 -0.00000000000E+00 -0.00000000000E+00 -0.56220522808E+02  0.56220522808E+02  0.00000000000E+00 0.  1.
         23    2    1    2    0    0 -0.18387957467E+03  0.10865517932E+03  0.38174284995E+03  0.45493944955E+03  0.12499861315E+03 0.  0.
          5    1    3    3  502    0  0.58739675748E+01  0.35501024513E+02  0.10769318279E+03  0.11364302819E+03  0.47000000000E+01 0. -1.
         -5    1    3    3    0  502 -0.18975354224E+03  0.73154154805E+02  0.27404966717E+03  0.34129642136E+03  0.47000000000E+01 0. -1.
        -11    1    1    2    0    0  0.98098720726E+02 -0.11726996651E+02  0.22459784044E+03  0.24536721743E+03  0.00000000000E+00 0.  1.
         11    1    1    2    0    0  0.85780853942E+02 -0.96928182667E+02  0.44416882266E+03  0.46264389170E+03  0.00000000000E+00 0. -1.
<mgrwt>
<rscale>  0 0.24362652E+03</rscale>
<asrwt>0</asrwt>
<pdfrwt beam="1">  1        4 0.17026614E+00 0.24747182E+03</pdfrwt>
<pdfrwt beam="2">  1       -4 0.86493120E-02 0.24747182E+03</pdfrwt>
<totfact> 0.40005139E+01</totfact>
</mgrwt>
</event>
<event>
 7    1  0.6095443E-006  0.1409026E+03  0.7546771E-02  0.1222476E+00
         -2   -1    0    0    0  501 -0.00000000000E+00  0.00000000000E+00  0.16844181825E+03  0.16844181825E+03  0.00000000000E+00 0.  1.
          2   -1    0    0  501    0  0.00000000000E+00 -0.00000000000E+00 -0.16100708040E+03  0.16100708040E+03  0.00000000000E+00 0. -1.
         23    2    1    2    0    0 -0.49652216970E+02  0.41994011183E+02  0.10836023050E+03  0.17775114628E+03  0.12499876329E+03 0.  0.
          5    1    3    3  502    0 -0.89871104992E+02  0.43730308072E+02  0.82414630655E+02  0.12962799351E+03  0.47000000000E+01 0.  1.
         -5    1    3    3    0  502  0.40218888022E+02 -0.17362968898E+01  0.25945599850E+02  0.48123152767E+02  0.47000000000E+01 0.  1.
        -11    1    1    2    0    0 -0.16770907206E+02  0.15899503038E+02 -0.10307227186E+02  0.25304079861E+02  0.00000000000E+00 0.  1.
         11    1    1    2    0    0  0.66423124176E+02 -0.57893514220E+02 -0.90618265462E+02  0.12639367251E+03  0.00000000000E+00 0. -1.
<mgrwt>
<rscale>  0 0.13341407E+03</rscale>
<asrwt>0</asrwt>
<pdfrwt beam="2">  1        2 0.24770320E-01 0.14090256E+03</pdfrwt>
<pdfrwt beam="1">  1       -2 0.25914126E-01 0.14090256E+03</pdfrwt>
<totfact> 0.28049003E+03</totfact>
</mgrwt>
</event>
<event>
 7    1  0.6095443E-006  0.1412154E+03  0.7546771E-02  0.1224990E+00
         -2   -1    0    0    0  501 -0.00000000000E+00  0.00000000000E+00  0.74992443873E+02  0.74992443873E+02  0.00000000000E+00 0.  1.
          2   -1    0    0  501    0  0.00000000000E+00 -0.00000000000E+00 -0.20758331533E+03  0.20758331533E+03  0.00000000000E+00 0. -1.
         23    2    1    2    0    0  0.27914059528E+02 -0.59443055901E+02 -0.91057342336E+02  0.16802749978E+03  0.12501651681E+03 0.  0.
          5    1    3    3  502    0  0.22916134154E+01 -0.31408500716E+02  0.28352896055E+02  0.42634752538E+02  0.47000000000E+01 0. -1.
         -5    1    3    3    0  502  0.25622446112E+02 -0.28034555185E+02 -0.11941023839E+03  0.12539274725E+03  0.47000000000E+01 0. -1.
        -11    1    1    2    0    0 -0.41426881791E+01  0.34042750663E+02  0.22959999475E+02  0.41270235206E+02  0.00000000000E+00 0.  1.
         11    1    1    2    0    0 -0.23771371349E+02  0.25400305237E+02 -0.64493528596E+02  0.73278024214E+02  0.00000000000E+00 0. -1.
<mgrwt>
<rscale>  0 0.13167611E+03</rscale>
<asrwt>0</asrwt>
<pdfrwt beam="2">  1        2 0.31935895E-01 0.14121544E+03</pdfrwt>
<pdfrwt beam="1">  1       -2 0.11537299E-01 0.14121544E+03</pdfrwt>
<totfact> 0.81893646E+03</totfact>
</mgrwt>
</event>
<event>
 7    1  0.6095443E-006  0.1607368E+03  0.7546771E-02  0.1195523E+00
         -2   -1    0    0    0  501 -0.00000000000E+00  0.00000000000E+00  0.19563893821E+03  0.19563893821E+03  0.00000000000E+00 0.  1.
          2   -1    0    0  501    0  0.00000000000E+00 -0.00000000000E+00 -0.14749658140E+03  0.14749658140E+03  0.00000000000E+00 0. -1.
         23    2    1    2    0    0 -0.91535399309E+02  0.44524455493E+02  0.10912458634E+03  0.19427942788E+03  0.12439921339E+03 0.  0.
          5    1    3    3  502    0 -0.65497743137E+02  0.16126043464E+02 -0.10579499961E+02  0.68439896648E+02  0.47000000000E+01 0.  1.
         -5    1    3    3    0  502 -0.26037656172E+02  0.28398412030E+02  0.11970408630E+03  0.12583953123E+03  0.47000000000E+01 0.  1.
        -11    1    1    2    0    0  0.41125122472E+02  0.76838432949E+01 -0.63724626265E+02  0.76230867362E+02  0.00000000000E+00 0. -1.
         11    1    1    2    0    0  0.50410276837E+02 -0.52208298788E+02  0.27423967389E+01  0.72625224358E+02  0.00000000000E+00 0.  1.
<mgrwt>
<rscale>  0 0.15410068E+03</rscale>
<asrwt>0</asrwt>
<pdfrwt beam="2">  1        2 0.22691782E-01 0.16073681E+03</pdfrwt>
<pdfrwt beam="1">  1       -2 0.30098298E-01 0.16073681E+03</pdfrwt>
<totfact> 0.23831310E+03</totfact>
</mgrwt>
</event>
<event>
 7    1  0.6095443E-006  0.1345580E+03  0.7546771E-02  0.1233089E+00
         -2   -1    0    0    0  501 -0.00000000000E+00  0.00000000000E+00  0.52514224798E+02  0.52514224798E+02  0.00000000000E+00 0.  1.
          2   -1    0    0  501    0  0.00000000000E+00 -0.00000000000E+00 -0.30833898721E+03  0.30833898721E+03  0.00000000000E+00 0. -1.
         23    2    1    2    0    0  0.44478449092E+02  0.22421255310E+02 -0.80448893569E+02  0.15677332897E+03  0.12499922830E+03 0.  0.
          5    1    3    3  502    0  0.67784234536E+02  0.59628608575E+02 -0.53630795302E+02  0.10511244273E+03  0.47000000000E+01 0.  1.
         -5    1    3    3    0  502 -0.23305785444E+02 -0.37207353265E+02 -0.26818098267E+02  0.51660886237E+02  0.47000000000E+01 0.  1.
        -11    1    1    2    0    0 -0.73071709771E+02 -0.15406968181E+02 -0.11931117742E+03  0.14075512955E+03  0.00000000000E+00 0.  1.
         11    1    1    2    0    0  0.28593260678E+02 -0.70142871285E+01 -0.56064691427E+02  0.63324753493E+02  0.00000000000E+00 0. -1.
<mgrwt>
<rscale>  0 0.12627579E+03</rscale>
<asrwt>0</asrwt>
<pdfrwt beam="2">  1        2 0.47436766E-01 0.13455799E+03</pdfrwt>
<pdfrwt beam="1">  1       -2 0.80791117E-02 0.13455799E+03</pdfrwt>
<totfact> 0.93565677E+03</totfact>
</mgrwt>
</event>
<event>
 7    1  0.6095443E-006  0.1302834E+03  0.7546771E-02  0.1240482E+00
          1   -1    0    0  501    0  0.00000000000E+00  0.00000000000E+00  0.65967477023E+03  0.65967477023E+03  0.00000000000E+00 0. -1.
         -1   -1    0    0    0  501 -0.00000000000E+00 -0.00000000000E+00 -0.19900498858E+02  0.19900498858E+02  0.00000000000E+00 0.  1.
         23    2    1    2    0    0 -0.27719129117E+02  0.24062772628E+02  0.36202711769E+03  0.38475627691E+03  0.12500556602E+03 0.  0.
          5    1    3    3  502    0 -0.25021970084E+02 -0.39304592288E+02  0.26249871122E+03  0.26664323234E+03  0.47000000000E+01 0. -1.
         -5    1    3    3    0  502 -0.26971590328E+01  0.63367364916E+02  0.99528406466E+02  0.11811304457E+03  0.47000000000E+01 0. -1.
        -11    1    1    2    0    0  0.30569247661E+02 -0.57580887049E+02  0.18694745945E+03  0.19798835837E+03  0.00000000000E+00 0. -1.
         11    1    1    2    0    0 -0.28501185444E+01  0.33518114422E+02  0.90799694237E+02  0.96830633808E+02  0.00000000000E+00 0.  1.
<mgrwt>
<rscale>  0 0.12159900E+03</rscale>
<asrwt>0</asrwt>
<pdfrwt beam="1">  1        1 0.10148841E+00 0.13028338E+03</pdfrwt>
<pdfrwt beam="2">  1       -1 0.30616157E-02 0.13028338E+03</pdfrwt>
<totfact> 0.10721977E+04</totfact>
</mgrwt>
</event>
<event>
 7    1  0.6095443E-006  0.1423817E+03  0.7546771E-02  0.1221008E+00
          1   -1    0    0  501    0  0.00000000000E+00  0.00000000000E+00  0.25513140590E+03  0.25513140590E+03  0.00000000000E+00 0. -1.
         -1   -1    0    0    0  501 -0.00000000000E+00 -0.00000000000E+00 -0.65210239418E+02  0.65210239418E+02  0.00000000000E+00 0.  1.
         23    2    1    2    0    0  0.46729747299E+01  0.68003968782E+02  0.83933954441E+02  0.16527991838E+03  0.12500466491E+03 0.  0.
          5    1    3    3  502    0 -0.23644059134E+02  0.63964066768E+02  0.10785835585E+03  0.12769478571E+03  0.47000000000E+01 0.  1.
         -5    1    3    3    0  502  0.28317033864E+02  0.40399020141E+01 -0.23924401410E+02  0.37585132672E+02  0.47000000000E+01 0.  1.
        -11    1    1    2    0    0  0.96870766884E+01  0.15978331829E+02  0.49308829526E+02  0.52730514998E+02  0.00000000000E+00 0. -1.
         11    1    1    2    0    0 -0.14360051418E+02 -0.83982300610E+02  0.56678382512E+02  0.10233121194E+03  0.00000000000E+00 0.  1.
<mgrwt>
<rscale>  0 0.13444289E+03</rscale>
<asrwt>0</asrwt>
<pdfrwt beam="1">  1        1 0.39250985E-01 0.14238168E+03</pdfrwt>
<pdfrwt beam="2">  1       -1 0.10032345E-01 0.14238168E+03</pdfrwt>
<totfact> 0.62417702E+03</totfact>
</mgrwt>
</event>
<event>
 7    1  0.6095443E-006  0.1458058E+03  0.7546771E-02  0.1214689E+00
         -2   -1    0    0    0  501 -0.00000000000E+00  0.00000000000E+00  0.41131800444E+02  0.41131800444E+02  0.00000000000E+00 0.  1.
          2   -1    0    0  501    0  0.00000000000E+00 -0.00000000000E+00 -0.43604236380E+03  0.43604236380E+03  0.00000000000E+00 0. -1.
         23    2    1    2    0    0  0.67349854179E+02 -0.33151706056E+02 -0.24222353095E+03  0.28272170366E+03  0.12499713718E+03 0.  0.
          5    1    3    3  502    0  0.21465793257E+02  0.11656788232E+02 -0.20874731886E+03  0.21022415209E+03  0.47000000000E+01 0.  1.
         -5    1    3    3    0  502  0.45884060922E+02 -0.44808494289E+02 -0.33476212085E+02  0.72497551563E+02  0.47000000000E+01 0.  1.
        -11    1    1    2    0    0 -0.24677029299E+02  0.39386025394E+02 -0.14284723164E+03  0.15021832897E+03  0.00000000000E+00 0. -1.
         11    1    1    2    0    0 -0.42672824879E+02 -0.62343193380E+01 -0.98398007723E+01  0.44234131618E+02  0.00000000000E+00 0.  1.
<mgrwt>
<rscale>  0 0.13899403E+03</rscale>
<asrwt>0</asrwt>
<pdfrwt beam="2">  1        2 0.67083441E-01 0.14580577E+03</pdfrwt>
<pdfrwt beam="1">  1       -2 0.63279693E-02 0.14580577E+03</pdfrwt>
<totfact> 0.94576118E+03</totfact>
</mgrwt>
</event>
<event>
 7    1  0.6095443E-006  0.1261679E+03  0.7546771E-02  0.1249400E+00
         -3   -1    0    0    0  501 -0.00000000000E+00  0.00000000000E+00  0.43188479138E+03  0.43188479138E+03  0.00000000000E+00 0.  1.
          3   -1    0    0  501    0  0.00000000000E+00 -0.00000000000E+00 -0.32611912900E+02  0.32611912900E+02  0.00000000000E+00 0. -1.
         23    2    1    2    0    0 -0.70917162535E+01  0.15516652202E+02  0.31950529493E+03  0.34351415388E+03  0.12500912565E+03 0.  0.
          5    1    3    3  502    0  0.45496739605E+02 -0.14933846023E+02  0.59804567652E+02  0.76757080349E+02  0.47000000000E+01 0.  1.
         -5    1    3    3    0  502 -0.52588455858E+02  0.30450498226E+02  0.25970072728E+03  0.26675707354E+03  0.47000000000E+01 0.  1.
        -11    1    1    2    0    0  0.24745573857E+02  0.64878791246E-01  0.91420416951E+02  0.94710296538E+02  0.00000000000E+00 0.  1.
         11    1    1    2    0    0 -0.17653857603E+02 -0.15581530993E+02 -0.11652833403E+02  0.26272253856E+02  0.00000000000E+00 0. -1.
<mgrwt>
<rscale>  0 0.11625872E+03</rscale>
<asrwt>0</asrwt>
<pdfrwt beam="2">  1        3 0.50172177E-02 0.12616791E+03</pdfrwt>
<pdfrwt beam="1">  1       -3 0.66443810E-01 0.12616791E+03</pdfrwt>
<totfact> 0.11473393E+03</totfact>
</mgrwt>
</event>
<event>
 7    1  0.6095443E-006  0.1530932E+03  0.7546771E-02  0.1206018E+00
          1   -1    0    0  501    0  0.00000000000E+00  0.00000000000E+00  0.18689201371E+03  0.18689201371E+03  0.00000000000E+00 0. -1.
         -1   -1    0    0    0  501 -0.00000000000E+00 -0.00000000000E+00 -0.11415988474E+03  0.11415988474E+03  0.00000000000E+00 0.  1.
         23    2    1    2    0    0  0.12034410428E+02 -0.87552218116E+02 -0.59542963725E+01  0.15320891404E+03  0.12500919873E+03 0.  0.
          5    1    3    3  502    0  0.32416941238E+02 -0.72044862736E+02  0.48520138880E+02  0.92831105794E+02  0.47000000000E+01 0.  1.
         -5    1    3    3    0  502 -0.20382530810E+02 -0.15507355380E+02 -0.54474435252E+02  0.60377808251E+02  0.47000000000E+01 0.  1.
        -11    1    1    2    0    0 -0.40950949633E+02  0.10280454612E+02  0.20880863017E+02  0.47102849842E+02  0.00000000000E+00 0. -1.
         11    1    1    2    0    0  0.28916539205E+02  0.77271763504E+02  0.57805562329E+02  0.10074013456E+03  0.00000000000E+00 0.  1.
<mgrwt>
<rscale>  0 0.14557493E+03</rscale>
<asrwt>0</asrwt>
<pdfrwt beam="1">  1        1 0.28752618E-01 0.15309317E+03</pdfrwt>
<pdfrwt beam="2">  1       -1 0.17563059E-01 0.15309317E+03</pdfrwt>
<totfact> 0.38577897E+03</totfact>
</mgrwt>
</event>
<event>
 6    1  0.6095443E-006  0.1785295E+03  0.7546771E-02  0.1205324E+00
         -2   -1    0    0    0  501 -0.00000000000E+00  0.00000000000E+00  0.13498955827E+03  0.13498955827E+03  0.00000000000E+00 0.  1.
          2   -1    0    0  501    0  0.00000000000E+00 -0.00000000000E+00 -0.21980968566E+03  0.21980968566E+03  0.00000000000E+00 0. -1.
          5    1    1    2  502    0 -0.50654149296E+02  0.30509277566E+01  0.17554173029E+02  0.53901669657E+02  0.47000000000E+01 0. -1.
         -5    1    1    2    0  502  0.12592731884E+03  0.19830950441E+02  0.43244248797E+02  0.13469636699E+03  0.47000000000E+01 0.  1.
        -11    1    1    2    0    0 -0.16025402498E+02 -0.50398498922E+01 -0.19620686142E+02  0.25829923284E+02  0.00000000000E+00 0. -1.
         11    1    1    2    0    0 -0.59247767044E+02 -0.17842028305E+02 -0.12599786308E+03  0.14037128401E+03  0.00000000000E+00 0.  1.
<mgrwt>
<rscale>  0 0.14611946E+03</rscale>
<asrwt>0</asrwt>
<pdfrwt beam="2">  1        2 0.33816875E-01 0.17852947E+03</pdfrwt>
<pdfrwt beam="1">  1       -2 0.20767624E-01 0.17852947E+03</pdfrwt>
<totfact> 0.29619905E+03</totfact>
</mgrwt>
</event>
<event>
 7    1  0.6095443E-006  0.1435537E+03  0.7546771E-02  0.1218995E+00
          2   -1    0    0  501    0  0.00000000000E+00  0.00000000000E+00  0.13609697551E+03  0.13609697551E+03  0.00000000000E+00 0. -1.
         -2   -1    0    0    0  501 -0.00000000000E+00 -0.00000000000E+00 -0.12359336196E+03  0.12359336196E+03  0.00000000000E+00 0.  1.
         23    2    1    2    0    0  0.33695966065E+02  0.62023527757E+02 -0.20684167556E+01  0.14356860843E+03  0.12500132340E+03 0.  0.
          5    1    3    3  502    0 -0.33025277585E+02 -0.10497157933E+02 -0.24114699583E+02  0.42479030359E+02  0.47000000000E+01 0.  1.
         -5    1    3    3    0  502  0.66721243650E+02  0.72520685690E+02  0.22046282827E+02  0.10108957807E+03  0.47000000000E+01 0.  1.
        -11    1    1    2    0    0 -0.36347467972E+02 -0.37997145789E+02  0.50443422535E+02  0.72866044171E+02  0.00000000000E+00 0. -1.
         11    1    1    2    0    0  0.26515019078E+01 -0.24026381969E+02 -0.35871392236E+02  0.43255684873E+02  0.00000000000E+00 0.  1.
<mgrwt>
<rscale>  0 0.13587123E+03</rscale>
<asrwt>0</asrwt>
<pdfrwt beam="1">  1        2 0.20937996E-01 0.14355371E+03</pdfrwt>
<pdfrwt beam="2">  1       -2 0.19014363E-01 0.14355371E+03</pdfrwt>
<totfact> 0.57667857E+03</totfact>
</mgrwt>
</event>
<event>
 7    1  0.6095443E-006  0.2408782E+03  0.7546771E-02  0.1122148E+00
          3   -1    0    0  501    0  0.00000000000E+00  0.00000000000E+00  0.33605789660E+03  0.33605789660E+03  0.00000000000E+00 0. -1.
         -3   -1    0    0    0  501 -0.00000000000E+00 -0.00000000000E+00 -0.18697206058E+03  0.18697206058E+03  0.00000000000E+00 0.  1.
         23    2    1    2    0    0  0.19126331181E+03  0.76294232333E+02 -0.21168974247E+02  0.24180662748E+03  0.12497941946E+03 0.  0.
          5    1    3    3  502    0  0.24627972950E+02 -0.16215278626E+02  0.32114239341E+02  0.43850731818E+02  0.47000000000E+01 0. -1.
         -5    1    3    3    0  502  0.16663533886E+03  0.92509510959E+02 -0.53283213588E+02  0.19795589566E+03  0.47000000000E+01 0. -1.
        -11    1    1    2    0    0 -0.86964490014E+02  0.49960470364E+01  0.40872611926E+02  0.96220337845E+02  0.00000000000E+00 0.  1.
         11    1    1    2    0    0 -0.10429882180E+03 -0.81290279369E+02  0.12938219834E+03  0.18500299186E+03  0.00000000000E+00 0. -1.
<mgrwt>
<rscale>  0 0.23649814E+03</rscale>
<asrwt>0</asrwt>
<pdfrwt beam="1">  1        3 0.51701215E-01 0.24087823E+03</pdfrwt>
<pdfrwt beam="2">  1       -3 0.28764932E-01 0.24087823E+03</pdfrwt>
<totfact> 0.10765613E+02</totfact>
</mgrwt>
</event>
<event>
 7    1  0.6095443E-006  0.1250215E+03  0.7546771E-02  0.1243489E+00
          2   -1    0    0  501    0  0.00000000000E+00  0.00000000000E+00  0.61444387698E+03  0.61444387698E+03  0.00000000000E+00 0. -1.
         -2   -1    0    0    0  501 -0.00000000000E+00 -0.00000000000E+00 -0.30413339453E+02  0.30413339453E+02  0.00000000000E+00 0.  1.
         23    2    1    2    0    0 -0.46049998601E+02  0.77014413244E+01  0.13646108440E+03  0.18507299263E+03  0.11597616340E+03 0.  0.
          5    1    3    3  502    0 -0.40671823723E+01  0.24318832451E+02  0.13739354971E+03  0.13966755201E+03  0.47000000000E+01 0. -1.
         -5    1    3    3    0  502 -0.41982816229E+02 -0.16617391127E+02 -0.93246530457E+00  0.45405440620E+02  0.47000000000E+01 0.  1.
        -11    1    1    2    0    0 -0.24722851900E+02  0.14866436138E+02  0.17080965059E+03  0.17322865544E+03  0.00000000000E+00 0.  1.
         11    1    1    2    0    0  0.70772850501E+02 -0.22567877462E+02  0.27675980253E+03  0.28655556836E+03  0.00000000000E+00 0. -1.
<mgrwt>
<rscale>  0 0.11976264E+03</rscale>
<asrwt>0</asrwt>
<pdfrwt beam="1">  1        2 0.94529818E-01 0.12502154E+03</pdfrwt>
<pdfrwt beam="2">  1       -2 0.46789758E-02 0.12502154E+03</pdfrwt>
<totfact> 0.10097415E+04</totfact>
</mgrwt>
</event>
<event>
 7    1  0.6095443E-006  0.1304416E+03  0.7546771E-02  0.1239500E+00
         -2   -1    0    0    0  501 -0.00000000000E+00  0.00000000000E+00  0.11944684024E+03  0.11944684024E+03  0.00000000000E+00 0.  1.
          2   -1    0    0  501    0  0.00000000000E+00 -0.00000000000E+00 -0.11858635334E+03  0.11858635334E+03  0.00000000000E+00 0. -1.
         23    2    1    2    0    0 -0.75379166906E+01 -0.36517220229E+02  0.29098664765E+02  0.13364780156E+03  0.12499870003E+03 0.  0.
          5    1    3    3  502    0  0.34510313114E+02  0.30177643950E+02  0.29400879381E+02  0.54664006568E+02  0.47000000000E+01 0. -1.
         -5    1    3    3    0  502 -0.42048229805E+02 -0.66694864180E+02 -0.30221461637E+00  0.78983794992E+02  0.47000000000E+01 0. -1.
        -11    1    1    2    0    0 -0.30284605003E+02  0.85802635224E+01  0.19782336650E+02  0.37176861966E+02  0.00000000000E+00 0.  1.
         11    1    1    2    0    0  0.37822521694E+02  0.27936956707E+02 -0.48020514519E+02  0.67208530054E+02  0.00000000000E+00 0. -1.
<mgrwt>
<rscale>  0 0.12220707E+03</rscale>
<asrwt>0</asrwt>
<pdfrwt beam="2">  1        2 0.18244054E-01 0.13044157E+03</pdfrwt>
<pdfrwt beam="1">  1       -2 0.18376437E-01 0.13044157E+03</pdfrwt>
<totfact> 0.70915562E+03</totfact>
</mgrwt>
</event>
<event>
 7    1  0.6095443E-006  0.2078689E+03  0.7546771E-02  0.1147066E+00
         -1   -1    0    0    0  501 -0.00000000000E+00  0.00000000000E+00  0.25002112538E+03  0.25002112538E+03  0.00000000000E+00 0.  1.
          1   -1    0    0  501    0  0.00000000000E+00 -0.00000000000E+00 -0.16954642205E+03  0.16954642205E+03  0.00000000000E+00 0. -1.
         23    2    1    2    0    0  0.61820248899E+02  0.15439931396E+03  0.96302182009E+02  0.22909298209E+03  0.12469399687E+03 0.  0.
          5    1    3    3  502    0  0.47298379780E+02  0.17147646858E+03  0.63185679572E+02  0.18882753007E+03  0.47000000000E+01 0. -1.
         -5    1    3    3    0  502  0.14521869119E+02 -0.17077154623E+02  0.33116502436E+02  0.40265452019E+02  0.47000000000E+01 0. -1.
        -11    1    1    2    0    0 -0.72200553586E+02 -0.95047712771E+02  0.19026017432E+02  0.12086760104E+03  0.00000000000E+00 0.  1.
         11    1    1    2    0    0  0.10380304687E+02 -0.59351601191E+02 -0.34853496114E+02  0.69606964312E+02  0.00000000000E+00 0. -1.
<mgrwt>
<rscale>  0 0.20320073E+03</rscale>
<asrwt>0</asrwt>
<pdfrwt beam="2">  1        1 0.26084065E-01 0.20786891E+03</pdfrwt>
<pdfrwt beam="1">  1       -1 0.38464789E-01 0.20786891E+03</pdfrwt>
<totfact> 0.11938836E+03</totfact>
</mgrwt>
</event>
<event>
 7    1  0.6095443E-006  0.1348059E+03  0.7546771E-02  0.1232919E+00
         -1   -1    0    0    0  501 -0.00000000000E+00  0.00000000000E+00  0.57610702376E+02  0.57610702376E+02  0.00000000000E+00 0.  1.
          1   -1    0    0  501    0  0.00000000000E+00 -0.00000000000E+00 -0.24939618442E+03  0.24939618442E+03  0.00000000000E+00 0. -1.
         23    2    1    2    0    0  0.13723565052E+02  0.48617855413E+02 -0.95896444156E+02  0.16543504088E+03  0.12498236934E+03 0.  0.
          5    1    3    3  502    0  0.25038120572E+02 -0.30631286085E+02 -0.71094338732E+02  0.81496491757E+02  0.47000000000E+01 0. -1.
         -5    1    3    3    0  502 -0.11314555520E+02  0.79249141498E+02 -0.24802105424E+02  0.83938549120E+02  0.47000000000E+01 0. -1.
        -11    1    1    2    0    0  0.30761008080E+02 -0.40412207568E+01 -0.63683338697E+02  0.70838822061E+02  0.00000000000E+00 0. -1.
         11    1    1    2    0    0 -0.44484573132E+02 -0.44576634656E+02 -0.32205699195E+02  0.70733023862E+02  0.00000000000E+00 0.  1.
<mgrwt>
<rscale>  0 0.12638622E+03</rscale>
<asrwt>0</asrwt>
<pdfrwt beam="2">  1        1 0.38368644E-01 0.13480588E+03</pdfrwt>
<pdfrwt beam="1">  1       -1 0.88631849E-02 0.13480588E+03</pdfrwt>
<totfact> 0.77246459E+03</totfact>
</mgrwt>
</event>
<event>
 7    1  0.6095443E-006  0.1720695E+03  0.7546771E-02  0.1182255E+00
          3   -1    0    0  501    0  0.00000000000E+00  0.00000000000E+00  0.12145973644E+03  0.12145973644E+03  0.00000000000E+00 0. -1.
         -3   -1    0    0    0  501 -0.00000000000E+00 -0.00000000000E+00 -0.49482507998E+03  0.49482507998E+03  0.00000000000E+00 0.  1.
         23    2    1    2    0    0  0.85492987948E+02 -0.81722234749E+02 -0.42545525571E+03  0.45893363438E+03  0.12498132464E+03 0.  0.
          5    1    3    3  502    0  0.33000458476E+02 -0.10731266208E+03 -0.25404857222E+03  0.27779093713E+03  0.47000000000E+01 0.  1.
         -5    1    3    3    0  502  0.52492529473E+02  0.25590427334E+02 -0.17140668349E+03  0.18114269725E+03  0.47000000000E+01 0.  1.
        -11    1    1    2    0    0 -0.36954016627E+02 -0.71197696450E+01  0.40768679089E+02  0.55483111479E+02  0.00000000000E+00 0. -1.
         11    1    1    2    0    0 -0.48538971321E+02  0.88842004394E+02  0.11321233082E+02  0.10186807056E+03  0.00000000000E+00 0.  1.
<mgrwt>
<rscale>  0 0.16584187E+03</rscale>
<asrwt>0</asrwt>
<pdfrwt beam="1">  1        3 0.18686113E-01 0.17206948E+03</pdfrwt>
<pdfrwt beam="2">  1       -3 0.76126937E-01 0.17206948E+03</pdfrwt>
<totfact> 0.10123742E+02</totfact>
</mgrwt>
</event>
<event>
 7    1  0.6095443E-006  0.1448391E+03  0.7546771E-02  0.1216734E+00
          4   -1    0    0  501    0  0.00000000000E+00  0.00000000000E+00  0.52604984545E+03  0.52604984545E+03  0.00000000000E+00 0. -1.
         -4   -1    0    0    0  501 -0.00000000000E+00 -0.00000000000E+00 -0.34073449437E+02  0.34073449437E+02  0.00000000000E+00 0.  1.
         23    2    1    2    0    0 -0.71878707179E+01 -0.72815803767E+02  0.21539157475E+03  0.25956094884E+03  0.12499819569E+03 0.  0.
          5    1    3    3  502    0 -0.41405676712E+02  0.19499708309E+02  0.61367924786E+02  0.76699288658E+02  0.47000000000E+01 0.  1.
         -5    1    3    3    0  502  0.34217805994E+02 -0.92315512076E+02  0.15402364996E+03  0.18286166018E+03  0.47000000000E+01 0.  1.
        -11    1    1    2    0    0  0.48036352146E+02  0.28538367258E+02  0.10915070404E+03  0.12262057627E+03  0.00000000000E+00 0.  1.
         11    1    1    2    0    0 -0.40848481428E+02  0.44277436509E+02  0.16743411722E+03  0.17794176977E+03  0.00000000000E+00 0. -1.
<mgrwt>
<rscale>  0 0.13749935E+03</rscale>
<asrwt>0</asrwt>
<pdfrwt beam="1">  1        4 0.80930739E-01 0.14483907E+03</pdfrwt>
<pdfrwt beam="2">  1       -4 0.52420695E-02 0.14483907E+03</pdfrwt>
<totfact> 0.51524329E+02</totfact>
</mgrwt>
</event>
<event>
 7    1  0.6095443E-006  0.1605162E+03  0.7546771E-02  0.1195947E+00
          2   -1    0    0  501    0  0.00000000000E+00  0.00000000000E+00  0.36508265188E+02  0.36508265188E+02  0.00000000000E+00 0. -1.
         -2   -1    0    0    0  501 -0.00000000000E+00 -0.00000000000E+00 -0.62357113451E+03  0.62357113451E+03  0.00000000000E+00 0.  1.
         23    2    1    2    0    0 -0.25989112197E+02 -0.97299331935E+02 -0.38384108575E+03  0.41605221050E+03  0.12499147494E+03 0.  0.
          5    1    3    3  502    0  0.38539582360E+02 -0.68220457182E+02 -0.12444738429E+03  0.14713453586E+03  0.47000000000E+01 0.  1.
         -5    1    3    3    0  502 -0.64528694557E+02 -0.29078874753E+02 -0.25939370146E+03  0.26891767464E+03  0.47000000000E+01 0.  1.
        -11    1    1    2    0    0  0.35490015580E+02  0.46972487489E+02 -0.17690855764E+03  0.18644729430E+03  0.00000000000E+00 0.  1.
         11    1    1    2    0    0 -0.95009033833E+01  0.50326844446E+02 -0.26313225938E+02  0.57579894896E+02  0.00000000000E+00 0. -1.
<mgrwt>
<rscale>  0 0.15374380E+03</rscale>
<asrwt>0</asrwt>
<pdfrwt beam="1">  1        2 0.56166567E-02 0.16051624E+03</pdfrwt>
<pdfrwt beam="2">  1       -2 0.95934012E-01 0.16051624E+03</pdfrwt>
<totfact> 0.12428411E+03</totfact>
</mgrwt>
</event>
<event>
 7    1  0.6095443E-006  0.1846574E+03  0.7546771E-02  0.1168772E+00
         -1   -1    0    0    0  501 -0.00000000000E+00  0.00000000000E+00  0.29847279237E+02  0.29847279237E+02  0.00000000000E+00 0.  1.
          1   -1    0    0  501    0  0.00000000000E+00 -0.00000000000E+00 -0.10193973143E+04  0.10193973143E+04  0.00000000000E+00 0. -1.
         23    2    1    2    0    0 -0.13374922168E+03 -0.24090952662E+02 -0.48282940584E+03  0.51693576908E+03  0.12501650252E+03 0.  0.
          5    1    3    3  502    0 -0.20957856610E+02 -0.26125056724E+02 -0.17452707768E+02  0.38058341411E+02  0.47000000000E+01 0.  1.
         -5    1    3    3    0  502 -0.11279136507E+03  0.20341040617E+01 -0.46537669808E+03  0.47887742766E+03  0.47000000000E+01 0.  1.
        -11    1    1    2    0    0  0.14037504763E+03  0.35273568987E+02 -0.49111333680E+03  0.51199774242E+03  0.00000000000E+00 0. -1.
         11    1    1    2    0    0 -0.66258259494E+01 -0.11182616324E+02 -0.15607292464E+02  0.20311082084E+02  0.00000000000E+00 0.  1.
<mgrwt>
<rscale>  0 0.17900224E+03</rscale>
<asrwt>0</asrwt>
<pdfrwt beam="2">  1        1 0.15683035E+00 0.18465740E+03</pdfrwt>
<pdfrwt beam="1">  1       -1 0.45918894E-02 0.18465740E+03</pdfrwt>
<totfact> 0.30686408E+03</totfact>
</mgrwt>
</event>
<event>
 7    1  0.6095443E-006  0.1802769E+03  0.7546771E-02  0.1169227E+00
         -1   -1    0    0    0  501 -0.00000000000E+00  0.00000000000E+00  0.30266540431E+02  0.30266540431E+02  0.00000000000E+00 0.  1.
          1   -1    0    0  501    0  0.00000000000E+00 -0.00000000000E+00 -0.10532913108E+04  0.10532913108E+04  0.00000000000E+00 0. -1.
         23    2    1    2    0    0 -0.10397281521E+03  0.77860271133E+02 -0.44663826378E+03  0.48164873516E+03  0.12500878883E+03 0.  0.
          5    1    3    3  502    0 -0.17274914763E+02  0.95056539562E+01 -0.28574266821E+03  0.28646071733E+03  0.47000000000E+01 0.  1.
         -5    1    3    3    0  502 -0.86697900443E+02  0.68354617177E+02 -0.16089559557E+03  0.19518801783E+03  0.47000000000E+01 0.  1.
        -11    1    1    2    0    0  0.29662527847E+02 -0.78429099944E+02 -0.17941936297E+03  0.19804619937E+03  0.00000000000E+00 0.  1.
         11    1    1    2    0    0  0.74310287359E+02  0.56882881058E+00 -0.39696714364E+03  0.40386291673E+03  0.00000000000E+00 0. -1.
<mgrwt>
<rscale>  0 0.17853670E+03</rscale>
<asrwt>0</asrwt>
<pdfrwt beam="2">  1        1 0.16204481E+00 0.18027691E+03</pdfrwt>
<pdfrwt beam="1">  1       -1 0.46563911E-02 0.18027691E+03</pdfrwt>
<totfact> 0.28379910E+03</totfact>
</mgrwt>
</event>
<event>
 7    1  0.6095443E-006  0.1483754E+03  0.7546771E-02  0.1211947E+00
         -2   -1    0    0    0  501 -0.00000000000E+00  0.00000000000E+00  0.41121264642E+02  0.41121264642E+02  0.00000000000E+00 0.  1.
          2   -1    0    0  501    0  0.00000000000E+00 -0.00000000000E+00 -0.44297254594E+03  0.44297254594E+03  0.00000000000E+00 0. -1.
         23    2    1    2    0    0  0.30481995146E+02 -0.73906564002E+02 -0.23499778397E+03  0.27791945037E+03  0.12499572069E+03 0.  0.
          5    1    3    3  502    0 -0.11869341125E+02 -0.71906870174E+02 -0.51086661128E+02  0.89125844636E+02  0.47000000000E+01 0.  1.
         -5    1    3    3    0  502  0.42351336271E+02 -0.19996938277E+01 -0.18391112284E+03  0.18879360573E+03  0.47000000000E+01 0.  1.
        -11    1    1    2    0    0 -0.80205027798E+01  0.22821476104E+02 -0.14375793414E+03  0.14577891433E+03  0.00000000000E+00 0. -1.
         11    1    1    2    0    0 -0.22461492366E+02  0.51085087897E+02 -0.23095563195E+02  0.60395445889E+02  0.00000000000E+00 0.  1.
<mgrwt>
<rscale>  0 0.14103178E+03</rscale>
<asrwt>0</asrwt>
<pdfrwt beam="2">  1        2 0.68149622E-01 0.14837541E+03</pdfrwt>
<pdfrwt beam="1">  1       -2 0.63263485E-02 0.14837541E+03</pdfrwt>
<totfact> 0.93121827E+03</totfact>
</mgrwt>
</event>
<event>
 6    1  0.6095443E-006  0.1680723E+03  0.7546771E-02  0.1203151E+00
          1   -1    0    0  501    0  0.00000000000E+00  0.00000000000E+00  0.28039200325E+03  0.28039200325E+03  0.00000000000E+00 0. -1.
         -1   -1    0    0    0  501 -0.00000000000E+00 -0.00000000000E+00 -0.75169390054E+02  0.75169390054E+02  0.00000000000E+00 0.  1.
          5    1    1    2  502    0  0.50773489060E+02  0.38742949772E+02  0.61581456532E+02  0.88844409712E+02  0.47000000000E+01 0. -1.
         -5    1    1    2    0  502 -0.40109161831E+02 -0.79638675924E+02 -0.24507558386E+01  0.89326142701E+02  0.47000000000E+01 0.  1.
        -11    1    1    2    0    0  0.27432617833E+02  0.24651372911E+02  0.12613732239E+03  0.13141865472E+03  0.00000000000E+00 0.  1.
         11    1    1    2    0    0 -0.38096945062E+02  0.16244353240E+02  0.19954590113E+02  0.45972186176E+02  0.00000000000E+00 0. -1.
<mgrwt>
<rscale>  0 0.14784094E+03</rscale>
<asrwt>0</asrwt>
<pdfrwt beam="1">  1        1 0.43137231E-01 0.16807232E+03</pdfrwt>
<pdfrwt beam="2">  1       -1 0.11564522E-01 0.16807232E+03</pdfrwt>
<totfact> 0.45042764E+03</totfact>
</mgrwt>
</event>
<event>
 6    1  0.6095443E-006  0.3450192E+03  0.7546771E-02  0.1109366E+00
         -2   -1    0    0    0  501 -0.00000000000E+00  0.00000000000E+00  0.10628850035E+03  0.10628850035E+03  0.00000000000E+00 0.  1.
          2   -1    0    0  501    0  0.00000000000E+00 -0.00000000000E+00 -0.64054486774E+03  0.64054486774E+03  0.00000000000E+00 0. -1.
          5    1    1    2  502    0  0.87500050921E+01 -0.14548708556E+03 -0.25265880238E+03  0.29172181111E+03  0.47000000000E+01 0. -1.
         -5    1    1    2    0  502 -0.24666050132E+02  0.95758315113E+02  0.47377546946E+02  0.10974876262E+03  0.47000000000E+01 0.  1.
        -11    1    1    2    0    0 -0.28473716017E+02  0.31698703785E+02 -0.69657010463E+02  0.81655737289E+02  0.00000000000E+00 0.  1.
         11    1    1    2    0    0  0.44389761057E+02  0.18030066658E+02 -0.25931810149E+03  0.26370705708E+03  0.00000000000E+00 0. -1.
<mgrwt>
<rscale>  0 0.25633435E+03</rscale>
<asrwt>0</asrwt>
<pdfrwt beam="2">  1        2 0.98545362E-01 0.34501917E+03</pdfrwt>
<pdfrwt beam="1">  1       -2 0.16352077E-01 0.34501917E+03</pdfrwt>
<totfact> 0.13857263E+03</totfact>
</mgrwt>
</event>
<event>
 7    1  0.6095443E-006  0.2158364E+03  0.7546771E-02  0.1137628E+00
          2   -1    0    0  501    0  0.00000000000E+00  0.00000000000E+00  0.12479196741E+04  0.12479196741E+04  0.00000000000E+00 0. -1.
         -2   -1    0    0    0  501 -0.00000000000E+00 -0.00000000000E+00 -0.37812043955E+02  0.37812043955E+02  0.00000000000E+00 0.  1.
         23    2    1    2    0    0  0.55564299824E+02 -0.16289161115E+03  0.49513251585E+03  0.53888852465E+03  0.12499426130E+03 0.  0.
          5    1    3    3  502    0  0.63405833620E+02 -0.16041985112E+02  0.15359491422E+03  0.16700638520E+03  0.47000000000E+01 0.  1.
         -5    1    3    3    0  502 -0.78415337956E+01 -0.14684962604E+03  0.34153760162E+03  0.37188213945E+03  0.47000000000E+01 0.  1.
        -11    1    1    2    0    0 -0.49816757474E+02  0.26527177045E+02  0.83490352457E+02  0.10077717698E+03  0.00000000000E+00 0.  1.
         11    1    1    2    0    0 -0.57475423499E+01  0.13636443411E+03  0.63148476187E+03  0.64606601644E+03  0.00000000000E+00 0. -1.
<mgrwt>
<rscale>  0 0.21504996E+03</rscale>
<asrwt>0</asrwt>
<pdfrwt beam="1">  1        2 0.19198761E+00 0.21583638E+03</pdfrwt>
<pdfrwt beam="2">  1       -2 0.58172385E-02 0.21583638E+03</pdfrwt>
<totfact> 0.29052899E+03</totfact>
</mgrwt>
</event>
<event>
 7    1  0.6095443E-006  0.1348175E+03  0.7546771E-02  0.1231305E+00
          2   -1    0    0  501    0  0.00000000000E+00  0.00000000000E+00  0.14895942903E+03  0.14895942903E+03  0.00000000000E+00 0. -1.
         -2   -1    0    0    0  501 -0.00000000000E+00 -0.00000000000E+00 -0.10607793427E+03  0.10607793427E+03  0.00000000000E+00 0.  1.
         23    2    1    2    0    0  0.29369531823E+02 -0.53429464512E+02  0.57197538338E+02  0.14644904688E+03  0.12024345247E+03 0.  0.
          5    1    3    3  502    0  0.35094367194E+02 -0.83266792280E+02  0.68717611429E+02  0.11361854349E+03  0.47000000000E+01 0. -1.
         -5    1    3    3    0  502 -0.57248353710E+01  0.29837327768E+02 -0.11520073091E+02  0.32830503383E+02  0.47000000000E+01 0.  1.
        -11    1    1    2    0    0  0.20274523178E+02 -0.76873440528E+00 -0.27236824941E+02  0.33963095789E+02  0.00000000000E+00 0. -1.
         11    1    1    2    0    0 -0.49644055000E+02  0.54198198918E+02  0.12920781367E+02  0.74625220629E+02  0.00000000000E+00 0.  1.
<mgrwt>
<rscale>  0 0.12743939E+03</rscale>
<asrwt>0</asrwt>
<pdfrwt beam="1">  1        2 0.22916835E-01 0.13481752E+03</pdfrwt>
<pdfrwt beam="2">  1       -2 0.16319682E-01 0.13481752E+03</pdfrwt>
<totfact> 0.66947701E+03</totfact>
</mgrwt>
</event>
<event>
 7    1  0.6095443E-006  0.1329505E+03  0.7546771E-02  0.1235693E+00
          2   -1    0    0  501    0  0.00000000000E+00  0.00000000000E+00  0.44563284676E+03  0.44563284676E+03  0.00000000000E+00 0. -1.
         -2   -1    0    0    0  501 -0.00000000000E+00 -0.00000000000E+00 -0.59172469488E+02  0.59172469488E+02  0.00000000000E+00 0.  1.
         23    2    1    2    0    0 -0.44652578243E+02  0.75752501863E+01  0.33308669976E+02  0.13705947774E+03  0.12499838313E+03 0.  0.
          5    1    3    3  502    0 -0.62736060098E+02  0.53932048154E+02  0.23411108619E+02  0.86108356514E+02  0.47000000000E+01 0.  1.
         -5    1    3    3    0  502  0.18083481854E+02 -0.46356797968E+02  0.98975613573E+01  0.50951121230E+02  0.47000000000E+01 0.  1.
        -11    1    1    2    0    0 -0.22790332344E+02  0.17685884832E+02  0.13377872846E+03  0.13685371006E+03  0.00000000000E+00 0. -1.
         11    1    1    2    0    0  0.67442910588E+02 -0.25261135018E+02  0.21937297884E+03  0.23089212844E+03  0.00000000000E+00 0.  1.
<mgrwt>
<rscale>  0 0.12460169E+03</rscale>
<asrwt>0</asrwt>
<pdfrwt beam="1">  1        2 0.68558897E-01 0.13295049E+03</pdfrwt>
<pdfrwt beam="2">  1       -2 0.91034571E-02 0.13295049E+03</pdfrwt>
<totfact> 0.52469238E+03</totfact>
</mgrwt>
</event>
<event>
 7    1  0.6095443E-006  0.1268531E+03  0.7546771E-02  0.1250699E+00
          1   -1    0    0  501    0  0.00000000000E+00  0.00000000000E+00  0.70637451527E+02  0.70637451527E+02  0.00000000000E+00 0. -1.
         -1   -1    0    0    0  501 -0.00000000000E+00 -0.00000000000E+00 -0.19435422034E+03  0.19435422034E+03  0.00000000000E+00 0.  1.
         23    2    1    2    0    0 -0.21560300415E+02  0.74052448891E+00 -0.12456343484E+03  0.17778573798E+03  0.12500529748E+03 0.  0.
          5    1    3    3  502    0  0.37296865390E+02 -0.32518106958E+02 -0.20862465968E+02  0.53905620619E+02  0.47000000000E+01 0.  1.
         -5    1    3    3    0  502 -0.58857165805E+02  0.33258631447E+02 -0.10370096887E+03  0.12388011736E+03  0.47000000000E+01 0.  1.
        -11    1    1    2    0    0 -0.21623748477E+02 -0.25620393675E+02  0.12914324451E+02  0.35927299457E+02  0.00000000000E+00 0.  1.
         11    1    1    2    0    0  0.43184048891E+02  0.24879869186E+02 -0.12067658429E+02  0.51278634433E+02  0.00000000000E+00 0. -1.
<mgrwt>
<rscale>  0 0.11550674E+03</rscale>
<asrwt>0</asrwt>
<pdfrwt beam="1">  1        1 0.10867300E-01 0.12685314E+03</pdfrwt>
<pdfrwt beam="2">  1       -1 0.29900649E-01 0.12685314E+03</pdfrwt>
<totfact> 0.55800928E+03</totfact>
</mgrwt>
</event>
<event>
 7    1  0.6095443E-006  0.1318553E+03  0.7546771E-02  0.1236688E+00
          2   -1    0    0  501    0  0.00000000000E+00  0.00000000000E+00  0.18716323326E+03  0.18716323326E+03  0.00000000000E+00 0. -1.
         -2   -1    0    0    0  501 -0.00000000000E+00 -0.00000000000E+00 -0.74444867053E+02  0.74444867053E+02  0.00000000000E+00 0.  1.
         23    2    1    2    0    0 -0.19201390259E+02  0.37298537021E+02  0.50180264416E+02  0.14108109339E+03  0.12500376684E+03 0.  0.
          5    1    3    3  502    0 -0.31928807303E+02 -0.25459201047E+02 -0.20210079603E+02  0.45805643443E+02  0.47000000000E+01 0.  1.
         -5    1    3    3    0  502  0.12727417044E+02  0.62757738068E+02  0.70390344018E+02  0.95275449949E+02  0.47000000000E+01 0.  1.
        -11    1    1    2    0    0 -0.61691789488E+01  0.12540544229E+02 -0.17805750956E+02  0.22635564618E+02  0.00000000000E+00 0.  1.
         11    1    1    2    0    0  0.25370569208E+02 -0.49839081250E+02  0.80343852744E+02  0.97891442300E+02  0.00000000000E+00 0. -1.
<mgrwt>
<rscale>  0 0.12397010E+03</rscale>
<asrwt>0</asrwt>
<pdfrwt beam="1">  1        2 0.28794343E-01 0.13185528E+03</pdfrwt>
<pdfrwt beam="2">  1       -2 0.11453057E-01 0.13185528E+03</pdfrwt>
<totfact> 0.92216154E+03</totfact>
</mgrwt>
</event>
<event>
 7    1  0.6095443E-006  0.1303402E+03  0.7546771E-02  0.1239687E+00
         -2   -1    0    0    0  501 -0.00000000000E+00  0.00000000000E+00  0.14376340425E+02  0.14376340425E+02  0.00000000000E+00 0.  1.
          2   -1    0    0  501    0  0.00000000000E+00 -0.00000000000E+00 -0.92630036309E+03  0.92630036309E+03  0.00000000000E+00 0. -1.
         23    2    1    2    0    0 -0.22636612780E+02  0.29180593930E+02 -0.52971749168E+03  0.54551735320E+03  0.12499855338E+03 0.  0.
          5    1    3    3  502    0 -0.70272184499E+02  0.38363753950E+02 -0.36679689822E+03  0.37546239769E+03  0.47000000000E+01 0.  1.
         -5    1    3    3    0  502  0.47635571719E+02 -0.91831600208E+01 -0.16292059346E+03  0.17005495551E+03  0.47000000000E+01 0.  1.
        -11    1    1    2    0    0 -0.29647899087E+02 -0.35753925931E+02 -0.14892014696E+03  0.15599535669E+03  0.00000000000E+00 0. -1.
         11    1    1    2    0    0  0.52284511867E+02  0.65733320014E+01 -0.23328638403E+03  0.23916399363E+03  0.00000000000E+00 0.  1.
<mgrwt>
<rscale>  0 0.12209066E+03</rscale>
<asrwt>0</asrwt>
<pdfrwt beam="2">  1        2 0.14250778E+00 0.13034018E+03</pdfrwt>
<pdfrwt beam="1">  1       -2 0.22117442E-02 0.13034018E+03</pdfrwt>
<totfact> 0.18496358E+04</totfact>
</mgrwt>
</event>
<event>
 7    1  0.6095443E-006  0.1260515E+03  0.7546771E-02  0.1244006E+00
         -1   -1    0    0    0  501 -0.00000000000E+00  0.00000000000E+00  0.17825908443E+03  0.17825908443E+03  0.00000000000E+00 0.  1.
          1   -1    0    0  501    0  0.00000000000E+00 -0.00000000000E+00 -0.76690255465E+02  0.76690255465E+02  0.00000000000E+00 0. -1.
         23    2    1    2    0    0  0.71508278729E+01  0.14574964244E+02  0.84809241422E+02  0.15192629050E+03  0.12500170556E+03 0.  0.
          5    1    3    3  502    0 -0.15103425045E+02 -0.39519106061E+02 -0.68271110583E+01  0.43111166040E+02  0.47000000000E+01 0.  1.
         -5    1    3    3    0  502  0.22254252918E+02  0.54094070305E+02  0.91636352480E+02  0.10881512446E+03  0.47000000000E+01 0.  1.
        -11    1    1    2    0    0 -0.30708460735E+02 -0.44263604040E+02  0.31444277167E+02  0.62378031148E+02  0.00000000000E+00 0.  1.
         11    1    1    2    0    0  0.23557632862E+02  0.29688639796E+02 -0.14684689625E+02  0.40645018248E+02  0.00000000000E+00 0. -1.
<mgrwt>
<rscale>  0 0.11945070E+03</rscale>
<asrwt>0</asrwt>
<pdfrwt beam="2">  1        1 0.11798501E-01 0.12605154E+03</pdfrwt>
<pdfrwt beam="1">  1       -1 0.27424475E-01 0.12605154E+03</pdfrwt>
<totfact> 0.57824666E+03</totfact>
</mgrwt>
</event>
<event>
 7    1  0.6095443E-006  0.1407786E+03  0.7546771E-02  0.1222973E+00
          1   -1    0    0  501    0  0.00000000000E+00  0.00000000000E+00  0.31973283396E+02  0.31973283396E+02  0.00000000000E+00 0. -1.
         -1   -1    0    0    0  501 -0.00000000000E+00 -0.00000000000E+00 -0.60251408911E+03  0.60251408911E+03  0.00000000000E+00 0.  1.
         23    2    1    2    0    0 -0.19760814824E+02 -0.61670645432E+02 -0.44135038332E+03  0.46325885210E+03  0.12499937953E+03 0.  0.
          5    1    3    3  502    0  0.28956797010E+01  0.28653712234E+02 -0.31512215414E+02  0.42947990710E+02  0.47000000000E+01 0. -1.
         -5    1    3    3    0  502 -0.22656494525E+02 -0.90324357666E+02 -0.40983816791E+03  0.42031086139E+03  0.47000000000E+01 0. -1.
        -11    1    1    2    0    0  0.10840898606E+02  0.48353657038E+02 -0.14219871740E+03  0.15058577775E+03  0.00000000000E+00 0.  1.
         11    1    1    2    0    0  0.89199162177E+01  0.13316988394E+02  0.13008295005E+02  0.20642742651E+02  0.00000000000E+00 0. -1.
<mgrwt>
<rscale>  0 0.13306802E+03</rscale>
<asrwt>0</asrwt>
<pdfrwt beam="1">  1        1 0.49189662E-02 0.14077856E+03</pdfrwt>
<pdfrwt beam="2">  1       -1 0.92694483E-01 0.14077856E+03</pdfrwt>
<totfact> 0.19745412E+03</totfact>
</mgrwt>
</event>
<event>
 7    1  0.6095443E-006  0.1968977E+03  0.7546771E-02  0.1156952E+00
         -1   -1    0    0    0  501 -0.00000000000E+00  0.00000000000E+00  0.62206542031E+02  0.62206542031E+02  0.00000000000E+00 0.  1.
          1   -1    0    0  501    0  0.00000000000E+00 -0.00000000000E+00 -0.56659440020E+03  0.56659440020E+03  0.00000000000E+00 0. -1.
         23    2    1    2    0    0 -0.15168652326E+03  0.11584664612E+02 -0.23551009531E+03  0.30697509752E+03  0.12500279882E+03 0.  0.
          5    1    3    3  502    0 -0.13788473789E+03  0.50872395632E+02 -0.14160019303E+03  0.20413942845E+03  0.47000000000E+01 0. -1.
         -5    1    3    3    0  502 -0.13801785371E+02 -0.39287731021E+02 -0.93909902278E+02  0.10283566907E+03  0.47000000000E+01 0. -1.
        -11    1    1    2    0    0  0.11374833729E+03  0.25194443137E+02 -0.22405764783E+03  0.25253766798E+03  0.00000000000E+00 0. -1.
         11    1    1    2    0    0  0.37938185975E+02 -0.36779107749E+02 -0.44820115032E+02  0.69288176722E+02  0.00000000000E+00 0.  1.
<mgrwt>
<rscale>  0 0.19168272E+03</rscale>
<asrwt>0</asrwt>
<pdfrwt beam="2">  1        1 0.87168366E-01 0.19689770E+03</pdfrwt>
<pdfrwt beam="1">  1       -1 0.95702376E-02 0.19689770E+03</pdfrwt>
<totfact> 0.24616015E+03</totfact>
</mgrwt>
</event>
<event>
 7    1  0.6095443E-006  0.1254290E+03  0.7546771E-02  0.1248879E+00
          2   -1    0    0  501    0  0.00000000000E+00  0.00000000000E+00  0.32487850215E+03  0.32487850215E+03  0.00000000000E+00 0. -1.
         -2   -1    0    0    0  501 -0.00000000000E+00 -0.00000000000E+00 -0.36909791290E+02  0.36909791290E+02  0.00000000000E+00 0.  1.
         23    2    1    2    0    0 -0.70985313286E+01 -0.75748999759E+01  0.16188749502E+03  0.20479258364E+03  0.12499869205E+03 0.  0.
          5    1    3    3  502    0  0.61750257398E+01  0.54374386517E+02  0.10928928159E+03  0.12231492927E+03  0.47000000000E+01 0. -1.
         -5    1    3    3    0  502 -0.13273557068E+02 -0.61949286493E+02  0.52598213427E+02  0.82477654367E+02  0.47000000000E+01 0. -1.
        -11    1    1    2    0    0  0.16189335512E+02 -0.17783549669E+02 -0.38026112835E+01  0.24347670848E+02  0.00000000000E+00 0.  1.
         11    1    1    2    0    0 -0.90908041833E+01  0.25358449645E+02  0.12988382712E+03  0.13264803895E+03  0.00000000000E+00 0. -1.
<mgrwt>
<rscale>  0 0.11656197E+03</rscale>
<asrwt>0</asrwt>
<pdfrwt beam="1">  1        2 0.49981306E-01 0.12542903E+03</pdfrwt>
<pdfrwt beam="2">  1       -2 0.56784296E-02 0.12542903E+03</pdfrwt>
<totfact> 0.15077914E+04</totfact>
</mgrwt>
</event>
<event>
 7    1  0.6095443E-006  0.1494872E+03  0.7546771E-02  0.1209167E+00
         -2   -1    0    0    0  501 -0.00000000000E+00  0.00000000000E+00  0.31293927454E+02  0.31293927454E+02  0.00000000000E+00 0.  1.
          2   -1    0    0  501    0  0.00000000000E+00 -0.00000000000E+00 -0.62255118171E+03  0.62255118171E+03  0.00000000000E+00 0. -1.
         23    2    1    2    0    0 -0.75859198842E+02 -0.31119940704E+02 -0.26553073698E+03  0.30471791021E+03  0.12499345487E+03 0.  0.
          5    1    3    3  502    0 -0.74722064702E+02 -0.16589273047E+02 -0.27581095259E+03  0.28627323050E+03  0.47000000000E+01 0. -1.
         -5    1    3    3    0  502 -0.11371341406E+01 -0.14530667657E+02  0.10280215606E+02  0.18444679708E+02  0.47000000000E+01 0. -1.
        -11    1    1    2    0    0  0.97081478102E+02  0.29015553779E+02 -0.23474016627E+03  0.25567491354E+03  0.00000000000E+00 0.  1.
         11    1    1    2    0    0 -0.21222279259E+02  0.21043869242E+01 -0.90986351003E+02  0.93452285420E+02  0.00000000000E+00 0. -1.
<mgrwt>
<rscale>  0 0.14313896E+03</rscale>
<asrwt>0</asrwt>
<pdfrwt beam="2">  1        2 0.95777108E-01 0.14948723E+03</pdfrwt>
<pdfrwt beam="1">  1       -2 0.48144502E-02 0.14948723E+03</pdfrwt>
<totfact> 0.96417670E+03</totfact>
</mgrwt>
</event>
<event>
 7    1  0.6095443E-006  0.2608236E+03  0.7546771E-02  0.1108888E+00
         -4   -1    0    0    0  501 -0.00000000000E+00  0.00000000000E+00  0.92056688467E+02  0.92056688467E+02  0.00000000000E+00 0.  1.
          4   -1    0    0  501    0  0.00000000000E+00 -0.00000000000E+00 -0.98967339773E+03  0.98967339773E+03  0.00000000000E+00 0. -1.
         23    2    1    2    0    0  0.35233003105E+02 -0.22618282587E+03 -0.16455760781E+03  0.30839610992E+03  0.12501567541E+03 0.  0.
          5    1    3    3  502    0 -0.36926382661E+02 -0.10072023235E+03 -0.31921126720E+02  0.11202308365E+03  0.47000000000E+01 0. -1.
         -5    1    3    3    0  502  0.72159385766E+02 -0.12546259352E+03 -0.13263648109E+03  0.19637302626E+03  0.47000000000E+01 0. -1.
        -11    1    1    2    0    0 -0.11868377416E+02  0.19398345364E+03 -0.67866571888E+03  0.70594447137E+03  0.00000000000E+00 0. -1.
         11    1    1    2    0    0 -0.23364625689E+02  0.32199372226E+02 -0.54393382571E+02  0.67389504916E+02  0.00000000000E+00 0.  1.
<mgrwt>
<rscale>  0 0.25711756E+03</rscale>
<asrwt>0</asrwt>
<pdfrwt beam="2">  1        4 0.15225745E+00 0.26082361E+03</pdfrwt>
<pdfrwt beam="1">  1       -4 0.14162567E-01 0.26082361E+03</pdfrwt>
<totfact> 0.23162969E+01</totfact>
</mgrwt>
</event>
<event>
 7    1  0.6095443E-006  0.1512638E+03  0.7546771E-02  0.1213357E+00
          1   -1    0    0  501    0  0.00000000000E+00  0.00000000000E+00  0.72861022372E+03  0.72861022372E+03  0.00000000000E+00 0. -1.
         -1   -1    0    0    0  501 -0.00000000000E+00 -0.00000000000E+00 -0.24359775847E+02  0.24359775847E+02  0.00000000000E+00 0.  1.
         23    2    1    2    0    0 -0.52912417324E+02  0.66683827542E+02  0.33833701282E+03  0.37061119543E+03  0.12503706320E+03 0.  0.
          5    1    3    3  502    0 -0.50709791106E+02  0.44812023206E+02  0.57644808795E+02  0.89020302846E+02  0.47000000000E+01 0.  1.
         -5    1    3    3    0  502 -0.22026262182E+01  0.21871804336E+02  0.28069220402E+03  0.28159089258E+03  0.47000000000E+01 0.  1.
        -11    1    1    2    0    0  0.37063565841E+02 -0.46314329221E+02  0.34222126784E+03  0.34732423061E+03  0.00000000000E+00 0. -1.
         11    1    1    2    0    0  0.15848851483E+02 -0.20369498320E+02  0.23692167217E+02  0.35034573532E+02  0.00000000000E+00 0.  1.
<mgrwt>
<rscale>  0 0.13997938E+03</rscale>
<asrwt>0</asrwt>
<pdfrwt beam="1">  1        1 0.11209386E+00 0.15126376E+03</pdfrwt>
<pdfrwt beam="2">  1       -1 0.37476584E-02 0.15126376E+03</pdfrwt>
<totfact> 0.69854587E+03</totfact>
</mgrwt>
</event>
<event>
 7    1  0.6095443E-006  0.1347476E+03  0.7546771E-02  0.1233394E+00
         -3   -1    0    0    0  501 -0.00000000000E+00  0.00000000000E+00  0.73945871277E+02  0.73945871277E+02  0.00000000000E+00 0.  1.
          3   -1    0    0  501    0  0.00000000000E+00 -0.00000000000E+00 -0.20963629076E+03  0.20963629076E+03  0.00000000000E+00 0. -1.
         23    2    1    2    0    0 -0.43376720071E+02 -0.25470948779E+02 -0.34717077120E+02  0.13914812085E+03  0.12500645990E+03 0.  0.
          5    1    3    3  502    0 -0.73328816387E+02 -0.49243917202E+02 -0.17984647371E+01  0.88472612539E+02  0.47000000000E+01 0. -1.
         -5    1    3    3    0  502  0.29952096316E+02  0.23772968423E+02 -0.32918612382E+02  0.50675508310E+02  0.47000000000E+01 0. -1.
        -11    1    1    2    0    0  0.21760883256E+02  0.55240656858E+02 -0.35067107842E+02  0.68954827696E+02  0.00000000000E+00 0.  1.
         11    1    1    2    0    0  0.21615836815E+02 -0.29769708079E+02 -0.65906234518E+02  0.75479213488E+02  0.00000000000E+00 0. -1.
<mgrwt>
<rscale>  0 0.12607788E+03</rscale>
<asrwt>0</asrwt>
<pdfrwt beam="2">  1        3 0.32251737E-01 0.13474763E+03</pdfrwt>
<pdfrwt beam="1">  1       -3 0.11376288E-01 0.13474763E+03</pdfrwt>
<totfact> 0.12811579E+03</totfact>
</mgrwt>
</event>
<event>
 7    1  0.6095443E-006  0.1368111E+03  0.7546771E-02  0.1231511E+00
          2   -1    0    0  501    0  0.00000000000E+00  0.00000000000E+00  0.10310485819E+03  0.10310485819E+03  0.00000000000E+00 0.  1.
         -2   -1    0    0    0  501 -0.00000000000E+00 -0.00000000000E+00 -0.14471812944E+03  0.14471812944E+03  0.00000000000E+00 0. -1.
         23    2    1    2    0    0  0.36862355564E+02 -0.41611893381E+02 -0.48173645123E+02  0.14504478155E+03  0.12500762233E+03 0.  0.
          5    1    3    3  502    0  0.16047692328E+02 -0.83865036102E+02 -0.13980905134E+02  0.86651188207E+02  0.47000000000E+01 0. -1.
         -5    1    3    3    0  502  0.20814663235E+02  0.42253142721E+02 -0.34192739989E+02  0.58393593341E+02  0.47000000000E+01 0. -1.
        -11    1    1    2    0    0  0.22665761310E+02  0.13040617474E+02 -0.18629424101E+02  0.32106851017E+02  0.00000000000E+00 0. -1.
         11    1    1    2    0    0 -0.59528116874E+02  0.28571275907E+02  0.25189797977E+02  0.70671355071E+02  0.00000000000E+00 0.  1.
<mgrwt>
<rscale>  0 0.12730478E+03</rscale>
<asrwt>0</asrwt>
<pdfrwt beam="1">  1        2 0.15862286E-01 0.13681114E+03</pdfrwt>
<pdfrwt beam="2">  1       -2 0.22264327E-01 0.13681114E+03</pdfrwt>
<totfact> 0.60399501E+03</totfact>
</mgrwt>
</event>
<event>
 6    1  0.6095443E-006  0.1810914E+03  0.7546771E-02  0.1180043E+00
         -1   -1    0    0    0  501 -0.00000000000E+00  0.00000000000E+00  0.37029929831E+02  0.37029929831E+02  0.00000000000E+00 0.  1.
          1   -1    0    0  501    0  0.00000000000E+00 -0.00000000000E+00 -0.70941175337E+03  0.70941175337E+03  0.00000000000E+00 0. -1.
          5    1    1    2  502    0  0.22243906324E+02  0.56503841887E+02 -0.78776012175E+02  0.99575225889E+02  0.47000000000E+01 0. -1.
         -5    1    1    2    0  502 -0.11613204101E+03 -0.22801287739E+02 -0.21762075979E+03  0.24776487799E+03  0.47000000000E+01 0.  1.
        -11    1    1    2    0    0 -0.91602111217E+01 -0.28868676310E+02 -0.72915893237E+02  0.78955920780E+02  0.00000000000E+00 0.  1.
         11    1    1    2    0    0  0.10304834581E+03 -0.48338778378E+01 -0.30306915834E+03  0.32014565854E+03  0.00000000000E+00 0. -1.
<mgrwt>
<rscale>  0 0.16791230E+03</rscale>
<asrwt>0</asrwt>
<pdfrwt beam="2">  1        1 0.10914026E+00 0.18109142E+03</pdfrwt>
<pdfrwt beam="1">  1       -1 0.56969127E-02 0.18109142E+03</pdfrwt>
<totfact> 0.39331812E+03</totfact>
</mgrwt>
</event>
<event>
 7    1  0.6095443E-006  0.1607698E+03  0.7546771E-02  0.1195267E+00
         -3   -1    0    0    0  501 -0.00000000000E+00  0.00000000000E+00  0.15471114059E+03  0.15471114059E+03  0.00000000000E+00 0.  1.
          3   -1    0    0  501    0  0.00000000000E+00 -0.00000000000E+00 -0.17646030018E+03  0.17646030018E+03  0.00000000000E+00 0. -1.
         23    2    1    2    0    0  0.89534732862E+02  0.46960905863E+02  0.60565804122E+02  0.17179970030E+03  0.12500050130E+03 0.  0.
          5    1    3    3  502    0  0.21706440701E+02 -0.70060082680E+01 -0.35416022862E+02  0.42386771464E+02  0.47000000000E+01 0. -1.
         -5    1    3    3    0  502  0.67828292161E+02  0.53966914131E+02  0.95981826984E+02  0.12941292883E+03  0.47000000000E+01 0. -1.
        -11    1    1    2    0    0 -0.15649934430E+02 -0.99001191873E+01 -0.74015995759E+02  0.76297447112E+02  0.00000000000E+00 0.  1.
         11    1    1    2    0    0 -0.73884798432E+02 -0.37060786676E+02 -0.82989679576E+01  0.83074293361E+02  0.00000000000E+00 0. -1.
<mgrwt>
<rscale>  0 0.15431610E+03</rscale>
<asrwt>0</asrwt>
<pdfrwt beam="2">  1        3 0.27147739E-01 0.16076977E+03</pdfrwt>
<pdfrwt beam="1">  1       -3 0.23801714E-01 0.16076977E+03</pdfrwt>
<totfact> 0.50392861E+02</totfact>
</mgrwt>
</event>
<event>
 6    1  0.6095443E-006  0.7959738E+03  0.7546771E-02  0.1005347E+00
          2   -1    0    0  501    0  0.00000000000E+00  0.00000000000E+00  0.61959311216E+03  0.61959311216E+03  0.00000000000E+00 0. -1.
         -2   -1    0    0    0  501 -0.00000000000E+00 -0.00000000000E+00 -0.39578165882E+03  0.39578165882E+03  0.00000000000E+00 0.  1.
          5    1    1    2  502    0 -0.15312815588E+03  0.72401770052E+02  0.41589467124E+03  0.44908876182E+03  0.47000000000E+01 0. -1.
         -5    1    1    2    0  502  0.96889516132E+02 -0.37001055723E+02 -0.33525203501E+03  0.35095964646E+03  0.47000000000E+01 0.  1.
        -11    1    1    2    0    0 -0.30495066580E+01 -0.68572046372E+02  0.12870874507E+03  0.14586763209E+03  0.00000000000E+00 0.  1.
         11    1    1    2    0    0  0.59288146404E+02  0.33171332043E+02  0.14460072041E+02  0.69458730603E+02  0.00000000000E+00 0. -1.
<mgrwt>
<rscale>  0 0.53366620E+03</rscale>
<asrwt>0</asrwt>
<pdfrwt beam="1">  1        2 0.95322017E-01 0.79597376E+03</pdfrwt>
<pdfrwt beam="2">  1       -2 0.60889486E-01 0.79597376E+03</pdfrwt>
<totfact> 0.12076090E+02</totfact>
</mgrwt>
</event>
<event>
 7    1  0.6095443E-006  0.1283976E+03  0.7546771E-02  0.1243748E+00
         -1   -1    0    0    0  501 -0.00000000000E+00  0.00000000000E+00  0.68779354978E+03  0.68779354978E+03  0.00000000000E+00 0.  1.
          1   -1    0    0  501    0  0.00000000000E+00 -0.00000000000E+00 -0.24398914051E+02  0.24398914051E+02  0.00000000000E+00 0. -1.
         23    2    1    2    0    0  0.75967503376E+01 -0.28329914531E+02  0.54200963084E+03  0.55701021296E+03  0.12500257093E+03 0.  0.
          5    1    3    3  502    0  0.22754529046E+02 -0.74819457790E+02  0.36481190043E+03  0.37312937777E+03  0.47000000000E+01 0.  1.
         -5    1    3    3    0  502 -0.15157778708E+02  0.46489543259E+02  0.17719773041E+03  0.18388083519E+03  0.47000000000E+01 0.  1.
        -11    1    1    2    0    0  0.25204801068E+02  0.50223540371E+02  0.59861492780E+02  0.82104106610E+02  0.00000000000E+00 0.  1.
         11    1    1    2    0    0 -0.32801551406E+02 -0.21893625840E+02  0.61523512110E+02  0.73078144266E+02  0.00000000000E+00 0. -1.
<mgrwt>
<rscale>  0 0.11960598E+03</rscale>
<asrwt>0</asrwt>
<pdfrwt beam="2">  1        1 0.37536796E-02 0.12839758E+03</pdfrwt>
<pdfrwt beam="1">  1       -1 0.10581438E+00 0.12839758E+03</pdfrwt>
<totfact> 0.21317225E+03</totfact>
</mgrwt>
</event>
<event>
 7    1  0.6095443E-006  0.1676188E+03  0.7546771E-02  0.1186831E+00
         -1   -1    0    0    0  501 -0.00000000000E+00  0.00000000000E+00  0.97788643797E+03  0.97788643797E+03  0.00000000000E+00 0.  1.
          1   -1    0    0  501    0  0.00000000000E+00 -0.00000000000E+00 -0.29244314811E+02  0.29244314811E+02  0.00000000000E+00 0. -1.
         23    2    1    2    0    0  0.75369537756E+02 -0.82405137725E+02  0.69520022430E+03  0.71512196796E+03  0.12499961299E+03 0.  0.
          5    1    3    3  502    0  0.55905581060E+02 -0.43091678027E+02  0.64254101898E+03  0.64642352818E+03  0.47000000000E+01 0. -1.
         -5    1    3    3    0  502  0.19463956696E+02 -0.39313459698E+02  0.52659205322E+02  0.68698439785E+02  0.47000000000E+01 0. -1.
        -11    1    1    2    0    0  0.76017322223E+01 -0.11510696744E+02  0.68514895428E+01  0.15402122622E+02  0.00000000000E+00 0.  1.
         11    1    1    2    0    0 -0.82971269979E+02  0.93915834469E+02  0.24659040932E+03  0.27660666220E+03  0.00000000000E+00 0. -1.
<mgrwt>
<rscale>  0 0.16166403E+03</rscale>
<asrwt>0</asrwt>
<pdfrwt beam="2">  1        1 0.44991261E-02 0.16761884E+03</pdfrwt>
<pdfrwt beam="1">  1       -1 0.15044404E+00 0.16761884E+03</pdfrwt>
<totfact> 0.71813231E+02</totfact>
</mgrwt>
</event>
<event>
 7    1  0.6095443E-006  0.1372614E+03  0.7546771E-02  0.1229263E+00
          3   -1    0    0  501    0  0.00000000000E+00  0.00000000000E+00  0.16294477677E+03  0.16294477677E+03  0.00000000000E+00 0. -1.
         -3   -1    0    0    0  501 -0.00000000000E+00 -0.00000000000E+00 -0.10726115006E+03  0.10726115006E+03  0.00000000000E+00 0.  1.
         23    2    1    2    0    0 -0.41669408556E+02 -0.38036024531E+02 -0.21280816746E+02  0.13890125583E+03  0.12513035978E+03 0.  0.
          5    1    3    3  502    0  0.28619059988E+02 -0.31362367664E+02 -0.47092018687E+02  0.63579846839E+02  0.47000000000E+01 0. -1.
         -5    1    3    3    0  502 -0.70288468544E+02 -0.66736568671E+01  0.25811201942E+02  0.75321408988E+02  0.47000000000E+01 0. -1.
        -11    1    1    2    0    0  0.49058415766E+02  0.21342596460E+02  0.92813663719E+02  0.10712894452E+03  0.00000000000E+00 0. -1.
         11    1    1    2    0    0 -0.73890072104E+01  0.16693428070E+02 -0.15849220263E+02  0.24175726489E+02  0.00000000000E+00 0.  1.
<mgrwt>
<rscale>  0 0.12878923E+03</rscale>
<asrwt>0</asrwt>
<pdfrwt beam="1">  1        3 0.25068427E-01 0.13726138E+03</pdfrwt>
<pdfrwt beam="2">  1       -3 0.16501715E-01 0.13726138E+03</pdfrwt>
<totfact> 0.10858299E+03</totfact>
</mgrwt>
</event>
<event>
 7    1  0.6095443E-006  0.1327103E+03  0.7546771E-02  0.1235533E+00
         -3   -1    0    0    0  501 -0.00000000000E+00  0.00000000000E+00  0.14416396334E+03  0.14416396334E+03  0.00000000000E+00 0.  1.
          3   -1    0    0  501    0  0.00000000000E+00 -0.00000000000E+00 -0.10508191881E+03  0.10508191881E+03  0.00000000000E+00 0. -1.
         23    2    1    2    0    0 -0.44389414628E+02 -0.40700430440E+01  0.56654702462E+02  0.14429758158E+03  0.12500020542E+03 0.  0.
          5    1    3    3  502    0  0.43179527570E+02 -0.63991252414E+01  0.10374874686E+02  0.45112619407E+02  0.47000000000E+01 0.  1.
         -5    1    3    3    0  502 -0.87568942197E+02  0.23290821974E+01  0.46279827776E+02  0.99184962169E+02  0.47000000000E+01 0.  1.
        -11    1    1    2    0    0  0.28065629296E+02  0.14252667766E+02  0.36120983161E+02  0.47911830593E+02  0.00000000000E+00 0.  1.
         11    1    1    2    0    0  0.16323785332E+02 -0.10182624722E+02 -0.53693641099E+02  0.57036469985E+02  0.00000000000E+00 0. -1.
<mgrwt>
<rscale>  0 0.12470351E+03</rscale>
<asrwt>0</asrwt>
<pdfrwt beam="2">  1        3 0.16166449E-01 0.13271035E+03</pdfrwt>
<pdfrwt beam="1">  1       -3 0.22179071E-01 0.13271035E+03</pdfrwt>
<totfact> 0.13936948E+03</totfact>
</mgrwt>
</event>
<event>
 7    1  0.6095443E-006  0.1938037E+03  0.7546771E-02  0.1159258E+00
         -1   -1    0    0    0  501 -0.00000000000E+00  0.00000000000E+00  0.36222752442E+03  0.36222752442E+03  0.00000000000E+00 0.  1.
          1   -1    0    0  501    0  0.00000000000E+00 -0.00000000000E+00 -0.94750336400E+02  0.94750336400E+02  0.00000000000E+00 0. -1.
         23    2    1    2    0    0  0.41962699070E+01 -0.14803844705E+03  0.15685491469E+03  0.24932579309E+03  0.12500758517E+03 0.  0.
          5    1    3    3  502    0  0.45737284219E+02 -0.21713792194E+02  0.82463648380E+02  0.96879983709E+02  0.47000000000E+01 0. -1.
         -5    1    3    3    0  502 -0.41541014312E+02 -0.12632465486E+03  0.74391266307E+02  0.15244580938E+03  0.47000000000E+01 0. -1.
        -11    1    1    2    0    0 -0.30749464561E+02  0.56806986719E+02  0.89398426888E+02  0.11029343607E+03  0.00000000000E+00 0.  1.
         11    1    1    2    0    0  0.26553194654E+02  0.91231460329E+02  0.21223846443E+02  0.97358631656E+02  0.00000000000E+00 0. -1.
<mgrwt>
<rscale>  0 0.18911891E+03</rscale>
<asrwt>0</asrwt>
<pdfrwt beam="2">  1        1 0.14576975E-01 0.19380373E+03</pdfrwt>
<pdfrwt beam="1">  1       -1 0.55727311E-01 0.19380373E+03</pdfrwt>
<totfact> 0.12856608E+03</totfact>
</mgrwt>
</event>
<event>
 6    1  0.6095443E-006  0.1878281E+03  0.7546771E-02  0.1187082E+00
          1   -1    0    0  501    0  0.00000000000E+00  0.00000000000E+00  0.36124737002E+03  0.36124737002E+03  0.00000000000E+00 0. -1.
         -1   -1    0    0    0  501 -0.00000000000E+00 -0.00000000000E+00 -0.13627364665E+03  0.13627364665E+03  0.00000000000E+00 0.  1.
          5    1    1    2  502    0 -0.15578502708E+01 -0.59918871711E+02  0.55586935395E+02  0.81882204851E+02  0.47000000000E+01 0. -1.
         -5    1    1    2    0  502 -0.32149257543E+01  0.14976991517E+02 -0.11356615740E+03  0.11469092436E+03  0.47000000000E+01 0.  1.
        -11    1    1    2    0    0 -0.15148858194E+02  0.56154749033E+02  0.26652377348E+03  0.27279619787E+03  0.00000000000E+00 0. -1.
         11    1    1    2    0    0  0.19921634219E+02 -0.11212868838E+02  0.16429171900E+02  0.28151689592E+02  0.00000000000E+00 0.  1.
<mgrwt>
<rscale>  0 0.16143833E+03</rscale>
<asrwt>0</asrwt>
<pdfrwt beam="1">  1        1 0.55576518E-01 0.18782813E+03</pdfrwt>
<pdfrwt beam="2">  1       -1 0.20965177E-01 0.18782813E+03</pdfrwt>
<totfact> 0.12832163E+03</totfact>
</mgrwt>
</event>
<event>
 7    1  0.6095443E-006  0.1334341E+03  0.7546771E-02  0.1235297E+00
          3   -1    0    0  501    0  0.00000000000E+00  0.00000000000E+00  0.12628191647E+02  0.12628191647E+02  0.00000000000E+00 0. -1.
         -3   -1    0    0    0  501 -0.00000000000E+00 -0.00000000000E+00 -0.17218722949E+04  0.17218722949E+04  0.00000000000E+00 0.  1.
         23    2    1    2    0    0  0.12652831316E+02 -0.44939949405E+02 -0.14450420961E+04  0.14511896236E+04  0.12499988342E+03 0.  0.
          5    1    3    3  502    0 -0.44496108005E+01 -0.37947106387E+01 -0.24363653363E+01  0.78882660426E+01  0.47000000000E+01 0. -1.
         -5    1    3    3    0  502  0.17102442117E+02 -0.41145238766E+02 -0.14426057308E+04  0.14433013575E+04  0.47000000000E+01 0. -1.
        -11    1    1    2    0    0  0.31189224812E+02  0.26644364550E+02 -0.54034808100E+02  0.67841361963E+02  0.00000000000E+00 0. -1.
         11    1    1    2    0    0 -0.43842056129E+02  0.18295584854E+02 -0.21016719905E+03  0.21546950101E+03  0.00000000000E+00 0.  1.
<mgrwt>
<rscale>  0 0.12485438E+03</rscale>
<asrwt>0</asrwt>
<pdfrwt beam="1">  1        3 0.19427980E-02 0.13343412E+03</pdfrwt>
<pdfrwt beam="2">  1       -3 0.26490353E+00 0.13343412E+03</pdfrwt>
<totfact> 0.16134119E+02</totfact>
</mgrwt>
</event>
<event>
 7    1  0.6095443E-006  0.2741834E+03  0.7546771E-02  0.1100876E+00
          2   -1    0    0  501    0  0.00000000000E+00  0.00000000000E+00  0.36599510648E+03  0.36599510648E+03  0.00000000000E+00 0. -1.
         -2   -1    0    0    0  501 -0.00000000000E+00 -0.00000000000E+00 -0.20640358894E+03  0.20640358894E+03  0.00000000000E+00 0.  1.
         23    2    1    2    0    0  0.24390465548E+03 -0.77681137058E+01  0.15389305045E+02  0.27461495617E+03  0.12500687536E+03 0.  0.
          5    1    3    3  502    0  0.19718149208E+03  0.14598338729E+01 -0.40163938251E+02  0.20129059559E+03  0.47000000000E+01 0.  1.
         -5    1    3    3    0  502  0.46723163395E+02 -0.92279475787E+01  0.55553243295E+02  0.73324360582E+02  0.47000000000E+01 0.  1.
        -11    1    1    2    0    0 -0.33976396806E+02 -0.46373107921E+01  0.64202823739E+02  0.72786693615E+02  0.00000000000E+00 0. -1.
         11    1    1    2    0    0 -0.20992825867E+03  0.12405424498E+02  0.79999388759E+02  0.22499704564E+03  0.00000000000E+00 0.  1.
<mgrwt>
<rscale>  0 0.27070689E+03</rscale>
<asrwt>0</asrwt>
<pdfrwt beam="1">  1        2 0.56306940E-01 0.27418341E+03</pdfrwt>
<pdfrwt beam="2">  1       -2 0.31754398E-01 0.27418341E+03</pdfrwt>
<totfact> 0.81263197E+02</totfact>
</mgrwt>
</event>
<event>
 7    1  0.6095443E-006  0.1364452E+03  0.7546771E-02  0.1229989E+00
          2   -1    0    0  501    0  0.00000000000E+00  0.00000000000E+00  0.53044352128E+03  0.53044352128E+03  0.00000000000E+00 0. -1.
         -2   -1    0    0    0  501 -0.00000000000E+00 -0.00000000000E+00 -0.28510692388E+02  0.28510692388E+02  0.00000000000E+00 0.  1.
         23    2    1    2    0    0  0.36075282185E+02 -0.41125824885E+02  0.23911403690E+03  0.27530494732E+03  0.12499812768E+03 0.  0.
          5    1    3    3  502    0  0.97662809569E+01  0.40104919350E+02  0.36181064777E+02  0.55090328082E+02  0.47000000000E+01 0. -1.
         -5    1    3    3    0  502  0.26309001228E+02 -0.81230744234E+02  0.20293297212E+03  0.22021461924E+03  0.47000000000E+01 0. -1.
        -11    1    1    2    0    0  0.21850959727E+02 -0.14239450239E+02  0.76740351835E+02  0.81051267627E+02  0.00000000000E+00 0. -1.
         11    1    1    2    0    0 -0.57926241912E+02  0.55365275124E+02  0.18607844016E+03  0.20259799871E+03  0.00000000000E+00 0.  1.
<mgrwt>
<rscale>  0 0.12830739E+03</rscale>
<asrwt>0</asrwt>
<pdfrwt beam="1">  1        2 0.81606688E-01 0.13644520E+03</pdfrwt>
<pdfrwt beam="2">  1       -2 0.43862608E-02 0.13644520E+03</pdfrwt>
<totfact> 0.13199885E+04</totfact>
</mgrwt>
</event>
<event>
 7    1  0.6095443E-006  0.1377132E+03  0.7546771E-02  0.1228053E+00
         -2   -1    0    0    0  501 -0.00000000000E+00  0.00000000000E+00  0.10024004426E+03  0.10024004426E+03  0.00000000000E+00 0.  1.
          2   -1    0    0  501    0  0.00000000000E+00 -0.00000000000E+00 -0.15231904639E+03  0.15231904639E+03  0.00000000000E+00 0. -1.
         23    2    1    2    0    0 -0.12305129925E+02  0.56493339463E+02 -0.15798959799E+02  0.13861648575E+03  0.12498803688E+03 0.  0.
          5    1    3    3  502    0 -0.24076731859E+02  0.48304871319E+02  0.48412261836E+02  0.72655947494E+02  0.47000000000E+01 0. -1.
         -5    1    3    3    0  502  0.11771601935E+02  0.81884681434E+01 -0.64211221635E+02  0.65960538252E+02  0.47000000000E+01 0. -1.
        -11    1    1    2    0    0  0.22663229408E+02 -0.38354761040E+02  0.23677169480E+02  0.50451144845E+02  0.00000000000E+00 0.  1.
         11    1    1    2    0    0 -0.10358099483E+02 -0.18138578423E+02 -0.59957211812E+02  0.63491460059E+02  0.00000000000E+00 0. -1.
<mgrwt>
<rscale>  0 0.12959852E+03</rscale>
<asrwt>0</asrwt>
<pdfrwt beam="2">  1        2 0.23433700E-01 0.13771319E+03</pdfrwt>
<pdfrwt beam="1">  1       -2 0.15421545E-01 0.13771319E+03</pdfrwt>
<totfact> 0.71783552E+03</totfact>
</mgrwt>
</event>
<event>
 7    1  0.6095443E-006  0.1195237E+03  0.7546771E-02  0.1303059E+00
          4   -1    0    0  501    0  0.00000000000E+00  0.00000000000E+00  0.20776887747E+03  0.20776887747E+03  0.00000000000E+00 0. -1.
         -4   -1    0    0    0  501 -0.00000000000E+00 -0.00000000000E+00 -0.32088697419E+02  0.32088697419E+02  0.00000000000E+00 0.  1.
         23    2    1    2    0    0  0.14455747756E+02 -0.10180298937E+02  0.10329287864E+03  0.15797256659E+03  0.11820873862E+03 0.  0.
          5    1    3    3  502    0  0.19154149875E+02 -0.24888843866E+02  0.12609721099E+03  0.13003435172E+03  0.47000000000E+01 0. -1.
         -5    1    3    3    0  502 -0.46984021190E+01  0.14708544929E+02 -0.22804332347E+02  0.27938214872E+02  0.47000000000E+01 0.  1.
        -11    1    1    2    0    0 -0.22525750449E+02 -0.30111411110E+01  0.40318149084E+02  0.46282065097E+02  0.00000000000E+00 0.  1.
         11    1    1    2    0    0  0.80700026934E+01  0.13191440048E+02  0.32069152320E+02  0.35602943201E+02  0.00000000000E+00 0. -1.
<mgrwt>
<rscale>  0 0.89914316E+02</rscale>
<asrwt>0</asrwt>
<pdfrwt beam="1">  1        4 0.31964442E-01 0.11952369E+03</pdfrwt>
<pdfrwt beam="2">  1       -4 0.49367228E-02 0.11952369E+03</pdfrwt>
<totfact> 0.36449244E+03</totfact>
</mgrwt>
</event>
<event>
 7    1  0.6095443E-006  0.1538606E+03  0.7546771E-02  0.1204157E+00
         -2   -1    0    0    0  501 -0.00000000000E+00  0.00000000000E+00  0.69578238698E+02  0.69578238698E+02  0.00000000000E+00 0.  1.
          2   -1    0    0  501    0  0.00000000000E+00 -0.00000000000E+00 -0.40438877965E+03  0.40438877965E+03  0.00000000000E+00 0. -1.
         23    2    1    2    0    0  0.78973390825E+02  0.42561264137E+02 -0.50342567305E+02  0.16188720643E+03  0.12499934343E+03 0.  0.
          5    1    3    3  502    0 -0.22755377151E+02  0.26597854449E+02 -0.46949780825E+02  0.58750531658E+02  0.47000000000E+01 0.  1.
         -5    1    3    3    0  502  0.10172876798E+03  0.15963409688E+02 -0.33927864798E+01  0.10313667477E+03  0.47000000000E+01 0.  1.
        -11    1    1    2    0    0 -0.53073804755E+02  0.17830652898E+02 -0.18142291575E+03  0.18986583498E+03  0.00000000000E+00 0. -1.
         11    1    1    2    0    0 -0.25899586070E+02 -0.60391917035E+02 -0.10304505789E+03  0.12221397693E+03  0.00000000000E+00 0.  1.
<mgrwt>
<rscale>  0 0.14704092E+03</rscale>
<asrwt>0</asrwt>
<pdfrwt beam="2">  1        2 0.62213657E-01 0.15386063E+03</pdfrwt>
<pdfrwt beam="1">  1       -2 0.10704345E-01 0.15386063E+03</pdfrwt>
<totfact> 0.45501707E+03</totfact>
</mgrwt>
</event>
<event>
 7    1  0.6095443E-006  0.1365373E+03  0.7546771E-02  0.1230475E+00
         -2   -1    0    0    0  501 -0.00000000000E+00  0.00000000000E+00  0.47948891451E+02  0.47948891451E+02  0.00000000000E+00 0.  1.
          2   -1    0    0  501    0  0.00000000000E+00 -0.00000000000E+00 -0.32193648895E+03  0.32193648895E+03  0.00000000000E+00 0. -1.
         23    2    1    2    0    0  0.29945869742E+02 -0.46056054107E+02 -0.11189470018E+03  0.17653003005E+03  0.12499804937E+03 0.  0.
          5    1    3    3  502    0 -0.27337482858E+02 -0.46696360299E+02 -0.10554604418E+03  0.11870107614E+03  0.47000000000E+01 0.  1.
         -5    1    3    3    0  502  0.57283352599E+02  0.64030619201E+00 -0.63486559949E+01  0.57828953907E+02  0.47000000000E+01 0.  1.
        -11    1    1    2    0    0  0.31358893241E+02  0.14091766229E+02 -0.72042769775E+02  0.79825551909E+02  0.00000000000E+00 0. -1.
         11    1    1    2    0    0 -0.61304762983E+02  0.31964287877E+02 -0.90050127547E+02  0.11352979845E+03  0.00000000000E+00 0.  1.
<mgrwt>
<rscale>  0 0.12798626E+03</rscale>
<asrwt>0</asrwt>
<pdfrwt beam="2">  1        2 0.49528690E-01 0.13653728E+03</pdfrwt>
<pdfrwt beam="1">  1       -2 0.73767527E-02 0.13653728E+03</pdfrwt>
<totfact> 0.10293448E+04</totfact>
</mgrwt>
</event>
<event>
 7    1  0.6095443E-006  0.2135831E+03  0.7546771E-02  0.1142182E+00
         -4   -1    0    0    0  501 -0.00000000000E+00  0.00000000000E+00  0.88674873469E+03  0.88674873469E+03  0.00000000000E+00 0.  1.
          4   -1    0    0  501    0  0.00000000000E+00 -0.00000000000E+00 -0.50495959578E+02  0.50495959578E+02  0.00000000000E+00 0. -1.
         23    2    1    2    0    0  0.95811389474E+02 -0.14426725312E+03  0.54929209686E+03  0.58935519956E+03  0.12499952360E+03 0.  0.
          5    1    3    3  502    0  0.64490691416E+02 -0.16395965084E+03  0.44900674015E+03  0.48235978178E+03  0.47000000000E+01 0. -1.
         -5    1    3    3    0  502  0.31320698058E+02  0.19692397720E+02  0.10028535671E+03  0.10699541778E+03  0.47000000000E+01 0. -1.
        -11    1    1    2    0    0 -0.10866358134E+03  0.12431761078E+03  0.27629446406E+03  0.32187151650E+03  0.00000000000E+00 0.  1.
         11    1    1    2    0    0  0.12852191863E+02  0.19949642342E+02  0.10666214190E+02  0.26017978216E+02  0.00000000000E+00 0. -1.
<mgrwt>
<rscale>  0 0.20922420E+03</rscale>
<asrwt>0</asrwt>
<pdfrwt beam="2">  1        4 0.77686098E-02 0.21358311E+03</pdfrwt>
<pdfrwt beam="1">  1       -4 0.13642287E+00 0.21358311E+03</pdfrwt>
<totfact> 0.84001780E+01</totfact>
</mgrwt>
</event>
<event>
 7    1  0.6095443E-006  0.1252996E+03  0.7546771E-02  0.1249963E+00
         -2   -1    0    0    0  501 -0.00000000000E+00  0.00000000000E+00  0.35797301480E+02  0.35797301480E+02  0.00000000000E+00 0.  1.
          2   -1    0    0  501    0  0.00000000000E+00 -0.00000000000E+00 -0.41523115601E+03  0.41523115601E+03  0.00000000000E+00 0. -1.
         23    2    1    2    0    0  0.86822568609E+01 -0.33561331051E+00 -0.11125385728E+03  0.16756317557E+03  0.12499801129E+03 0.  0.
          5    1    3    3  502    0  0.33646934378E+02  0.44011091951E+02 -0.10121374189E+03  0.11547901955E+03  0.47000000000E+01 0. -1.
         -5    1    3    3    0  502 -0.24964677517E+02 -0.44346705261E+02 -0.10040115387E+02  0.52084156017E+02  0.47000000000E+01 0. -1.
        -11    1    1    2    0    0 -0.12398224985E+02  0.44134438348E+02 -0.16639496306E+03  0.17259446215E+03  0.00000000000E+00 0. -1.
         11    1    1    2    0    0  0.37159681241E+01 -0.43798825037E+02 -0.10178503419E+03  0.11087081978E+03  0.00000000000E+00 0.  1.
<mgrwt>
<rscale>  0 0.11593218E+03</rscale>
<asrwt>0</asrwt>
<pdfrwt beam="2">  1        2 0.63881714E-01 0.12529963E+03</pdfrwt>
<pdfrwt beam="1">  1       -2 0.55072773E-02 0.12529963E+03</pdfrwt>
<totfact> 0.12167240E+04</totfact>
</mgrwt>
</event>
<event>
 7    1  0.6095443E-006  0.1608043E+03  0.7546771E-02  0.1195060E+00
         -4   -1    0    0    0  501 -0.00000000000E+00  0.00000000000E+00  0.15653476117E+03  0.15653476117E+03  0.00000000000E+00 0.  1.
          4   -1    0    0  501    0  0.00000000000E+00 -0.00000000000E+00 -0.16665683509E+03  0.16665683509E+03  0.00000000000E+00 0. -1.
         23    2    1    2    0    0  0.32088129243E+02 -0.95932329626E+02  0.57031396930E+02  0.17061831393E+03  0.12500147562E+03 0.  0.
          5    1    3    3  502    0  0.60658038136E+00 -0.86039960778E+02 -0.18433453895E+02  0.88119946737E+02  0.47000000000E+01 0. -1.
         -5    1    3    3    0  502  0.31481548861E+02 -0.98923688482E+01  0.75464850826E+02  0.82498367197E+02  0.47000000000E+01 0. -1.
        -11    1    1    2    0    0  0.29435470476E+02  0.55797944227E+02 -0.24835405025E+02  0.67798634535E+02  0.00000000000E+00 0. -1.
         11    1    1    2    0    0 -0.61523599719E+02  0.40134385400E+02 -0.42318065826E+02  0.84774647796E+02  0.00000000000E+00 0.  1.
<mgrwt>
<rscale>  0 0.15449110E+03</rscale>
<asrwt>0</asrwt>
<pdfrwt beam="2">  1        4 0.25639513E-01 0.16080432E+03</pdfrwt>
<pdfrwt beam="1">  1       -4 0.24082271E-01 0.16080432E+03</pdfrwt>
<totfact> 0.39349232E+02</totfact>
</mgrwt>
</event>
<event>
 7    1  0.6095443E-006  0.1268429E+03  0.7546771E-02  0.1247522E+00
         -1   -1    0    0    0  501 -0.00000000000E+00  0.00000000000E+00  0.19610453032E+03  0.19610453032E+03  0.00000000000E+00 0.  1.
          1   -1    0    0  501    0  0.00000000000E+00 -0.00000000000E+00 -0.61603419467E+02  0.61603419467E+02  0.00000000000E+00 0. -1.
         23    2    1    2    0    0 -0.65479419754E+01 -0.20526982928E+02  0.79858960256E+02  0.14988854057E+03  0.12499955395E+03 0.  0.
          5    1    3    3  502    0 -0.45368005690E+02  0.27040966616E+02  0.54485979283E+01  0.53303349193E+02  0.47000000000E+01 0. -1.
         -5    1    3    3    0  502  0.38820063714E+02 -0.47567949544E+02  0.74410362327E+02  0.96585191372E+02  0.47000000000E+01 0. -1.
        -11    1    1    2    0    0 -0.34980638669E+02  0.32861740311E+02  0.38712022836E+02  0.61661655589E+02  0.00000000000E+00 0.  1.
         11    1    1    2    0    0  0.41528580644E+02 -0.12334757383E+02  0.15930127761E+02  0.46157753634E+02  0.00000000000E+00 0. -1.
<mgrwt>
<rscale>  0 0.11735705E+03</rscale>
<asrwt>0</asrwt>
<pdfrwt beam="2">  1        1 0.94774493E-02 0.12684290E+03</pdfrwt>
<pdfrwt beam="1">  1       -1 0.30169927E-01 0.12684290E+03</pdfrwt>
<totfact> 0.65868609E+03</totfact>
</mgrwt>
</event>
<event>
 7    1  0.6095443E-006  0.1382935E+03  0.7546771E-02  0.1227675E+00
          1   -1    0    0  501    0  0.00000000000E+00  0.00000000000E+00  0.39507784049E+03  0.39507784049E+03  0.00000000000E+00 0. -1.
         -1   -1    0    0    0  501 -0.00000000000E+00 -0.00000000000E+00 -0.38740312108E+02  0.38740312108E+02  0.00000000000E+00 0.  1.
         23    2    1    2    0    0  0.17031157263E+02 -0.56634352608E+02  0.17545525346E+03  0.22340464248E+03  0.12501031199E+03 0.  0.
          5    1    3    3  502    0  0.66453461482E+02 -0.57984783877E+01  0.76959613119E+02  0.10195370001E+03  0.47000000000E+01 0.  1.
         -5    1    3    3    0  502 -0.49422304219E+02 -0.50835874220E+02  0.98495640339E+02  0.12145094247E+03  0.47000000000E+01 0.  1.
        -11    1    1    2    0    0 -0.43962967801E+02  0.51297623964E+02  0.16591728716E+03  0.17914445272E+03  0.00000000000E+00 0. -1.
         11    1    1    2    0    0  0.26931810539E+02  0.53367286443E+01  0.14964987767E+02  0.31269057395E+02  0.00000000000E+00 0.  1.
<mgrwt>
<rscale>  0 0.12985230E+03</rscale>
<asrwt>0</asrwt>
<pdfrwt beam="1">  1        1 0.60781204E-01 0.13829349E+03</pdfrwt>
<pdfrwt beam="2">  1       -1 0.59600483E-02 0.13829349E+03</pdfrwt>
<totfact> 0.79296291E+03</totfact>
</mgrwt>
</event>
<event>
 7    1  0.6095443E-006  0.1276634E+03  0.7546771E-02  0.1250794E+00
          1   -1    0    0  501    0  0.00000000000E+00  0.00000000000E+00  0.10198609228E+03  0.10198609228E+03  0.00000000000E+00 0. -1.
         -1   -1    0    0    0  501 -0.00000000000E+00 -0.00000000000E+00 -0.13164495651E+03  0.13164495651E+03  0.00000000000E+00 0.  1.
         23    2    1    2    0    0 -0.23638129118E+02 -0.10869904499E+02 -0.62502712074E+02  0.14214261269E+03  0.12498406840E+03 0.  0.
          5    1    3    3  502    0 -0.62415494003E+02 -0.24692344576E+02 -0.73121111518E+02  0.99368972632E+02  0.47000000000E+01 0. -1.
         -5    1    3    3    0  502  0.38777364885E+02  0.13822440077E+02  0.10618399444E+02  0.42773640059E+02  0.47000000000E+01 0. -1.
        -11    1    1    2    0    0 -0.12920348537E+02 -0.10552635795E+02 -0.18504738638E+02  0.24914230483E+02  0.00000000000E+00 0.  1.
         11    1    1    2    0    0  0.36558477655E+02  0.21422540293E+02  0.51348586482E+02  0.66574205626E+02  0.00000000000E+00 0. -1.
<mgrwt>
<rscale>  0 0.11545193E+03</rscale>
<asrwt>0</asrwt>
<pdfrwt beam="1">  1        1 0.15690168E-01 0.12766336E+03</pdfrwt>
<pdfrwt beam="2">  1       -1 0.20253070E-01 0.12766336E+03</pdfrwt>
<totfact> 0.65493966E+03</totfact>
</mgrwt>
</event>
<event>
 7    1  0.6095443E-006  0.1805578E+03  0.7546771E-02  0.1172987E+00
         -4   -1    0    0    0  501 -0.00000000000E+00  0.00000000000E+00  0.32138059497E+03  0.32138059497E+03  0.00000000000E+00 0.  1.
          4   -1    0    0  501    0  0.00000000000E+00 -0.00000000000E+00 -0.90808818676E+02  0.90808818676E+02  0.00000000000E+00 0. -1.
         23    2    1    2    0    0 -0.11321307164E+03 -0.64484458367E+02  0.14850439721E+03  0.23378342513E+03  0.12500275563E+03 0.  0.
          5    1    3    3  502    0 -0.12191072281E+03 -0.77572598040E+01  0.90947590480E+02  0.15236782347E+03  0.47000000000E+01 0. -1.
         -5    1    3    3    0  502  0.86976511681E+01 -0.56727198563E+02  0.57556806733E+02  0.81415601662E+02  0.47000000000E+01 0. -1.
        -11    1    1    2    0    0  0.11820335879E+03  0.28134347611E+02  0.66881686421E+02  0.13869655916E+03  0.00000000000E+00 0. -1.
         11    1    1    2    0    0 -0.49902871524E+01  0.36350110756E+02  0.15185692663E+02  0.39709429352E+02  0.00000000000E+00 0.  1.
<mgrwt>
<rscale>  0 0.17474619E+03</rscale>
<asrwt>0</asrwt>
<pdfrwt beam="2">  1        4 0.13970588E-01 0.18055784E+03</pdfrwt>
<pdfrwt beam="1">  1       -4 0.49443168E-01 0.18055784E+03</pdfrwt>
<totfact> 0.29647986E+02</totfact>
</mgrwt>
</event>
<event>
 7    1  0.6095443E-006  0.1351534E+03  0.7546771E-02  0.1231440E+00
          2   -1    0    0  501    0  0.00000000000E+00  0.00000000000E+00  0.11343902212E+03  0.11343902212E+03  0.00000000000E+00 0. -1.
         -2   -1    0    0    0  501 -0.00000000000E+00 -0.00000000000E+00 -0.15072847644E+03  0.15072847644E+03  0.00000000000E+00 0.  1.
         23    2    1    2    0    0 -0.47218006363E+02 -0.20261094282E+02 -0.70673096809E+02  0.15251598980E+03  0.12500555374E+03 0.  0.
          5    1    3    3  502    0 -0.54812022286E+02  0.28736651037E+01 -0.99963434488E+02  0.11413760981E+03  0.47000000000E+01 0. -1.
         -5    1    3    3    0  502  0.75940159231E+01 -0.23134759386E+02  0.29290337679E+02  0.38378379995E+02  0.47000000000E+01 0. -1.
        -11    1    1    2    0    0  0.16819509314E+02  0.32944317069E+02  0.59197045413E+02  0.69803396095E+02  0.00000000000E+00 0. -1.
         11    1    1    2    0    0  0.30398497049E+02 -0.12683222787E+02 -0.25813402916E+02  0.41848112660E+02  0.00000000000E+00 0.  1.
<mgrwt>
<rscale>  0 0.12735099E+03</rscale>
<asrwt>0</asrwt>
<pdfrwt beam="1">  1        2 0.17452157E-01 0.13515340E+03</pdfrwt>
<pdfrwt beam="2">  1       -2 0.23188996E-01 0.13515340E+03</pdfrwt>
<totfact> 0.50382538E+03</totfact>
</mgrwt>
</event>
<event>
 7    1  0.6095443E-006  0.1576778E+03  0.7546771E-02  0.1199492E+00
          1   -1    0    0  501    0  0.00000000000E+00  0.00000000000E+00  0.16254133313E+03  0.16254133313E+03  0.00000000000E+00 0. -1.
         -1   -1    0    0    0  501 -0.00000000000E+00 -0.00000000000E+00 -0.17013894981E+03  0.17013894981E+03  0.00000000000E+00 0.  1.
         23    2    1    2    0    0  0.87167351721E+01  0.95716587791E+02 -0.85611599015E+02  0.17942028858E+03  0.12499858967E+03 0.  0.
          5    1    3    3  502    0  0.26101272154E+02  0.17098721206E+02 -0.93212485356E+02  0.98408841581E+02  0.47000000000E+01 0. -1.
         -5    1    3    3    0  502 -0.17384536982E+02  0.78617866585E+02  0.76008863417E+01  0.81011447003E+02  0.47000000000E+01 0. -1.
        -11    1    1    2    0    0 -0.18142861444E+02 -0.91721332800E+02  0.21648116419E+02  0.95971908684E+02  0.00000000000E+00 0.  1.
         11    1    1    2    0    0  0.94261262723E+01 -0.39952549911E+01  0.56365865918E+02  0.57288085669E+02  0.00000000000E+00 0. -1.
<mgrwt>
<rscale>  0 0.15080100E+03</rscale>
<asrwt>0</asrwt>
<pdfrwt beam="1">  1        1 0.25006359E-01 0.15767782E+03</pdfrwt>
<pdfrwt beam="2">  1       -1 0.26175223E-01 0.15767782E+03</pdfrwt>
<totfact> 0.24090169E+03</totfact>
</mgrwt>
</event>
<event>
 7    1  0.6095443E-006  0.1665173E+03  0.7546771E-02  0.1187731E+00
         -4   -1    0    0    0  501 -0.00000000000E+00  0.00000000000E+00  0.54931032983E+02  0.54931032983E+02  0.00000000000E+00 0.  1.
          4   -1    0    0  501    0  0.00000000000E+00 -0.00000000000E+00 -0.44678882878E+03  0.44678882878E+03  0.00000000000E+00 0. -1.
         23    2    1    2    0    0 -0.82447634699E+02 -0.72837934888E+02 -0.18256468647E+03  0.24709895081E+03  0.12500019808E+03 0.  0.
          5    1    3    3  502    0 -0.72225342489E+02  0.63148128367E+01 -0.38220863478E+02  0.82093247980E+02  0.47000000000E+01 0.  1.
         -5    1    3    3    0  502 -0.10222292210E+02 -0.79152747725E+02 -0.14434382299E+03  0.16500570283E+03  0.47000000000E+01 0.  1.
        -11    1    1    2    0    0  0.51606558762E+02  0.71532172264E+00 -0.31938691553E+02  0.60694551737E+02  0.00000000000E+00 0.  1.
         11    1    1    2    0    0  0.30841075938E+02  0.72122613165E+02 -0.17735441778E+03  0.19392635922E+03  0.00000000000E+00 0. -1.
<mgrwt>
<rscale>  0 0.16085882E+03</rscale>
<asrwt>0</asrwt>
<pdfrwt beam="2">  1        4 0.68736741E-01 0.16651735E+03</pdfrwt>
<pdfrwt beam="1">  1       -4 0.84509283E-02 0.16651735E+03</pdfrwt>
<totfact> 0.34504032E+02</totfact>
</mgrwt>
</event>
<event>
 7    1  0.6095443E-006  0.1252815E+03  0.7546771E-02  0.1249575E+00
         -2   -1    0    0    0  501 -0.00000000000E+00  0.00000000000E+00  0.37796156785E+02  0.37796156785E+02  0.00000000000E+00 0.  1.
          2   -1    0    0  501    0  0.00000000000E+00 -0.00000000000E+00 -0.31458086200E+03  0.31458086200E+03  0.00000000000E+00 0. -1.
         23    2    1    2    0    0  0.25161526576E+02 -0.19395729032E+02 -0.15130248761E+03  0.19643802099E+03  0.12118645391E+03 0.  0.
          5    1    3    3  502    0  0.46304528335E+02 -0.54318191402E+01 -0.16192170372E+03  0.16856554257E+03  0.47000000000E+01 0. -1.
         -5    1    3    3    0  502 -0.21143001758E+02 -0.13963909892E+02  0.10619216114E+02  0.27872478428E+02  0.47000000000E+01 0.  1.
        -11    1    1    2    0    0 -0.22802117441E+02 -0.29788489889E+02 -0.28291023969E+02  0.46985877952E+02  0.00000000000E+00 0.  1.
         11    1    1    2    0    0 -0.23594091349E+01  0.49184218922E+02 -0.97191193640E+02  0.10895311984E+03  0.00000000000E+00 0. -1.
<mgrwt>
<rscale>  0 0.11615698E+03</rscale>
<asrwt>0</asrwt>
<pdfrwt beam="2">  1        2 0.48397056E-01 0.12528150E+03</pdfrwt>
<pdfrwt beam="1">  1       -2 0.58147933E-02 0.12528150E+03</pdfrwt>
<totfact> 0.15049661E+04</totfact>
</mgrwt>
</event>
<event>
 6    1  0.6095443E-006  0.2030421E+03  0.7546771E-02  0.1168264E+00
         -2   -1    0    0    0  501 -0.00000000000E+00  0.00000000000E+00  0.28319974089E+02  0.28319974089E+02  0.00000000000E+00 0.  1.
          2   -1    0    0  501    0  0.00000000000E+00 -0.00000000000E+00 -0.95445958839E+03  0.95445958839E+03  0.00000000000E+00 0. -1.
          5    1    1    2  502    0 -0.38209249848E+02 -0.45556799087E+02 -0.53337224145E+03  0.53669675485E+03  0.47000000000E+01 0. -1.
         -5    1    1    2    0  502 -0.23991271057E+02 -0.69142357242E+01  0.79267035350E+01  0.26614100990E+02  0.47000000000E+01 0.  1.
        -11    1    1    2    0    0  0.45945043816E+02 -0.16669517660E+02 -0.11262843787E+03  0.12277615765E+03  0.00000000000E+00 0.  1.
         11    1    1    2    0    0  0.16255477088E+02  0.69140552470E+02 -0.28806563851E+03  0.29669254898E+03  0.00000000000E+00 0. -1.
<mgrwt>
<rscale>  0 0.17952443E+03</rscale>
<asrwt>0</asrwt>
<pdfrwt beam="2">  1        2 0.14683991E+00 0.20304213E+03</pdfrwt>
<pdfrwt beam="1">  1       -2 0.43569198E-02 0.20304213E+03</pdfrwt>
<totfact> 0.66809474E+03</totfact>
</mgrwt>
</event>
<event>
 7    1  0.6095443E-006  0.1977209E+03  0.7546771E-02  0.1156197E+00
          2   -1    0    0  501    0  0.00000000000E+00  0.00000000000E+00  0.59746138798E+03  0.59746138798E+03  0.00000000000E+00 0. -1.
         -2   -1    0    0    0  501 -0.00000000000E+00 -0.00000000000E+00 -0.62099937364E+02  0.62099937364E+02  0.00000000000E+00 0.  1.
         23    2    1    2    0    0  0.24040796359E+02  0.15129877276E+03  0.20756754266E+03  0.28666677050E+03  0.12499709604E+03 0.  0.
          5    1    3    3  502    0 -0.68617794136E+01 -0.18347917392E+02  0.46425785291E+02  0.50608039176E+02  0.47000000000E+01 0.  1.
         -5    1    3    3    0  502  0.30902575772E+02  0.16964669015E+03  0.16114175737E+03  0.23605873132E+03  0.47000000000E+01 0.  1.
        -11    1    1    2    0    0 -0.16232071968E+02 -0.89901867258E+02  0.94129445405E+02  0.13117232326E+03  0.00000000000E+00 0.  1.
         11    1    1    2    0    0 -0.78087243905E+01 -0.61396905498E+02  0.23366446256E+03  0.24172223159E+03  0.00000000000E+00 0. -1.
<mgrwt>
<rscale>  0 0.19253199E+03</rscale>
<asrwt>0</asrwt>
<pdfrwt beam="1">  1        2 0.91917133E-01 0.19772090E+03</pdfrwt>
<pdfrwt beam="2">  1       -2 0.95538369E-02 0.19772090E+03</pdfrwt>
<totfact> 0.35715661E+03</totfact>
</mgrwt>
</event>
<event>
 6    1  0.6095443E-006  0.1732812E+03  0.7546771E-02  0.1201293E+00
          2   -1    0    0  501    0  0.00000000000E+00  0.00000000000E+00  0.85525774261E+02  0.85525774261E+02  0.00000000000E+00 0. -1.
         -2   -1    0    0    0  501 -0.00000000000E+00 -0.00000000000E+00 -0.31719558207E+03  0.31719558207E+03  0.00000000000E+00 0.  1.
          5    1    1    2  502    0 -0.29970789358E+02  0.75347305251E+02 -0.12418163415E+03  0.14838676788E+03  0.47000000000E+01 0. -1.
         -5    1    1    2    0  502  0.55767336274E+02 -0.72902268485E+02 -0.12701175737E+03  0.15677631535E+03  0.47000000000E+01 0.  1.
        -11    1    1    2    0    0 -0.10074479563E+02  0.23818954286E+02  0.48782385604E+02  0.55213756139E+02  0.00000000000E+00 0. -1.
         11    1    1    2    0    0 -0.15722067353E+02 -0.26263991053E+02 -0.29258801895E+02  0.42344516956E+02  0.00000000000E+00 0.  1.
<mgrwt>
<rscale>  0 0.14933473E+03</rscale>
<asrwt>0</asrwt>
<pdfrwt beam="1">  1        2 0.13157811E-01 0.17328124E+03</pdfrwt>
<pdfrwt beam="2">  1       -2 0.48799320E-01 0.17328124E+03</pdfrwt>
<totfact> 0.18052214E+03</totfact>
</mgrwt>
</event>
<event>
 7    1  0.6095443E-006  0.1265219E+03  0.7546771E-02  0.1247990E+00
         -1   -1    0    0    0  501 -0.00000000000E+00  0.00000000000E+00  0.22645940984E+03  0.22645940984E+03  0.00000000000E+00 0.  1.
          1   -1    0    0  501    0  0.00000000000E+00 -0.00000000000E+00 -0.53859365429E+02  0.53859365429E+02  0.00000000000E+00 0. -1.
         23    2    1    2    0    0  0.97076456473E+01  0.10720662337E+02  0.11590591202E+03  0.17158664355E+03  0.12569258060E+03 0.  0.
          5    1    3    3  502    0 -0.55656334871E+02 -0.59255761414E+01  0.35137887855E+02  0.66253311063E+02  0.47000000000E+01 0.  1.
         -5    1    3    3    0  502  0.65363980519E+02  0.16646238478E+02  0.80768024165E+02  0.10533333248E+03  0.47000000000E+01 0.  1.
        -11    1    1    2    0    0 -0.41125012218E+01  0.27009453886E+02 -0.12249125771E+02  0.29941014473E+02  0.00000000000E+00 0. -1.
         11    1    1    2    0    0 -0.55951444255E+01 -0.37730116223E+02  0.68943258164E+02  0.78791117250E+02  0.00000000000E+00 0.  1.
<mgrwt>
<rscale>  0 0.11708195E+03</rscale>
<asrwt>0</asrwt>
<pdfrwt beam="2">  1        1 0.82860563E-02 0.12652192E+03</pdfrwt>
<pdfrwt beam="1">  1       -1 0.34839909E-01 0.12652192E+03</pdfrwt>
<totfact> 0.61711810E+03</totfact>
</mgrwt>
</event>
<event>
 7    1  0.6095443E-006  0.1424615E+03  0.7546771E-02  0.1221334E+00
         -1   -1    0    0    0  501 -0.00000000000E+00  0.00000000000E+00  0.62445304759E+02  0.62445304759E+02  0.00000000000E+00 0.  1.
          1   -1    0    0  501    0  0.00000000000E+00 -0.00000000000E+00 -0.26040144914E+03  0.26040144914E+03  0.00000000000E+00 0. -1.
         23    2    1    2    0    0  0.57830247881E+02  0.36407426300E+02 -0.10233324202E+03  0.17540632077E+03  0.12500178673E+03 0.  0.
          5    1    3    3  502    0 -0.26518364972E+02  0.44095470497E+02 -0.15335602541E+02  0.53897169726E+02  0.47000000000E+01 0.  1.
         -5    1    3    3    0  502  0.84348612854E+02 -0.76880441972E+01 -0.86997639476E+02  0.12150915105E+03  0.47000000000E+01 0.  1.
        -11    1    1    2    0    0 -0.20256859866E+02 -0.18682108041E+02  0.13493506731E+02  0.30682833252E+02  0.00000000000E+00 0.  1.
         11    1    1    2    0    0 -0.37573388016E+02 -0.17725318259E+02 -0.10911640909E+03  0.11675759987E+03  0.00000000000E+00 0. -1.
<mgrwt>
<rscale>  0 0.13421396E+03</rscale>
<asrwt>0</asrwt>
<pdfrwt beam="2">  1        1 0.40061761E-01 0.14246152E+03</pdfrwt>
<pdfrwt beam="1">  1       -1 0.96069701E-02 0.14246152E+03</pdfrwt>
<totfact> 0.65021837E+03</totfact>
</mgrwt>
</event>
<event>
 7    1  0.6095443E-006  0.1738727E+03  0.7546771E-02  0.1179880E+00
         -2   -1    0    0    0  501 -0.00000000000E+00  0.00000000000E+00  0.27049923323E+02  0.27049923323E+02  0.00000000000E+00 0.  1.
          2   -1    0    0  501    0  0.00000000000E+00 -0.00000000000E+00 -0.10089322530E+04  0.10089322530E+04  0.00000000000E+00 0. -1.
         23    2    1    2    0    0  0.94139587103E+02 -0.75789152908E+02 -0.43599791951E+03  0.46938884997E+03  0.12500179640E+03 0.  0.
          5    1    3    3  502    0  0.12353606999E+03 -0.53866414181E+02 -0.36897510427E+03  0.39284534965E+03  0.47000000000E+01 0.  1.
         -5    1    3    3    0  502 -0.29396482891E+02 -0.21922738727E+02 -0.67022815234E+02  0.76543500322E+02  0.47000000000E+01 0.  1.
        -11    1    1    2    0    0 -0.32634483004E+02  0.10498674335E+02 -0.39394917399E+02  0.52222515839E+02  0.00000000000E+00 0.  1.
         11    1    1    2    0    0 -0.61505104100E+02  0.65290478573E+02 -0.50648949281E+03  0.51437081055E+03  0.00000000000E+00 0. -1.
<mgrwt>
<rscale>  0 0.16806589E+03</rscale>
<asrwt>0</asrwt>
<pdfrwt beam="2">  1        2 0.15522033E+00 0.17387267E+03</pdfrwt>
<pdfrwt beam="1">  1       -2 0.41615271E-02 0.17387267E+03</pdfrwt>
<totfact> 0.65897269E+03</totfact>
</mgrwt>
</event>
<event>
 7    1  0.6095443E-006  0.1750350E+03  0.7546771E-02  0.1178543E+00
         -1   -1    0    0    0  501 -0.00000000000E+00  0.00000000000E+00  0.44578158588E+02  0.44578158588E+02  0.00000000000E+00 0.  1.
          1   -1    0    0  501    0  0.00000000000E+00 -0.00000000000E+00 -0.65346544905E+03  0.65346544905E+03  0.00000000000E+00 0. -1.
         23    2    1    2    0    0 -0.10523064173E+03 -0.62761190616E+02 -0.22789307031E+03  0.28735433612E+03  0.12499923193E+03 0.  0.
          5    1    3    3  502    0 -0.51807813126E+02  0.32934161339E+02 -0.54783213376E+02  0.82413584753E+02  0.47000000000E+01 0. -1.
         -5    1    3    3    0  502 -0.53422828604E+02 -0.95695351955E+02 -0.17310985693E+03  0.20494075136E+03  0.47000000000E+01 0. -1.
        -11    1    1    2    0    0  0.34089140633E+02  0.50291257497E+02 -0.76210033252E+02  0.97464092146E+02  0.00000000000E+00 0.  1.
         11    1    1    2    0    0  0.71141501097E+02  0.12469933119E+02 -0.30478418690E+03  0.31322517938E+03  0.00000000000E+00 0. -1.
<mgrwt>
<rscale>  0 0.16933557E+03</rscale>
<asrwt>0</asrwt>
<pdfrwt beam="2">  1        1 0.10053315E+00 0.17503503E+03</pdfrwt>
<pdfrwt beam="1">  1       -1 0.68581777E-02 0.17503503E+03</pdfrwt>
<totfact> 0.33436976E+03</totfact>
</mgrwt>
</event>
<event>
 7    1  0.6095443E-006  0.2366191E+03  0.7546771E-02  0.1125319E+00
          1   -1    0    0  501    0  0.00000000000E+00  0.00000000000E+00  0.12257619501E+04  0.12257619501E+04  0.00000000000E+00 0. -1.
         -1   -1    0    0    0  501 -0.00000000000E+00 -0.00000000000E+00 -0.48614498076E+02  0.48614498076E+02  0.00000000000E+00 0.  1.
         23    2    1    2    0    0 -0.15636836356E+03  0.12606825561E+03  0.37790774332E+03  0.44587312150E+03  0.12507720743E+03 0.  0.
          5    1    3    3  502    0 -0.38595365188E+02 -0.13208332806E+02  0.23641799644E+02  0.47382348611E+02  0.47000000000E+01 0.  1.
         -5    1    3    3    0  502 -0.11777299837E+03  0.13927658842E+03  0.35426594367E+03  0.39849077288E+03  0.47000000000E+01 0.  1.
        -11    1    1    2    0    0  0.81072464729E+02 -0.10222256514E+03  0.37693054261E+03  0.39887194851E+03  0.00000000000E+00 0.  1.
         11    1    1    2    0    0  0.75295898830E+02 -0.23845690477E+02  0.42230916609E+03  0.42963137816E+03  0.00000000000E+00 0. -1.
<mgrwt>
<rscale>  0 0.23188706E+03</rscale>
<asrwt>0</asrwt>
<pdfrwt beam="1">  1        1 0.18857874E+00 0.23661906E+03</pdfrwt>
<pdfrwt beam="2">  1       -1 0.74791545E-02 0.23661906E+03</pdfrwt>
<totfact> 0.10514758E+03</totfact>
</mgrwt>
</event>
<event>
 7    1  0.6095443E-006  0.1803112E+03  0.7546771E-02  0.1172946E+00
         -2   -1    0    0    0  501 -0.00000000000E+00  0.00000000000E+00  0.21146852472E+03  0.21146852472E+03  0.00000000000E+00 0.  1.
          2   -1    0    0  501    0  0.00000000000E+00 -0.00000000000E+00 -0.24255346745E+03  0.24255346745E+03  0.00000000000E+00 0. -1.
         23    2    1    2    0    0 -0.64653661794E+02  0.11272261699E+03  0.13401816685E+03  0.22466197939E+03  0.12500260625E+03 0.  0.
          5    1    3    3  502    0 -0.57382902461E+02  0.22431484357E+02  0.11708540293E+03  0.13238976760E+03  0.47000000000E+01 0.  1.
         -5    1    3    3    0  502 -0.72707593327E+01  0.90291132636E+02  0.16932763917E+02  0.92272211786E+02  0.47000000000E+01 0.  1.
        -11    1    1    2    0    0  0.20538127534E+02 -0.36964666920E+02 -0.12684651101E+03  0.13370953084E+03  0.00000000000E+00 0. -1.
         11    1    1    2    0    0  0.44115534260E+02 -0.75757950073E+02 -0.38256598568E+02  0.95650481945E+02  0.00000000000E+00 0.  1.
<mgrwt>
<rscale>  0 0.17478648E+03</rscale>
<asrwt>0</asrwt>
<pdfrwt beam="2">  1        2 0.37315918E-01 0.18031122E+03</pdfrwt>
<pdfrwt beam="1">  1       -2 0.32533619E-01 0.18031122E+03</pdfrwt>
<totfact> 0.12041880E+03</totfact>
</mgrwt>
</event>
<event>
 7    1  0.6095443E-006  0.1171213E+03  0.7546771E-02  0.1259623E+00
          2   -1    0    0  501    0  0.00000000000E+00  0.00000000000E+00  0.61598408214E+02  0.61598408214E+02  0.00000000000E+00 0. -1.
         -2   -1    0    0    0  501 -0.00000000000E+00 -0.00000000000E+00 -0.40726580386E+03  0.40726580386E+03  0.00000000000E+00 0.  1.
         23    2    1    2    0    0  0.25566033697E+02  0.48085789002E+01 -0.35663638561E+03  0.37537568753E+03  0.11419566865E+03 0.  0.
          5    1    3    3  502    0 -0.27770515391E+02 -0.12142903005E+02 -0.26613571563E+02  0.40608174175E+02  0.47000000000E+01 0. -1.
         -5    1    3    3    0  502  0.53336549088E+02  0.16951481906E+02 -0.33002281405E+03  0.33476751336E+03  0.47000000000E+01 0.  1.
        -11    1    1    2    0    0 -0.40053068592E+02 -0.34550098044E+02  0.23802284663E+02  0.58004364781E+02  0.00000000000E+00 0. -1.
         11    1    1    2    0    0  0.14487034895E+02  0.29741519144E+02 -0.12833294697E+02  0.35484159759E+02  0.00000000000E+00 0.  1.
<mgrwt>
<rscale>  0 0.11051314E+03</rscale>
<asrwt>0</asrwt>
<pdfrwt beam="1">  1        2 0.94766780E-02 0.11712128E+03</pdfrwt>
<pdfrwt beam="2">  1       -2 0.62656279E-01 0.11712128E+03</pdfrwt>
<totfact> 0.15926972E+03</totfact>
</mgrwt>
</event>
<event>
 7    1  0.6095443E-006  0.1296616E+03  0.7546771E-02  0.1241875E+00
          1   -1    0    0  501    0  0.00000000000E+00  0.00000000000E+00  0.40098877405E+03  0.40098877405E+03  0.00000000000E+00 0. -1.
         -1   -1    0    0    0  501 -0.00000000000E+00 -0.00000000000E+00 -0.33488352366E+02  0.33488352366E+02  0.00000000000E+00 0.  1.
         23    2    1    2    0    0  0.34483240169E+02 -0.13060756939E+01  0.16611040039E+03  0.21072444325E+03  0.12498530385E+03 0.  0.
          5    1    3    3  502    0 -0.16018182700E+02 -0.35060382992E+02  0.58447039028E+01  0.39269112497E+02  0.47000000000E+01 0. -1.
         -5    1    3    3    0  502  0.50501422869E+02  0.33754307298E+02  0.16026569649E+03  0.17145533075E+03  0.47000000000E+01 0. -1.
        -11    1    1    2    0    0  0.20716351389E+02 -0.14556037530E+02  0.16679809250E+02  0.30319325191E+02  0.00000000000E+00 0.  1.
         11    1    1    2    0    0 -0.55199591558E+02  0.15862113224E+02  0.18471021205E+03  0.19343335798E+03  0.00000000000E+00 0. -1.
<mgrwt>
<rscale>  0 0.12074406E+03</rscale>
<asrwt>0</asrwt>
<pdfrwt beam="1">  1        1 0.61690577E-01 0.12966158E+03</pdfrwt>
<pdfrwt beam="2">  1       -1 0.51520545E-02 0.12966158E+03</pdfrwt>
<totfact> 0.96185362E+03</totfact>
</mgrwt>
</event>
<event>
 7    1  0.6095443E-006  0.1761957E+03  0.7546771E-02  0.1177689E+00
         -2   -1    0    0    0  501 -0.00000000000E+00  0.00000000000E+00  0.55075734353E+02  0.55075734353E+02  0.00000000000E+00 0.  1.
          2   -1    0    0  501    0  0.00000000000E+00 -0.00000000000E+00 -0.53128599748E+03  0.53128599748E+03  0.00000000000E+00 0. -1.
         23    2    1    2    0    0 -0.10309698158E+03 -0.69215309242E+02 -0.17457988076E+03  0.24803845073E+03  0.12500076652E+03 0.  0.
          5    1    3    3  502    0 -0.82364605218E+02 -0.28489354250E+02 -0.18167566273E+03  0.20155323845E+03  0.47000000000E+01 0. -1.
         -5    1    3    3    0  502 -0.20732376362E+02 -0.40725954992E+02  0.70957819684E+01  0.46485212287E+02  0.47000000000E+01 0. -1.
        -11    1    1    2    0    0 -0.19549273834E+01  0.14897058346E+02 -0.75976107448E+00  0.15043979704E+02  0.00000000000E+00 0.  1.
         11    1    1    2    0    0  0.10505190896E+03  0.54318250896E+02 -0.30087062129E+03  0.32327930140E+03  0.00000000000E+00 0. -1.
<mgrwt>
<rscale>  0 0.17015232E+03</rscale>
<asrwt>0</asrwt>
<pdfrwt beam="2">  1        2 0.81736304E-01 0.17619574E+03</pdfrwt>
<pdfrwt beam="1">  1       -2 0.84731903E-02 0.17619574E+03</pdfrwt>
<totfact> 0.49050463E+03</totfact>
</mgrwt>
</event>
<event>
 7    1  0.6095443E-006  0.1541443E+03  0.7546771E-02  0.1205413E+00
         -1   -1    0    0    0  501 -0.00000000000E+00  0.00000000000E+00  0.99849876239E+03  0.99849876239E+03  0.00000000000E+00 0.  1.
          1   -1    0    0  501    0  0.00000000000E+00 -0.00000000000E+00 -0.21685698996E+02  0.21685698996E+02  0.00000000000E+00 0. -1.
         23    2    1    2    0    0 -0.86033071350E+02 -0.27116188053E+02  0.70005400223E+03  0.71682360477E+03  0.12499398904E+03 0.  0.
          5    1    3    3  502    0 -0.11259241002E+03 -0.46527122764E+01  0.43197073802E+03  0.44645213297E+03  0.47000000000E+01 0. -1.
         -5    1    3    3    0  502  0.26559338674E+02 -0.22463475777E+02  0.26808326421E+03  0.27037147180E+03  0.47000000000E+01 0. -1.
        -11    1    1    2    0    0  0.58271295863E+02  0.16249819200E+00  0.61772908614E+02  0.84920330698E+02  0.00000000000E+00 0. -1.
         11    1    1    2    0    0  0.27761775486E+02  0.26953689861E+02  0.21498615255E+03  0.21844052592E+03  0.00000000000E+00 0.  1.
<mgrwt>
<rscale>  0 0.14604922E+03</rscale>
<asrwt>0</asrwt>
<pdfrwt beam="2">  1        1 0.33362621E-02 0.15414433E+03</pdfrwt>
<pdfrwt beam="1">  1       -1 0.15361516E+00 0.15414433E+03</pdfrwt>
<totfact> 0.10264015E+03</totfact>
</mgrwt>
</event>
<event>
 7    1  0.6095443E-006  0.1733813E+03  0.7546771E-02  0.1181072E+00
         -1   -1    0    0    0  501 -0.00000000000E+00  0.00000000000E+00  0.49129196101E+02  0.49129196101E+02  0.00000000000E+00 0.  1.
          1   -1    0    0  501    0  0.00000000000E+00 -0.00000000000E+00 -0.54152239735E+03  0.54152239735E+03  0.00000000000E+00 0. -1.
         23    2    1    2    0    0 -0.11201103410E+03 -0.43462986776E+02 -0.30919697416E+03  0.35449096358E+03  0.12500228579E+03 0.  0.
          5    1    3    3  502    0 -0.11998455870E+02 -0.16519057272E+02 -0.20984892644E+03  0.21089216232E+03  0.47000000000E+01 0. -1.
         -5    1    3    3    0  502 -0.10001257823E+03 -0.26943929504E+02 -0.99348047717E+02  0.14359880127E+03  0.47000000000E+01 0. -1.
        -11    1    1    2    0    0  0.30465307047E+02 -0.15543990905E+02 -0.99629675634E+02  0.10533671180E+03  0.00000000000E+00 0. -1.
         11    1    1    2    0    0  0.81545727050E+02  0.59006977681E+02 -0.83566551450E+02  0.13082391806E+03  0.00000000000E+00 0.  1.
<mgrwt>
<rscale>  0 0.16694471E+03</rscale>
<asrwt>0</asrwt>
<pdfrwt beam="2">  1        1 0.83311136E-01 0.17338130E+03</pdfrwt>
<pdfrwt beam="1">  1       -1 0.75583380E-02 0.17338130E+03</pdfrwt>
<totfact> 0.37344946E+03</totfact>
</mgrwt>
</event>
<event>
 7    1  0.6095443E-006  0.1316107E+03  0.7546771E-02  0.1238706E+00
         -1   -1    0    0    0  501 -0.00000000000E+00  0.00000000000E+00  0.26239293911E+02  0.26239293911E+02  0.00000000000E+00 0.  1.
          1   -1    0    0  501    0  0.00000000000E+00 -0.00000000000E+00 -0.50996717234E+03  0.50996717234E+03  0.00000000000E+00 0. -1.
         23    2    1    2    0    0 -0.35921628968E+02 -0.20194019790E+02 -0.26167205506E+03  0.29290549636E+03  0.12499281394E+03 0.  0.
          5    1    3    3  502    0 -0.43055996448E+02 -0.64789690753E+02 -0.11162645047E+03  0.13613991811E+03  0.47000000000E+01 0. -1.
         -5    1    3    3    0  502  0.71343674798E+01  0.44595670963E+02 -0.15004560459E+03  0.15676557825E+03  0.47000000000E+01 0. -1.
        -11    1    1    2    0    0  0.40527515234E+01  0.52126513774E+02 -0.94459409134E+02  0.10796378192E+03  0.00000000000E+00 0.  1.
         11    1    1    2    0    0  0.31868877444E+02 -0.31932493984E+02 -0.12759641424E+03  0.13533718797E+03  0.00000000000E+00 0. -1.
<mgrwt>
<rscale>  0 0.12270126E+03</rscale>
<asrwt>0</asrwt>
<pdfrwt beam="2">  1        1 0.78456485E-01 0.13161066E+03</pdfrwt>
<pdfrwt beam="1">  1       -1 0.40368146E-02 0.13161066E+03</pdfrwt>
<totfact> 0.10137248E+04</totfact>
</mgrwt>
</event>
<event>
 7    1  0.6095443E-006  0.3049410E+03  0.7546771E-02  0.1084182E+00
         -2   -1    0    0    0  501 -0.00000000000E+00  0.00000000000E+00  0.46200716141E+03  0.46200716141E+03  0.00000000000E+00 0.  1.
          2   -1    0    0  501    0  0.00000000000E+00 -0.00000000000E+00 -0.21190720677E+03  0.21190720677E+03  0.00000000000E+00 0. -1.
         23    2    1    2    0    0 -0.39243356777E+02  0.27536015380E+03  0.22508034746E+03  0.37901213913E+03  0.12500313375E+03 0.  0.
          5    1    3    3  502    0 -0.76754342991E+02  0.10819225547E+03  0.84573473995E+02  0.15738982120E+03  0.47000000000E+01 0. -1.
         -5    1    3    3    0  502  0.37510986214E+02  0.16716789833E+03  0.14050687346E+03  0.22162231794E+03  0.47000000000E+01 0. -1.
        -11    1    1    2    0    0  0.54439381457E+02 -0.78095385625E+02  0.18291132762E+02  0.96938645788E+02  0.00000000000E+00 0.  1.
         11    1    1    2    0    0 -0.15196024680E+02 -0.19726476818E+03  0.67284744179E+01  0.19796358326E+03  0.00000000000E+00 0. -1.
<mgrwt>
<rscale>  0 0.30212681E+03</rscale>
<asrwt>0</asrwt>
<pdfrwt beam="2">  1        2 0.32601109E-01 0.30494104E+03</pdfrwt>
<pdfrwt beam="1">  1       -2 0.71078025E-01 0.30494104E+03</pdfrwt>
<totfact> 0.29645390E+02</totfact>
</mgrwt>
</event>
<event>
 7    1  0.6095443E-006  0.1294271E+03  0.7546771E-02  0.1242999E+00
         -1   -1    0    0    0  501 -0.00000000000E+00  0.00000000000E+00  0.32599865488E+03  0.32599865488E+03  0.00000000000E+00 0.  1.
          1   -1    0    0  501    0  0.00000000000E+00 -0.00000000000E+00 -0.46860334647E+02  0.46860334647E+02  0.00000000000E+00 0. -1.
         23    2    1    2    0    0  0.24748060737E+02  0.22497454349E+02  0.23291954509E+03  0.26646365224E+03  0.12503104221E+03 0.  0.
          5    1    3    3  502    0  0.12229180450E+02  0.38212893402E+02  0.24095639756E+03  0.24431916340E+03  0.47000000000E+01 0.  1.
         -5    1    3    3    0  502  0.12518880287E+02 -0.15715439054E+02 -0.80368524734E+01  0.22144488840E+02  0.47000000000E+01 0.  1.
        -11    1    1    2    0    0  0.21786737732E+00 -0.20272477015E+02 -0.24246119273E+02  0.31605301617E+02  0.00000000000E+00 0. -1.
         11    1    1    2    0    0 -0.24965928115E+02 -0.22249773339E+01  0.70464894415E+02  0.74790035671E+02  0.00000000000E+00 0.  1.
<mgrwt>
<rscale>  0 0.12005951E+03</rscale>
<asrwt>0</asrwt>
<pdfrwt beam="2">  1        1 0.72092825E-02 0.12942706E+03</pdfrwt>
<pdfrwt beam="1">  1       -1 0.50153638E-01 0.12942706E+03</pdfrwt>
<totfact> 0.39162946E+03</totfact>
</mgrwt>
</event>
<event>
 7    1  0.6095443E-006  0.1317799E+03  0.7546771E-02  0.1236591E+00
          1   -1    0    0  501    0  0.00000000000E+00  0.00000000000E+00  0.17447278765E+02  0.17447278765E+02  0.00000000000E+00 0. -1.
         -1   -1    0    0    0  501 -0.00000000000E+00 -0.00000000000E+00 -0.83669556495E+03  0.83669556495E+03  0.00000000000E+00 0.  1.
         23    2    1    2    0    0  0.30822917561E+02 -0.28087938508E+02 -0.55377117605E+03  0.56923498267E+03  0.12500786190E+03 0.  0.
          5    1    3    3  502    0 -0.27567162154E+02 -0.22634052671E+02 -0.43701959019E+03  0.43849796006E+03  0.47000000000E+01 0.  1.
         -5    1    3    3    0  502  0.58390079714E+02 -0.54538858371E+01 -0.11675158586E+03  0.13073702261E+03  0.47000000000E+01 0.  1.
        -11    1    1    2    0    0 -0.44910142546E+02 -0.22920382647E+02 -0.13495771876E+03  0.14406890954E+03  0.00000000000E+00 0.  1.
         11    1    1    2    0    0  0.14087224985E+02  0.51008321155E+02 -0.13051939137E+03  0.14083895150E+03  0.00000000000E+00 0. -1.
<mgrwt>
<rscale>  0 0.12403135E+03</rscale>
<asrwt>0</asrwt>
<pdfrwt beam="1">  1        1 0.26841966E-02 0.13177993E+03</pdfrwt>
<pdfrwt beam="2">  1       -1 0.12872240E+00 0.13177993E+03</pdfrwt>
<totfact> 0.21516619E+03</totfact>
</mgrwt>
</event>
<event>
 7    1  0.6095443E-006  0.1739128E+03  0.7546771E-02  0.1179901E+00
          3   -1    0    0  501    0  0.00000000000E+00  0.00000000000E+00  0.21363036160E+03  0.21363036160E+03  0.00000000000E+00 0. -1.
         -3   -1    0    0    0  501 -0.00000000000E+00 -0.00000000000E+00 -0.15833785129E+03  0.15833785129E+03  0.00000000000E+00 0.  1.
         23    2    1    2    0    0  0.84597633756E+02 -0.86394962698E+02 -0.57316421198E+02  0.18311426843E+03  0.12499925579E+03 0.  0.
          5    1    3    3  502    0  0.47817039764E+02 -0.12892691484E+01  0.29181227613E+02  0.56229578975E+02  0.47000000000E+01 0.  1.
         -5    1    3    3    0  502  0.36780593992E+02 -0.85105693550E+02 -0.86497648811E+02  0.12688468946E+03  0.47000000000E+01 0.  1.
        -11    1    1    2    0    0 -0.75230920784E+02  0.63810903864E+02  0.12674601187E+03  0.16061156377E+03  0.00000000000E+00 0. -1.
         11    1    1    2    0    0 -0.93667129728E+01  0.22584058834E+02 -0.14137080359E+02  0.28242380679E+02  0.00000000000E+00 0.  1.
<mgrwt>
<rscale>  0 0.16804644E+03</rscale>
<asrwt>0</asrwt>
<pdfrwt beam="1">  1        3 0.32866210E-01 0.17391280E+03</pdfrwt>
<pdfrwt beam="2">  1       -3 0.24359669E-01 0.17391280E+03</pdfrwt>
<totfact> 0.34224414E+02</totfact>
</mgrwt>
</event>
<event>
 7    1  0.6095443E-006  0.1247976E+03  0.7546771E-02  0.1268832E+00
          2   -1    0    0  501    0  0.00000000000E+00  0.00000000000E+00  0.23935437396E+03  0.23935437396E+03  0.00000000000E+00 0. -1.
         -2   -1    0    0    0  501 -0.00000000000E+00 -0.00000000000E+00 -0.43733334168E+02  0.43733334168E+02  0.00000000000E+00 0.  1.
         23    2    1    2    0    0  0.39433416244E+02 -0.33007283522E+02  0.72644375917E+02  0.14440102334E+03  0.11371004840E+03 0.  0.
          5    1    3    3  502    0  0.19201828918E+01 -0.10802909306E+02  0.94611169324E+02  0.95361172983E+02  0.47000000000E+01 0. -1.
         -5    1    3    3    0  502  0.37513233352E+02 -0.22204374216E+02 -0.21966793407E+02  0.49039850361E+02  0.47000000000E+01 0.  1.
        -11    1    1    2    0    0 -0.12939038001E+02 -0.29639215500E+01  0.84011167768E+01  0.15709306109E+02  0.00000000000E+00 0.  1.
         11    1    1    2    0    0 -0.26494378243E+02  0.35971205072E+02  0.11457554709E+03  0.12297737867E+03  0.00000000000E+00 0. -1.
<mgrwt>
<rscale>  0 0.10565614E+03</rscale>
<asrwt>0</asrwt>
<pdfrwt beam="1">  1        2 0.36823749E-01 0.12479764E+03</pdfrwt>
<pdfrwt beam="2">  1       -2 0.67282054E-02 0.12479764E+03</pdfrwt>
<totfact> 0.16104453E+04</totfact>
</mgrwt>
</event>
<event>
 7    1  0.6095443E-006  0.1913684E+03  0.7546771E-02  0.1162916E+00
          1   -1    0    0  501    0  0.00000000000E+00  0.00000000000E+00  0.16581683803E+03  0.16581683803E+03  0.00000000000E+00 0. -1.
         -1   -1    0    0    0  501 -0.00000000000E+00 -0.00000000000E+00 -0.19686909298E+03  0.19686909298E+03  0.00000000000E+00 0.  1.
         23    2    1    2    0    0  0.75649845283E+02  0.12359124300E+03  0.39783930916E+01  0.19140978272E+03  0.12499673144E+03 0.  0.
          5    1    3    3  502    0  0.50544024642E+02  0.11893310931E+03 -0.44218726203E+02  0.13666443819E+03  0.47000000000E+01 0.  1.
         -5    1    3    3    0  502  0.25105820641E+02  0.46581336903E+01  0.48197119294E+02  0.54745344531E+02  0.47000000000E+01 0.  1.
        -11    1    1    2    0    0 -0.92003783430E+01 -0.94598048731E+02 -0.22969008744E+02  0.97780433360E+02  0.00000000000E+00 0. -1.
         11    1    1    2    0    0 -0.66449466940E+02 -0.28993194272E+02 -0.12061639301E+02  0.73495714932E+02  0.00000000000E+00 0.  1.
<mgrwt>
<rscale>  0 0.18514295E+03</rscale>
<asrwt>0</asrwt>
<pdfrwt beam="1">  1        1 0.25510283E-01 0.19136843E+03</pdfrwt>
<pdfrwt beam="2">  1       -1 0.30287553E-01 0.19136843E+03</pdfrwt>
<totfact> 0.18516783E+03</totfact>
</mgrwt>
</event>
<event>
 7    1  0.6095443E-006  0.1497920E+03  0.7546771E-02  0.1209740E+00
         -3   -1    0    0    0  501 -0.00000000000E+00  0.00000000000E+00  0.55975249435E+02  0.55975249435E+02  0.00000000000E+00 0.  1.
          3   -1    0    0  501    0  0.00000000000E+00 -0.00000000000E+00 -0.43609124162E+03  0.43609124162E+03  0.00000000000E+00 0. -1.
         23    2    1    2    0    0  0.11849718948E+02  0.81677480006E+02 -0.85071002254E+02  0.17226353364E+03  0.12500409200E+03 0.  0.
          5    1    3    3  502    0 -0.21230435839E+02  0.10606456738E+03 -0.58000248632E+02  0.12282728810E+03  0.47000000000E+01 0. -1.
         -5    1    3    3    0  502  0.33080154788E+02 -0.24387087375E+02 -0.27070753622E+02  0.49436245540E+02  0.47000000000E+01 0. -1.
        -11    1    1    2    0    0  0.10979319363E+02 -0.94471768497E+02 -0.20417413299E+03  0.22523884452E+03  0.00000000000E+00 0.  1.
         11    1    1    2    0    0 -0.22829038311E+02  0.12794288491E+02 -0.90870856939E+02  0.94564112903E+02  0.00000000000E+00 0. -1.
<mgrwt>
<rscale>  0 0.14270095E+03</rscale>
<asrwt>0</asrwt>
<pdfrwt beam="2">  1        3 0.67090963E-01 0.14979202E+03</pdfrwt>
<pdfrwt beam="1">  1       -3 0.86115765E-02 0.14979202E+03</pdfrwt>
<totfact> 0.48464657E+02</totfact>
</mgrwt>
</event>
<event>
 7    1  0.6095443E-006  0.1719237E+03  0.7546771E-02  0.1181790E+00
         -1   -1    0    0    0  501 -0.00000000000E+00  0.00000000000E+00  0.11179301372E+03  0.11179301372E+03  0.00000000000E+00 0.  1.
          1   -1    0    0  501    0  0.00000000000E+00 -0.00000000000E+00 -0.31705687426E+03  0.31705687426E+03  0.00000000000E+00 0. -1.
         23    2    1    2    0    0 -0.11800886638E+03 -0.28329980874E+01  0.29977257611E+01  0.17194985128E+03  0.12499458618E+03 0.  0.
          5    1    3    3  502    0 -0.30946386919E+01  0.36000015672E+02 -0.28823169438E+02  0.46459046627E+02  0.47000000000E+01 0.  1.
         -5    1    3    3    0  502 -0.11491422768E+03 -0.38833013759E+02  0.31820895199E+02  0.12549080466E+03  0.47000000000E+01 0.  1.
        -11    1    1    2    0    0  0.10619720352E+03  0.38355134268E+02 -0.15298172058E+03  0.19013776371E+03  0.00000000000E+00 0.  1.
         11    1    1    2    0    0  0.11811662858E+02 -0.35522136181E+02 -0.55279865726E+02  0.66762272976E+02  0.00000000000E+00 0. -1.
<mgrwt>
<rscale>  0 0.16627417E+03</rscale>
<asrwt>0</asrwt>
<pdfrwt beam="2">  1        1 0.48777981E-01 0.17192372E+03</pdfrwt>
<pdfrwt beam="1">  1       -1 0.17198925E-01 0.17192372E+03</pdfrwt>
<totfact> 0.20747858E+03</totfact>
</mgrwt>
</event>
<event>
 7    1  0.6095443E-006  0.1274562E+03  0.7546771E-02  0.1246107E+00
          1   -1    0    0  501    0  0.00000000000E+00  0.00000000000E+00  0.65257229586E+02  0.65257229586E+02  0.00000000000E+00 0. -1.
         -1   -1    0    0    0  501 -0.00000000000E+00 -0.00000000000E+00 -0.22301050800E+03  0.22301050800E+03  0.00000000000E+00 0.  1.
         23    2    1    2    0    0 -0.95661222599E+01  0.22995670443E+02 -0.14516512502E+03  0.19317865879E+03  0.12499907655E+03 0.  0.
          5    1    3    3  502    0  0.53205252163E+02  0.12738991996E+02 -0.10300183194E+03  0.11672423980E+03  0.47000000000E+01 0. -1.
         -5    1    3    3    0  502 -0.62771374423E+02  0.10256678447E+02 -0.42163293080E+02  0.76454418990E+02  0.47000000000E+01 0. -1.
        -11    1    1    2    0    0 -0.17508593883E+02  0.28693309306E+02 -0.14730038668E+02  0.36699194785E+02  0.00000000000E+00 0.  1.
         11    1    1    2    0    0  0.27074716143E+02 -0.51688979749E+02  0.21418852744E+01  0.58389884007E+02  0.00000000000E+00 0. -1.
<mgrwt>
<rscale>  0 0.11819349E+03</rscale>
<asrwt>0</asrwt>
<pdfrwt beam="1">  1        1 0.10039574E-01 0.12745619E+03</pdfrwt>
<pdfrwt beam="2">  1       -1 0.34309309E-01 0.12745619E+03</pdfrwt>
<totfact> 0.49107392E+03</totfact>
</mgrwt>
</event>
<event>
 7    1  0.6095443E-006  0.1292740E+03  0.7546771E-02  0.1239685E+00
          2   -1    0    0  501    0  0.00000000000E+00  0.00000000000E+00  0.41471434421E+03  0.41471434421E+03  0.00000000000E+00 0. -1.
         -2   -1    0    0    0  501 -0.00000000000E+00 -0.00000000000E+00 -0.37910751813E+02  0.37910751813E+02  0.00000000000E+00 0.  1.
         23    2    1    2    0    0 -0.16342338845E+02 -0.28632115128E+02  0.12161077060E+03  0.17748506178E+03  0.12499959030E+03 0.  0.
          5    1    3    3  502    0  0.48864642104E+02 -0.16742036248E+02  0.90057470354E+02  0.10392539147E+03  0.47000000000E+01 0.  1.
         -5    1    3    3    0  502 -0.65206980949E+02 -0.11890078879E+02  0.31553300244E+02  0.73559670313E+02  0.47000000000E+01 0.  1.
        -11    1    1    2    0    0  0.19395765953E+02  0.64123634571E+02  0.15753115532E+03  0.17118440683E+03  0.00000000000E+00 0.  1.
         11    1    1    2    0    0 -0.30534271076E+01 -0.35491519444E+02  0.97661666481E+02  0.10395562741E+03  0.00000000000E+00 0. -1.
<mgrwt>
<rscale>  0 0.12209201E+03</rscale>
<asrwt>0</asrwt>
<pdfrwt beam="1">  1        2 0.63802204E-01 0.12927400E+03</pdfrwt>
<pdfrwt beam="2">  1       -2 0.58324236E-02 0.12927400E+03</pdfrwt>
<totfact> 0.11200536E+04</totfact>
</mgrwt>
</event>
<event>
 7    1  0.6095443E-006  0.1547167E+03  0.7546771E-02  0.1203299E+00
          4   -1    0    0  501    0  0.00000000000E+00  0.00000000000E+00  0.60875886699E+03  0.60875886699E+03  0.00000000000E+00 0.  1.
         -4   -1    0    0    0  501 -0.00000000000E+00 -0.00000000000E+00 -0.34496497115E+02  0.34496497115E+02  0.00000000000E+00 0. -1.
         23    2    1    2    0    0  0.69550450640E+02  0.58969022994E+02  0.24483587030E+03  0.28962362720E+03  0.12499052441E+03 0.  0.
          5    1    3    3  502    0 -0.19391444134E+02 -0.18561140224E+02  0.14704727937E+02  0.30965513975E+02  0.47000000000E+01 0.  1.
         -5    1    3    3    0  502  0.88941894773E+02  0.77530163218E+02  0.23013114236E+03  0.25865811323E+03  0.47000000000E+01 0.  1.
        -11    1    1    2    0    0  0.18210221894E+02 -0.26524991391E+02  0.55321510281E+02  0.63997319080E+02  0.00000000000E+00 0.  1.
         11    1    1    2    0    0 -0.87760672534E+02 -0.32444031603E+02  0.27410498930E+03  0.28963441782E+03  0.00000000000E+00 0. -1.
<mgrwt>
<rscale>  0 0.14772319E+03</rscale>
<asrwt>0</asrwt>
<pdfrwt beam="1">  1        4 0.93655202E-01 0.15471665E+03</pdfrwt>
<pdfrwt beam="2">  1       -4 0.53071539E-02 0.15471665E+03</pdfrwt>
<totfact> 0.36804388E+02</totfact>
</mgrwt>
</event>
<event>
 7    1  0.6095443E-006  0.1619419E+03  0.7546771E-02  0.1194065E+00
         -1   -1    0    0    0  501 -0.00000000000E+00  0.00000000000E+00  0.12914083104E+03  0.12914083104E+03  0.00000000000E+00 0.  1.
          1   -1    0    0  501    0  0.00000000000E+00 -0.00000000000E+00 -0.21550952591E+03  0.21550952591E+03  0.00000000000E+00 0. -1.
         23    2    1    2    0    0  0.98204431557E+02  0.30906717753E+02  0.30158371091E+02  0.16472612765E+03  0.12500333677E+03 0.  0.
          5    1    3    3  502    0  0.36494789006E+02  0.76612189138E+02  0.16959165545E+02  0.86666028206E+02  0.47000000000E+01 0. -1.
         -5    1    3    3    0  502  0.61709642551E+02 -0.45705471385E+02  0.13199205546E+02  0.78060099445E+02  0.47000000000E+01 0. -1.
        -11    1    1    2    0    0 -0.86729744919E+02  0.59225849635E+01 -0.43210530513E+02  0.97078708343E+02  0.00000000000E+00 0.  1.
         11    1    1    2    0    0 -0.11474686638E+02 -0.36829302717E+02 -0.73316535453E+02  0.82845520959E+02  0.00000000000E+00 0. -1.
<mgrwt>
<rscale>  0 0.15533605E+03</rscale>
<asrwt>0</asrwt>
<pdfrwt beam="2">  1        1 0.33155312E-01 0.16194187E+03</pdfrwt>
<pdfrwt beam="1">  1       -1 0.19867820E-01 0.16194187E+03</pdfrwt>
<totfact> 0.26575325E+03</totfact>
</mgrwt>
</event>
<event>
 7    1  0.6095443E-006  0.1300006E+03  0.7546771E-02  0.1240846E+00
          1   -1    0    0  501    0  0.00000000000E+00  0.00000000000E+00  0.44492335097E+03  0.44492335097E+03  0.00000000000E+00 0. -1.
         -1   -1    0    0    0  501 -0.00000000000E+00 -0.00000000000E+00 -0.29652047407E+02  0.29652047407E+02  0.00000000000E+00 0.  1.
         23    2    1    2    0    0  0.29912989612E+02  0.19494221078E+02  0.21451859889E+03  0.25083538612E+03  0.12500140022E+03 0.  0.
          5    1    3    3  502    0  0.53136321509E+02 -0.39099976039E+02  0.97069065322E+02  0.11745965364E+03  0.47000000000E+01 0. -1.
         -5    1    3    3    0  502 -0.23223331897E+02  0.58594197117E+02  0.11744953357E+03  0.13337573248E+03  0.47000000000E+01 0. -1.
        -11    1    1    2    0    0  0.30124236628E+02 -0.21774198941E+02  0.58365474482E+02  0.69196199198E+02  0.00000000000E+00 0.  1.
         11    1    1    2    0    0 -0.60037226240E+02  0.22799778632E+01  0.14238723019E+03  0.15454381306E+03  0.00000000000E+00 0. -1.
<mgrwt>
<rscale>  0 0.12137489E+03</rscale>
<asrwt>0</asrwt>
<pdfrwt beam="1">  1        1 0.68449741E-01 0.13000062E+03</pdfrwt>
<pdfrwt beam="2">  1       -1 0.45618538E-02 0.13000062E+03</pdfrwt>
<totfact> 0.10091757E+04</totfact>
</mgrwt>
</event>
<event>
 6    1  0.6095443E-006  0.1527610E+03  0.7546771E-02  0.1212188E+00
          1   -1    0    0  501    0  0.00000000000E+00  0.00000000000E+00  0.93378204891E+02  0.93378204891E+02  0.00000000000E+00 0. -1.
         -1   -1    0    0    0  501 -0.00000000000E+00 -0.00000000000E+00 -0.22077966172E+03  0.22077966172E+03  0.00000000000E+00 0.  1.
          5    1    1    2  502    0 -0.71356629632E+01 -0.50575849882E+02  0.87942317386E+01  0.52040972215E+02  0.47000000000E+01 0. -1.
         -5    1    1    2    0  502  0.48698870898E+02  0.49819471388E+01 -0.14327648310E+03  0.15148148545E+03  0.47000000000E+01 0.  1.
        -11    1    1    2    0    0  0.22170608503E+02 -0.75764362998E+01  0.14089399279E+02  0.27339521584E+02  0.00000000000E+00 0.  1.
         11    1    1    2    0    0 -0.63733816437E+02  0.53170339043E+02 -0.70086047502E+01  0.83295887366E+02  0.00000000000E+00 0. -1.
<mgrwt>
<rscale>  0 0.14085103E+03</rscale>
<asrwt>0</asrwt>
<pdfrwt beam="1">  1        1 0.14365878E-01 0.15276097E+03</pdfrwt>
<pdfrwt beam="2">  1       -1 0.33966102E-01 0.15276097E+03</pdfrwt>
<totfact> 0.31541153E+03</totfact>
</mgrwt>
</event>
<event>
 7    1  0.6095443E-006  0.1467088E+03  0.7546771E-02  0.1214189E+00
          2   -1    0    0  501    0  0.00000000000E+00  0.00000000000E+00  0.20171785567E+03  0.20171785567E+03  0.00000000000E+00 0. -1.
         -2   -1    0    0    0  501 -0.00000000000E+00 -0.00000000000E+00 -0.88394316900E+02  0.88394316900E+02  0.00000000000E+00 0.  1.
         23    2    1    2    0    0 -0.57328749234E+02 -0.51113277417E+02  0.50608185871E+02  0.15519232988E+03  0.12499727261E+03 0.  0.
          5    1    3    3  502    0 -0.15008868692E+02 -0.81314176226E+02  0.59842764167E+02  0.10217880317E+03  0.47000000000E+01 0.  1.
         -5    1    3    3    0  502 -0.42319880542E+02  0.30200898808E+02 -0.92345782959E+01  0.53013526710E+02  0.47000000000E+01 0.  1.
        -11    1    1    2    0    0  0.24486394860E+02  0.71247811562E+02  0.21155628100E+02  0.78252123204E+02  0.00000000000E+00 0.  1.
         11    1    1    2    0    0  0.32842354374E+02 -0.20134534144E+02  0.41559724798E+02  0.56667719483E+02  0.00000000000E+00 0. -1.
<mgrwt>
<rscale>  0 0.13936242E+03</rscale>
<asrwt>0</asrwt>
<pdfrwt beam="1">  1        2 0.31033516E-01 0.14670880E+03</pdfrwt>
<pdfrwt beam="2">  1       -2 0.13599126E-01 0.14670880E+03</pdfrwt>
<totfact> 0.65038644E+03</totfact>
</mgrwt>
</event>
<event>
 7    1  0.6095443E-006  0.1788634E+03  0.7546771E-02  0.1174633E+00
          4   -1    0    0  501    0  0.00000000000E+00  0.00000000000E+00  0.72994893841E+03  0.72994893841E+03  0.00000000000E+00 0. -1.
         -4   -1    0    0    0  501 -0.00000000000E+00 -0.00000000000E+00 -0.48302151910E+02  0.48302151910E+02  0.00000000000E+00 0.  1.
         23    2    1    2    0    0 -0.52561378835E+02 -0.11663557648E+03  0.18473829080E+03  0.25713879307E+03  0.12500226626E+03 0.  0.
          5    1    3    3  502    0 -0.58815546975E+02 -0.14841204559E+02  0.12456928043E+03  0.13863306080E+03  0.47000000000E+01 0. -1.
         -5    1    3    3    0  502  0.62541681403E+01 -0.10179437192E+03  0.60169010367E+02  0.11850573227E+03  0.47000000000E+01 0. -1.
        -11    1    1    2    0    0 -0.23639332348E+02  0.51464455345E+02  0.18681307921E+03  0.19520895154E+03  0.00000000000E+00 0. -1.
         11    1    1    2    0    0  0.76200711182E+02  0.65171121132E+02  0.31009541649E+03  0.32590334571E+03  0.00000000000E+00 0.  1.
<mgrwt>
<rscale>  0 0.17311957E+03</rscale>
<asrwt>0</asrwt>
<pdfrwt beam="1">  1        4 0.11229983E+00 0.17886342E+03</pdfrwt>
<pdfrwt beam="2">  1       -4 0.74311008E-02 0.17886342E+03</pdfrwt>
<totfact> 0.14207581E+02</totfact>
</mgrwt>
</event>
<event>
 6    1  0.6095443E-006  0.1622183E+03  0.7546771E-02  0.1209850E+00
         -1   -1    0    0    0  501 -0.00000000000E+00  0.00000000000E+00  0.17378033108E+03  0.17378033108E+03  0.00000000000E+00 0.  1.
          1   -1    0    0  501    0  0.00000000000E+00 -0.00000000000E+00 -0.98506241690E+02  0.98506241690E+02  0.00000000000E+00 0. -1.
          5    1    1    2  502    0 -0.22703942378E+02 -0.59647218750E+02  0.12570749403E+02  0.65217892060E+02  0.47000000000E+01 0. -1.
         -5    1    1    2    0  502  0.30034112559E+02  0.91210288358E+02  0.52701737223E+02  0.10963999145E+03  0.47000000000E+01 0.  1.
        -11    1    1    2    0    0 -0.49265569927E+02 -0.13967997524E+02  0.19514174204E+01  0.51244603277E+02  0.00000000000E+00 0. -1.
         11    1    1    2    0    0  0.41935399746E+02 -0.17595072083E+02  0.80501853387E+01  0.46184085976E+02  0.00000000000E+00 0.  1.
<mgrwt>
<rscale>  0 0.14261707E+03</rscale>
<asrwt>0</asrwt>
<pdfrwt beam="2">  1        1 0.15154806E-01 0.16221832E+03</pdfrwt>
<pdfrwt beam="1">  1       -1 0.26735436E-01 0.16221832E+03</pdfrwt>
<totfact> 0.44207968E+03</totfact>
</mgrwt>
</event>
<event>
 7    1  0.6095443E-006  0.2132700E+03  0.7546771E-02  0.1142605E+00
          1   -1    0    0  501    0  0.00000000000E+00  0.00000000000E+00  0.15814646263E+03  0.15814646263E+03  0.00000000000E+00 0. -1.
         -1   -1    0    0    0  501 -0.00000000000E+00 -0.00000000000E+00 -0.40999845721E+03  0.40999845721E+03  0.00000000000E+00 0.  1.
         23    2    1    2    0    0 -0.47295970785E+02  0.16619415868E+03 -0.29874449918E+03  0.36705905321E+03  0.12500666191E+03 0.  0.
          5    1    3    3  502    0 -0.89283454150E+02  0.10849509499E+03 -0.21563933934E+03  0.25742015363E+03  0.47000000000E+01 0.  1.
         -5    1    3    3    0  502  0.41987483365E+02  0.57699063693E+02 -0.83105159840E+02  0.10963889959E+03  0.47000000000E+01 0.  1.
        -11    1    1    2    0    0  0.51676244055E+02 -0.14476084030E+03  0.49577345606E+01  0.15378788709E+03  0.00000000000E+00 0.  1.
         11    1    1    2    0    0 -0.43802732697E+01 -0.21433318383E+02  0.41934770031E+02  0.47297979538E+02  0.00000000000E+00 0. -1.
<mgrwt>
<rscale>  0 0.20869267E+03</rscale>
<asrwt>0</asrwt>
<pdfrwt beam="1">  1        1 0.24330225E-01 0.21326995E+03</pdfrwt>
<pdfrwt beam="2">  1       -1 0.63076686E-01 0.21326995E+03</pdfrwt>
<totfact> 0.52418876E+02</totfact>
</mgrwt>
</event>
<event>
 7    1  0.6095443E-006  0.1271642E+03  0.7546771E-02  0.1246466E+00
          1   -1    0    0  501    0  0.00000000000E+00  0.00000000000E+00  0.31976729602E+03  0.31976729602E+03  0.00000000000E+00 0. -1.
         -1   -1    0    0    0  501 -0.00000000000E+00 -0.00000000000E+00 -0.65062215911E+02  0.65062215911E+02  0.00000000000E+00 0.  1.
         23    2    1    2    0    0 -0.23283744677E+02 -0.19072974199E+01  0.15956190345E+02  0.12816138170E+03  0.12499987680E+03 0.  0.
          5    1    3    3  502    0  0.14697264577E+02  0.50061574182E+02  0.32353237337E+02  0.61571038336E+02  0.47000000000E+01 0. -1.
         -5    1    3    3    0  502 -0.37981009253E+02 -0.51968871602E+02 -0.16397046992E+02  0.66590343366E+02  0.47000000000E+01 0. -1.
        -11    1    1    2    0    0  0.77364609122E+01  0.37497746905E+02  0.19251897131E+03  0.19628929712E+03  0.00000000000E+00 0. -1.
         11    1    1    2    0    0  0.15547283765E+02 -0.35590449485E+02  0.46229918453E+02  0.60378833105E+02  0.00000000000E+00 0.  1.
<mgrwt>
<rscale>  0 0.11798044E+03</rscale>
<asrwt>0</asrwt>
<pdfrwt beam="1">  1        1 0.49194968E-01 0.12716422E+03</pdfrwt>
<pdfrwt beam="2">  1       -1 0.10009572E-01 0.12716422E+03</pdfrwt>
<totfact> 0.47055272E+03</totfact>
</mgrwt>
</event>
<event>
 7    1  0.6095443E-006  0.1263339E+03  0.7546771E-02  0.1247548E+00
         -1   -1    0    0    0  501 -0.00000000000E+00  0.00000000000E+00  0.61985050622E+02  0.61985050622E+02  0.00000000000E+00 0.  1.
          1   -1    0    0  501    0  0.00000000000E+00 -0.00000000000E+00 -0.21924837595E+03  0.21924837595E+03  0.00000000000E+00 0. -1.
         23    2    1    2    0    0  0.16385719143E+02  0.81223256575E+01 -0.43435291261E+02  0.13359217218E+03  0.12500311986E+03 0.  0.
          5    1    3    3  502    0 -0.28573357328E+02  0.45003337639E+02  0.10043757646E+02  0.54449097470E+02  0.47000000000E+01 0.  1.
         -5    1    3    3    0  502  0.44959076471E+02 -0.36881011981E+02 -0.53479048907E+02  0.79143074706E+02  0.47000000000E+01 0.  1.
        -11    1    1    2    0    0  0.15900022786E+02  0.15366262850E+02  0.46684403364E+01  0.22599271974E+02  0.00000000000E+00 0.  1.
         11    1    1    2    0    0 -0.32285741929E+02 -0.23488588508E+02 -0.11849647440E+03  0.12504198242E+03  0.00000000000E+00 0. -1.
<mgrwt>
<rscale>  0 0.11734193E+03</rscale>
<asrwt>0</asrwt>
<pdfrwt beam="2">  1        1 0.33730518E-01 0.12633386E+03</pdfrwt>
<pdfrwt beam="1">  1       -1 0.95361619E-02 0.12633386E+03</pdfrwt>
<totfact> 0.80680697E+03</totfact>
</mgrwt>
</event>
<event>
 7    1  0.6095443E-006  0.2381324E+03  0.7546771E-02  0.1124101E+00
         -3   -1    0    0    0  501 -0.00000000000E+00  0.00000000000E+00  0.12279726897E+04  0.12279726897E+04  0.00000000000E+00 0.  1.
          3   -1    0    0  501    0  0.00000000000E+00 -0.00000000000E+00 -0.52370433295E+02  0.52370433295E+02  0.00000000000E+00 0. -1.
         23    2    1    2    0    0 -0.19786284454E+03 -0.43953809123E+02  0.87878391416E+03  0.91047692203E+03  0.12500166067E+03 0.  0.
          5    1    3    3  502    0 -0.14262095717E+03 -0.72404888409E+02  0.75641028176E+03  0.77315057372E+03  0.47000000000E+01 0.  1.
         -5    1    3    3    0  502 -0.55241887369E+02  0.28451079287E+02  0.12237363240E+03  0.13732634831E+03  0.47000000000E+01 0.  1.
        -11    1    1    2    0    0  0.10698387617E+03  0.39992587465E+02  0.95238784331E+02  0.14871241660E+03  0.00000000000E+00 0.  1.
         11    1    1    2    0    0  0.90878968375E+02  0.39612216578E+01  0.20157955790E+03  0.22115378435E+03  0.00000000000E+00 0. -1.
<mgrwt>
<rscale>  0 0.23364415E+03</rscale>
<asrwt>0</asrwt>
<pdfrwt beam="2">  1        3 0.80569907E-02 0.23813244E+03</pdfrwt>
<pdfrwt beam="1">  1       -3 0.18891885E+00 0.23813244E+03</pdfrwt>
<totfact> 0.48787160E+01</totfact>
</mgrwt>
</event>
<event>
 7    1  0.6095443E-006  0.1274930E+03  0.7546771E-02  0.1245288E+00
         -1   -1    0    0    0  501 -0.00000000000E+00  0.00000000000E+00  0.16011696345E+03  0.16011696345E+03  0.00000000000E+00 0.  1.
          1   -1    0    0  501    0  0.00000000000E+00 -0.00000000000E+00 -0.10209185469E+03  0.10209185469E+03  0.00000000000E+00 0. -1.
         23    2    1    2    0    0 -0.23002350928E+02  0.10005172062E+02  0.95608320136E+02  0.15935941555E+03  0.12500104331E+03 0.  0.
          5    1    3    3  502    0 -0.39683578626E+02  0.55292028179E+02  0.86260166354E+02  0.10997682070E+03  0.47000000000E+01 0. -1.
         -5    1    3    3    0  502  0.16681227699E+02 -0.45286856118E+02  0.93481537820E+01  0.49382594846E+02  0.47000000000E+01 0. -1.
        -11    1    1    2    0    0 -0.23203928715E+02 -0.24900645326E+02  0.93784328209E+01  0.35304666089E+02  0.00000000000E+00 0.  1.
         11    1    1    2    0    0  0.46206279643E+02  0.14895473264E+02 -0.46961644198E+02  0.67544736493E+02  0.00000000000E+00 0. -1.
<mgrwt>
<rscale>  0 0.11868186E+03</rscale>
<asrwt>0</asrwt>
<pdfrwt beam="2">  1        1 0.15706439E-01 0.12749303E+03</pdfrwt>
<pdfrwt beam="1">  1       -1 0.24633379E-01 0.12749303E+03</pdfrwt>
<totfact> 0.47617789E+03</totfact>
</mgrwt>
</event>
<event>
 7    1  0.6095443E-006  0.4242700E+03  0.7546771E-02  0.1036728E+00
          2   -1    0    0  501    0  0.00000000000E+00  0.00000000000E+00  0.14179628766E+04  0.14179628766E+04  0.00000000000E+00 0. -1.
         -2   -1    0    0    0  501 -0.00000000000E+00 -0.00000000000E+00 -0.12394764650E+03  0.12394764650E+03  0.00000000000E+00 0.  1.
         23    2    1    2    0    0  0.40507764853E+03  0.17114205490E+02  0.71843875968E+03  0.83436157998E+03  0.12499678942E+03 0.  0.
          5    1    3    3  502    0  0.84149676132E+02  0.21833875404E+02  0.26400372885E+03  0.27798910942E+03  0.47000000000E+01 0. -1.
         -5    1    3    3    0  502  0.32092797240E+03 -0.47196699145E+01  0.45443503083E+03  0.55637247056E+03  0.47000000000E+01 0. -1.
        -11    1    1    2    0    0 -0.33563952718E+03  0.11810394556E+02  0.48248116966E+03  0.58786176666E+03  0.00000000000E+00 0.  1.
         11    1    1    2    0    0 -0.69438121349E+02 -0.28924600046E+02  0.93095300789E+02  0.11968717648E+03  0.00000000000E+00 0. -1.
<mgrwt>
<rscale>  0 0.42104234E+03</rscale>
<asrwt>0</asrwt>
<pdfrwt beam="1">  1        2 0.21814812E+00 0.42426996E+03</pdfrwt>
<pdfrwt beam="2">  1       -2 0.19068870E-01 0.42426996E+03</pdfrwt>
<totfact> 0.34032593E+02</totfact>
</mgrwt>
</event>
<event>
 7    1  0.6095443E-006  0.1435604E+03  0.7546771E-02  0.1219428E+00
          1   -1    0    0  501    0  0.00000000000E+00  0.00000000000E+00  0.89499877667E+02  0.89499877667E+02  0.00000000000E+00 0. -1.
         -1   -1    0    0    0  501 -0.00000000000E+00 -0.00000000000E+00 -0.19322473498E+03  0.19322473498E+03  0.00000000000E+00 0.  1.
         23    2    1    2    0    0 -0.59298143482E+02 -0.38302648507E+02 -0.85621336845E+02  0.16715438274E+03  0.12500484648E+03 0.  0.
          5    1    3    3  502    0 -0.32159410218E+02 -0.81203861780E+02 -0.74682705555E+02  0.11501257037E+03  0.47000000000E+01 0.  1.
         -5    1    3    3    0  502 -0.27138733263E+02  0.42901213273E+02 -0.10938631290E+02  0.52141812377E+02  0.47000000000E+01 0.  1.
        -11    1    1    2    0    0 -0.29072255378E+01 -0.15364725760E+02 -0.28749253014E+02  0.32726843826E+02  0.00000000000E+00 0.  1.
         11    1    1    2    0    0  0.62205369019E+02  0.53667374266E+02  0.10645732543E+02  0.82843386078E+02  0.00000000000E+00 0. -1.
<mgrwt>
<rscale>  0 0.13556222E+03</rscale>
<asrwt>0</asrwt>
<pdfrwt beam="1">  1        1 0.13769212E-01 0.14356035E+03</pdfrwt>
<pdfrwt beam="2">  1       -1 0.29726882E-01 0.14356035E+03</pdfrwt>
<totfact> 0.41652110E+03</totfact>
</mgrwt>
</event>
<event>
 7    1  0.6095443E-006  0.1424322E+03  0.7546771E-02  0.1221384E+00
         -1   -1    0    0    0  501 -0.00000000000E+00  0.00000000000E+00  0.50193387532E+02  0.50193387532E+02  0.00000000000E+00 0.  1.
          1   -1    0    0  501    0  0.00000000000E+00 -0.00000000000E+00 -0.35549755052E+03  0.35549755052E+03  0.00000000000E+00 0. -1.
         23    2    1    2    0    0 -0.60233433442E+02  0.32127428167E+02 -0.10808370240E+03  0.17879881685E+03  0.12500676797E+03 0.  0.
          5    1    3    3  502    0 -0.65048907665E+02 -0.23134443698E+02 -0.10135266697E+03  0.12272333101E+03  0.47000000000E+01 0. -1.
         -5    1    3    3    0  502  0.48154742231E+01  0.55261871865E+02 -0.67310354322E+01  0.56075485838E+02  0.47000000000E+01 0. -1.
        -11    1    1    2    0    0  0.65401189941E+01 -0.36771753533E+02 -0.21505152839E+02  0.43097640458E+02  0.00000000000E+00 0.  1.
         11    1    1    2    0    0  0.53693314448E+02  0.46443253665E+01 -0.17571530775E+03  0.18379448074E+03  0.00000000000E+00 0. -1.
<mgrwt>
<rscale>  0 0.13417883E+03</rscale>
<asrwt>0</asrwt>
<pdfrwt beam="2">  1        1 0.54691931E-01 0.14243220E+03</pdfrwt>
<pdfrwt beam="1">  1       -1 0.77220596E-02 0.14243220E+03</pdfrwt>
<totfact> 0.61519037E+03</totfact>
</mgrwt>
</event>
<event>
 7    1  0.6095443E-006  0.1363729E+03  0.7546771E-02  0.1230735E+00
         -3   -1    0    0    0  501 -0.00000000000E+00  0.00000000000E+00  0.12038298715E+03  0.12038298715E+03  0.00000000000E+00 0.  1.
          3   -1    0    0  501    0  0.00000000000E+00 -0.00000000000E+00 -0.12134958289E+03  0.12134958289E+03  0.00000000000E+00 0. -1.
         23    2    1    2    0    0 -0.46746008382E+02 -0.28015806920E+02  0.33541859991E+01  0.13641410471E+03  0.12500993026E+03 0.  0.
          5    1    3    3  502    0  0.33932911647E+02 -0.29565093028E+02 -0.23820934295E+02  0.51137697731E+02  0.47000000000E+01 0.  1.
         -5    1    3    3    0  502 -0.80678920030E+02  0.15492861072E+01  0.27175120294E+02  0.85276406981E+02  0.47000000000E+01 0.  1.
        -11    1    1    2    0    0 -0.19409940058E+02  0.30983407031E+02  0.92649108504E+01  0.37716784823E+02  0.00000000000E+00 0.  1.
         11    1    1    2    0    0  0.66155948440E+02 -0.29676001106E+01 -0.13585692594E+02  0.67601680509E+02  0.00000000000E+00 0. -1.
<mgrwt>
<rscale>  0 0.12781465E+03</rscale>
<asrwt>0</asrwt>
<pdfrwt beam="2">  1        3 0.18669167E-01 0.13637286E+03</pdfrwt>
<pdfrwt beam="1">  1       -3 0.18520460E-01 0.13637286E+03</pdfrwt>
<totfact> 0.14987565E+03</totfact>
</mgrwt>
</event>
<event>
 7    1  0.6095443E-006  0.1295599E+03  0.7546771E-02  0.1242946E+00
         -1   -1    0    0    0  501 -0.00000000000E+00  0.00000000000E+00  0.73424954626E+02  0.73424954626E+02  0.00000000000E+00 0.  1.
          1   -1    0    0  501    0  0.00000000000E+00 -0.00000000000E+00 -0.18221883856E+03  0.18221883856E+03  0.00000000000E+00 0. -1.
         23    2    1    2    0    0  0.15492648943E+02 -0.30358833836E+02 -0.33224575484E+02  0.13375219490E+03  0.12499638499E+03 0.  0.
          5    1    3    3  502    0  0.17505883468E+02 -0.55277651228E+01  0.46436503884E+02  0.50154272362E+02  0.47000000000E+01 0.  1.
         -5    1    3    3    0  502 -0.20132345249E+01 -0.24831068713E+02 -0.79661079368E+02  0.83597922538E+02  0.47000000000E+01 0.  1.
        -11    1    1    2    0    0 -0.28157848064E+02  0.56458544848E+02 -0.66096387468E+02  0.91373760622E+02  0.00000000000E+00 0. -1.
         11    1    1    2    0    0  0.12665199121E+02 -0.26099711012E+02 -0.94729209807E+01  0.30517837662E+02  0.00000000000E+00 0.  1.
<mgrwt>
<rscale>  0 0.12009141E+03</rscale>
<asrwt>0</asrwt>
<pdfrwt beam="2">  1        1 0.28033668E-01 0.12955994E+03</pdfrwt>
<pdfrwt beam="1">  1       -1 0.11296147E-01 0.12955994E+03</pdfrwt>
<totfact> 0.78511497E+03</totfact>
</mgrwt>
</event>
<event>
 6    1  0.6095443E-006  0.4138640E+03  0.7546771E-02  0.1081723E+00
          2   -1    0    0  501    0  0.00000000000E+00  0.00000000000E+00  0.16268211554E+04  0.16268211554E+04  0.00000000000E+00 0. -1.
         -2   -1    0    0    0  501 -0.00000000000E+00 -0.00000000000E+00 -0.46612958168E+02  0.46612958168E+02  0.00000000000E+00 0.  1.
          5    1    1    2  502    0  0.51212659047E+02  0.16849713054E+03  0.80435892275E+03  0.82342539799E+03  0.47000000000E+01 0. -1.
         -5    1    1    2    0  502 -0.12764724454E+03 -0.12878630068E+03  0.24691675692E+03  0.30638163315E+03  0.47000000000E+01 0.  1.
        -11    1    1    2    0    0  0.90262322069E+02 -0.10341564330E+02  0.34016350044E+03  0.35208726443E+03  0.00000000000E+00 0.  1.
         11    1    1    2    0    0 -0.13827736571E+02 -0.29369265527E+02  0.18876901708E+03  0.19153981796E+03  0.00000000000E+00 0. -1.
<mgrwt>
<rscale>  0 0.30714289E+03</rscale>
<asrwt>0</asrwt>
<pdfrwt beam="1">  1        2 0.25028013E+00 0.41386395E+03</pdfrwt>
<pdfrwt beam="2">  1       -2 0.71712256E-02 0.41386395E+03</pdfrwt>
<totfact> 0.12999784E+03</totfact>
</mgrwt>
</event>
<event>
 7    1  0.6095443E-006  0.2972102E+03  0.7546771E-02  0.1088330E+00
          1   -1    0    0  501    0  0.00000000000E+00  0.00000000000E+00  0.82023547901E+03  0.82023547901E+03  0.00000000000E+00 0. -1.
         -1   -1    0    0    0  501 -0.00000000000E+00 -0.00000000000E+00 -0.10309963908E+03  0.10309963908E+03  0.00000000000E+00 0.  1.
         23    2    1    2    0    0  0.13813847869E+03 -0.23157158458E+03  0.37875305651E+03  0.48144345273E+03  0.12500512901E+03 0.  0.
          5    1    3    3  502    0  0.12831170457E+03 -0.12420077663E+03  0.17079415946E+03  0.24714866245E+03  0.47000000000E+01 0. -1.
         -5    1    3    3    0  502  0.98267741192E+01 -0.10737080795E+03  0.20795889705E+03  0.23429479028E+03  0.47000000000E+01 0. -1.
        -11    1    1    2    0    0 -0.12844626449E+03  0.13752356806E+03  0.20347258283E+03  0.27715025996E+03  0.00000000000E+00 0.  1.
         11    1    1    2    0    0 -0.96922141966E+01  0.94048016525E+02  0.13491020060E+03  0.16474140540E+03  0.00000000000E+00 0. -1.
<mgrwt>
<rscale>  0 0.29390092E+03</rscale>
<asrwt>0</asrwt>
<pdfrwt beam="1">  1        1 0.12619007E+00 0.29721023E+03</pdfrwt>
<pdfrwt beam="2">  1       -1 0.15861483E-01 0.29721023E+03</pdfrwt>
<totfact> 0.65273776E+02</totfact>
</mgrwt>
</event>
<event>
 7    1  0.6095443E-006  0.2595189E+03  0.7546771E-02  0.1109599E+00
         -1   -1    0    0    0  501 -0.00000000000E+00  0.00000000000E+00  0.10503522965E+03  0.10503522965E+03  0.00000000000E+00 0.  1.
          1   -1    0    0  501    0  0.00000000000E+00 -0.00000000000E+00 -0.64201390941E+03  0.64201390941E+03  0.00000000000E+00 0. -1.
         23    2    1    2    0    0 -0.15494491385E+03 -0.16648744673E+03 -0.18851952264E+03  0.32076417226E+03  0.12499619013E+03 0.  0.
          5    1    3    3  502    0 -0.13353082762E+03 -0.93536448275E+02 -0.64854946093E+02  0.17552151752E+03  0.47000000000E+01 0. -1.
         -5    1    3    3    0  502 -0.21414086228E+02 -0.72950998454E+02 -0.12366457654E+03  0.14524265474E+03  0.47000000000E+01 0. -1.
        -11    1    1    2    0    0  0.98688401006E+02  0.58060093199E+02 -0.22582482727E+03  0.25319405113E+03  0.00000000000E+00 0.  1.
         11    1    1    2    0    0  0.56256512841E+02  0.10842735353E+03 -0.12263432985E+03  0.17309091567E+03  0.00000000000E+00 0. -1.
<mgrwt>
<rscale>  0 0.25595402E+03</rscale>
<asrwt>0</asrwt>
<pdfrwt beam="2">  1        1 0.98771370E-01 0.25951887E+03</pdfrwt>
<pdfrwt beam="1">  1       -1 0.16159266E-01 0.25951887E+03</pdfrwt>
<totfact> 0.91354996E+02</totfact>
</mgrwt>
</event>
<event>
 7    1  0.6095443E-006  0.2048571E+03  0.7546771E-02  0.1150404E+00
          1   -1    0    0  501    0  0.00000000000E+00  0.00000000000E+00  0.95459016591E+03  0.95459016591E+03  0.00000000000E+00 0. -1.
         -1   -1    0    0    0  501 -0.00000000000E+00 -0.00000000000E+00 -0.40460236478E+02  0.40460236478E+02  0.00000000000E+00 0.  1.
         23    2    1    2    0    0 -0.16053551053E+03  0.23849483907E+02  0.40296550504E+03  0.45204824564E+03  0.12500388039E+03 0.  0.
          5    1    3    3  502    0 -0.14068045383E+03 -0.32751136291E+02  0.27593332436E+03  0.31148822853E+03  0.47000000000E+01 0.  1.
         -5    1    3    3    0  502 -0.19855056703E+02  0.56600620197E+02  0.12703218068E+03  0.14056001711E+03  0.47000000000E+01 0.  1.
        -11    1    1    2    0    0  0.61688067564E+02  0.32132878112E+02  0.20001254041E+03  0.21176155425E+03  0.00000000000E+00 0.  1.
         11    1    1    2    0    0  0.98847442968E+02 -0.55982362019E+02  0.31115188399E+03  0.33124060250E+03  0.00000000000E+00 0. -1.
<mgrwt>
<rscale>  0 0.19921390E+03</rscale>
<asrwt>0</asrwt>
<pdfrwt beam="1">  1        1 0.14686001E+00 0.20485707E+03</pdfrwt>
<pdfrwt beam="2">  1       -1 0.62246525E-02 0.20485707E+03</pdfrwt>
<totfact> 0.21795425E+03</totfact>
</mgrwt>
</event>
<event>
 7    1  0.6095443E-006  0.1648532E+03  0.7546771E-02  0.1190936E+00
         -4   -1    0    0    0  501 -0.00000000000E+00  0.00000000000E+00  0.17515302107E+03  0.17515302107E+03  0.00000000000E+00 0.  1.
          4   -1    0    0  501    0  0.00000000000E+00 -0.00000000000E+00 -0.15331386605E+03  0.15331386605E+03  0.00000000000E+00 0. -1.
         23    2    1    2    0    0  0.94514185066E+02  0.51171236306E+02  0.72803698672E+02  0.18021362123E+03  0.12500057653E+03 0.  0.
          5    1    3    3  502    0  0.74676134931E+02  0.79291440172E+02  0.90079319886E+02  0.14142146755E+03  0.47000000000E+01 0. -1.
         -5    1    3    3    0  502  0.19838050135E+02 -0.28120203866E+02 -0.17275621214E+02  0.38792153677E+02  0.47000000000E+01 0. -1.
        -11    1    1    2    0    0 -0.63849055264E+02 -0.30522974214E+02 -0.75811864713E+02  0.10371013762E+03  0.00000000000E+00 0. -1.
         11    1    1    2    0    0 -0.30665129802E+02 -0.20648262092E+02  0.24847321063E+02  0.44543128283E+02  0.00000000000E+00 0.  1.
<mgrwt>
<rscale>  0 0.15803265E+03</rscale>
<asrwt>0</asrwt>
<pdfrwt beam="2">  1        4 0.23586749E-01 0.16485318E+03</pdfrwt>
<pdfrwt beam="1">  1       -4 0.26946619E-01 0.16485318E+03</pdfrwt>
<totfact> 0.37424938E+02</totfact>
</mgrwt>
</event>
<event>
 7    1  0.6095443E-006  0.1599291E+03  0.7546771E-02  0.1196396E+00
         -1   -1    0    0    0  501 -0.00000000000E+00  0.00000000000E+00  0.43422373567E+02  0.43422373567E+02  0.00000000000E+00 0.  1.
          1   -1    0    0  501    0  0.00000000000E+00 -0.00000000000E+00 -0.55778588624E+03  0.55778588624E+03  0.00000000000E+00 0. -1.
         23    2    1    2    0    0  0.84901940472E+02  0.52371314140E+02 -0.18145760188E+03  0.24187634769E+03  0.12500484892E+03 0.  0.
          5    1    3    3  502    0  0.92153200000E+02  0.52847681915E+02 -0.19712566299E+03  0.22397702285E+03  0.47000000000E+01 0. -1.
         -5    1    3    3    0  502 -0.72512595275E+01 -0.47636777449E+00  0.15668061110E+02  0.17899324846E+02  0.47000000000E+01 0. -1.
        -11    1    1    2    0    0 -0.18818403638E+02 -0.41936823076E+02 -0.47146789041E+02  0.65845646492E+02  0.00000000000E+00 0.  1.
         11    1    1    2    0    0 -0.66083536835E+02 -0.10434491065E+02 -0.28575912175E+03  0.29348626562E+03  0.00000000000E+00 0. -1.
<mgrwt>
<rscale>  0 0.15336682E+03</rscale>
<asrwt>0</asrwt>
<pdfrwt beam="2">  1        1 0.85813206E-01 0.15992907E+03</pdfrwt>
<pdfrwt beam="1">  1       -1 0.66803657E-02 0.15992907E+03</pdfrwt>
<totfact> 0.43098354E+03</totfact>
</mgrwt>
</event>
<event>
 7    1  0.6095443E-006  0.1387223E+03  0.7546771E-02  0.1226672E+00
          2   -1    0    0  501    0  0.00000000000E+00  0.00000000000E+00  0.14511905476E+03  0.14511905476E+03  0.00000000000E+00 0. -1.
         -2   -1    0    0    0  501 -0.00000000000E+00 -0.00000000000E+00 -0.10749407417E+03  0.10749407417E+03  0.00000000000E+00 0.  1.
         23    2    1    2    0    0 -0.94805869677E+00 -0.60139091589E+02  0.38142276625E+02  0.14387045005E+03  0.12500505581E+03 0.  0.
          5    1    3    3  502    0  0.34866519009E+02 -0.81894350051E+02  0.33365012103E+01  0.89194063471E+02  0.47000000000E+01 0.  1.
         -5    1    3    3    0  502 -0.35814577706E+02  0.21755258462E+02  0.34805775415E+02  0.54676386578E+02  0.47000000000E+01 0.  1.
        -11    1    1    2    0    0 -0.15420423453E+02 -0.25247563839E+01  0.32488646764E+02  0.36051019720E+02  0.00000000000E+00 0. -1.
         11    1    1    2    0    0  0.16368482150E+02  0.62663847972E+02 -0.33005942801E+02  0.72691659156E+02  0.00000000000E+00 0.  1.
<mgrwt>
<rscale>  0 0.13052944E+03</rscale>
<asrwt>0</asrwt>
<pdfrwt beam="1">  1        2 0.22326008E-01 0.13872229E+03</pdfrwt>
<pdfrwt beam="2">  1       -2 0.16537550E-01 0.13872229E+03</pdfrwt>
<totfact> 0.67566122E+03</totfact>
</mgrwt>
</event>
<event>
 7    1  0.6095443E-006  0.1439816E+03  0.7546771E-02  0.1219126E+00
         -2   -1    0    0    0  501 -0.00000000000E+00  0.00000000000E+00  0.57716378467E+03  0.57716378467E+03  0.00000000000E+00 0.  1.
          2   -1    0    0  501    0  0.00000000000E+00 -0.00000000000E+00 -0.29088892884E+02  0.29088892884E+02  0.00000000000E+00 0. -1.
         23    2    1    2    0    0  0.71379144976E+02  0.32838491196E+01  0.33581233979E+03  0.36537737699E+03  0.12499973624E+03 0.  0.
          5    1    3    3  502    0 -0.27203931452E+02 -0.60287803852E+01  0.20669564731E+02  0.35010298279E+02  0.47000000000E+01 0. -1.
         -5    1    3    3    0  502  0.98583076428E+02  0.93126295049E+01  0.31514277506E+03  0.33036707872E+03  0.47000000000E+01 0. -1.
        -11    1    1    2    0    0 -0.59817441494E+02 -0.24774320912E+02  0.65502919635E+02  0.92100628469E+02  0.00000000000E+00 0.  1.
         11    1    1    2    0    0 -0.11561703481E+02  0.21490471792E+02  0.14675963236E+03  0.14877467210E+03  0.00000000000E+00 0. -1.
<mgrwt>
<rscale>  0 0.13577787E+03</rscale>
<asrwt>0</asrwt>
<pdfrwt beam="2">  1        2 0.44752147E-02 0.14398160E+03</pdfrwt>
<pdfrwt beam="1">  1       -2 0.88794420E-01 0.14398160E+03</pdfrwt>
<totfact> 0.19814182E+03</totfact>
</mgrwt>
</event>
<event>
 6    1  0.6095443E-006  0.3729935E+03  0.7546771E-02  0.1055628E+00
         -2   -1    0    0    0  501 -0.00000000000E+00  0.00000000000E+00  0.56110190852E+02  0.56110190852E+02  0.00000000000E+00 0.  1.
          2   -1    0    0  501    0  0.00000000000E+00 -0.00000000000E+00 -0.25103419803E+04  0.25103419803E+04  0.00000000000E+00 0. -1.
          5    1    1    2  502    0 -0.13815776506E+03 -0.10314228848E+03 -0.67222002245E+03  0.69399405495E+03  0.47000000000E+01 0. -1.
         -5    1    1    2    0  502 -0.12279029340E+03 -0.11463107647E+03 -0.25453259820E+03  0.30500274325E+03  0.47000000000E+01 0.  1.
        -11    1    1    2    0    0  0.16407999772E+03  0.87445500545E+02 -0.70539126463E+03  0.72948324000E+03  0.00000000000E+00 0.  1.
         11    1    1    2    0    0  0.96868060740E+02  0.13032786441E+03 -0.82208790417E+03  0.83797213296E+03  0.00000000000E+00 0. -1.
<mgrwt>
<rscale>  0 0.36756370E+03</rscale>
<asrwt>0</asrwt>
<pdfrwt beam="2">  1        2 0.38620636E+00 0.37299354E+03</pdfrwt>
<pdfrwt beam="1">  1       -2 0.86323392E-02 0.37299354E+03</pdfrwt>
<totfact> 0.32546405E+02</totfact>
</mgrwt>
</event>
<event>
 7    1  0.6095443E-006  0.2029588E+03  0.7546771E-02  0.1151402E+00
         -2   -1    0    0    0  501 -0.00000000000E+00  0.00000000000E+00  0.18588487645E+02  0.18588487645E+02  0.00000000000E+00 0.  1.
          2   -1    0    0  501    0  0.00000000000E+00 -0.00000000000E+00 -0.22908337877E+04  0.22908337877E+04  0.00000000000E+00 0. -1.
         23    2    1    2    0    0  0.15006542630E+03 -0.55201308232E+02 -0.15862252866E+04  0.15991569416E+04  0.12500179058E+03 0.  0.
          5    1    3    3  502    0  0.13361170029E+03  0.11396029615E+02 -0.10383672810E+04  0.10470007909E+04  0.47000000000E+01 0.  1.
         -5    1    3    3    0  502  0.16453726005E+02 -0.66597337847E+02 -0.54785800561E+03  0.55215615075E+03  0.47000000000E+01 0.  1.
        -11    1    1    2    0    0 -0.40596642497E+02  0.48565800952E+02 -0.14456878700E+03  0.15781906912E+03  0.00000000000E+00 0.  1.
         11    1    1    2    0    0 -0.10946878380E+03  0.66355072802E+01 -0.54145122643E+03  0.55244626453E+03  0.00000000000E+00 0. -1.
<mgrwt>
<rscale>  0 0.19804147E+03</rscale>
<asrwt>0</asrwt>
<pdfrwt beam="2">  1        2 0.35243563E+00 0.20295877E+03</pdfrwt>
<pdfrwt beam="1">  1       -2 0.28597700E-02 0.20295877E+03</pdfrwt>
<totfact> 0.23791744E+03</totfact>
</mgrwt>
</event>
<event>
 7    1  0.6095443E-006  0.1966029E+03  0.7546771E-02  0.1157318E+00
         -1   -1    0    0    0  501 -0.00000000000E+00  0.00000000000E+00  0.60903490543E+02  0.60903490543E+02  0.00000000000E+00 0.  1.
          1   -1    0    0  501    0  0.00000000000E+00 -0.00000000000E+00 -0.66428907793E+03  0.66428907793E+03  0.00000000000E+00 0. -1.
         23    2    1    2    0    0 -0.13679230744E+02 -0.15113550843E+03 -0.17970116243E+03  0.26635538028E+03  0.12499447014E+03 0.  0.
          5    1    3    3  502    0  0.54822302159E+02 -0.52788881887E+02 -0.61567815359E+02  0.98004269055E+02  0.47000000000E+01 0.  1.
         -5    1    3    3    0  502 -0.68501532903E+02 -0.98346626541E+02 -0.11813334707E+03  0.16835111123E+03  0.47000000000E+01 0.  1.
        -11    1    1    2    0    0  0.40434771832E+02  0.13152271610E+03 -0.28837581041E+03  0.31952121002E+03  0.00000000000E+00 0.  1.
         11    1    1    2    0    0 -0.26755541088E+02  0.19612792325E+02 -0.13530861455E+03  0.13931597817E+03  0.00000000000E+00 0. -1.
<mgrwt>
<rscale>  0 0.19127269E+03</rscale>
<asrwt>0</asrwt>
<pdfrwt beam="2">  1        1 0.10219832E+00 0.19660285E+03</pdfrwt>
<pdfrwt beam="1">  1       -1 0.93697676E-02 0.19660285E+03</pdfrwt>
<totfact> 0.20386566E+03</totfact>
</mgrwt>
</event>
<event>
 7    1  0.6095443E-006  0.2929288E+03  0.7546771E-02  0.1090505E+00
          2   -1    0    0  501    0  0.00000000000E+00  0.00000000000E+00  0.66316908944E+03  0.66316908944E+03  0.00000000000E+00 0. -1.
         -2   -1    0    0    0  501 -0.00000000000E+00 -0.00000000000E+00 -0.12386804817E+03  0.12386804817E+03  0.00000000000E+00 0.  1.
         23    2    1    2    0    0  0.23616466906E+03 -0.12004253349E+03  0.28120249583E+03  0.40605680432E+03  0.12499329547E+03 0.  0.
          5    1    3    3  502    0  0.74721849194E+02 -0.10493919690E+03  0.10236522288E+03  0.16460959464E+03  0.47000000000E+01 0.  1.
         -5    1    3    3    0  502  0.16144281987E+03 -0.15103336582E+02  0.17883727295E+03  0.24144720967E+03  0.47000000000E+01 0.  1.
        -11    1    1    2    0    0 -0.11488119628E+03  0.20343719684E+02  0.15147110626E+03  0.19119375571E+03  0.00000000000E+00 0. -1.
         11    1    1    2    0    0 -0.12128347278E+03  0.99698813803E+02  0.10662743918E+03  0.18978657758E+03  0.00000000000E+00 0.  1.
<mgrwt>
<rscale>  0 0.28970221E+03</rscale>
<asrwt>0</asrwt>
<pdfrwt beam="1">  1        2 0.10202601E+00 0.29292880E+03</pdfrwt>
<pdfrwt beam="2">  1       -2 0.19056623E-01 0.29292880E+03</pdfrwt>
<totfact> 0.10249796E+03</totfact>
</mgrwt>
</event>
<event>
 7    1  0.6095443E-006  0.1287753E+03  0.7546771E-02  0.1243828E+00
          1   -1    0    0  501    0  0.00000000000E+00  0.00000000000E+00  0.37478563660E+02  0.37478563660E+02  0.00000000000E+00 0. -1.
         -1   -1    0    0    0  501 -0.00000000000E+00 -0.00000000000E+00 -0.37477849896E+03  0.37477849896E+03  0.00000000000E+00 0.  1.
         23    2    1    2    0    0  0.15048014083E+02  0.27036566383E+02 -0.25655632674E+03  0.28706137240E+03  0.12500265630E+03 0.  0.
          5    1    3    3  502    0 -0.27393210588E+02  0.36661443363E+02 -0.23271253578E+03  0.23721649126E+03  0.47000000000E+01 0.  1.
         -5    1    3    3    0  502  0.42441224671E+02 -0.96248769797E+01 -0.23843790966E+02  0.49844881142E+02  0.47000000000E+01 0.  1.
        -11    1    1    2    0    0 -0.63247921043E+01 -0.57062076349E+02 -0.27987482553E+02  0.63870045656E+02  0.00000000000E+00 0.  1.
         11    1    1    2    0    0 -0.87232219785E+01  0.30025509966E+02 -0.52756125998E+02  0.61325644561E+02  0.00000000000E+00 0. -1.
<mgrwt>
<rscale>  0 0.11955793E+03</rscale>
<asrwt>0</asrwt>
<pdfrwt beam="1">  1        1 0.57659326E-02 0.12877532E+03</pdfrwt>
<pdfrwt beam="2">  1       -1 0.57658233E-01 0.12877532E+03</pdfrwt>
<totfact> 0.40909274E+03</totfact>
</mgrwt>
</event>
<event>
 7    1  0.6095443E-006  0.1418830E+03  0.7546771E-02  0.1222670E+00
          3   -1    0    0  501    0  0.00000000000E+00  0.00000000000E+00  0.57246739694E+02  0.57246739694E+02  0.00000000000E+00 0. -1.
         -3   -1    0    0    0  501 -0.00000000000E+00 -0.00000000000E+00 -0.34653089906E+03  0.34653089906E+03  0.00000000000E+00 0.  1.
         23    2    1    2    0    0  0.50235838722E+02  0.44509294355E+02 -0.24824314582E+03  0.28592910496E+03  0.12500430729E+03 0.  0.
          5    1    3    3  502    0  0.98119819052E+01  0.74653006476E+02 -0.78849604195E+02  0.10912697396E+03  0.47000000000E+01 0.  1.
         -5    1    3    3    0  502  0.40423856817E+02 -0.30143712121E+02 -0.16939354162E+03  0.17680213099E+03  0.47000000000E+01 0.  1.
        -11    1    1    2    0    0 -0.16375257500E+02 -0.67215973374E+02 -0.20254198482E+02  0.72085842514E+02  0.00000000000E+00 0. -1.
         11    1    1    2    0    0 -0.33860581222E+02  0.22706679019E+02 -0.20786815066E+02  0.45762691281E+02  0.00000000000E+00 0.  1.
<mgrwt>
<rscale>  0 0.13327854E+03</rscale>
<asrwt>0</asrwt>
<pdfrwt beam="1">  1        3 0.88071908E-02 0.14188303E+03</pdfrwt>
<pdfrwt beam="2">  1       -3 0.53312446E-01 0.14188303E+03</pdfrwt>
<totfact> 0.74378291E+02</totfact>
</mgrwt>
</event>
<event>
 7    1  0.6095443E-006  0.4541568E+03  0.7546771E-02  0.1027055E+00
         -1   -1    0    0    0  501 -0.00000000000E+00  0.00000000000E+00  0.83105497971E+03  0.83105497971E+03  0.00000000000E+00 0.  1.
          1   -1    0    0  501    0  0.00000000000E+00 -0.00000000000E+00 -0.24412565762E+03  0.24412565762E+03  0.00000000000E+00 0. -1.
         23    2    1    2    0    0  0.18461090074E+03 -0.39566534436E+03  0.28637759158E+03  0.53690832952E+03  0.12500471971E+03 0.  0.
          5    1    3    3  502    0  0.12228763609E+03 -0.26139247236E+03  0.25583332712E+03  0.38568519782E+03  0.47000000000E+01 0. -1.
         -5    1    3    3    0  502  0.62323264656E+02 -0.13427287200E+03  0.30544264457E+02  0.15122313171E+03  0.47000000000E+01 0. -1.
        -11    1    1    2    0    0 -0.72458054818E+02  0.71648787765E+02  0.89659947601E+02  0.13572996979E+03  0.00000000000E+00 0. -1.
         11    1    1    2    0    0 -0.11215284593E+03  0.32401655660E+03  0.21089178291E+03  0.40254233802E+03  0.00000000000E+00 0.  1.
<mgrwt>
<rscale>  0 0.45224273E+03</rscale>
<asrwt>0</asrwt>
<pdfrwt beam="2">  1        1 0.37557794E-01 0.45415683E+03</pdfrwt>
<pdfrwt beam="1">  1       -1 0.12785461E+00 0.45415683E+03</pdfrwt>
<totfact> 0.63448001E+01</totfact>
</mgrwt>
</event>
<event>
 7    1  0.6095443E-006  0.2992612E+03  0.7546771E-02  0.1087214E+00
          1   -1    0    0  501    0  0.00000000000E+00  0.00000000000E+00  0.33481173523E+03  0.33481173523E+03  0.00000000000E+00 0. -1.
         -1   -1    0    0    0  501 -0.00000000000E+00 -0.00000000000E+00 -0.26345023013E+03  0.26345023013E+03  0.00000000000E+00 0.  1.
         23    2    1    2    0    0 -0.15046411458E+03  0.22647980956E+03 -0.12413696032E+02  0.29951859265E+03  0.12499893429E+03 0.  0.
          5    1    3    3  502    0 -0.91349974426E+02  0.77536974117E+02  0.46655447868E+02  0.12866864808E+03  0.47000000000E+01 0. -1.
         -5    1    3    3    0  502 -0.59114140157E+02  0.14894283545E+03 -0.59069143899E+02  0.17084994457E+03  0.47000000000E+01 0. -1.
        -11    1    1    2    0    0  0.57247217784E+02 -0.75902579542E+02  0.75589275688E+02  0.12145856958E+03  0.00000000000E+00 0.  1.
         11    1    1    2    0    0  0.93216896799E+02 -0.15057723002E+03  0.81859254451E+01  0.17728480314E+03  0.00000000000E+00 0. -1.
<mgrwt>
<rscale>  0 0.29608485E+03</rscale>
<asrwt>0</asrwt>
<pdfrwt beam="1">  1        1 0.51509498E-01 0.29926124E+03</pdfrwt>
<pdfrwt beam="2">  1       -1 0.40530805E-01 0.29926124E+03</pdfrwt>
<totfact> 0.46124061E+02</totfact>
</mgrwt>
</event>
<event>
 7    1  0.6095443E-006  0.1564392E+03  0.7546771E-02  0.1200863E+00
         -2   -1    0    0    0  501 -0.00000000000E+00  0.00000000000E+00  0.26951891442E+03  0.26951891442E+03  0.00000000000E+00 0.  1.
          2   -1    0    0  501    0  0.00000000000E+00 -0.00000000000E+00 -0.76984182469E+02  0.76984182469E+02  0.00000000000E+00 0. -1.
         23    2    1    2    0    0 -0.39906338967E+02 -0.85177834786E+02  0.11520655399E+03  0.19428273050E+03  0.12500179944E+03 0.  0.
          5    1    3    3  502    0 -0.63676581620E+01 -0.81315607508E+02  0.83547922478E+01  0.82125925555E+02  0.47000000000E+01 0. -1.
         -5    1    3    3    0  502 -0.33538680805E+02 -0.38622272780E+01  0.10685176174E+03  0.11215680495E+03  0.47000000000E+01 0. -1.
        -11    1    1    2    0    0  0.62760698628E+02  0.56495994566E+02  0.78824185649E+02  0.11551603758E+03  0.00000000000E+00 0.  1.
         11    1    1    2    0    0 -0.22854359660E+02  0.28681840220E+02 -0.14960076890E+01  0.36704328803E+02  0.00000000000E+00 0. -1.
<mgrwt>
<rscale>  0 0.14968322E+03</rscale>
<asrwt>0</asrwt>
<pdfrwt beam="2">  1        2 0.11843720E-01 0.15643922E+03</pdfrwt>
<pdfrwt beam="1">  1       -2 0.41464448E-01 0.15643922E+03</pdfrwt>
<totfact> 0.27982446E+03</totfact>
</mgrwt>
</event>
<event>
 7    1  0.6095443E-006  0.1289165E+03  0.7546771E-02  0.1242594E+00
         -1   -1    0    0    0  501 -0.00000000000E+00  0.00000000000E+00  0.46689919334E+02  0.46689919334E+02  0.00000000000E+00 0.  1.
          1   -1    0    0  501    0  0.00000000000E+00 -0.00000000000E+00 -0.27521852292E+03  0.27521852292E+03  0.00000000000E+00 0. -1.
         23    2    1    2    0    0  0.30149416069E+02 -0.93772753722E+01 -0.13240525952E+03  0.18479888644E+03  0.12499022001E+03 0.  0.
          5    1    3    3  502    0  0.43270052835E+02  0.78571808416E+01 -0.15007282638E+03  0.15645438946E+03  0.47000000000E+01 0.  1.
         -5    1    3    3    0  502 -0.13120636766E+02 -0.17234456214E+02  0.17667566862E+02  0.28344496978E+02  0.47000000000E+01 0.  1.
        -11    1    1    2    0    0 -0.20635127797E+02  0.51013607523E+02 -0.55888647725E+02  0.78433013433E+02  0.00000000000E+00 0.  1.
         11    1    1    2    0    0 -0.95142882721E+01 -0.41636332151E+02 -0.40234696340E+02  0.58676542382E+02  0.00000000000E+00 0. -1.
<mgrwt>
<rscale>  0 0.12030535E+03</rscale>
<asrwt>0</asrwt>
<pdfrwt beam="2">  1        1 0.42341310E-01 0.12891655E+03</pdfrwt>
<pdfrwt beam="1">  1       -1 0.71830647E-02 0.12891655E+03</pdfrwt>
<totfact> 0.93587128E+03</totfact>
</mgrwt>
</event>
<event>
 7    1  0.6095443E-006  0.1410810E+03  0.7546771E-02  0.1223192E+00
         -3   -1    0    0    0  501 -0.00000000000E+00  0.00000000000E+00  0.28366473332E+02  0.28366473332E+02  0.00000000000E+00 0.  1.
          3   -1    0    0  501    0  0.00000000000E+00 -0.00000000000E+00 -0.57480211249E+03  0.57480211249E+03  0.00000000000E+00 0. -1.
         23    2    1    2    0    0  0.46763798396E+01  0.65250186925E+02 -0.25793001110E+03  0.29399273128E+03  0.12499751997E+03 0.  0.
          5    1    3    3  502    0 -0.72616389326E+01  0.98408951569E+02 -0.22413275227E+03  0.24493802030E+03  0.47000000000E+01 0. -1.
         -5    1    3    3    0  502  0.11938018772E+02 -0.33158764644E+02 -0.33797258825E+02  0.49054710977E+02  0.47000000000E+01 0. -1.
        -11    1    1    2    0    0 -0.31993770424E+02 -0.46988641408E+02 -0.25850402888E+03  0.26468068822E+03  0.00000000000E+00 0. -1.
         11    1    1    2    0    0  0.27317390584E+02 -0.18261545517E+02 -0.30001599182E+02  0.44495166327E+02  0.00000000000E+00 0.  1.
<mgrwt>
<rscale>  0 0.13291628E+03</rscale>
<asrwt>0</asrwt>
<pdfrwt beam="2">  1        3 0.88431086E-01 0.14108095E+03</pdfrwt>
<pdfrwt beam="1">  1       -3 0.43640732E-02 0.14108095E+03</pdfrwt>
<totfact> 0.78755106E+02</totfact>
</mgrwt>
</event>
<event>
 7    1  0.6095443E-006  0.1274267E+03  0.7546771E-02  0.1245926E+00
         -1   -1    0    0    0  501 -0.00000000000E+00  0.00000000000E+00  0.27610618087E+02  0.27610618087E+02  0.00000000000E+00 0.  1.
          1   -1    0    0  501    0  0.00000000000E+00 -0.00000000000E+00 -0.44663113870E+03  0.44663113870E+03  0.00000000000E+00 0. -1.
         23    2    1    2    0    0  0.23964736657E+02  0.61044378271E+01 -0.24243963064E+03  0.27388780686E+03  0.12500393385E+03 0.  0.
          5    1    3    3  502    0 -0.44732304722E+02  0.22465511862E+02 -0.14491186230E+03  0.15338584075E+03  0.47000000000E+01 0.  1.
         -5    1    3    3    0  502  0.68697041379E+02 -0.16361074035E+02 -0.97527768346E+02  0.12050196611E+03  0.47000000000E+01 0.  1.
        -11    1    1    2    0    0  0.10095888032E+02  0.28332302554E+02 -0.19187525005E+02  0.35676426937E+02  0.00000000000E+00 0.  1.
         11    1    1    2    0    0 -0.34060624689E+02 -0.34436740381E+02 -0.15739336496E+03  0.16467752298E+03  0.00000000000E+00 0. -1.
<mgrwt>
<rscale>  0 0.11830121E+03</rscale>
<asrwt>0</asrwt>
<pdfrwt beam="2">  1        1 0.68712483E-01 0.12742667E+03</pdfrwt>
<pdfrwt beam="1">  1       -1 0.42477874E-02 0.12742667E+03</pdfrwt>
<totfact> 0.11136627E+04</totfact>
</mgrwt>
</event>
<event>
 7    1  0.6095443E-006  0.1274159E+03  0.7546771E-02  0.1246358E+00
          2   -1    0    0  501    0  0.00000000000E+00  0.00000000000E+00  0.88766650022E+02  0.88766650022E+02  0.00000000000E+00 0. -1.
         -2   -1    0    0    0  501 -0.00000000000E+00 -0.00000000000E+00 -0.13861010835E+03  0.13861010835E+03  0.00000000000E+00 0.  1.
         23    2    1    2    0    0 -0.20697623991E+02 -0.13491683637E+02 -0.36677185819E+02  0.13258964968E+03  0.12499752828E+03 0.  0.
          5    1    3    3  502    0  0.76731455072E+01 -0.15520891547E+02 -0.79204987385E+02  0.81211423230E+02  0.47000000000E+01 0.  1.
         -5    1    3    3    0  502 -0.28370769498E+02  0.20292079106E+01  0.42527801566E+02  0.51378226446E+02  0.47000000000E+01 0.  1.
        -11    1    1    2    0    0  0.22607245090E+02 -0.10878564454E+02 -0.46863819660E+02  0.53156827297E+02  0.00000000000E+00 0.  1.
         11    1    1    2    0    0 -0.19096210994E+01  0.24370248091E+02  0.33697547156E+02  0.41630281395E+02  0.00000000000E+00 0. -1.
<mgrwt>
<rscale>  0 0.11804491E+03</rscale>
<asrwt>0</asrwt>
<pdfrwt beam="1">  1        2 0.13656408E-01 0.12741585E+03</pdfrwt>
<pdfrwt beam="2">  1       -2 0.21324632E-01 0.12741585E+03</pdfrwt>
<totfact> 0.77091505E+03</totfact>
</mgrwt>
</event>
<event>
 6    1  0.6095443E-006  0.1532456E+03  0.7546771E-02  0.1216010E+00
          1   -1    0    0  501    0  0.00000000000E+00  0.00000000000E+00  0.85801245620E+02  0.85801245620E+02  0.00000000000E+00 0. -1.
         -1   -1    0    0    0  501 -0.00000000000E+00 -0.00000000000E+00 -0.41452453309E+03  0.41452453309E+03  0.00000000000E+00 0.  1.
          5    1    1    2  502    0 -0.57501224159E+02 -0.56930773386E+00 -0.13177764088E+03  0.14385461942E+03  0.47000000000E+01 0. -1.
         -5    1    1    2    0  502  0.93949480607E+02 -0.16477867273E+02 -0.23105068793E+03  0.25000907065E+03  0.47000000000E+01 0.  1.
        -11    1    1    2    0    0 -0.38201248418E+02  0.52579143742E+01 -0.25138309018E+02  0.46031680661E+02  0.00000000000E+00 0.  1.
         11    1    1    2    0    0  0.17529919693E+01  0.11789260633E+02  0.59243350358E+02  0.60430407981E+02  0.00000000000E+00 0. -1.
<mgrwt>
<rscale>  0 0.13802621E+03</rscale>
<asrwt>0</asrwt>
<pdfrwt beam="1">  1        1 0.13200192E-01 0.15324559E+03</pdfrwt>
<pdfrwt beam="2">  1       -1 0.63773005E-01 0.15324559E+03</pdfrwt>
<totfact> 0.11254055E+03</totfact>
</mgrwt>
</event>
<event>
 7    1  0.6095443E-006  0.1278448E+03  0.7546771E-02  0.1245296E+00
         -2   -1    0    0    0  501 -0.00000000000E+00  0.00000000000E+00  0.82485159159E+02  0.82485159159E+02  0.00000000000E+00 0.  1.
          2   -1    0    0  501    0  0.00000000000E+00 -0.00000000000E+00 -0.15818452364E+03  0.15818452364E+03  0.00000000000E+00 0. -1.
         23    2    1    2    0    0 -0.23590015579E+02  0.13020990557E+02 -0.16784821618E+02  0.12894191345E+03  0.12497300419E+03 0.  0.
          5    1    3    3  502    0  0.37450644257E+02  0.54317893223E+01 -0.46774272039E+02  0.60348799618E+02  0.47000000000E+01 0. -1.
         -5    1    3    3    0  502 -0.61040659836E+02  0.75892012345E+01  0.29989450421E+02  0.68593113832E+02  0.47000000000E+01 0. -1.
        -11    1    1    2    0    0  0.44998276859E+02  0.24833855875E+02 -0.33664497673E+02  0.61439919608E+02  0.00000000000E+00 0. -1.
         11    1    1    2    0    0 -0.21408261280E+02 -0.37854846432E+02 -0.25250045189E+02  0.50287849739E+02  0.00000000000E+00 0.  1.
<mgrwt>
<rscale>  0 0.11867682E+03</rscale>
<asrwt>0</asrwt>
<pdfrwt beam="2">  1        2 0.24336080E-01 0.12784478E+03</pdfrwt>
<pdfrwt beam="1">  1       -2 0.12690025E-01 0.12784478E+03</pdfrwt>
<totfact> 0.93899583E+03</totfact>
</mgrwt>
</event>
<event>
 7    1  0.6095443E-006  0.1415035E+03  0.7546771E-02  0.1222893E+00
          1   -1    0    0  501    0  0.00000000000E+00  0.00000000000E+00  0.53273910784E+02  0.53273910784E+02  0.00000000000E+00 0. -1.
         -1   -1    0    0    0  501 -0.00000000000E+00 -0.00000000000E+00 -0.29907644984E+03  0.29907644984E+03  0.00000000000E+00 0.  1.
         23    2    1    2    0    0  0.54558682340E+02 -0.37718021759E+02 -0.13282652360E+03  0.19407761161E+03  0.12499573982E+03 0.  0.
          5    1    3    3  502    0  0.36339908118E+02 -0.45113170511E+02 -0.15412082951E+03  0.16471523052E+03  0.47000000000E+01 0. -1.
         -5    1    3    3    0  502  0.18218774223E+02  0.73951487515E+01  0.21294305910E+02  0.29362381092E+02  0.47000000000E+01 0. -1.
        -11    1    1    2    0    0  0.39843192111E+01  0.42057651916E+02 -0.16527614882E+02  0.45363894651E+02  0.00000000000E+00 0.  1.
         11    1    1    2    0    0 -0.58543001551E+02 -0.43396301563E+01 -0.96448400573E+02  0.11290885436E+03  0.00000000000E+00 0. -1.
<mgrwt>
<rscale>  0 0.13312348E+03</rscale>
<asrwt>0</asrwt>
<pdfrwt beam="1">  1        1 0.81959863E-02 0.14150348E+03</pdfrwt>
<pdfrwt beam="2">  1       -1 0.46011761E-01 0.14150348E+03</pdfrwt>
<totfact> 0.38741238E+03</totfact>
</mgrwt>
</event>
<event>
 7    1  0.6095443E-006  0.1472176E+03  0.7546771E-02  0.1213678E+00
          2   -1    0    0  501    0  0.00000000000E+00  0.00000000000E+00  0.53618710330E+03  0.53618710330E+03  0.00000000000E+00 0. -1.
         -2   -1    0    0    0  501 -0.00000000000E+00 -0.00000000000E+00 -0.33638795033E+02  0.33638795033E+02  0.00000000000E+00 0.  1.
         23    2    1    2    0    0 -0.38636579105E+01 -0.77680421336E+02  0.24362276751E+03  0.28464904732E+03  0.12499540623E+03 0.  0.
          5    1    3    3  502    0  0.54858249584E+02 -0.25017717168E+02  0.62142583032E+02  0.86712769219E+02  0.47000000000E+01 0. -1.
         -5    1    3    3    0  502 -0.58721907495E+02 -0.52662704169E+02  0.18148018448E+03  0.19793627810E+03  0.47000000000E+01 0. -1.
        -11    1    1    2    0    0  0.41813736559E+02  0.45066143843E+02  0.89974019249E+02  0.10897095955E+03  0.00000000000E+00 0.  1.
         11    1    1    2    0    0 -0.37950078649E+02  0.32614277494E+02  0.16895152150E+03  0.17620589145E+03  0.00000000000E+00 0. -1.
<mgrwt>
<rscale>  0 0.13974098E+03</rscale>
<asrwt>0</asrwt>
<pdfrwt beam="1">  1        2 0.82490317E-01 0.14721762E+03</pdfrwt>
<pdfrwt beam="2">  1       -2 0.51751996E-02 0.14721762E+03</pdfrwt>
<totfact> 0.10231969E+04</totfact>
</mgrwt>
</event>
<event>
 7    1  0.6095443E-006  0.1381846E+03  0.7546771E-02  0.1227295E+00
         -3   -1    0    0    0  501 -0.00000000000E+00  0.00000000000E+00  0.68908130811E+03  0.68908130811E+03  0.00000000000E+00 0.  1.
          3   -1    0    0  501    0  0.00000000000E+00 -0.00000000000E+00 -0.28816807882E+02  0.28816807882E+02  0.00000000000E+00 0. -1.
         23    2    1    2    0    0  0.56925786185E+02 -0.15176794234E+02  0.53286348468E+03  0.55048929599E+03  0.12499636587E+03 0.  0.
          5    1    3    3  502    0  0.65359935103E+01 -0.62041274495E+02  0.17040351063E+03  0.18152488917E+03  0.47000000000E+01 0. -1.
         -5    1    3    3    0  502  0.50389792674E+02  0.46864480261E+02  0.36245997405E+03  0.36896440682E+03  0.47000000000E+01 0. -1.
        -11    1    1    2    0    0 -0.37475686982E+02 -0.30622545889E+02  0.27156946751E+02  0.55494749196E+02  0.00000000000E+00 0. -1.
         11    1    1    2    0    0 -0.19450099203E+02  0.45799340123E+02  0.10024406880E+03  0.11191407081E+03  0.00000000000E+00 0.  1.
<mgrwt>
<rscale>  0 0.13010844E+03</rscale>
<asrwt>0</asrwt>
<pdfrwt beam="2">  1        3 0.44333556E-02 0.13818456E+03</pdfrwt>
<pdfrwt beam="1">  1       -3 0.10601250E+00 0.13818456E+03</pdfrwt>
<totfact> 0.50786804E+02</totfact>
</mgrwt>
</event>
<event>
 7    1  0.6095443E-006  0.1621028E+03  0.7546771E-02  0.1194267E+00
         -2   -1    0    0    0  501 -0.00000000000E+00  0.00000000000E+00  0.42858282352E+02  0.42858282352E+02  0.00000000000E+00 0.  1.
          2   -1    0    0  501    0  0.00000000000E+00 -0.00000000000E+00 -0.52985094073E+03  0.52985094073E+03  0.00000000000E+00 0. -1.
         23    2    1    2    0    0  0.10010348146E+03  0.25137497253E+02 -0.22281422788E+03  0.27554220195E+03  0.12499889657E+03 0.  0.
          5    1    3    3  502    0  0.75687350107E+02  0.48368758738E+02 -0.22411328376E+03  0.24148905927E+03  0.47000000000E+01 0. -1.
         -5    1    3    3    0  502  0.24416131348E+02 -0.23231261485E+02  0.12990558874E+01  0.34053142680E+02  0.47000000000E+01 0. -1.
        -11    1    1    2    0    0 -0.89700166776E+02  0.54448964124E+01 -0.12294679259E+03  0.15228814998E+03  0.00000000000E+00 0.  1.
         11    1    1    2    0    0 -0.10403314679E+02 -0.30582393665E+02 -0.14123163791E+03  0.14487887115E+03  0.00000000000E+00 0. -1.
<mgrwt>
<rscale>  0 0.15516443E+03</rscale>
<asrwt>0</asrwt>
<pdfrwt beam="2">  1        2 0.81515534E-01 0.16210282E+03</pdfrwt>
<pdfrwt beam="1">  1       -2 0.65935816E-02 0.16210282E+03</pdfrwt>
<totfact> 0.72195498E+03</totfact>
</mgrwt>
</event>
<event>
 7    1  0.6095443E-006  0.1365351E+03  0.7546771E-02  0.1230030E+00
         -3   -1    0    0    0  501 -0.00000000000E+00  0.00000000000E+00  0.30938931642E+03  0.30938931642E+03  0.00000000000E+00 0.  1.
          3   -1    0    0  501    0  0.00000000000E+00 -0.00000000000E+00 -0.52293244174E+02  0.52293244174E+02  0.00000000000E+00 0. -1.
         23    2    1    2    0    0  0.32565614498E+01 -0.54825049542E+02  0.19639535619E+03  0.23919230114E+03  0.12500171896E+03 0.  0.
          5    1    3    3  502    0  0.31310641985E+01 -0.12676260496E+02 -0.16816679251E+02  0.21803253065E+02  0.47000000000E+01 0. -1.
         -5    1    3    3    0  502  0.12549725131E+00 -0.42148789046E+02  0.21321203544E+03  0.21738904808E+03  0.47000000000E+01 0. -1.
        -11    1    1    2    0    0 -0.19205322952E+02 -0.82793468089E+01  0.52963771418E+02  0.56943420130E+02  0.00000000000E+00 0.  1.
         11    1    1    2    0    0  0.15948761502E+02  0.63104396351E+02  0.77369446361E+01  0.65546839318E+02  0.00000000000E+00 0. -1.
<mgrwt>
<rscale>  0 0.12828046E+03</rscale>
<asrwt>0</asrwt>
<pdfrwt beam="2">  1        3 0.80451147E-02 0.13653505E+03</pdfrwt>
<pdfrwt beam="1">  1       -3 0.47598355E-01 0.13653505E+03</pdfrwt>
<totfact> 0.10752940E+03</totfact>
</mgrwt>
</event>
<event>
 6    1  0.6095443E-006  0.6075913E+03  0.7546771E-02  0.1033847E+00
          4   -1    0    0  501    0  0.00000000000E+00  0.00000000000E+00  0.11758570338E+04  0.11758570338E+04  0.00000000000E+00 0. -1.
         -4   -1    0    0    0  501 -0.00000000000E+00 -0.00000000000E+00 -0.12380079215E+03  0.12380079215E+03  0.00000000000E+00 0.  1.
          5    1    1    2  502    0  0.64068489409E+02 -0.93827272079E+02  0.76711820796E+03  0.77550033095E+03  0.47000000000E+01 0. -1.
         -5    1    1    2    0  502 -0.18178494009E+03  0.12643414507E+03  0.25116252315E+02  0.22289969406E+03  0.47000000000E+01 0.  1.
        -11    1    1    2    0    0  0.13207932663E+03 -0.22579054679E+02  0.21761457536E+03  0.25555990617E+03  0.00000000000E+00 0.  1.
         11    1    1    2    0    0 -0.14362875947E+02 -0.10027818312E+02  0.42207205981E+02  0.45697894725E+02  0.00000000000E+00 0. -1.
<mgrwt>
<rscale>  0 0.43004011E+03</rscale>
<asrwt>0</asrwt>
<pdfrwt beam="1">  1        4 0.18090107E+00 0.60759129E+03</pdfrwt>
<pdfrwt beam="2">  1       -4 0.19046277E-01 0.60759129E+03</pdfrwt>
<totfact> 0.89117579E+00</totfact>
</mgrwt>
</event>
<event>
 7    1  0.6095443E-006  0.1285180E+03  0.7546771E-02  0.1244550E+00
         -2   -1    0    0    0  501 -0.00000000000E+00  0.00000000000E+00  0.49938139748E+02  0.49938139748E+02  0.00000000000E+00 0.  1.
          2   -1    0    0  501    0  0.00000000000E+00 -0.00000000000E+00 -0.25258778353E+03  0.25258778353E+03  0.00000000000E+00 0. -1.
         23    2    1    2    0    0 -0.26051727204E+02  0.14600532604E+02 -0.10072846833E+03  0.16328843210E+03  0.12500007873E+03 0.  0.
          5    1    3    3  502    0  0.42921476924E+00 -0.29347634084E+02  0.17378293744E+02  0.34432004663E+02  0.47000000000E+01 0. -1.
         -5    1    3    3    0  502 -0.26480941973E+02  0.43948166688E+02 -0.11810676208E+03  0.12885642744E+03  0.47000000000E+01 0. -1.
        -11    1    1    2    0    0  0.39490032524E+02 -0.39929587986E+02 -0.34342155637E+02  0.65827185260E+02  0.00000000000E+00 0.  1.
         11    1    1    2    0    0 -0.13438305320E+02  0.25329055381E+02 -0.67579019812E+02  0.73410305919E+02  0.00000000000E+00 0. -1.
<mgrwt>
<rscale>  0 0.11912373E+03</rscale>
<asrwt>0</asrwt>
<pdfrwt beam="2">  1        2 0.38859659E-01 0.12851804E+03</pdfrwt>
<pdfrwt beam="1">  1       -2 0.76827907E-02 0.12851804E+03</pdfrwt>
<totfact> 0.12445203E+04</totfact>
</mgrwt>
</event>
<event>
 7    1  0.6095443E-006  0.3141724E+03  0.7546771E-02  0.1079771E+00
         -2   -1    0    0    0  501 -0.00000000000E+00  0.00000000000E+00  0.34561003823E+03  0.34561003823E+03  0.00000000000E+00 0.  1.
          2   -1    0    0  501    0  0.00000000000E+00 -0.00000000000E+00 -0.27590213915E+03  0.27590213915E+03  0.00000000000E+00 0. -1.
         23    2    1    2    0    0  0.28777903202E+03 -0.16090048850E+02  0.18181789646E+02  0.31469809359E+03  0.12501460592E+03 0.  0.
          5    1    3    3  502    0  0.13038173189E+03 -0.39780252327E+02  0.61576490912E+02  0.14965165792E+03  0.47000000000E+01 0. -1.
         -5    1    3    3    0  502  0.15739730013E+03  0.23690203478E+02 -0.43394701266E+02  0.16504643567E+03  0.47000000000E+01 0. -1.
        -11    1    1    2    0    0 -0.22589443611E+03  0.18319731462E+02  0.59760423015E+00  0.22663685922E+03  0.00000000000E+00 0. -1.
         11    1    1    2    0    0 -0.61884595915E+02 -0.22296826128E+01  0.50928505210E+02  0.80177224565E+02  0.00000000000E+00 0.  1.
<mgrwt>
<rscale>  0 0.31120157E+03</rscale>
<asrwt>0</asrwt>
<pdfrwt beam="2">  1        2 0.42446483E-01 0.31417243E+03</pdfrwt>
<pdfrwt beam="1">  1       -2 0.53170775E-01 0.31417243E+03</pdfrwt>
<totfact> 0.40798793E+02</totfact>
</mgrwt>
</event>
<event>
 7    1  0.6095443E-006  0.1569831E+03  0.7546771E-02  0.1201617E+00
          2   -1    0    0  501    0  0.00000000000E+00  0.00000000000E+00  0.27682429286E+03  0.27682429286E+03  0.00000000000E+00 0. -1.
         -2   -1    0    0    0  501 -0.00000000000E+00 -0.00000000000E+00 -0.77095754439E+02  0.77095754439E+02  0.00000000000E+00 0.  1.
         23    2    1    2    0    0  0.34757190847E+02  0.88356922725E+02  0.69888647048E+02  0.17183745671E+03  0.12501472086E+03 0.  0.
          5    1    3    3  502    0 -0.40581437680E+02  0.52411284104E+02  0.56378924288E+02  0.87146250003E+02  0.47000000000E+01 0.  1.
         -5    1    3    3    0  502  0.75338628527E+02  0.35945638621E+02  0.13509722760E+02  0.84691206706E+02  0.47000000000E+01 0.  1.
        -11    1    1    2    0    0 -0.24364178859E+02 -0.26313523903E+01  0.77092683936E+02  0.80893875808E+02  0.00000000000E+00 0.  1.
         11    1    1    2    0    0 -0.10393011989E+02 -0.85725570335E+02  0.52747207441E+02  0.10118871479E+03  0.00000000000E+00 0. -1.
<mgrwt>
<rscale>  0 0.14907289E+03</rscale>
<asrwt>0</asrwt>
<pdfrwt beam="1">  1        2 0.42588352E-01 0.15698308E+03</pdfrwt>
<pdfrwt beam="2">  1       -2 0.11860885E-01 0.15698308E+03</pdfrwt>
<totfact> 0.57964458E+03</totfact>
</mgrwt>
</event>
<event>
 6    1  0.6095443E-006  0.2315402E+03  0.7546771E-02  0.1137143E+00
         -2   -1    0    0    0  501 -0.00000000000E+00  0.00000000000E+00  0.17715136961E+03  0.17715136961E+03  0.00000000000E+00 0.  1.
          2   -1    0    0  501    0  0.00000000000E+00 -0.00000000000E+00 -0.27017848226E+03  0.27017848226E+03  0.00000000000E+00 0. -1.
          5    1    1    2  502    0 -0.90676869729E+02  0.15462682374E+02 -0.37178224286E+02  0.99326228213E+02  0.47000000000E+01 0. -1.
         -5    1    1    2    0  502  0.19250830420E+02  0.11411551354E+03  0.67858186471E+02  0.13423773081E+03  0.47000000000E+01 0.  1.
        -11    1    1    2    0    0 -0.12889958305E+02 -0.66420946542E+02 -0.35733126651E+02  0.76516334889E+02  0.00000000000E+00 0.  1.
         11    1    1    2    0    0  0.84315997614E+02 -0.63157249369E+02 -0.87973948189E+02  0.13724955796E+03  0.00000000000E+00 0. -1.
<mgrwt>
<rscale>  0 0.21568277E+03</rscale>
<asrwt>0</asrwt>
<pdfrwt beam="2">  1        2 0.41565920E-01 0.23154020E+03</pdfrwt>
<pdfrwt beam="1">  1       -2 0.27254057E-01 0.23154020E+03</pdfrwt>
<totfact> 0.14858922E+03</totfact>
</mgrwt>
</event>
<event>
 7    1  0.6095443E-006  0.1250667E+03  0.7546771E-02  0.1250471E+00
         -1   -1    0    0    0  501 -0.00000000000E+00  0.00000000000E+00  0.16635526653E+02  0.16635526653E+02  0.00000000000E+00 0.  1.
          1   -1    0    0  501    0  0.00000000000E+00 -0.00000000000E+00 -0.70558826310E+03  0.70558826310E+03  0.00000000000E+00 0. -1.
         23    2    1    2    0    0 -0.18691572765E+01 -0.37570869178E+01 -0.38230057859E+03  0.40223798908E+03  0.12499623203E+03 0.  0.
          5    1    3    3  502    0  0.26483371034E+02 -0.13260531694E+02 -0.14707611949E+02  0.33400815729E+02  0.47000000000E+01 0. -1.
         -5    1    3    3    0  502 -0.28352528310E+02  0.95034447766E+01 -0.36759296664E+03  0.36883717335E+03  0.47000000000E+01 0. -1.
        -11    1    1    2    0    0 -0.37480224533E+02 -0.10447082812E+02 -0.22394841562E+03  0.22730332516E+03  0.00000000000E+00 0. -1.
         11    1    1    2    0    0  0.39349381810E+02  0.14204169730E+02 -0.82703742236E+02  0.92682475508E+02  0.00000000000E+00 0.  1.
<mgrwt>
<rscale>  0 0.11563834E+03</rscale>
<asrwt>0</asrwt>
<pdfrwt beam="2">  1        1 0.10855204E+00 0.12506665E+03</pdfrwt>
<pdfrwt beam="1">  1       -1 0.25593118E-02 0.12506665E+03</pdfrwt>
<totfact> 0.12607984E+04</totfact>
</mgrwt>
</event>
<event>
 7    1  0.6095443E-006  0.1298639E+03  0.7546771E-02  0.1242036E+00
         -1   -1    0    0    0  501 -0.00000000000E+00  0.00000000000E+00  0.51332179763E+02  0.51332179763E+02  0.00000000000E+00 0.  1.
          1   -1    0    0  501    0  0.00000000000E+00 -0.00000000000E+00 -0.32557579983E+03  0.32557579983E+03  0.00000000000E+00 0. -1.
         23    2    1    2    0    0  0.20768589528E+02 -0.28548756840E+02 -0.62513552203E+02  0.14412690297E+03  0.12497301358E+03 0.  0.
          5    1    3    3  502    0  0.51159018032E+02 -0.30377416207E+02  0.14294372190E+02  0.61371423461E+02  0.47000000000E+01 0. -1.
         -5    1    3    3    0  502 -0.30390428504E+02  0.18286593667E+01 -0.76807924392E+02  0.82755479511E+02  0.47000000000E+01 0. -1.
        -11    1    1    2    0    0 -0.82079671933E+01 -0.30269968536E+02 -0.11209603715E+03  0.11640087313E+03  0.00000000000E+00 0. -1.
         11    1    1    2    0    0 -0.12560622335E+02  0.58818725377E+02 -0.99634030720E+02  0.11638020350E+03  0.00000000000E+00 0.  1.
<mgrwt>
<rscale>  0 0.12064537E+03</rscale>
<asrwt>0</asrwt>
<pdfrwt beam="2">  1        1 0.50088585E-01 0.12986385E+03</pdfrwt>
<pdfrwt beam="1">  1       -1 0.78972584E-02 0.12986385E+03</pdfrwt>
<totfact> 0.65976294E+03</totfact>
</mgrwt>
</event>
<event>
 7    1  0.6095443E-006  0.1391770E+03  0.7546771E-02  0.1225847E+00
         -2   -1    0    0    0  501 -0.00000000000E+00  0.00000000000E+00  0.68987646698E+02  0.68987646698E+02  0.00000000000E+00 0.  1.
          2   -1    0    0  501    0  0.00000000000E+00 -0.00000000000E+00 -0.23124706084E+03  0.23124706084E+03  0.00000000000E+00 0. -1.
         23    2    1    2    0    0  0.61310746686E+02  0.43625457829E+00 -0.64428527961E+02  0.15336642674E+03  0.12494409813E+03 0.  0.
          5    1    3    3  502    0  0.17837420817E+02 -0.57960443447E+02 -0.84458727834E+01  0.61408544626E+02  0.47000000000E+01 0. -1.
         -5    1    3    3    0  502  0.43473325868E+02  0.58396698025E+02 -0.55982655178E+02  0.91957882115E+02  0.47000000000E+01 0. -1.
        -11    1    1    2    0    0 -0.32048799598E+02 -0.36962889984E+02 -0.14047663387E+02  0.50899092706E+02  0.00000000000E+00 0.  1.
         11    1    1    2    0    0 -0.29261947087E+02  0.36526635405E+02 -0.83783222790E+02  0.95969188089E+02  0.00000000000E+00 0. -1.
<mgrwt>
<rscale>  0 0.13109028E+03</rscale>
<asrwt>0</asrwt>
<pdfrwt beam="2">  1        2 0.35576470E-01 0.13917696E+03</pdfrwt>
<pdfrwt beam="1">  1       -2 0.10613484E-01 0.13917696E+03</pdfrwt>
<totfact> 0.83158112E+03</totfact>
</mgrwt>
</event>
<event>
 7    1  0.6095443E-006  0.1308860E+03  0.7546771E-02  0.1240546E+00
         -2   -1    0    0    0  501 -0.00000000000E+00  0.00000000000E+00  0.16340193904E+02  0.16340193904E+02  0.00000000000E+00 0.  1.
          2   -1    0    0  501    0  0.00000000000E+00 -0.00000000000E+00 -0.80751243531E+03  0.80751243531E+03  0.00000000000E+00 0. -1.
         23    2    1    2    0    0 -0.77778315274E+01  0.38017798390E+02 -0.40688672409E+03  0.42742010029E+03  0.12500115291E+03 0.  0.
          5    1    3    3  502    0 -0.76342430203E+01 -0.12367363314E+02  0.20076385926E+01  0.15406295939E+02  0.47000000000E+01 0.  1.
         -5    1    3    3    0  502 -0.14358850712E+00  0.50385161704E+02 -0.40889436269E+03  0.41201380435E+03  0.47000000000E+01 0.  1.
        -11    1    1    2    0    0 -0.73521779933E+01  0.27636946024E+02 -0.85921396980E+02  0.90555738447E+02  0.00000000000E+00 0.  1.
         11    1    1    2    0    0  0.15130009521E+02 -0.65654744414E+02 -0.29836412034E+03  0.30587679048E+03  0.00000000000E+00 0. -1.
<mgrwt>
<rscale>  0 0.12155988E+03</rscale>
<asrwt>0</asrwt>
<pdfrwt beam="2">  1        2 0.12423269E+00 0.13088597E+03</pdfrwt>
<pdfrwt beam="1">  1       -2 0.25138759E-02 0.13088597E+03</pdfrwt>
<totfact> 0.18307851E+04</totfact>
</mgrwt>
</event>
<event>
 7    1  0.6095443E-006  0.1444021E+03  0.7546771E-02  0.1217708E+00
          2   -1    0    0  501    0  0.00000000000E+00  0.00000000000E+00  0.32257744148E+03  0.32257744148E+03  0.00000000000E+00 0. -1.
         -2   -1    0    0    0  501 -0.00000000000E+00 -0.00000000000E+00 -0.92661406247E+02  0.92661406247E+02  0.00000000000E+00 0.  1.
         23    2    1    2    0    0 -0.62993877352E+02 -0.35480447856E+02 -0.13938708337E+02  0.14507324753E+03  0.12499947518E+03 0.  0.
          5    1    3    3  502    0 -0.27220679417E+02 -0.60108886390E+02 -0.54310006739E+02  0.85590364194E+02  0.47000000000E+01 0. -1.
         -5    1    3    3    0  502 -0.35773197935E+02  0.24628438534E+02  0.40371298402E+02  0.59482883335E+02  0.47000000000E+01 0. -1.
        -11    1    1    2    0    0 -0.80033967690E+01 -0.16046206130E+02  0.10299599377E+02  0.20678898383E+02  0.00000000000E+00 0.  1.
         11    1    1    2    0    0  0.70997274121E+02  0.51526653986E+02  0.23355514419E+03  0.24948670182E+03  0.00000000000E+00 0. -1.
<mgrwt>
<rscale>  0 0.13679477E+03</rscale>
<asrwt>0</asrwt>
<pdfrwt beam="1">  1        2 0.49627298E-01 0.14440208E+03</pdfrwt>
<pdfrwt beam="2">  1       -2 0.14255601E-01 0.14440208E+03</pdfrwt>
<totfact> 0.36450740E+03</totfact>
</mgrwt>
</event>
<event>
 7    1  0.6095443E-006  0.1757968E+03  0.7546771E-02  0.1177968E+00
         -2   -1    0    0    0  501 -0.00000000000E+00  0.00000000000E+00  0.93273609315E+02  0.93273609315E+02  0.00000000000E+00 0.  1.
          2   -1    0    0  501    0  0.00000000000E+00 -0.00000000000E+00 -0.37388590325E+03  0.37388590325E+03  0.00000000000E+00 0. -1.
         23    2    1    2    0    0  0.10224311985E+03  0.69480866857E+02 -0.37516859452E+02  0.17975547228E+03  0.12499307443E+03 0.  0.
          5    1    3    3  502    0  0.10116445910E+03  0.26209831555E+01  0.31397407527E+01  0.10135613109E+03  0.47000000000E+01 0. -1.
         -5    1    3    3    0  502  0.10786607425E+01  0.66859883701E+02 -0.40656600205E+02  0.78399341182E+02  0.47000000000E+01 0. -1.
        -11    1    1    2    0    0  0.15625182550E+02 -0.10736157747E+02 -0.51788147101E+02  0.55149103284E+02  0.00000000000E+00 0. -1.
         11    1    1    2    0    0 -0.11786830240E+03 -0.58744709109E+02 -0.19130728738E+03  0.23225493701E+03  0.00000000000E+00 0.  1.
<mgrwt>
<rscale>  0 0.16988493E+03</rscale>
<asrwt>0</asrwt>
<pdfrwt beam="2">  1        2 0.57520907E-01 0.17579680E+03</pdfrwt>
<pdfrwt beam="1">  1       -2 0.14349786E-01 0.17579680E+03</pdfrwt>
<totfact> 0.31065097E+03</totfact>
</mgrwt>
</event>
<event>
 7    1  0.6095443E-006  0.1511715E+03  0.7546771E-02  0.1207365E+00
         -1   -1    0    0    0  501 -0.00000000000E+00  0.00000000000E+00  0.11883084196E+03  0.11883084196E+03  0.00000000000E+00 0.  1.
          1   -1    0    0  501    0  0.00000000000E+00 -0.00000000000E+00 -0.16499472190E+03  0.16499472190E+03  0.00000000000E+00 0. -1.
         23    2    1    2    0    0  0.13349827784E+02  0.83961600264E+02 -0.59672538254E+01  0.15128922786E+03  0.12500021651E+03 0.  0.
          5    1    3    3  502    0 -0.32382181128E+02  0.13286844901E+02  0.41532771017E+02  0.54517950900E+02  0.47000000000E+01 0. -1.
         -5    1    3    3    0  502  0.45732008912E+02  0.70674755363E+02 -0.47500024843E+02  0.96771276962E+02  0.47000000000E+01 0. -1.
        -11    1    1    2    0    0  0.28084523104E+01  0.19959174824E+02 -0.61562025033E+00  0.20165194081E+02  0.00000000000E+00 0.  1.
         11    1    1    2    0    0 -0.16158280095E+02 -0.10392077509E+03 -0.39581005861E+02  0.11237114192E+03  0.00000000000E+00 0. -1.
<mgrwt>
<rscale>  0 0.14452664E+03</rscale>
<asrwt>0</asrwt>
<pdfrwt beam="2">  1        1 0.25383803E-01 0.15117150E+03</pdfrwt>
<pdfrwt beam="1">  1       -1 0.18281668E-01 0.15117150E+03</pdfrwt>
<totfact> 0.42282359E+03</totfact>
</mgrwt>
</event>
<event>
 7    1  0.6095443E-006  0.1558923E+03  0.7546771E-02  0.1199628E+00
          2   -1    0    0  501    0  0.00000000000E+00  0.00000000000E+00  0.18632809042E+02  0.18632809042E+02  0.00000000000E+00 0. -1.
         -2   -1    0    0    0  501 -0.00000000000E+00 -0.00000000000E+00 -0.11749825907E+04  0.11749825907E+04  0.00000000000E+00 0.  1.
         23    2    1    2    0    0 -0.87254606967E+02  0.32615689274E+02 -0.71310545385E+03  0.72994644033E+03  0.12500107127E+03 0.  0.
          5    1    3    3  502    0 -0.27877676313E+02  0.30911235102E+01 -0.22809003513E+02  0.36456282345E+02  0.47000000000E+01 0. -1.
         -5    1    3    3    0  502 -0.59376930654E+02  0.29524565764E+02 -0.69029645033E+03  0.69349015798E+03  0.47000000000E+01 0. -1.
        -11    1    1    2    0    0  0.49535215281E+02 -0.46198676471E+02 -0.39580150437E+03  0.40155558285E+03  0.00000000000E+00 0.  1.
         11    1    1    2    0    0  0.37719391687E+02  0.13582987197E+02 -0.47442823405E+02  0.62113376523E+02  0.00000000000E+00 0. -1.
<mgrwt>
<rscale>  0 0.15068969E+03</rscale>
<asrwt>0</asrwt>
<pdfrwt beam="1">  1        2 0.28665861E-02 0.15589233E+03</pdfrwt>
<pdfrwt beam="2">  1       -2 0.18076655E+00 0.15589233E+03</pdfrwt>
<totfact> 0.62878109E+02</totfact>
</mgrwt>
</event>
<event>
 7    1  0.6095443E-006  0.1643629E+03  0.7546771E-02  0.1191563E+00
          2   -1    0    0  501    0  0.00000000000E+00  0.00000000000E+00  0.26520557636E+03  0.26520557636E+03  0.00000000000E+00 0. -1.
         -2   -1    0    0    0  501 -0.00000000000E+00 -0.00000000000E+00 -0.86522550162E+02  0.86522550162E+02  0.00000000000E+00 0.  1.
         23    2    1    2    0    0 -0.10619598826E+03  0.10165068983E+02  0.93487715680E+02  0.18909022701E+03  0.12503697220E+03 0.  0.
          5    1    3    3  502    0 -0.49091797986E+02  0.36504226578E+02 -0.15400036917E+02  0.63259895073E+02  0.47000000000E+01 0.  1.
         -5    1    3    3    0  502 -0.57104190278E+02 -0.26339157595E+02  0.10888775260E+03  0.12583033194E+03  0.47000000000E+01 0.  1.
        -11    1    1    2    0    0  0.25096395799E+00 -0.20675939227E+02  0.43749809742E+02  0.48390115708E+02  0.00000000000E+00 0. -1.
         11    1    1    2    0    0  0.10594502431E+03  0.10510870245E+02  0.41445500773E+02  0.11424778380E+03  0.00000000000E+00 0.  1.
<mgrwt>
<rscale>  0 0.15748720E+03</rscale>
<asrwt>0</asrwt>
<pdfrwt beam="1">  1        2 0.40800857E-01 0.16436289E+03</pdfrwt>
<pdfrwt beam="2">  1       -2 0.13311162E-01 0.16436289E+03</pdfrwt>
<totfact> 0.50521308E+03</totfact>
</mgrwt>
</event>
<event>
 7    1  0.6095443E-006  0.1451333E+03  0.7546771E-02  0.1216356E+00
          1   -1    0    0  501    0  0.00000000000E+00  0.00000000000E+00  0.53099947393E+03  0.53099947393E+03  0.00000000000E+00 0. -1.
         -1   -1    0    0    0  501 -0.00000000000E+00 -0.00000000000E+00 -0.34348548486E+02  0.34348548486E+02  0.00000000000E+00 0.  1.
         23    2    1    2    0    0 -0.73712589541E+02  0.19564148845E+01  0.20863628942E+03  0.25415110571E+03  0.12500523930E+03 0.  0.
          5    1    3    3  502    0 -0.31802890220E+01 -0.50622940147E+02  0.11395258175E+03  0.12482017943E+03  0.47000000000E+01 0.  1.
         -5    1    3    3    0  502 -0.70532300519E+02  0.52579355031E+02  0.94683707675E+02  0.12933092627E+03  0.47000000000E+01 0.  1.
        -11    1    1    2    0    0  0.41578657566E+02 -0.40484346966E+02  0.91276230691E+02  0.10816245838E+03  0.00000000000E+00 0.  1.
         11    1    1    2    0    0  0.32133931975E+02  0.38527932082E+02  0.19673840533E+03  0.20303445832E+03  0.00000000000E+00 0. -1.
<mgrwt>
<rscale>  0 0.13777405E+03</rscale>
<asrwt>0</asrwt>
<pdfrwt beam="1">  1        1 0.81692221E-01 0.14513333E+03</pdfrwt>
<pdfrwt beam="2">  1       -1 0.52843925E-02 0.14513333E+03</pdfrwt>
<totfact> 0.64995107E+03</totfact>
</mgrwt>
</event>
<event>
 7    1  0.6095443E-006  0.1264654E+03  0.7546771E-02  0.1246883E+00
          1   -1    0    0  501    0  0.00000000000E+00  0.00000000000E+00  0.31002205003E+03  0.31002205003E+03  0.00000000000E+00 0. -1.
         -1   -1    0    0    0  501 -0.00000000000E+00 -0.00000000000E+00 -0.39973282233E+02  0.39973282233E+02  0.00000000000E+00 0.  1.
         23    2    1    2    0    0 -0.13840052811E+02 -0.13382822207E+02  0.13615508253E+03  0.18582706967E+03  0.12499138503E+03 0.  0.
          5    1    3    3  502    0 -0.30886833025E+02 -0.64876159132E+02  0.78876212015E+02  0.10680102668E+03  0.47000000000E+01 0.  1.
         -5    1    3    3    0  502  0.17046780214E+02  0.51493336925E+02  0.57278870519E+02  0.79026042994E+02  0.47000000000E+01 0.  1.
        -11    1    1    2    0    0  0.33178394496E+02  0.17361206753E+02  0.13885128235E+03  0.14381201609E+03  0.00000000000E+00 0. -1.
         11    1    1    2    0    0 -0.19338341686E+02 -0.39783845461E+01 -0.49575970870E+01  0.20356246501E+02  0.00000000000E+00 0.  1.
<mgrwt>
<rscale>  0 0.11773398E+03</rscale>
<asrwt>0</asrwt>
<pdfrwt beam="1">  1        1 0.47695698E-01 0.12646538E+03</pdfrwt>
<pdfrwt beam="2">  1       -1 0.61497359E-02 0.12646538E+03</pdfrwt>
<totfact> 0.10173523E+04</totfact>
</mgrwt>
</event>
<event>
 7    1  0.6095443E-006  0.1561177E+03  0.7546771E-02  0.1197773E+00
          1   -1    0    0  501    0  0.00000000000E+00  0.00000000000E+00  0.91901997844E+03  0.91901997844E+03  0.00000000000E+00 0. -1.
         -1   -1    0    0    0  501 -0.00000000000E+00 -0.00000000000E+00 -0.24203841920E+02  0.24203841920E+02  0.00000000000E+00 0.  1.
         23    2    1    2    0    0 -0.76979617239E+02  0.53129965941E+02  0.50980419796E+03  0.53317264540E+03  0.12499637911E+03 0.  0.
          5    1    3    3  502    0 -0.94703516133E+02 -0.11507999380E+01  0.37279064933E+03  0.38466223955E+03  0.47000000000E+01 0.  1.
         -5    1    3    3    0  502  0.17723898894E+02  0.54280765879E+02  0.13701354863E+03  0.14851040585E+03  0.47000000000E+01 0.  1.
        -11    1    1    2    0    0  0.82264849723E+02 -0.82422932678E+01  0.32238749481E+03  0.33281997793E+03  0.00000000000E+00 0. -1.
         11    1    1    2    0    0 -0.52852324839E+01 -0.44887672673E+02  0.62624443750E+02  0.77231197035E+02  0.00000000000E+00 0.  1.
<mgrwt>
<rscale>  0 0.15221836E+03</rscale>
<asrwt>0</asrwt>
<pdfrwt beam="1">  1        1 0.14138766E+00 0.15611774E+03</pdfrwt>
<pdfrwt beam="2">  1       -1 0.37236687E-02 0.15611774E+03</pdfrwt>
<totfact> 0.49486101E+03</totfact>
</mgrwt>
</event>
<event>
 7    1  0.6095443E-006  0.1254299E+03  0.7546771E-02  0.1249360E+00
          1   -1    0    0  501    0  0.00000000000E+00  0.00000000000E+00  0.13602168925E+03  0.13602168925E+03  0.00000000000E+00 0. -1.
         -1   -1    0    0    0  501 -0.00000000000E+00 -0.00000000000E+00 -0.10687392231E+03  0.10687392231E+03  0.00000000000E+00 0.  1.
         23    2    1    2    0    0 -0.11213220277E+01 -0.10301925261E+02 -0.34981710940E+02  0.13021670910E+03  0.12500113680E+03 0.  0.
          5    1    3    3  502    0  0.34864702253E+02 -0.18234185741E+02 -0.69179588697E+02  0.79724139914E+02  0.47000000000E+01 0. -1.
         -5    1    3    3    0  502 -0.35986024281E+02  0.79322604799E+01  0.34197877757E+02  0.50492569185E+02  0.47000000000E+01 0. -1.
        -11    1    1    2    0    0  0.22949393303E+02  0.45655489922E+02  0.35057725127E+02  0.61968883354E+02  0.00000000000E+00 0.  1.
         11    1    1    2    0    0 -0.21828071276E+02 -0.35353564661E+02  0.29071752757E+02  0.50710019111E+02  0.00000000000E+00 0. -1.
<mgrwt>
<rscale>  0 0.11628181E+03</rscale>
<asrwt>0</asrwt>
<pdfrwt beam="1">  1        1 0.20926414E-01 0.12542995E+03</pdfrwt>
<pdfrwt beam="2">  1       -1 0.16442142E-01 0.12542995E+03</pdfrwt>
<totfact> 0.63081977E+03</totfact>
</mgrwt>
</event>
<event>
 7    1  0.6095443E-006  0.1930743E+03  0.7546771E-02  0.1160466E+00
         -2   -1    0    0    0  501 -0.00000000000E+00  0.00000000000E+00  0.36546106504E+02  0.36546106504E+02  0.00000000000E+00 0.  1.
          2   -1    0    0  501    0  0.00000000000E+00 -0.00000000000E+00 -0.93251072306E+03  0.93251072306E+03  0.00000000000E+00 0. -1.
         23    2    1    2    0    0  0.12983786270E+03 -0.69252566331E+02 -0.53720930575E+03  0.57085157399E+03  0.12499557113E+03 0.  0.
          5    1    3    3  502    0 -0.46521349049E+01 -0.57462233467E+02 -0.17136284555E+03  0.18086145380E+03  0.47000000000E+01 0.  1.
         -5    1    3    3    0  502  0.13448999760E+03 -0.11790332864E+02 -0.36584646020E+03  0.38999012019E+03  0.47000000000E+01 0.  1.
        -11    1    1    2    0    0 -0.82570952450E+02  0.24020213691E+02 -0.10282047016E+03  0.13404097112E+03  0.00000000000E+00 0.  1.
         11    1    1    2    0    0 -0.47266910245E+02  0.45232352640E+02 -0.25593484064E+03  0.26416428446E+03  0.00000000000E+00 0. -1.
<mgrwt>
<rscale>  0 0.18779468E+03</rscale>
<asrwt>0</asrwt>
<pdfrwt beam="2">  1        2 0.14346319E+00 0.19307429E+03</pdfrwt>
<pdfrwt beam="1">  1       -2 0.56224778E-02 0.19307429E+03</pdfrwt>
<totfact> 0.46779755E+03</totfact>
</mgrwt>
</event>
<event>
 7    1  0.6095443E-006  0.1855888E+03  0.7546771E-02  0.1169590E+00
          2   -1    0    0  501    0  0.00000000000E+00  0.00000000000E+00  0.74410735655E+03  0.74410735655E+03  0.00000000000E+00 0. -1.
         -2   -1    0    0    0  501 -0.00000000000E+00 -0.00000000000E+00 -0.41003750619E+02  0.41003750619E+02  0.00000000000E+00 0.  1.
         23    2    1    2    0    0 -0.13648381284E+03 -0.13587313846E+02  0.45217074839E+03  0.48877559952E+03  0.12502301674E+03 0.  0.
          5    1    3    3  502    0 -0.50617526769E+02 -0.58181540821E+02  0.11960695752E+03  0.14239080025E+03  0.47000000000E+01 0. -1.
         -5    1    3    3    0  502 -0.85866286074E+02  0.44594226974E+02  0.33256379088E+03  0.34638479927E+03  0.47000000000E+01 0. -1.
        -11    1    1    2    0    0  0.84461040928E+02  0.16001911707E+02  0.79222904377E+02  0.11690165607E+03  0.00000000000E+00 0. -1.
         11    1    1    2    0    0  0.52022771916E+02 -0.24145978605E+01  0.17170995316E+03  0.17943385159E+03  0.00000000000E+00 0.  1.
<mgrwt>
<rscale>  0 0.17816566E+03</rscale>
<asrwt>0</asrwt>
<pdfrwt beam="1">  1        2 0.11447805E+00 0.18558880E+03</pdfrwt>
<pdfrwt beam="2">  1       -2 0.63082699E-02 0.18558880E+03</pdfrwt>
<totfact> 0.52346557E+03</totfact>
</mgrwt>
</event>
<event>
 7    1  0.6095443E-006  0.1981110E+03  0.7546771E-02  0.1155617E+00
          1   -1    0    0  501    0  0.00000000000E+00  0.00000000000E+00  0.28754838144E+02  0.28754838144E+02  0.00000000000E+00 0. -1.
         -1   -1    0    0    0  501 -0.00000000000E+00 -0.00000000000E+00 -0.17736357915E+04  0.17736357915E+04  0.00000000000E+00 0.  1.
         23    2    1    2    0    0 -0.15293596373E+03  0.15301140367E+02 -0.13981665418E+04  0.14121323105E+04  0.12499780000E+03 0.  0.
          5    1    3    3  502    0 -0.24084535863E+02 -0.21580458995E+02 -0.70449427275E+02  0.77659467430E+02  0.47000000000E+01 0.  1.
         -5    1    3    3    0  502 -0.12885142787E+03  0.36881599362E+02 -0.13277171145E+04  0.13344728431E+04  0.47000000000E+01 0.  1.
        -11    1    1    2    0    0  0.17913529991E+02 -0.26416144901E+02 -0.23010942381E+02  0.39347309151E+02  0.00000000000E+00 0. -1.
         11    1    1    2    0    0  0.13502243374E+03  0.11115004533E+02 -0.32370346918E+03  0.35091100994E+03  0.00000000000E+00 0.  1.
<mgrwt>
<rscale>  0 0.19318743E+03</rscale>
<asrwt>0</asrwt>
<pdfrwt beam="1">  1        1 0.44238215E-02 0.19811104E+03</pdfrwt>
<pdfrwt beam="2">  1       -1 0.27286703E+00 0.19811104E+03</pdfrwt>
<totfact> 0.11369473E+02</totfact>
</mgrwt>
</event>
<event>
 7    1  0.6095443E-006  0.1678882E+03  0.7546771E-02  0.1186317E+00
          2   -1    0    0  501    0  0.00000000000E+00  0.00000000000E+00  0.34350321585E+03  0.34350321585E+03  0.00000000000E+00 0. -1.
         -2   -1    0    0    0  501 -0.00000000000E+00 -0.00000000000E+00 -0.10261116159E+03  0.10261116159E+03  0.00000000000E+00 0.  1.
         23    2    1    2    0    0  0.10968565397E+03  0.22998505343E+02  0.41090474173E+01  0.16793844207E+03  0.12500624832E+03 0.  0.
          5    1    3    3  502    0  0.79207280456E+02 -0.46247475992E+02 -0.22627466391E+01  0.91868560102E+02  0.47000000000E+01 0.  1.
         -5    1    3    3    0  502  0.30478373519E+02  0.69245981335E+02  0.63717940564E+01  0.76069881970E+02  0.47000000000E+01 0.  1.
        -11    1    1    2    0    0 -0.18119702143E+02  0.22563247550E+02  0.12206793350E+02  0.31407476015E+02  0.00000000000E+00 0.  1.
         11    1    1    2    0    0 -0.91565951831E+02 -0.45561752892E+02  0.22457621350E+03  0.24676845935E+03  0.00000000000E+00 0. -1.
<mgrwt>
<rscale>  0 0.16212590E+03</rscale>
<asrwt>0</asrwt>
<pdfrwt beam="1">  1        2 0.52846648E-01 0.16788817E+03</pdfrwt>
<pdfrwt beam="2">  1       -2 0.15786333E-01 0.16788817E+03</pdfrwt>
<totfact> 0.29030871E+03</totfact>
</mgrwt>
</event>
<event>
 7    1  0.6095443E-006  0.1537129E+03  0.7546771E-02  0.1204265E+00
         -2   -1    0    0    0  501 -0.00000000000E+00  0.00000000000E+00  0.27434803164E+02  0.27434803164E+02  0.00000000000E+00 0.  1.
          2   -1    0    0  501    0  0.00000000000E+00 -0.00000000000E+00 -0.72556697553E+03  0.72556697553E+03  0.00000000000E+00 0. -1.
         23    2    1    2    0    0 -0.35492437548E+02  0.82127552075E+02 -0.38730230359E+03  0.41669021682E+03  0.12499205771E+03 0.  0.
          5    1    3    3  502    0  0.50425730879E+01  0.38011246362E+02 -0.33440969142E+03  0.33663364969E+03  0.47000000000E+01 0.  1.
         -5    1    3    3    0  502 -0.40535010636E+02  0.44116305713E+02 -0.52892612178E+02  0.80056567126E+02  0.47000000000E+01 0.  1.
        -11    1    1    2    0    0 -0.10060760056E+02 -0.45660931707E+02 -0.47717584219E+02  0.66806492356E+02  0.00000000000E+00 0.  1.
         11    1    1    2    0    0  0.45553197604E+02 -0.36466620368E+02 -0.26311228455E+03  0.26950506951E+03  0.00000000000E+00 0. -1.
<mgrwt>
<rscale>  0 0.14695563E+03</rscale>
<asrwt>0</asrwt>
<pdfrwt beam="2">  1        2 0.11162567E+00 0.15371292E+03</pdfrwt>
<pdfrwt beam="1">  1       -2 0.42207398E-02 0.15371292E+03</pdfrwt>
<totfact> 0.98208936E+03</totfact>
</mgrwt>
</event>
<event>
 7    1  0.6095443E-006  0.1381370E+03  0.7546771E-02  0.1228021E+00
          2   -1    0    0  501    0  0.00000000000E+00  0.00000000000E+00  0.78978228734E+02  0.78978228734E+02  0.00000000000E+00 0. -1.
         -2   -1    0    0    0  501 -0.00000000000E+00 -0.00000000000E+00 -0.19572740075E+03  0.19572740075E+03  0.00000000000E+00 0.  1.
         23    2    1    2    0    0  0.51040842491E+02 -0.29171031023E+02 -0.88128586928E+02  0.16385504534E+03  0.12500284556E+03 0.  0.
          5    1    3    3  502    0 -0.28671695030E+02  0.24362497482E+02 -0.81085248361E+01  0.38774160913E+02  0.47000000000E+01 0.  1.
         -5    1    3    3    0  502  0.79712537522E+02 -0.53533528505E+02 -0.80020062092E+02  0.12508088443E+03  0.47000000000E+01 0.  1.
        -11    1    1    2    0    0 -0.25068282830E+02  0.30080871298E+02  0.28276301464E+02  0.48299346233E+02  0.00000000000E+00 0. -1.
         11    1    1    2    0    0 -0.25972559661E+02 -0.90984027469E+00 -0.56896886553E+02  0.62551237911E+02  0.00000000000E+00 0.  1.
<mgrwt>
<rscale>  0 0.12961994E+03</rscale>
<asrwt>0</asrwt>
<pdfrwt beam="1">  1        2 0.12150497E-01 0.13813699E+03</pdfrwt>
<pdfrwt beam="2">  1       -2 0.30111908E-01 0.13813699E+03</pdfrwt>
<totfact> 0.48725310E+03</totfact>
</mgrwt>
</event>
<event>
 7    1  0.6095443E-006  0.1383530E+03  0.7546771E-02  0.1226900E+00
         -1   -1    0    0    0  501 -0.00000000000E+00  0.00000000000E+00  0.34616563984E+03  0.34616563984E+03  0.00000000000E+00 0.  1.
          1   -1    0    0  501    0  0.00000000000E+00 -0.00000000000E+00 -0.54704896906E+02  0.54704896906E+02  0.00000000000E+00 0. -1.
         23    2    1    2    0    0  0.56584568792E+02 -0.17592196643E+02  0.24690394773E+03  0.28302491966E+03  0.12502098598E+03 0.  0.
          5    1    3    3  502    0 -0.15647877297E+02 -0.39177129448E+02  0.17004179372E+03  0.17525982182E+03  0.47000000000E+01 0.  1.
         -5    1    3    3    0  502  0.72232446088E+02  0.21584932805E+02  0.76862154016E+02  0.10776509784E+03  0.47000000000E+01 0.  1.
        -11    1    1    2    0    0 -0.33941738160E+02 -0.32055559542E+02 -0.10966145663E+01  0.46699069053E+02  0.00000000000E+00 0. -1.
         11    1    1    2    0    0 -0.22642830632E+02  0.49647756185E+02  0.45653409770E+02  0.71146548032E+02  0.00000000000E+00 0.  1.
<mgrwt>
<rscale>  0 0.13037525E+03</rscale>
<asrwt>0</asrwt>
<pdfrwt beam="2">  1        1 0.84161382E-02 0.13835298E+03</pdfrwt>
<pdfrwt beam="1">  1       -1 0.53256251E-01 0.13835298E+03</pdfrwt>
<totfact> 0.28603660E+03</totfact>
</mgrwt>
</event>
<event>
 7    1  0.6095443E-006  0.1396279E+03  0.7546771E-02  0.1227296E+00
         -1   -1    0    0    0  501 -0.00000000000E+00  0.00000000000E+00  0.16306975433E+02  0.16306975433E+02  0.00000000000E+00 0.  1.
          1   -1    0    0  501    0  0.00000000000E+00 -0.00000000000E+00 -0.93548423735E+03  0.93548423735E+03  0.00000000000E+00 0. -1.
         23    2    1    2    0    0  0.26514104061E+02  0.56304815890E+02 -0.46126593088E+03  0.48193590532E+03  0.12499091102E+03 0.  0.
          5    1    3    3  502    0  0.20310163811E+02  0.86419806533E+02 -0.20053865576E+03  0.21935981439E+03  0.47000000000E+01 0.  1.
         -5    1    3    3    0  502  0.62039402498E+01 -0.30114990643E+02 -0.26072727511E+03  0.26257609092E+03  0.47000000000E+01 0.  1.
        -11    1    1    2    0    0 -0.56646660955E+02 -0.27423870264E+02 -0.25040171848E+03  0.25818972380E+03  0.00000000000E+00 0. -1.
         11    1    1    2    0    0  0.30132556894E+02 -0.28880945626E+02 -0.20750961256E+03  0.21166558367E+03  0.00000000000E+00 0.  1.
<mgrwt>
<rscale>  0 0.13010760E+03</rscale>
<asrwt>0</asrwt>
<pdfrwt beam="2">  1        1 0.14392064E+00 0.13962793E+03</pdfrwt>
<pdfrwt beam="1">  1       -1 0.25087656E-02 0.13962793E+03</pdfrwt>
<totfact> 0.85145389E+03</totfact>
</mgrwt>
</event>
<event>
 7    1  0.6095443E-006  0.1312770E+03  0.7546771E-02  0.1239063E+00
         -1   -1    0    0    0  501 -0.00000000000E+00  0.00000000000E+00  0.20807142257E+03  0.20807142257E+03  0.00000000000E+00 0.  1.
          1   -1    0    0  501    0  0.00000000000E+00 -0.00000000000E+00 -0.65113478502E+02  0.65113478502E+02  0.00000000000E+00 0. -1.
         23    2    1    2    0    0 -0.94509171550E+00  0.40075367340E+02  0.99078847039E+02  0.16446968654E+03  0.12500692619E+03 0.  0.
          5    1    3    3  502    0 -0.25574063745E+02 -0.31713771731E+02  0.18718607360E+01  0.41053500660E+02  0.47000000000E+01 0. -1.
         -5    1    3    3    0  502  0.24628972030E+02  0.71789139071E+02  0.97206986303E+02  0.12341618588E+03  0.47000000000E+01 0. -1.
        -11    1    1    2    0    0 -0.40156638318E+02  0.21190973583E+01  0.22304793157E+02  0.45984236129E+02  0.00000000000E+00 0. -1.
         11    1    1    2    0    0  0.41101730034E+02 -0.42194464699E+02  0.21574303868E+02  0.62730978395E+02  0.00000000000E+00 0.  1.
<mgrwt>
<rscale>  0 0.12247882E+03</rscale>
<asrwt>0</asrwt>
<pdfrwt beam="2">  1        1 0.10017458E-01 0.13127703E+03</pdfrwt>
<pdfrwt beam="1">  1       -1 0.32010988E-01 0.13127703E+03</pdfrwt>
<totfact> 0.55528229E+03</totfact>
</mgrwt>
</event>
<event>
 7    1  0.6095443E-006  0.1417994E+03  0.7546771E-02  0.1220826E+00
          2   -1    0    0  501    0  0.00000000000E+00  0.00000000000E+00  0.45832981498E+02  0.45832981498E+02  0.00000000000E+00 0. -1.
         -2   -1    0    0    0  501 -0.00000000000E+00 -0.00000000000E+00 -0.38603180780E+03  0.38603180780E+03  0.00000000000E+00 0.  1.
         23    2    1    2    0    0  0.62905397533E+02 -0.22923933781E+02 -0.24265687802E+03  0.28105057315E+03  0.12499787375E+03 0.  0.
          5    1    3    3  502    0  0.49042081741E+02 -0.58950678548E+02 -0.22608074524E+03  0.23877793376E+03  0.47000000000E+01 0. -1.
         -5    1    3    3    0  502  0.13863315792E+02  0.36026744766E+02 -0.16576132778E+02  0.42272639391E+02  0.47000000000E+01 0. -1.
        -11    1    1    2    0    0 -0.44136615360E+02  0.40644923538E+02 -0.10752940775E+03  0.12313660770E+03  0.00000000000E+00 0.  1.
         11    1    1    2    0    0 -0.18768782173E+02 -0.17720989756E+02  0.99874594727E+01  0.27677608440E+02  0.00000000000E+00 0. -1.
<mgrwt>
<rscale>  0 0.13457140E+03</rscale>
<asrwt>0</asrwt>
<pdfrwt beam="1">  1        2 0.70512280E-02 0.14179938E+03</pdfrwt>
<pdfrwt beam="2">  1       -2 0.59389508E-01 0.14179938E+03</pdfrwt>
<totfact> 0.26015361E+03</totfact>
</mgrwt>
</event>
<event>
 7    1  0.6095443E-006  0.4007087E+03  0.7546771E-02  0.1044265E+00
         -2   -1    0    0    0  501 -0.00000000000E+00  0.00000000000E+00  0.19482121448E+03  0.19482121448E+03  0.00000000000E+00 0. -1.
          2   -1    0    0  501    0  0.00000000000E+00 -0.00000000000E+00 -0.82189001955E+03  0.82189001955E+03  0.00000000000E+00 0.  1.
         23    2    1    2    0    0  0.29124869021E+03  0.24518526040E+03 -0.24852497384E+03  0.47152111387E+03  0.12500354693E+03 0.  0.
          5    1    3    3  502    0  0.15983955529E+03  0.57512077290E+02 -0.12690553972E+03  0.21209297131E+03  0.47000000000E+01 0.  1.
         -5    1    3    3    0  502  0.13140913491E+03  0.18767318311E+03 -0.12161943412E+03  0.25942814256E+03  0.47000000000E+01 0.  1.
        -11    1    1    2    0    0 -0.12273425468E+03 -0.74925460274E+02 -0.20042870030E+03  0.24667627728E+03  0.00000000000E+00 0. -1.
         11    1    1    2    0    0 -0.16851443553E+03 -0.17025980012E+03 -0.17811513093E+03  0.29851384287E+03  0.00000000000E+00 0.  1.
<mgrwt>
<rscale>  0 0.39860196E+03</rscale>
<asrwt>0</asrwt>
<pdfrwt beam="2">  1        2 0.12644462E+00 0.40070874E+03</pdfrwt>
<pdfrwt beam="1">  1       -2 0.29972495E-01 0.40070874E+03</pdfrwt>
<totfact> 0.34983047E+02</totfact>
</mgrwt>
</event>
<event>
 7    1  0.6095443E-006  0.1314247E+03  0.7546771E-02  0.1238655E+00
         -1   -1    0    0    0  501 -0.00000000000E+00  0.00000000000E+00  0.50282236852E+03  0.50282236852E+03  0.00000000000E+00 0.  1.
          1   -1    0    0  501    0  0.00000000000E+00 -0.00000000000E+00 -0.30214153639E+02  0.30214153639E+02  0.00000000000E+00 0. -1.
         23    2    1    2    0    0  0.35347849801E+02 -0.19986246117E+02  0.35580261994E+03  0.37929928279E+03  0.12499408405E+03 0.  0.
          5    1    3    3  502    0  0.75570308843E+02 -0.11302194199E+02  0.30113871116E+03  0.31071727427E+03  0.47000000000E+01 0.  1.
         -5    1    3    3    0  502 -0.40222459042E+02 -0.86840519175E+01  0.54663908788E+02  0.68582008523E+02  0.47000000000E+01 0.  1.
        -11    1    1    2    0    0  0.29015974424E+02 -0.29880308523E+01  0.20522830251E+02  0.35665693063E+02  0.00000000000E+00 0. -1.
         11    1    1    2    0    0 -0.64363824225E+02  0.22974276969E+02  0.96282764684E+02  0.11807154630E+03  0.00000000000E+00 0.  1.
<mgrwt>
<rscale>  0 0.12273318E+03</rscale>
<asrwt>0</asrwt>
<pdfrwt beam="2">  1        1 0.46483317E-02 0.13142466E+03</pdfrwt>
<pdfrwt beam="1">  1       -1 0.77357281E-01 0.13142466E+03</pdfrwt>
<totfact> 0.30986518E+03</totfact>
</mgrwt>
</event>
<event>
 7    1  0.6095443E-006  0.1540463E+03  0.7546771E-02  0.1203616E+00
         -2   -1    0    0    0  501 -0.00000000000E+00  0.00000000000E+00  0.21625044492E+03  0.21625044492E+03  0.00000000000E+00 0.  1.
          2   -1    0    0  501    0  0.00000000000E+00 -0.00000000000E+00 -0.97109040822E+02  0.97109040822E+02  0.00000000000E+00 0. -1.
         23    2    1    2    0    0 -0.48755948337E+02  0.75707437003E+02  0.97154183196E+02  0.18212411850E+03  0.12498600207E+03 0.  0.
          5    1    3    3  502    0  0.22618309932E+01  0.93090775116E+02  0.86085794271E+02  0.12690099395E+03  0.47000000000E+01 0. -1.
         -5    1    3    3    0  502 -0.51017779330E+02 -0.17383338113E+02  0.11068388926E+02  0.55223124550E+02  0.47000000000E+01 0. -1.
        -11    1    1    2    0    0  0.62287824700E+02 -0.14205983542E+02  0.23958705774E+02  0.68231976789E+02  0.00000000000E+00 0.  1.
         11    1    1    2    0    0 -0.13531876363E+02 -0.61501453462E+02 -0.19714848705E+01  0.63003390452E+02  0.00000000000E+00 0. -1.
<mgrwt>
<rscale>  0 0.14747063E+03</rscale>
<asrwt>0</asrwt>
<pdfrwt beam="2">  1        2 0.14939853E-01 0.15404629E+03</pdfrwt>
<pdfrwt beam="1">  1       -2 0.33269299E-01 0.15404629E+03</pdfrwt>
<totfact> 0.32010364E+03</totfact>
</mgrwt>
</event>
<event>
 7    1  0.6095443E-006  0.1362266E+03  0.7546771E-02  0.1230456E+00
          1   -1    0    0  501    0  0.00000000000E+00  0.00000000000E+00  0.18033458897E+03  0.18033458897E+03  0.00000000000E+00 0. -1.
         -1   -1    0    0    0  501 -0.00000000000E+00 -0.00000000000E+00 -0.82005601348E+02  0.82005601348E+02  0.00000000000E+00 0.  1.
         23    2    1    2    0    0 -0.32169657542E+01  0.54056659008E+02  0.44603565935E+02  0.14334280170E+03  0.12500083782E+03 0.  0.
          5    1    3    3  502    0 -0.48781977446E+01  0.51257577063E+02  0.86653412287E+02  0.10090609437E+03  0.47000000000E+01 0.  1.
         -5    1    3    3    0  502  0.16612319904E+01  0.27990819456E+01 -0.42049846351E+02  0.42436707337E+02  0.47000000000E+01 0.  1.
        -11    1    1    2    0    0  0.24833907184E+02 -0.69521863172E+02  0.20831448220E+02  0.76706985600E+02  0.00000000000E+00 0.  1.
         11    1    1    2    0    0 -0.21616941430E+02  0.15465204163E+02  0.32893973469E+02  0.42290403015E+02  0.00000000000E+00 0. -1.
<mgrwt>
<rscale>  0 0.12799881E+03</rscale>
<asrwt>0</asrwt>
<pdfrwt beam="1">  1        1 0.27743783E-01 0.13622658E+03</pdfrwt>
<pdfrwt beam="2">  1       -1 0.12616246E-01 0.13622658E+03</pdfrwt>
<totfact> 0.67315303E+03</totfact>
</mgrwt>
</event>
<event>
 6    1  0.6095443E-006  0.2178781E+03  0.7546771E-02  0.1214964E+00
         -2   -1    0    0    0  501 -0.00000000000E+00  0.00000000000E+00  0.47864743457E+02  0.47864743457E+02  0.00000000000E+00 0.  1.
          2   -1    0    0  501    0  0.00000000000E+00 -0.00000000000E+00 -0.41323017524E+03  0.41323017524E+03  0.00000000000E+00 0. -1.
          5    1    1    2  502    0 -0.42634194759E+02 -0.66255531297E+02 -0.18293529903E+03  0.19923574886E+03  0.47000000000E+01 0. -1.
         -5    1    1    2    0  502  0.61731922867E+02  0.80173154935E+02 -0.30553517506E+02  0.10580251653E+03  0.47000000000E+01 0.  1.
        -11    1    1    2    0    0 -0.49621693069E+01 -0.19905161521E+02 -0.84910725523E+02  0.87353705635E+02  0.00000000000E+00 0.  1.
         11    1    1    2    0    0 -0.14135558801E+02  0.59875378825E+01 -0.66965889719E+02  0.68702947669E+02  0.00000000000E+00 0. -1.
<mgrwt>
<rscale>  0 0.13879212E+03</rscale>
<asrwt>0</asrwt>
<pdfrwt beam="2">  1        2 0.63573871E-01 0.21787810E+03</pdfrwt>
<pdfrwt beam="1">  1       -2 0.73638069E-02 0.21787810E+03</pdfrwt>
<totfact> 0.81379476E+03</totfact>
</mgrwt>
</event>
<event>
 7    1  0.6095443E-006  0.1449821E+03  0.7546771E-02  0.1207862E+00
         -2   -1    0    0    0  501 -0.00000000000E+00  0.00000000000E+00  0.51424694116E+02  0.51424694116E+02  0.00000000000E+00 0.  1.
          2   -1    0    0  501    0  0.00000000000E+00 -0.00000000000E+00 -0.52293816651E+03  0.52293816651E+03  0.00000000000E+00 0. -1.
         23    2    1    2    0    0 -0.57886674417E+02 -0.32988506745E+02 -0.94090691218E+02  0.17005138543E+03  0.12500122744E+03 0.  0.
          5    1    3    3  502    0 -0.45932715348E+02 -0.33161401487E+02 -0.12459602974E+03  0.13695164663E+03  0.47000000000E+01 0. -1.
         -5    1    3    3    0  502 -0.11953959069E+02  0.17289474281E+00  0.30505338525E+02  0.33099738799E+02  0.47000000000E+01 0. -1.
        -11    1    1    2    0    0 -0.33232934436E+02  0.33638974490E+02 -0.76875623958E+02  0.90254474099E+02  0.00000000000E+00 0.  1.
         11    1    1    2    0    0  0.91119608853E+02 -0.65046774500E+00 -0.30054715721E+03  0.31405700109E+03  0.00000000000E+00 0. -1.
<mgrwt>
<rscale>  0 0.14414153E+03</rscale>
<asrwt>0</asrwt>
<pdfrwt beam="2">  1        2 0.80452021E-01 0.14498211E+03</pdfrwt>
<pdfrwt beam="1">  1       -2 0.79114918E-02 0.14498211E+03</pdfrwt>
<totfact> 0.55016041E+03</totfact>
</mgrwt>
</event>
<event>
 7    1  0.6095443E-006  0.1292914E+03  0.7546771E-02  0.1242687E+00
         -3   -1    0    0    0  501 -0.00000000000E+00  0.00000000000E+00  0.12255949982E+04  0.12255949982E+04  0.00000000000E+00 0.  1.
          3   -1    0    0  501    0  0.00000000000E+00 -0.00000000000E+00 -0.11786212524E+02  0.11786212524E+02  0.00000000000E+00 0. -1.
         23    2    1    2    0    0 -0.80603082321E+01  0.32032502591E+02  0.89274976931E+03  0.90206342674E+03  0.12500090186E+03 0.  0.
          5    1    3    3  502    0  0.57781757087E+02  0.58116247542E+01  0.40014712381E+03  0.40436656282E+03  0.47000000000E+01 0. -1.
         -5    1    3    3    0  502 -0.65842065319E+02  0.26220877837E+02  0.49260264549E+03  0.49769686391E+03  0.47000000000E+01 0. -1.
        -11    1    1    2    0    0  0.40102187114E+02  0.12274709073E+02  0.14785206436E+03  0.15368502474E+03  0.00000000000E+00 0.  1.
         11    1    1    2    0    0 -0.32041878882E+02 -0.44307211663E+02  0.17320695202E+03  0.18163275926E+03  0.00000000000E+00 0. -1.
<mgrwt>
<rscale>  0 0.12024907E+03</rscale>
<asrwt>0</asrwt>
<pdfrwt beam="2">  1        3 0.18132644E-02 0.12929144E+03</pdfrwt>
<pdfrwt beam="1">  1       -3 0.18855298E+00 0.12929144E+03</pdfrwt>
<totfact> 0.48341658E+02</totfact>
</mgrwt>
</event>
<event>
 7    1  0.6095443E-006  0.1518234E+03  0.7546771E-02  0.1205040E+00
          2   -1    0    0  501    0  0.00000000000E+00  0.00000000000E+00  0.38914575593E+03  0.38914575593E+03  0.00000000000E+00 0. -1.
         -2   -1    0    0    0  501 -0.00000000000E+00 -0.00000000000E+00 -0.63464744896E+02  0.63464744896E+02  0.00000000000E+00 0.  1.
         23    2    1    2    0    0  0.82901289359E+02  0.23539875290E+02  0.74105438448E+02  0.16894363813E+03  0.12499434928E+03 0.  0.
          5    1    3    3  502    0 -0.29069473145E+02 -0.15095180275E+02  0.12725510114E+02  0.35453171143E+02  0.47000000000E+01 0.  1.
         -5    1    3    3    0  502  0.11197076250E+03  0.38635055565E+02  0.61379928333E+02  0.13349046699E+03  0.47000000000E+01 0.  1.
        -11    1    1    2    0    0 -0.39806674514E+02  0.17245442716E+02  0.20122456637E+03  0.20584776593E+03  0.00000000000E+00 0. -1.
         11    1    1    2    0    0 -0.43094614845E+02 -0.40785318007E+02  0.50351006220E+02  0.77819096763E+02  0.00000000000E+00 0.  1.
<mgrwt>
<rscale>  0 0.14634274E+03</rscale>
<asrwt>0</asrwt>
<pdfrwt beam="1">  1        2 0.59868576E-01 0.15182337E+03</pdfrwt>
<pdfrwt beam="2">  1       -2 0.97638072E-02 0.15182337E+03</pdfrwt>
<totfact> 0.54786672E+03</totfact>
</mgrwt>
</event>
<event>
 7    1  0.6095443E-006  0.1505280E+03  0.7546771E-02  0.1208510E+00
          2   -1    0    0  501    0  0.00000000000E+00  0.00000000000E+00  0.67530111020E+02  0.67530111020E+02  0.00000000000E+00 0. -1.
         -2   -1    0    0    0  501 -0.00000000000E+00 -0.00000000000E+00 -0.28090691073E+03  0.28090691073E+03  0.00000000000E+00 0.  1.
         23    2    1    2    0    0  0.32554675067E+02  0.77294488831E+02 -0.11166733267E+03  0.18742541672E+03  0.12499779508E+03 0.  0.
          5    1    3    3  502    0 -0.44748304680E+02  0.34316073721E+02 -0.20154024806E+02  0.60068947079E+02  0.47000000000E+01 0.  1.
         -5    1    3    3    0  502  0.77302979747E+02  0.42978415110E+02 -0.91513307868E+02  0.12735646964E+03  0.47000000000E+01 0.  1.
        -11    1    1    2    0    0  0.12487685408E+02 -0.20196947666E+01 -0.64492583248E+02  0.65721493804E+02  0.00000000000E+00 0.  1.
         11    1    1    2    0    0 -0.45042360474E+02 -0.75274794064E+02 -0.37216883792E+02  0.95290111227E+02  0.00000000000E+00 0. -1.
<mgrwt>
<rscale>  0 0.14364276E+03</rscale>
<asrwt>0</asrwt>
<pdfrwt beam="1">  1        2 0.10389248E-01 0.15052805E+03</pdfrwt>
<pdfrwt beam="2">  1       -2 0.43216448E-01 0.15052805E+03</pdfrwt>
<totfact> 0.30250899E+03</totfact>
</mgrwt>
</event>
<event>
 7    1  0.6095443E-006  0.1226640E+03  0.7546771E-02  0.1257628E+00
         -1   -1    0    0    0  501 -0.00000000000E+00  0.00000000000E+00  0.42555534954E+02  0.42555534954E+02  0.00000000000E+00 0.  1.
          1   -1    0    0  501    0  0.00000000000E+00 -0.00000000000E+00 -0.48669398472E+03  0.48669398472E+03  0.00000000000E+00 0. -1.
         23    2    1    2    0    0  0.35536132714E+02 -0.18116008139E+02 -0.60991489664E+02  0.13699061619E+03  0.11599767512E+03 0.  0.
          5    1    3    3  502    0 -0.18105750448E+02  0.39263068910E+02 -0.15956290281E+02  0.46326018381E+02  0.47000000000E+01 0. -1.
         -5    1    3    3    0  502  0.53641883163E+02 -0.57379077050E+02 -0.45035199383E+02  0.90664597808E+02  0.47000000000E+01 0.  1.
        -11    1    1    2    0    0 -0.58069299570E+02  0.95883934164E+01 -0.29865392894E+03  0.30439801266E+03  0.00000000000E+00 0. -1.
         11    1    1    2    0    0  0.22533166856E+02  0.85276147229E+01 -0.84493031165E+02  0.87860890827E+02  0.00000000000E+00 0.  1.
<mgrwt>
<rscale>  0 0.11160418E+03</rscale>
<asrwt>0</asrwt>
<pdfrwt beam="2">  1        1 0.74875994E-01 0.12266404E+03</pdfrwt>
<pdfrwt beam="1">  1       -1 0.65470057E-02 0.12266404E+03</pdfrwt>
<totfact> 0.52459375E+03</totfact>
</mgrwt>
</event>
<event>
 7    1  0.6095443E-006  0.1258688E+03  0.7546771E-02  0.1249147E+00
         -2   -1    0    0    0  501 -0.00000000000E+00  0.00000000000E+00  0.37615422064E+02  0.37615422064E+02  0.00000000000E+00 0.  1.
          2   -1    0    0  501    0  0.00000000000E+00 -0.00000000000E+00 -0.33210323129E+03  0.33210323129E+03  0.00000000000E+00 0. -1.
         23    2    1    2    0    0  0.13265110258E+02  0.64376009717E+01 -0.12832826657E+03  0.17975285446E+03  0.12500215530E+03 0.  0.
          5    1    3    3  502    0 -0.25893515473E+02  0.43472098805E+02 -0.11240151376E+03  0.12335512885E+03  0.47000000000E+01 0. -1.
         -5    1    3    3    0  502  0.39158625731E+02 -0.37034497833E+02 -0.15926752813E+02  0.56397725610E+02  0.47000000000E+01 0. -1.
        -11    1    1    2    0    0 -0.23911032556E+02  0.26463771700E+02 -0.14522804295E+03  0.14954348247E+03  0.00000000000E+00 0. -1.
         11    1    1    2    0    0  0.10645922298E+02 -0.32901372671E+02 -0.20931499705E+02  0.40422316424E+02  0.00000000000E+00 0.  1.
<mgrwt>
<rscale>  0 0.11640596E+03</rscale>
<asrwt>0</asrwt>
<pdfrwt beam="2">  1        2 0.51092802E-01 0.12586876E+03</pdfrwt>
<pdfrwt beam="1">  1       -2 0.57869883E-02 0.12586876E+03</pdfrwt>
<totfact> 0.14320493E+04</totfact>
</mgrwt>
</event>
<event>
 7    1  0.6095443E-006  0.1375801E+03  0.7546771E-02  0.1227404E+00
         -1   -1    0    0    0  501 -0.00000000000E+00  0.00000000000E+00  0.39275531066E+02  0.39275531066E+02  0.00000000000E+00 0.  1.
          1   -1    0    0  501    0  0.00000000000E+00 -0.00000000000E+00 -0.40181977329E+03  0.40181977329E+03  0.00000000000E+00 0. -1.
         23    2    1    2    0    0  0.17051155411E+02  0.54877450282E+02 -0.23937017476E+03  0.27609120729E+03  0.12500399086E+03 0.  0.
          5    1    3    3  502    0  0.20317463534E+01 -0.35669011522E+02 -0.12088186324E+03  0.12613850022E+03  0.47000000000E+01 0.  1.
         -5    1    3    3    0  502  0.15019409058E+02  0.90546461803E+02 -0.11848831152E+03  0.14995270708E+03  0.47000000000E+01 0.  1.
        -11    1    1    2    0    0 -0.25669297688E+02  0.18951000227E+02 -0.19350951980E+02  0.37316385087E+02  0.00000000000E+00 0. -1.
         11    1    1    2    0    0  0.86181422769E+01 -0.73828450509E+02 -0.10382311549E+03  0.12768771198E+03  0.00000000000E+00 0.  1.
<mgrwt>
<rscale>  0 0.13003501E+03</rscale>
<asrwt>0</asrwt>
<pdfrwt beam="2">  1        1 0.61818432E-01 0.13758006E+03</pdfrwt>
<pdfrwt beam="1">  1       -1 0.60423889E-02 0.13758006E+03</pdfrwt>
<totfact> 0.76026037E+03</totfact>
</mgrwt>
</event>
<event>
 7    1  0.6095443E-006  0.1541384E+03  0.7546771E-02  0.1204278E+00
         -2   -1    0    0    0  501 -0.00000000000E+00  0.00000000000E+00  0.61351251745E+02  0.61351251745E+02  0.00000000000E+00 0.  1.
          2   -1    0    0  501    0  0.00000000000E+00 -0.00000000000E+00 -0.33177878086E+03  0.33177878086E+03  0.00000000000E+00 0. -1.
         23    2    1    2    0    0  0.90135214680E+02  0.31935759194E+01 -0.11555723391E+03  0.19264509754E+03  0.12499641372E+03 0.  0.
          5    1    3    3  502    0  0.58329025256E+02 -0.57959498042E+02 -0.44832030279E+02  0.93774087783E+02  0.47000000000E+01 0. -1.
         -5    1    3    3    0  502  0.31806189424E+02  0.61153073962E+02 -0.70725203635E+02  0.98871009754E+02  0.47000000000E+01 0. -1.
        -11    1    1    2    0    0 -0.64657608018E+02 -0.29471391886E+02 -0.43642032671E+02  0.83389425169E+02  0.00000000000E+00 0.  1.
         11    1    1    2    0    0 -0.25477606661E+02  0.26277815966E+02 -0.11122826253E+03  0.11709550990E+03  0.00000000000E+00 0. -1.
<mgrwt>
<rscale>  0 0.14694476E+03</rscale>
<asrwt>0</asrwt>
<pdfrwt beam="2">  1        2 0.51042889E-01 0.15413844E+03</pdfrwt>
<pdfrwt beam="1">  1       -2 0.94386541E-02 0.15413844E+03</pdfrwt>
<totfact> 0.68567764E+03</totfact>
</mgrwt>
</event>
<event>
 7    1  0.6095443E-006  0.1481971E+03  0.7546771E-02  0.1212302E+00
         -1   -1    0    0    0  501 -0.00000000000E+00  0.00000000000E+00  0.12662484670E+03  0.12662484670E+03  0.00000000000E+00 0.  1.
          1   -1    0    0  501    0  0.00000000000E+00 -0.00000000000E+00 -0.15743268404E+03  0.15743268404E+03  0.00000000000E+00 0. -1.
         23    2    1    2    0    0 -0.40041550599E+02  0.68799876241E+02  0.26425121325E+02  0.15053461946E+03  0.12500254347E+03 0.  0.
          5    1    3    3  502    0  0.36625030647E+02  0.24030157879E+02 -0.22057054828E+02  0.49269108225E+02  0.47000000000E+01 0. -1.
         -5    1    3    3    0  502 -0.76666581245E+02  0.44769718363E+02  0.48482176152E+02  0.10126551124E+03  0.47000000000E+01 0. -1.
        -11    1    1    2    0    0 -0.25332516909E+02 -0.43752653137E+02 -0.21768644189E+02  0.55044572297E+02  0.00000000000E+00 0. -1.
         11    1    1    2    0    0  0.65374067507E+02 -0.25047223104E+02 -0.35464314481E+02  0.78478338981E+02  0.00000000000E+00 0.  1.
<mgrwt>
<rscale>  0 0.14076606E+03</rscale>
<asrwt>0</asrwt>
<pdfrwt beam="2">  1        1 0.24220413E-01 0.14819711E+03</pdfrwt>
<pdfrwt beam="1">  1       -1 0.19480746E-01 0.14819711E+03</pdfrwt>
<totfact> 0.40473867E+03</totfact>
</mgrwt>
</event>
<event>
 7    1  0.6095443E-006  0.2468649E+03  0.7546771E-02  0.1118110E+00
          1   -1    0    0  501    0  0.00000000000E+00  0.00000000000E+00  0.24132470656E+03  0.24132470656E+03  0.00000000000E+00 0. -1.
         -1   -1    0    0    0  501 -0.00000000000E+00 -0.00000000000E+00 -0.25656510155E+03  0.25656510155E+03  0.00000000000E+00 0.  1.
         23    2    1    2    0    0  0.35961053327E+02 -0.20976245773E+03 -0.78984392196E+02  0.25919261584E+03  0.12509513127E+03 0.  0.
          5    1    3    3  502    0  0.14943077155E+02 -0.13797109600E+03 -0.11091964595E+03  0.17772050176E+03  0.47000000000E+01 0. -1.
         -5    1    3    3    0  502  0.21017976172E+02 -0.71791361730E+02  0.31935253754E+02  0.81472114087E+02  0.47000000000E+01 0. -1.
        -11    1    1    2    0    0  0.21759108456E+02  0.38991236787E+02  0.33715790912E+02  0.55951138538E+02  0.00000000000E+00 0.  1.
         11    1    1    2    0    0 -0.57720161782E+02  0.17077122095E+03  0.30028206293E+02  0.18274605373E+03  0.00000000000E+00 0. -1.
<mgrwt>
<rscale>  0 0.24254362E+03</rscale>
<asrwt>0</asrwt>
<pdfrwt beam="1">  1        1 0.37126878E-01 0.24686490E+03</pdfrwt>
<pdfrwt beam="2">  1       -1 0.39471554E-01 0.24686490E+03</pdfrwt>
<totfact> 0.73199064E+02</totfact>
</mgrwt>
</event>
<event>
 7    1  0.6095443E-006  0.1552592E+03  0.7546771E-02  0.1202519E+00
          3   -1    0    0  501    0  0.00000000000E+00  0.00000000000E+00  0.79517997295E+02  0.79517997295E+02  0.00000000000E+00 0. -1.
         -3   -1    0    0    0  501 -0.00000000000E+00 -0.00000000000E+00 -0.25592837152E+03  0.25592837152E+03  0.00000000000E+00 0.  1.
         23    2    1    2    0    0  0.64523876815E+02 -0.65703275195E+02 -0.10746492990E+03  0.18882298224E+03  0.12500062565E+03 0.  0.
          5    1    3    3  502    0  0.63669970125E+01  0.34290368467E+02 -0.77645032721E+01  0.36038112209E+02  0.47000000000E+01 0. -1.
         -5    1    3    3    0  502  0.58156879803E+02 -0.99993643662E+02 -0.99700426632E+02  0.15278487004E+03  0.47000000000E+01 0. -1.
        -11    1    1    2    0    0 -0.49072513587E+02  0.36874974395E+02 -0.89105134731E+02  0.10820166524E+03  0.00000000000E+00 0.  1.
         11    1    1    2    0    0 -0.15451363228E+02  0.28828300800E+02  0.20159690406E+02  0.38421721329E+02  0.00000000000E+00 0. -1.
<mgrwt>
<rscale>  0 0.14834687E+03</rscale>
<asrwt>0</asrwt>
<pdfrwt beam="1">  1        3 0.12233538E-01 0.15525916E+03</pdfrwt>
<pdfrwt beam="2">  1       -3 0.39373596E-01 0.15525916E+03</pdfrwt>
<totfact> 0.79388703E+02</totfact>
</mgrwt>
</event>
<event>
 7    1  0.6095443E-006  0.1796592E+03  0.7546771E-02  0.1175478E+00
         -4   -1    0    0    0  501 -0.00000000000E+00  0.00000000000E+00  0.72640566154E+02  0.72640566154E+02  0.00000000000E+00 0.  1.
          4   -1    0    0  501    0  0.00000000000E+00 -0.00000000000E+00 -0.47220707284E+03  0.47220707284E+03  0.00000000000E+00 0. -1.
         23    2    1    2    0    0  0.12908790780E+03 -0.96734110264E+00 -0.92122899287E+02  0.20190109488E+03  0.12495118987E+03 0.  0.
          5    1    3    3  502    0 -0.94621830012E+01 -0.35287230655E+02 -0.19727360677E+02  0.41784929266E+02  0.47000000000E+01 0.  1.
         -5    1    3    3    0  502  0.13855009080E+03  0.34319889552E+02 -0.72395538610E+02  0.16011616561E+03  0.47000000000E+01 0.  1.
        -11    1    1    2    0    0 -0.53228551713E+02  0.20569349493E+02 -0.21156464321E+03  0.21912547801E+03  0.00000000000E+00 0. -1.
         11    1    1    2    0    0 -0.75859356085E+02 -0.19602008390E+02 -0.95878964194E+02  0.12382106611E+03  0.00000000000E+00 0.  1.
<mgrwt>
<rscale>  0 0.17229269E+03</rscale>
<asrwt>0</asrwt>
<pdfrwt beam="2">  1        4 0.72647241E-01 0.17965919E+03</pdfrwt>
<pdfrwt beam="1">  1       -4 0.11175472E-01 0.17965919E+03</pdfrwt>
<totfact> 0.19317058E+02</totfact>
</mgrwt>
</event>
<event>
 7    1  0.6095443E-006  0.1719277E+03  0.7546771E-02  0.1179315E+00
          1   -1    0    0  501    0  0.00000000000E+00  0.00000000000E+00  0.10017252127E+04  0.10017252127E+04  0.00000000000E+00 0. -1.
         -1   -1    0    0    0  501 -0.00000000000E+00 -0.00000000000E+00 -0.27464954560E+02  0.27464954560E+02  0.00000000000E+00 0.  1.
         23    2    1    2    0    0  0.76061426346E+02  0.10574998227E+03  0.47019273200E+03  0.50063994670E+03  0.11220851871E+03 0.  0.
          5    1    3    3  502    0  0.43368329322E+02  0.14137059449E+02  0.30846734097E+03  0.31185711292E+03  0.47000000000E+01 0. -1.
         -5    1    3    3    0  502  0.32693097023E+02  0.91612922820E+02  0.16172539104E+03  0.18878283377E+03  0.47000000000E+01 0.  1.
        -11    1    1    2    0    0 -0.82532308088E+02 -0.11856781271E+03  0.46522144226E+03  0.48713540051E+03  0.00000000000E+00 0.  1.
         11    1    1    2    0    0  0.64708817426E+01  0.12817830439E+02  0.38846083840E+02  0.41414820022E+02  0.00000000000E+00 0. -1.
<mgrwt>
<rscale>  0 0.16860068E+03</rscale>
<asrwt>0</asrwt>
<pdfrwt beam="1">  1        1 0.15411154E+00 0.17192775E+03</pdfrwt>
<pdfrwt beam="2">  1       -1 0.42253784E-02 0.17192775E+03</pdfrwt>
<totfact> 0.35709782E+03</totfact>
</mgrwt>
</event>
<event>
 7    1  0.6095443E-006  0.1526315E+03  0.7546771E-02  0.1205445E+00
         -4   -1    0    0    0  501 -0.00000000000E+00  0.00000000000E+00  0.17969003778E+02  0.17969003778E+02  0.00000000000E+00 0.  1.
          4   -1    0    0  501    0  0.00000000000E+00 -0.00000000000E+00 -0.11208438763E+04  0.11208438763E+04  0.00000000000E+00 0. -1.
         23    2    1    2    0    0  0.41567524634E+02  0.77092141110E+02 -0.51230892239E+03  0.53456226207E+03  0.12500129100E+03 0.  0.
          5    1    3    3  502    0  0.61436446979E+02 -0.26449723021E+01 -0.31136541250E+03  0.31741446564E+03  0.47000000000E+01 0. -1.
         -5    1    3    3    0  502 -0.19868922344E+02  0.79737113412E+02 -0.20094350989E+03  0.21714779644E+03  0.47000000000E+01 0. -1.
        -11    1    1    2    0    0 -0.31693835163E+02  0.14656579329E+02 -0.19118006769E+03  0.19434282284E+03  0.00000000000E+00 0.  1.
         11    1    1    2    0    0 -0.98736894712E+01 -0.91748720439E+02 -0.39938588243E+03  0.40990779515E+03  0.00000000000E+00 0. -1.
<mgrwt>
<rscale>  0 0.14602429E+03</rscale>
<asrwt>0</asrwt>
<pdfrwt beam="2">  1        4 0.17243747E+00 0.15263152E+03</pdfrwt>
<pdfrwt beam="1">  1       -4 0.27644630E-02 0.15263152E+03</pdfrwt>
<totfact> 0.23098350E+02</totfact>
</mgrwt>
</event>
<event>
 7    1  0.6095443E-006  0.1412299E+03  0.7546771E-02  0.1214761E+00
          3   -1    0    0  501    0  0.00000000000E+00  0.00000000000E+00  0.19526211651E+03  0.19526211651E+03  0.00000000000E+00 0. -1.
         -3   -1    0    0    0  501 -0.00000000000E+00 -0.00000000000E+00 -0.98305788419E+02  0.98305788419E+02  0.00000000000E+00 0.  1.
         23    2    1    2    0    0  0.38113455990E+02 -0.20765076668E+02  0.70409679703E+02  0.14986470273E+03  0.12497232571E+03 0.  0.
          5    1    3    3  502    0  0.47519352363E+02 -0.27368811321E+02  0.10201105396E+03  0.11591154305E+03  0.47000000000E+01 0. -1.
         -5    1    3    3    0  502 -0.94058963730E+01  0.66037346533E+01 -0.31601374253E+02  0.33953159686E+02  0.47000000000E+01 0. -1.
        -11    1    1    2    0    0 -0.75479497454E+02  0.38670118956E+02 -0.13736928278E+02  0.85914118947E+02  0.00000000000E+00 0.  1.
         11    1    1    2    0    0  0.37366041464E+02 -0.17905042288E+02  0.40283576669E+02  0.57789083253E+02  0.00000000000E+00 0. -1.
<mgrwt>
<rscale>  0 0.13894108E+03</rscale>
<asrwt>0</asrwt>
<pdfrwt beam="1">  1        3 0.30040326E-01 0.14122990E+03</pdfrwt>
<pdfrwt beam="2">  1       -3 0.15123967E-01 0.14122990E+03</pdfrwt>
<totfact> 0.91008938E+02</totfact>
</mgrwt>
</event>
<event>
 7    1  0.6095443E-006  0.2010302E+03  0.7546771E-02  0.1152873E+00
          2   -1    0    0  501    0  0.00000000000E+00  0.00000000000E+00  0.36393693479E+03  0.36393693479E+03  0.00000000000E+00 0. -1.
         -2   -1    0    0    0  501 -0.00000000000E+00 -0.00000000000E+00 -0.10131027262E+03  0.10131027262E+03  0.00000000000E+00 0.  1.
         23    2    1    2    0    0  0.33634754527E+02 -0.15367541543E+03  0.13152768982E+03  0.24023465048E+03  0.12516279032E+03 0.  0.
          5    1    3    3  502    0  0.40799724305E+02  0.53651758122E+01  0.32936514220E+02  0.52917923087E+02  0.47000000000E+01 0.  1.
         -5    1    3    3    0  502 -0.71649697783E+01 -0.15904059124E+03  0.98591175595E+02  0.18731672739E+03  0.47000000000E+01 0.  1.
        -11    1    1    2    0    0  0.92979962681E+01  0.12249160587E+03  0.61172497818E+02  0.13723236037E+03  0.00000000000E+00 0.  1.
         11    1    1    2    0    0 -0.42932750795E+02  0.31183809564E+02  0.69926474529E+02  0.87780196569E+02  0.00000000000E+00 0. -1.
<mgrwt>
<rscale>  0 0.19632940E+03</rscale>
<asrwt>0</asrwt>
<pdfrwt beam="1">  1        2 0.55990297E-01 0.20103023E+03</pdfrwt>
<pdfrwt beam="2">  1       -2 0.15586196E-01 0.20103023E+03</pdfrwt>
<totfact> 0.28051517E+03</totfact>
</mgrwt>
</event>
<event>
 7    1  0.6095443E-006  0.3611083E+03  0.7546771E-02  0.1059101E+00
          2   -1    0    0  501    0  0.00000000000E+00  0.00000000000E+00  0.57852989873E+03  0.57852989873E+03  0.00000000000E+00 0.  1.
         -2   -1    0    0    0  501 -0.00000000000E+00 -0.00000000000E+00 -0.21952526232E+03  0.21952526232E+03  0.00000000000E+00 0. -1.
         23    2    1    2    0    0  0.31997611357E+03 -0.11133047626E+03  0.17599959440E+03  0.40171517602E+03  0.12498014729E+03 0.  0.
          5    1    3    3  502    0  0.26682492896E+03 -0.11504758042E+03  0.18901023491E+03  0.34666763243E+03  0.47000000000E+01 0. -1.
         -5    1    3    3    0  502  0.53151184608E+02  0.37171041578E+01 -0.13010640510E+02  0.55047543588E+02  0.47000000000E+01 0. -1.
        -11    1    1    2    0    0 -0.21553611288E+03  0.10673735395E+03  0.91256120947E+02  0.25724765945E+03  0.00000000000E+00 0. -1.
         11    1    1    2    0    0 -0.10444000069E+03  0.45931223040E+01  0.91748921065E+02  0.13909232557E+03  0.00000000000E+00 0.  1.
<mgrwt>
<rscale>  0 0.35869724E+03</rscale>
<asrwt>0</asrwt>
<pdfrwt beam="1">  1        2 0.89004599E-01 0.36110833E+03</pdfrwt>
<pdfrwt beam="2">  1       -2 0.33773117E-01 0.36110833E+03</pdfrwt>
<totfact> 0.43325113E+02</totfact>
</mgrwt>
</event>
<event>
 7    1  0.6095443E-006  0.2037411E+03  0.7546771E-02  0.1150674E+00
          2   -1    0    0  501    0  0.00000000000E+00  0.00000000000E+00  0.99988516082E+02  0.99988516082E+02  0.00000000000E+00 0. -1.
         -2   -1    0    0    0  501 -0.00000000000E+00 -0.00000000000E+00 -0.67472221119E+03  0.67472221119E+03  0.00000000000E+00 0.  1.
         23    2    1    2    0    0  0.25993336111E+02 -0.15877508883E+03 -0.55185429197E+03  0.58826319919E+03  0.12500099842E+03 0.  0.
          5    1    3    3  502    0  0.64641840208E+02 -0.78933029213E+02 -0.19050175728E+03  0.21615272409E+03  0.47000000000E+01 0.  1.
         -5    1    3    3    0  502 -0.38648504097E+02 -0.79842059614E+02 -0.36135253469E+03  0.37211047510E+03  0.47000000000E+01 0.  1.
        -11    1    1    2    0    0 -0.47782842228E+02  0.40586908483E+02 -0.21441799800E+02  0.66258946040E+02  0.00000000000E+00 0.  1.
         11    1    1    2    0    0  0.21789506117E+02  0.11818818034E+03 -0.14376033406E+01  0.12018858204E+03  0.00000000000E+00 0. -1.
<mgrwt>
<rscale>  0 0.19889526E+03</rscale>
<asrwt>0</asrwt>
<pdfrwt beam="1">  1        2 0.15382848E-01 0.20374109E+03</pdfrwt>
<pdfrwt beam="2">  1       -2 0.10380342E+00 0.20374109E+03</pdfrwt>
<totfact> 0.29741990E+02</totfact>
</mgrwt>
</event>
<event>
 7    1  0.6095443E-006  0.1614228E+03  0.7546771E-02  0.1194734E+00
         -2   -1    0    0    0  501 -0.00000000000E+00  0.00000000000E+00  0.76028489691E+02  0.76028489691E+02  0.00000000000E+00 0.  1.
          2   -1    0    0  501    0  0.00000000000E+00 -0.00000000000E+00 -0.30257164291E+03  0.30257164291E+03  0.00000000000E+00 0. -1.
         23    2    1    2    0    0 -0.89086102504E+02  0.50018270340E+02 -0.86634487871E+02  0.18320168851E+03  0.12497665045E+03 0.  0.
          5    1    3    3  502    0 -0.84050166949E+02  0.13905580440E+01 -0.10151344050E+03  0.13188416440E+03  0.47000000000E+01 0.  1.
         -5    1    3    3    0  502 -0.50359355544E+01  0.48627712296E+02  0.14878952631E+02  0.51317524117E+02  0.47000000000E+01 0.  1.
        -11    1    1    2    0    0  0.14020123536E+02 -0.59135745841E+02 -0.63609065829E+02  0.87975641832E+02  0.00000000000E+00 0.  1.
         11    1    1    2    0    0  0.75065978968E+02  0.91174755010E+01 -0.76299599518E+02  0.10742280226E+03  0.00000000000E+00 0. -1.
<mgrwt>
<rscale>  0 0.15476781E+03</rscale>
<asrwt>0</asrwt>
<pdfrwt beam="2">  1        2 0.46549484E-01 0.16142281E+03</pdfrwt>
<pdfrwt beam="1">  1       -2 0.11696691E-01 0.16142281E+03</pdfrwt>
<totfact> 0.54001293E+03</totfact>
</mgrwt>
</event>
<event>
 7    1  0.6095443E-006  0.1463990E+03  0.7546771E-02  0.1212140E+00
         -1   -1    0    0    0  501 -0.00000000000E+00  0.00000000000E+00  0.57693923866E+02  0.57693923866E+02  0.00000000000E+00 0.  1.
          1   -1    0    0  501    0  0.00000000000E+00 -0.00000000000E+00 -0.72552328343E+03  0.72552328343E+03  0.00000000000E+00 0. -1.
         23    2    1    2    0    0  0.68019511108E+02  0.38203014989E+02 -0.53000931049E+02  0.15569769853E+03  0.12388119465E+03 0.  0.
          5    1    3    3  502    0  0.87650111266E+02  0.61438282323E+02 -0.61798334541E+02  0.12368641272E+03  0.47000000000E+01 0. -1.
         -5    1    3    3    0  502 -0.19630600159E+02 -0.23235267333E+02  0.87974034925E+01  0.32011285805E+02  0.47000000000E+01 0.  1.
        -11    1    1    2    0    0 -0.90510980822E+00  0.29164581019E+02 -0.10946567110E+03  0.11328779793E+03  0.00000000000E+00 0.  1.
         11    1    1    2    0    0 -0.67114401299E+02 -0.67367596008E+02 -0.50536275742E+03  0.51423171085E+03  0.00000000000E+00 0. -1.
<mgrwt>
<rscale>  0 0.14088714E+03</rscale>
<asrwt>0</asrwt>
<pdfrwt beam="2">  1        1 0.11161897E+00 0.14639903E+03</pdfrwt>
<pdfrwt beam="1">  1       -1 0.88759883E-02 0.14639903E+03</pdfrwt>
<totfact> 0.19395047E+03</totfact>
</mgrwt>
</event>
<event>
 7    1  0.6095443E-006  0.1290685E+03  0.7546771E-02  0.1244168E+00
         -2   -1    0    0    0  501 -0.00000000000E+00  0.00000000000E+00  0.32413466832E+02  0.32413466832E+02  0.00000000000E+00 0.  1.
          2   -1    0    0  501    0  0.00000000000E+00 -0.00000000000E+00 -0.55617707414E+03  0.55617707414E+03  0.00000000000E+00 0. -1.
         23    2    1    2    0    0  0.30337464095E+02  0.10683737917E+02 -0.12817711133E+03  0.18190123569E+03  0.12499673474E+03 0.  0.
          5    1    3    3  502    0  0.23152603914E+02  0.67060979863E+02 -0.81920725277E+02  0.10847263857E+03  0.47000000000E+01 0.  1.
         -5    1    3    3    0  502  0.71848601815E+01 -0.56377241946E+02 -0.46256386048E+02  0.73428597123E+02  0.47000000000E+01 0.  1.
        -11    1    1    2    0    0 -0.14358290287E+02 -0.49953788924E+02 -0.21546019680E+03  0.22164078581E+03  0.00000000000E+00 0. -1.
         11    1    1    2    0    0 -0.15979173808E+02  0.39270051008E+02 -0.18012629918E+03  0.18504851947E+03  0.00000000000E+00 0.  1.
<mgrwt>
<rscale>  0 0.11935342E+03</rscale>
<asrwt>0</asrwt>
<pdfrwt beam="2">  1        2 0.85565700E-01 0.12906854E+03</pdfrwt>
<pdfrwt beam="1">  1       -2 0.49866874E-02 0.12906854E+03</pdfrwt>
<totfact> 0.10294198E+04</totfact>
</mgrwt>
</event>
<event>
 7    1  0.6095443E-006  0.1308388E+03  0.7546771E-02  0.1239923E+00
         -1   -1    0    0    0  501 -0.00000000000E+00  0.00000000000E+00  0.24869574177E+03  0.24869574177E+03  0.00000000000E+00 0.  1.
          1   -1    0    0  501    0  0.00000000000E+00 -0.00000000000E+00 -0.52993583699E+02  0.52993583699E+02  0.00000000000E+00 0. -1.
         23    2    1    2    0    0 -0.49693335858E+01 -0.38329689431E+02  0.10891814247E+03  0.17024085214E+03  0.12499970644E+03 0.  0.
          5    1    3    3  502    0  0.58460136974E+02 -0.10403148308E+02  0.36325295935E+02  0.69766970942E+02  0.47000000000E+01 0.  1.
         -5    1    3    3    0  502 -0.63429470559E+02 -0.27926541123E+02  0.72592846539E+02  0.10047388120E+03  0.47000000000E+01 0.  1.
        -11    1    1    2    0    0  0.23128623677E+02 -0.21524703159E+02  0.49216997438E+02  0.58485544506E+02  0.00000000000E+00 0.  1.
         11    1    1    2    0    0 -0.18159290091E+02  0.59854392590E+02  0.37567018158E+02  0.72962928821E+02  0.00000000000E+00 0. -1.
<mgrwt>
<rscale>  0 0.12194459E+03</rscale>
<asrwt>0</asrwt>
<pdfrwt beam="2">  1        1 0.81528591E-02 0.13083878E+03</pdfrwt>
<pdfrwt beam="1">  1       -1 0.38260883E-01 0.13083878E+03</pdfrwt>
<totfact> 0.53788788E+03</totfact>
</mgrwt>
</event>
<event>
 7    1  0.6095443E-006  0.1406233E+03  0.7546771E-02  0.1223783E+00
         -1   -1    0    0    0  501 -0.00000000000E+00  0.00000000000E+00  0.96727370177E+02  0.96727370177E+02  0.00000000000E+00 0.  1.
          1   -1    0    0  501    0  0.00000000000E+00 -0.00000000000E+00 -0.17824116927E+03  0.17824116927E+03  0.00000000000E+00 0. -1.
         23    2    1    2    0    0 -0.36844456444E+02  0.52852247771E+02 -0.58442863087E+01  0.14074472769E+03  0.12499619444E+03 0.  0.
          5    1    3    3  502    0 -0.53116290813E+02  0.39249551088E+02  0.48595487247E+02  0.82130865033E+02  0.47000000000E+01 0. -1.
         -5    1    3    3    0  502  0.16271834369E+02  0.13602696683E+02 -0.54439773555E+02  0.58613862657E+02  0.47000000000E+01 0. -1.
        -11    1    1    2    0    0  0.31380568411E+02 -0.39539191257E+02  0.64175360374E+01  0.50884894496E+02  0.00000000000E+00 0.  1.
         11    1    1    2    0    0  0.54638880331E+01 -0.13313056513E+02 -0.82087048817E+02  0.83338917258E+02  0.00000000000E+00 0. -1.
<mgrwt>
<rscale>  0 0.13250667E+03</rscale>
<asrwt>0</asrwt>
<pdfrwt beam="2">  1        1 0.27421718E-01 0.14062334E+03</pdfrwt>
<pdfrwt beam="1">  1       -1 0.14881134E-01 0.14062334E+03</pdfrwt>
<totfact> 0.52921985E+03</totfact>
</mgrwt>
</event>
<event>
 7    1  0.6095443E-006  0.1277055E+03  0.7546771E-02  0.1248378E+00
          2   -1    0    0  501    0  0.00000000000E+00  0.00000000000E+00  0.13211254727E+03  0.13211254727E+03  0.00000000000E+00 0. -1.
         -2   -1    0    0    0  501 -0.00000000000E+00 -0.00000000000E+00 -0.17640928080E+03  0.17640928080E+03  0.00000000000E+00 0.  1.
         23    2    1    2    0    0 -0.37308480069E+01  0.26319968598E+02 -0.13166820260E+03  0.18342633331E+03  0.12490814305E+03 0.  0.
          5    1    3    3  502    0  0.30531846493E+02  0.42299519273E+02 -0.13536991902E+03  0.14515008769E+03  0.47000000000E+01 0. -1.
         -5    1    3    3    0  502 -0.34262694500E+02 -0.15979550675E+02  0.37017164200E+01  0.38276245618E+02  0.47000000000E+01 0. -1.
        -11    1    1    2    0    0  0.40036359592E+02 -0.30592056259E+02  0.35497433326E+02  0.61634825937E+02  0.00000000000E+00 0.  1.
         11    1    1    2    0    0 -0.36305511585E+02  0.42720876612E+01  0.51874035740E+02  0.63460668831E+02  0.00000000000E+00 0. -1.
<mgrwt>
<rscale>  0 0.11685464E+03</rscale>
<asrwt>0</asrwt>
<pdfrwt beam="1">  1        2 0.20325007E-01 0.12770554E+03</pdfrwt>
<pdfrwt beam="2">  1       -2 0.27139889E-01 0.12770554E+03</pdfrwt>
<totfact> 0.32075507E+03</totfact>
</mgrwt>
</event>
<event>
 7    1  0.6095443E-006  0.3189510E+03  0.7546771E-02  0.1077421E+00
          2   -1    0    0  501    0  0.00000000000E+00  0.00000000000E+00  0.29342797888E+03  0.29342797888E+03  0.00000000000E+00 0. -1.
         -2   -1    0    0    0  501 -0.00000000000E+00 -0.00000000000E+00 -0.35651386612E+03  0.35651386612E+03  0.00000000000E+00 0.  1.
         23    2    1    2    0    0  0.29219802245E+03 -0.26968503477E+02 -0.11205036353E+03  0.33806066686E+03  0.12499098372E+03 0.  0.
          5    1    3    3  502    0  0.28014091755E+03 -0.99238645377E+01 -0.67097145600E+02  0.28827336630E+03  0.47000000000E+01 0.  1.
         -5    1    3    3    0  502  0.12057104897E+02 -0.17044638939E+02 -0.44953217926E+02  0.49787300559E+02  0.47000000000E+01 0.  1.
        -11    1    1    2    0    0 -0.12869147270E+03  0.55514893479E+02  0.39579354133E+02  0.14563627233E+03  0.00000000000E+00 0.  1.
         11    1    1    2    0    0 -0.16350654974E+03 -0.28546390003E+02  0.93851221487E+01  0.16624490581E+03  0.00000000000E+00 0. -1.
<mgrwt>
<rscale>  0 0.31618074E+03</rscale>
<asrwt>0</asrwt>
<pdfrwt beam="1">  1        2 0.45142766E-01 0.31895098E+03</pdfrwt>
<pdfrwt beam="2">  1       -2 0.54848287E-01 0.31895098E+03</pdfrwt>
<totfact> 0.35810023E+02</totfact>
</mgrwt>
</event>
<event>
 7    1  0.6095443E-006  0.1367585E+03  0.7546771E-02  0.1229885E+00
          1   -1    0    0  501    0  0.00000000000E+00  0.00000000000E+00  0.48043254943E+03  0.48043254943E+03  0.00000000000E+00 0. -1.
         -1   -1    0    0    0  501 -0.00000000000E+00 -0.00000000000E+00 -0.32169525226E+02  0.32169525226E+02  0.00000000000E+00 0.  1.
         23    2    1    2    0    0  0.36496041453E+02  0.41789037699E+02  0.19694580662E+03  0.23977185206E+03  0.12499842230E+03 0.  0.
          5    1    3    3  502    0  0.92037849215E+01  0.53849342111E+00 -0.17126105538E+02  0.20009825660E+02  0.47000000000E+01 0. -1.
         -5    1    3    3    0  502  0.27292256531E+02  0.41250544278E+02  0.21407191216E+03  0.21976202640E+03  0.47000000000E+01 0. -1.
        -11    1    1    2    0    0  0.31526306019E+01 -0.61725810048E+02  0.14523263575E+03  0.15783704632E+03  0.00000000000E+00 0.  1.
         11    1    1    2    0    0 -0.39648672055E+02  0.19936772349E+02  0.10608458183E+03  0.11499317627E+03  0.00000000000E+00 0. -1.
<mgrwt>
<rscale>  0 0.12837637E+03</rscale>
<asrwt>0</asrwt>
<pdfrwt beam="1">  1        1 0.73912695E-01 0.13675851E+03</pdfrwt>
<pdfrwt beam="2">  1       -1 0.49491581E-02 0.13675851E+03</pdfrwt>
<totfact> 0.81354962E+03</totfact>
</mgrwt>
</event>
<event>
 7    1  0.6095443E-006  0.1324258E+03  0.7546771E-02  0.1237396E+00
          3   -1    0    0  501    0  0.00000000000E+00  0.00000000000E+00  0.20346974515E+03  0.20346974515E+03  0.00000000000E+00 0. -1.
         -3   -1    0    0    0  501 -0.00000000000E+00 -0.00000000000E+00 -0.71232466028E+02  0.71232466028E+02  0.00000000000E+00 0.  1.
         23    2    1    2    0    0 -0.31674530963E+02 -0.30138250172E+02  0.39635886464E+02  0.13823022765E+03  0.12500000922E+03 0.  0.
          5    1    3    3  502    0 -0.60750568255E+02 -0.30269148865E+02  0.68815005363E+02  0.96770077397E+02  0.47000000000E+01 0. -1.
         -5    1    3    3    0  502  0.29076037292E+02  0.13089869321E+00 -0.29179118899E+02  0.41460150250E+02  0.47000000000E+01 0. -1.
        -11    1    1    2    0    0  0.45131911662E+02 -0.17716788556E+02  0.32012604879E+02  0.58099749725E+02  0.00000000000E+00 0.  1.
         11    1    1    2    0    0 -0.13457380699E+02  0.47855038728E+02  0.60588787775E+02  0.78372233801E+02  0.00000000000E+00 0. -1.
<mgrwt>
<rscale>  0 0.12352304E+03</rscale>
<asrwt>0</asrwt>
<pdfrwt beam="1">  1        3 0.31303037E-01 0.13242580E+03</pdfrwt>
<pdfrwt beam="2">  1       -3 0.10958841E-01 0.13242580E+03</pdfrwt>
<totfact> 0.14374055E+03</totfact>
</mgrwt>
</event>
<event>
 7    1  0.6095443E-006  0.1539611E+03  0.7546771E-02  0.1203913E+00
         -2   -1    0    0    0  501 -0.00000000000E+00  0.00000000000E+00  0.30087755607E+03  0.30087755607E+03  0.00000000000E+00 0.  1.
          2   -1    0    0  501    0  0.00000000000E+00 -0.00000000000E+00 -0.73669269045E+02  0.73669269045E+02  0.00000000000E+00 0. -1.
         23    2    1    2    0    0  0.64571985135E+02 -0.62525707603E+02  0.18127379383E+03  0.23783228506E+03  0.12500000844E+03 0.  0.
          5    1    3    3  502    0  0.40027934427E+02 -0.15806399436E+01 -0.46348789414E+01  0.40599335708E+02  0.47000000000E+01 0.  1.
         -5    1    3    3    0  502  0.24544050708E+02 -0.60945067660E+02  0.18590867278E+03  0.19723294935E+03  0.47000000000E+01 0.  1.
        -11    1    1    2    0    0  0.23047554264E+01  0.10268128573E+02  0.50630061356E+02  0.51712179173E+02  0.00000000000E+00 0.  1.
         11    1    1    2    0    0 -0.66876740561E+02  0.52257579031E+02 -0.46955681696E+01  0.85002360877E+02  0.00000000000E+00 0. -1.
<mgrwt>
<rscale>  0 0.14723435E+03</rscale>
<asrwt>0</asrwt>
<pdfrwt beam="2">  1        2 0.11333734E-01 0.15396106E+03</pdfrwt>
<pdfrwt beam="1">  1       -2 0.46288854E-01 0.15396106E+03</pdfrwt>
<totfact> 0.23843563E+03</totfact>
</mgrwt>
</event>
<event>
 7    1  0.6095443E-006  0.1466430E+03  0.7546771E-02  0.1214656E+00
         -1   -1    0    0    0  501 -0.00000000000E+00  0.00000000000E+00  0.16595992909E+03  0.16595992909E+03  0.00000000000E+00 0.  1.
          1   -1    0    0  501    0  0.00000000000E+00 -0.00000000000E+00 -0.10600020028E+03  0.10600020028E+03  0.00000000000E+00 0. -1.
         23    2    1    2    0    0  0.66406338165E+02 -0.38321471432E+02  0.28139858178E+02  0.14931854022E+03  0.12500335161E+03 0.  0.
          5    1    3    3  502    0  0.76097669986E+02 -0.44527537803E+02 -0.27366797491E+02  0.92436943940E+02  0.47000000000E+01 0. -1.
         -5    1    3    3    0  502 -0.96913318205E+01  0.62060663707E+01  0.55506655668E+02  0.56881596283E+02  0.47000000000E+01 0. -1.
        -11    1    1    2    0    0 -0.38223119482E+02  0.44582842338E+02  0.58817186787E+02  0.83114969503E+02  0.00000000000E+00 0.  1.
         11    1    1    2    0    0 -0.28183218683E+02 -0.62613709057E+01 -0.26997316156E+02  0.39526619645E+02  0.00000000000E+00 0. -1.
<mgrwt>
<rscale>  0 0.13901840E+03</rscale>
<asrwt>0</asrwt>
<pdfrwt beam="2">  1        1 0.16307723E-01 0.14664302E+03</pdfrwt>
<pdfrwt beam="1">  1       -1 0.25532297E-01 0.14664302E+03</pdfrwt>
<totfact> 0.43135797E+03</totfact>
</mgrwt>
</event>
<event>
 7    1  0.6095443E-006  0.1308174E+03  0.7546771E-02  0.1248545E+00
          2   -1    0    0  501    0  0.00000000000E+00  0.00000000000E+00  0.41894569597E+03  0.41894569597E+03  0.00000000000E+00 0. -1.
         -2   -1    0    0    0  501 -0.00000000000E+00 -0.00000000000E+00 -0.27418248514E+02  0.27418248514E+02  0.00000000000E+00 0.  1.
         23    2    1    2    0    0  0.38212031504E+02  0.53598201373E+01  0.25452267382E+03  0.28617297318E+03  0.12499716822E+03 0.  0.
          5    1    3    3  502    0  0.23180848138E+02 -0.57695196053E+02  0.92032968070E+02  0.11116764178E+03  0.47000000000E+01 0. -1.
         -5    1    3    3    0  502  0.15031183366E+02  0.63055016190E+02  0.16248970575E+03  0.17500533139E+03  0.47000000000E+01 0. -1.
        -11    1    1    2    0    0  0.19818891867E+01  0.23273060899E+02  0.86421584774E+02  0.89522363481E+02  0.00000000000E+00 0. -1.
         11    1    1    2    0    0 -0.40193920691E+02 -0.28632881036E+02  0.50583188856E+02  0.70668607824E+02  0.00000000000E+00 0.  1.
<mgrwt>
<rscale>  0 0.11675703E+03</rscale>
<asrwt>0</asrwt>
<pdfrwt beam="1">  1        2 0.64453179E-01 0.13081735E+03</pdfrwt>
<pdfrwt beam="2">  1       -2 0.42181924E-02 0.13081735E+03</pdfrwt>
<totfact> 0.18028345E+04</totfact>
</mgrwt>
</event>
<event>
 7    1  0.6095443E-006  0.1388814E+03  0.7546771E-02  0.1226153E+00
         -2   -1    0    0    0  501 -0.00000000000E+00  0.00000000000E+00  0.29899444932E+02  0.29899444932E+02  0.00000000000E+00 0.  1.
          2   -1    0    0  501    0  0.00000000000E+00 -0.00000000000E+00 -0.52808503135E+03  0.52808503135E+03  0.00000000000E+00 0. -1.
         23    2    1    2    0    0  0.43386739370E+02 -0.42175089856E+02 -0.23595492240E+03  0.27379331804E+03  0.12500763272E+03 0.  0.
          5    1    3    3  502    0  0.55949379707E+02 -0.78518022131E+02 -0.13757210858E+03  0.16805828736E+03  0.47000000000E+01 0. -1.
         -5    1    3    3    0  502 -0.12562640338E+02  0.36342932275E+02 -0.98382813817E+02  0.10573503068E+03  0.47000000000E+01 0. -1.
        -11    1    1    2    0    0 -0.51035398495E+02 -0.13807658199E+02 -0.11886448689E+03  0.13009238859E+03  0.00000000000E+00 0.  1.
         11    1    1    2    0    0  0.76486591257E+01  0.55982748056E+02 -0.14336617712E+03  0.15409876965E+03  0.00000000000E+00 0. -1.
<mgrwt>
<rscale>  0 0.13088185E+03</rscale>
<asrwt>0</asrwt>
<pdfrwt beam="2">  1        2 0.81243850E-01 0.13888144E+03</pdfrwt>
<pdfrwt beam="1">  1       -2 0.45999147E-02 0.13888144E+03</pdfrwt>
<totfact> 0.12371187E+04</totfact>
</mgrwt>
</event>
<event>
 7    1  0.6095443E-006  0.1331398E+03  0.7546771E-02  0.1233554E+00
         -2   -1    0    0    0  501 -0.00000000000E+00  0.00000000000E+00  0.78874758840E+02  0.78874758840E+02  0.00000000000E+00 0.  1.
          2   -1    0    0  501    0  0.00000000000E+00 -0.00000000000E+00 -0.18471687595E+03  0.18471687595E+03  0.00000000000E+00 0. -1.
         23    2    1    2    0    0 -0.24656795409E+02  0.39729877111E+02 -0.43817434284E+02  0.14016480217E+03  0.12465866807E+03 0.  0.
          5    1    3    3  502    0 -0.45709293241E+02  0.16665862763E+02  0.31735333857E+02  0.58277885045E+02  0.47000000000E+01 0.  1.
         -5    1    3    3    0  502  0.21052497833E+02  0.23064014348E+02 -0.75552768141E+02  0.81886917128E+02  0.47000000000E+01 0.  1.
        -11    1    1    2    0    0  0.79692266892E+01  0.30803982668E+02 -0.74009910721E+01  0.32667546450E+02  0.00000000000E+00 0.  1.
         11    1    1    2    0    0  0.16687568719E+02 -0.70533859779E+02 -0.54623691756E+02  0.90759286170E+02  0.00000000000E+00 0. -1.
<mgrwt>
<rscale>  0 0.12597450E+03</rscale>
<asrwt>0</asrwt>
<pdfrwt beam="2">  1        2 0.28417981E-01 0.13313979E+03</pdfrwt>
<pdfrwt beam="1">  1       -2 0.12134578E-01 0.13313979E+03</pdfrwt>
<totfact> 0.85377913E+03</totfact>
</mgrwt>
</event>
<event>
 7    1  0.6095443E-006  0.1860191E+03  0.7546771E-02  0.1170886E+00
          1   -1    0    0  501    0  0.00000000000E+00  0.00000000000E+00  0.97126832887E+03  0.97126832887E+03  0.00000000000E+00 0. -1.
         -1   -1    0    0    0  501 -0.00000000000E+00 -0.00000000000E+00 -0.31116623219E+02  0.31116623219E+02  0.00000000000E+00 0.  1.
         23    2    1    2    0    0 -0.64783552137E+02  0.12157854322E+03  0.39781022808E+03  0.43915383582E+03  0.12499945258E+03 0.  0.
          5    1    3    3  502    0 -0.36156516342E+02 -0.19458119267E+02  0.73655814500E+02  0.84458161767E+02  0.47000000000E+01 0. -1.
         -5    1    3    3    0  502 -0.28627035794E+02  0.14103666249E+03  0.32415441358E+03  0.35469567405E+03  0.47000000000E+01 0. -1.
        -11    1    1    2    0    0  0.70408482904E+02 -0.71940377610E+02  0.32549794928E+03  0.34070762741E+03  0.00000000000E+00 0. -1.
         11    1    1    2    0    0 -0.56249307677E+01 -0.49638165609E+02  0.21684352830E+03  0.22252348886E+03  0.00000000000E+00 0.  1.
<mgrwt>
<rscale>  0 0.17685118E+03</rscale>
<asrwt>0</asrwt>
<pdfrwt beam="1">  1        1 0.14942587E+00 0.18601912E+03</pdfrwt>
<pdfrwt beam="2">  1       -1 0.47871736E-02 0.18601912E+03</pdfrwt>
<totfact> 0.31320448E+03</totfact>
</mgrwt>
</event>
<event>
 7    1  0.6095443E-006  0.2112382E+03  0.7546771E-02  0.1144243E+00
          1   -1    0    0  501    0  0.00000000000E+00  0.00000000000E+00  0.80932076056E+03  0.80932076056E+03  0.00000000000E+00 0. -1.
         -1   -1    0    0    0  501 -0.00000000000E+00 -0.00000000000E+00 -0.13377383178E+03  0.13377383178E+03  0.00000000000E+00 0.  1.
         23    2    1    2    0    0 -0.10720926381E+03  0.13230129757E+03 -0.28309173110E+02  0.21312666871E+03  0.12499643214E+03 0.  0.
          5    1    3    3  502    0 -0.12761822733E+03  0.11039384705E+03  0.39659732910E+01  0.16885210202E+03  0.47000000000E+01 0. -1.
         -5    1    3    3    0  502  0.20408963517E+02  0.21907450523E+02 -0.32275146401E+02  0.44274566689E+02  0.47000000000E+01 0. -1.
        -11    1    1    2    0    0  0.69518832689E+02 -0.42366752037E+02  0.46330938965E+03  0.47040769585E+03  0.00000000000E+00 0. -1.
         11    1    1    2    0    0  0.37690431124E+02 -0.89934545536E+02  0.24054671223E+03  0.25956022778E+03  0.00000000000E+00 0.  1.
<mgrwt>
<rscale>  0 0.20665501E+03</rscale>
<asrwt>0</asrwt>
<pdfrwt beam="1">  1        1 0.12451088E+00 0.21123818E+03</pdfrwt>
<pdfrwt beam="2">  1       -1 0.20580590E-01 0.21123818E+03</pdfrwt>
<totfact> 0.44046025E+02</totfact>
</mgrwt>
</event>
<event>
 7    1  0.6095443E-006  0.2982836E+03  0.7546771E-02  0.1087749E+00
         -2   -1    0    0    0  501 -0.00000000000E+00  0.00000000000E+00  0.10170087577E+03  0.10170087577E+03  0.00000000000E+00 0.  1.
          2   -1    0    0  501    0  0.00000000000E+00 -0.00000000000E+00 -0.84465422845E+03  0.84465422845E+03  0.00000000000E+00 0. -1.
         23    2    1    2    0    0  0.20546248454E+03 -0.17643850492E+03 -0.33681827561E+03  0.44991071744E+03  0.12501089675E+03 0.  0.
          5    1    3    3  502    0  0.24746143383E+02 -0.38740924965E+02 -0.14611493288E+03  0.15324782050E+03  0.47000000000E+01 0. -1.
         -5    1    3    3    0  502  0.18071634116E+03 -0.13769757996E+03 -0.19070334274E+03  0.29666289694E+03  0.47000000000E+01 0. -1.
        -11    1    1    2    0    0 -0.16055421676E+03  0.17084100900E+03 -0.29761112087E+03  0.37886235778E+03  0.00000000000E+00 0.  1.
         11    1    1    2    0    0 -0.44908267780E+02  0.55974959185E+01 -0.10852395619E+03  0.11758202899E+03  0.00000000000E+00 0. -1.
<mgrwt>
<rscale>  0 0.29503550E+03</rscale>
<asrwt>0</asrwt>
<pdfrwt beam="2">  1        2 0.12994680E+00 0.29828359E+03</pdfrwt>
<pdfrwt beam="1">  1       -2 0.15646289E-01 0.29828359E+03</pdfrwt>
<totfact> 0.10559251E+03</totfact>
</mgrwt>
</event>
<event>
 7    1  0.6095443E-006  0.1414595E+03  0.7546771E-02  0.1224347E+00
         -1   -1    0    0    0  501 -0.00000000000E+00  0.00000000000E+00  0.21611094589E+03  0.21611094589E+03  0.00000000000E+00 0.  1.
          1   -1    0    0  501    0  0.00000000000E+00 -0.00000000000E+00 -0.80135995741E+02  0.80135995741E+02  0.00000000000E+00 0. -1.
         23    2    1    2    0    0 -0.64961175519E+02 -0.12926710344E+02  0.12369984232E+03  0.18791605006E+03  0.12499494675E+03 0.  0.
          5    1    3    3  502    0  0.15512224003E+02  0.35468002591E+02  0.68680618544E+02  0.78979273642E+02  0.47000000000E+01 0.  1.
         -5    1    3    3    0  502 -0.80473399522E+02 -0.48394712935E+02  0.55019223777E+02  0.10893677641E+03  0.47000000000E+01 0.  1.
        -11    1    1    2    0    0 -0.12271364761E+02  0.24748058968E+02 -0.55878914403E+01  0.28182926507E+02  0.00000000000E+00 0. -1.
         11    1    1    2    0    0  0.77232540280E+02 -0.11821348624E+02  0.17862999265E+02  0.80147965065E+02  0.00000000000E+00 0.  1.
<mgrwt>
<rscale>  0 0.13211759E+03</rscale>
<asrwt>0</asrwt>
<pdfrwt beam="2">  1        1 0.12328615E-01 0.14145950E+03</pdfrwt>
<pdfrwt beam="1">  1       -1 0.33247838E-01 0.14145950E+03</pdfrwt>
<totfact> 0.39787111E+03</totfact>
</mgrwt>
</event>
<event>
 7    1  0.6095443E-006  0.1360358E+03  0.7546771E-02  0.1230426E+00
         -1   -1    0    0    0  501 -0.00000000000E+00  0.00000000000E+00  0.32066630476E+02  0.32066630476E+02  0.00000000000E+00 0.  1.
          1   -1    0    0  501    0  0.00000000000E+00 -0.00000000000E+00 -0.47877596259E+03  0.47877596259E+03  0.00000000000E+00 0. -1.
         23    2    1    2    0    0 -0.49645707205E+02 -0.20395723414E+02 -0.19814097718E+03  0.24034472943E+03  0.12500024140E+03 0.  0.
          5    1    3    3  502    0  0.13546500917E+02 -0.18491768492E+02 -0.16893051320E+03  0.17054342989E+03  0.47000000000E+01 0. -1.
         -5    1    3    3    0  502 -0.63192208122E+02 -0.19039549220E+01 -0.29210463980E+02  0.69801299541E+02  0.47000000000E+01 0. -1.
        -11    1    1    2    0    0  0.23903420222E+02  0.41982654065E+02 -0.51603103543E+02  0.70688026114E+02  0.00000000000E+00 0.  1.
         11    1    1    2    0    0  0.25742286983E+02 -0.21586930651E+02 -0.19696525139E+03  0.19980983752E+03  0.00000000000E+00 0. -1.
<mgrwt>
<rscale>  0 0.12801811E+03</rscale>
<asrwt>0</asrwt>
<pdfrwt beam="2">  1        1 0.73657845E-01 0.13603581E+03</pdfrwt>
<pdfrwt beam="1">  1       -1 0.49333275E-02 0.13603581E+03</pdfrwt>
<totfact> 0.82079632E+03</totfact>
</mgrwt>
</event>
<event>
 7    1  0.6095443E-006  0.1688004E+03  0.7546771E-02  0.1180792E+00
         -1   -1    0    0    0  501 -0.00000000000E+00  0.00000000000E+00  0.12857558999E+04  0.12857558999E+04  0.00000000000E+00 0.  1.
          1   -1    0    0  501    0  0.00000000000E+00 -0.00000000000E+00 -0.24283389461E+02  0.24283389461E+02  0.00000000000E+00 0. -1.
         23    2    1    2    0    0 -0.49358824536E+02 -0.93765519079E+02  0.84808900898E+03  0.86351998858E+03  0.12322149724E+03 0.  0.
          5    1    3    3  502    0 -0.52853963156E+02 -0.83179457768E+02  0.31057929179E+03  0.32587413230E+03  0.47000000000E+01 0. -1.
         -5    1    3    3    0  502  0.34951386192E+01 -0.10586061310E+02  0.53750971720E+03  0.53764585628E+03  0.47000000000E+01 0.  1.
        -11    1    1    2    0    0 -0.36143204988E+02  0.45905793927E+02  0.80194842123E+02  0.99221398327E+02  0.00000000000E+00 0.  1.
         11    1    1    2    0    0  0.85502029524E+02  0.47859725151E+02  0.33318865935E+03  0.34729790247E+03  0.00000000000E+00 0. -1.
<mgrwt>
<rscale>  0 0.16720714E+03</rscale>
<asrwt>0</asrwt>
<pdfrwt beam="2">  1        1 0.37359071E-02 0.16880038E+03</pdfrwt>
<pdfrwt beam="1">  1       -1 0.19780855E+00 0.16880038E+03</pdfrwt>
<totfact> 0.43144932E+02</totfact>
</mgrwt>
</event>
<event>
 7    1  0.6095443E-006  0.1687546E+03  0.7546771E-02  0.1186739E+00
         -3   -1    0    0    0  501 -0.00000000000E+00  0.00000000000E+00  0.15098671597E+03  0.15098671597E+03  0.00000000000E+00 0.  1.
          3   -1    0    0  501    0  0.00000000000E+00 -0.00000000000E+00 -0.35440832175E+03  0.35440832175E+03  0.00000000000E+00 0. -1.
         23    2    1    2    0    0 -0.37638304472E+02  0.10694047468E+03  0.81090671085E+02  0.18722660873E+03  0.12500079597E+03 0.  0.
          5    1    3    3  502    0  0.32200386778E+02  0.26922326272E+02  0.68085523565E+02  0.80121189954E+02  0.47000000000E+01 0. -1.
         -5    1    3    3    0  502 -0.69838691249E+02  0.80018148404E+02  0.13005147520E+02  0.10710541878E+03  0.47000000000E+01 0. -1.
        -11    1    1    2    0    0  0.32514482737E+02 -0.87644418819E+00 -0.39731243546E+02  0.51347165996E+02  0.00000000000E+00 0. -1.
         11    1    1    2    0    0  0.51238217351E+01 -0.10606403049E+03 -0.24478103332E+03  0.26682126299E+03  0.00000000000E+00 0.  1.
<mgrwt>
<rscale>  0 0.16174678E+03</rscale>
<asrwt>0</asrwt>
<pdfrwt beam="2">  1        3 0.54524356E-01 0.16875457E+03</pdfrwt>
<pdfrwt beam="1">  1       -3 0.23228726E-01 0.16875457E+03</pdfrwt>
<totfact> 0.13823760E+02</totfact>
</mgrwt>
</event>
<event>
 7    1  0.6095443E-006  0.3189745E+03  0.7546771E-02  0.1077407E+00
          1   -1    0    0  501    0  0.00000000000E+00  0.00000000000E+00  0.32802522559E+03  0.32802522559E+03  0.00000000000E+00 0. -1.
         -1   -1    0    0    0  501 -0.00000000000E+00 -0.00000000000E+00 -0.30696047886E+03  0.30696047886E+03  0.00000000000E+00 0.  1.
         23    2    1    2    0    0  0.20243213252E+03 -0.21246421069E+03 -0.38270830010E+02  0.32126216133E+03  0.12499964307E+03 0.  0.
          5    1    3    3  502    0  0.18102528038E+03 -0.11470982245E+03 -0.50807125000E+02  0.22029968101E+03  0.47000000000E+01 0.  1.
         -5    1    3    3    0  502  0.21406852141E+02 -0.97754388245E+02  0.12536294990E+02  0.10096248032E+03  0.47000000000E+01 0.  1.
        -11    1    1    2    0    0 -0.16818620415E+03  0.21560540882E+03  0.56465188933E+02  0.27921427102E+03  0.00000000000E+00 0.  1.
         11    1    1    2    0    0 -0.34245928369E+02 -0.31411981239E+01  0.28703878122E+01  0.34509272112E+02  0.00000000000E+00 0. -1.
<mgrwt>
<rscale>  0 0.31621046E+03</rscale>
<asrwt>0</asrwt>
<pdfrwt beam="1">  1        1 0.50465419E-01 0.31897448E+03</pdfrwt>
<pdfrwt beam="2">  1       -1 0.47224689E-01 0.31897448E+03</pdfrwt>
<totfact> 0.35839065E+02</totfact>
</mgrwt>
</event>
<event>
 7    1  0.6095443E-006  0.1797423E+03  0.7546771E-02  0.1172531E+00
          2   -1    0    0  501    0  0.00000000000E+00  0.00000000000E+00  0.78685540923E+02  0.78685540923E+02  0.00000000000E+00 0.  1.
         -2   -1    0    0    0  501 -0.00000000000E+00 -0.00000000000E+00 -0.42362530374E+03  0.42362530374E+03  0.00000000000E+00 0. -1.
         23    2    1    2    0    0 -0.12711334118E+03 -0.22916037983E+02 -0.26811889263E+03  0.32279255712E+03  0.12499739213E+03 0.  0.
          5    1    3    3  502    0 -0.13269908396E+03 -0.54842028474E+02 -0.19091469468E+03  0.23892928999E+03  0.47000000000E+01 0. -1.
         -5    1    3    3    0  502  0.55857427788E+01  0.31925990491E+02 -0.77204197956E+02  0.83863267127E+02  0.47000000000E+01 0. -1.
        -11    1    1    2    0    0  0.25662421223E+02 -0.30260006669E+02 -0.46308994394E+02  0.60981561380E+02  0.00000000000E+00 0.  1.
         11    1    1    2    0    0  0.10145091996E+03  0.53176044651E+02 -0.30511875786E+02  0.11853672616E+03  0.00000000000E+00 0. -1.
<mgrwt>
<rscale>  0 0.17520017E+03</rscale>
<asrwt>0</asrwt>
<pdfrwt beam="1">  1        2 0.12105468E-01 0.17974230E+03</pdfrwt>
<pdfrwt beam="2">  1       -2 0.65173123E-01 0.17974230E+03</pdfrwt>
<totfact> 0.11083165E+03</totfact>
</mgrwt>
</event>
<event>
 7    1  0.6095443E-006  0.1390921E+03  0.7546771E-02  0.1225279E+00
          2   -1    0    0  501    0  0.00000000000E+00  0.00000000000E+00  0.41500921950E+03  0.41500921950E+03  0.00000000000E+00 0. -1.
         -2   -1    0    0    0  501 -0.00000000000E+00 -0.00000000000E+00 -0.38113204762E+02  0.38113204762E+02  0.00000000000E+00 0.  1.
         23    2    1    2    0    0  0.50190287717E+01 -0.60745867602E+02  0.18566276845E+03  0.23198549563E+03  0.12502541946E+03 0.  0.
          5    1    3    3  502    0 -0.38299292034E+02  0.93070134418E+01  0.12046069256E+03  0.12683187581E+03  0.47000000000E+01 0.  1.
         -5    1    3    3    0  502  0.43318320806E+02 -0.70052881044E+02  0.65202075888E+02  0.10515361981E+03  0.47000000000E+01 0.  1.
        -11    1    1    2    0    0 -0.15034114257E+02 -0.21463571372E+02  0.65839540071E+02  0.70862927714E+02  0.00000000000E+00 0.  1.
         11    1    1    2    0    0  0.10015085485E+02  0.82209438974E+02  0.12539370621E+03  0.15027400092E+03  0.00000000000E+00 0. -1.
<mgrwt>
<rscale>  0 0.13147806E+03</rscale>
<asrwt>0</asrwt>
<pdfrwt beam="1">  1        2 0.63847569E-01 0.13909208E+03</pdfrwt>
<pdfrwt beam="2">  1       -2 0.58635703E-02 0.13909208E+03</pdfrwt>
<totfact> 0.11162510E+04</totfact>
</mgrwt>
</event>
<event>
 7    1  0.6095443E-006  0.1784045E+03  0.7546771E-02  0.1175242E+00
          2   -1    0    0  501    0  0.00000000000E+00  0.00000000000E+00  0.45191824370E+02  0.45191824370E+02  0.00000000000E+00 0. -1.
         -2   -1    0    0    0  501 -0.00000000000E+00 -0.00000000000E+00 -0.62491391507E+03  0.62491391507E+03  0.00000000000E+00 0.  1.
         23    2    1    2    0    0 -0.96463496125E+02 -0.83060202638E+02 -0.34247429815E+03  0.38615644971E+03  0.12499582159E+03 0.  0.
          5    1    3    3  502    0 -0.54669219946E+02 -0.82942763407E+02 -0.10360059065E+03  0.14360848859E+03  0.47000000000E+01 0. -1.
         -5    1    3    3    0  502 -0.41794276179E+02 -0.11743923106E+00 -0.23887370749E+03  0.24254796112E+03  0.47000000000E+01 0. -1.
        -11    1    1    2    0    0  0.95741878268E+02  0.27799672866E+02 -0.16796802839E+03  0.19532687380E+03  0.00000000000E+00 0. -1.
         11    1    1    2    0    0  0.72161785676E+00  0.55260529773E+02 -0.69279764167E+02  0.88622415935E+02  0.00000000000E+00 0.  1.
<mgrwt>
<rscale>  0 0.17252257E+03</rscale>
<asrwt>0</asrwt>
<pdfrwt beam="1">  1        2 0.69525880E-02 0.17840448E+03</pdfrwt>
<pdfrwt beam="2">  1       -2 0.96140607E-01 0.17840448E+03</pdfrwt>
<totfact> 0.94307259E+02</totfact>
</mgrwt>
</event>
<event>
 7    1  0.6095443E-006  0.1636219E+03  0.7546771E-02  0.1191960E+00
         -2   -1    0    0    0  501 -0.00000000000E+00  0.00000000000E+00  0.84617520827E+02  0.84617520827E+02  0.00000000000E+00 0.  1.
          2   -1    0    0  501    0  0.00000000000E+00 -0.00000000000E+00 -0.30435924905E+03  0.30435924905E+03  0.00000000000E+00 0. -1.
         23    2    1    2    0    0  0.85717589786E+02 -0.61642226020E+02 -0.53496994526E+02  0.17214542558E+03  0.12499939959E+03 0.  0.
          5    1    3    3  502    0  0.11396703262E+03 -0.65926826983E+02 -0.30657688999E+02  0.13526571974E+03  0.47000000000E+01 0. -1.
         -5    1    3    3    0  502 -0.28249442838E+02  0.42846009631E+01 -0.22839305527E+02  0.36879705843E+02  0.47000000000E+01 0. -1.
        -11    1    1    2    0    0 -0.52146492038E+02  0.10795055835E+02 -0.14128449879E+03  0.15098708375E+03  0.00000000000E+00 0. -1.
         11    1    1    2    0    0 -0.33571097748E+02  0.50847170185E+02 -0.24960234906E+02  0.65844260542E+02  0.00000000000E+00 0.  1.
<mgrwt>
<rscale>  0 0.15714339E+03</rscale>
<asrwt>0</asrwt>
<pdfrwt beam="2">  1        2 0.46824501E-01 0.16362188E+03</pdfrwt>
<pdfrwt beam="1">  1       -2 0.13018080E-01 0.16362188E+03</pdfrwt>
<totfact> 0.45211124E+03</totfact>
</mgrwt>
</event>
<event>
 7    1  0.6095443E-006  0.1391662E+03  0.7546771E-02  0.1226421E+00
         -1   -1    0    0    0  501 -0.00000000000E+00  0.00000000000E+00  0.31065654895E+03  0.31065654895E+03  0.00000000000E+00 0.  1.
          1   -1    0    0  501    0  0.00000000000E+00 -0.00000000000E+00 -0.58513193469E+02  0.58513193469E+02  0.00000000000E+00 0. -1.
         23    2    1    2    0    0 -0.40645418648E+02  0.45677312379E+02  0.21221089153E+03  0.25377294076E+03  0.12501510332E+03 0.  0.
          5    1    3    3  502    0 -0.10878119021E+02  0.37525713935E+02  0.75193811097E-01  0.39352361224E+02  0.47000000000E+01 0. -1.
         -5    1    3    3    0  502 -0.29767299626E+02  0.81515984439E+01  0.21213569772E+03  0.21442057954E+03  0.47000000000E+01 0. -1.
        -11    1    1    2    0    0  0.38011201953E+02 -0.72027191368E+02  0.34031107784E+02  0.88265984769E+02  0.00000000000E+00 0.  1.
         11    1    1    2    0    0  0.26342166948E+01  0.26349878989E+02  0.59013561693E+01  0.27130816887E+02  0.00000000000E+00 0. -1.
<mgrwt>
<rscale>  0 0.13069977E+03</rscale>
<asrwt>0</asrwt>
<pdfrwt beam="2">  1        1 0.90020300E-02 0.13916624E+03</pdfrwt>
<pdfrwt beam="1">  1       -1 0.47793314E-01 0.13916624E+03</pdfrwt>
<totfact> 0.31878955E+03</totfact>
</mgrwt>
</event>
<event>
 7    1  0.6095443E-006  0.1541383E+03  0.7546771E-02  0.1204124E+00
         -2   -1    0    0    0  501 -0.00000000000E+00  0.00000000000E+00  0.62358965240E+02  0.62358965240E+02  0.00000000000E+00 0.  1.
          2   -1    0    0  501    0  0.00000000000E+00 -0.00000000000E+00 -0.41239917118E+03  0.41239917118E+03  0.00000000000E+00 0. -1.
         23    2    1    2    0    0 -0.50942429427E+02 -0.74432351130E+02 -0.74820393180E+02  0.17133797430E+03  0.12499321658E+03 0.  0.
          5    1    3    3  502    0  0.39902045353E+02 -0.79514558700E+01 -0.13892085443E+02  0.43249033651E+02  0.47000000000E+01 0. -1.
         -5    1    3    3    0  502 -0.90844474780E+02 -0.66480895260E+02 -0.60928307738E+02  0.12808894065E+03  0.47000000000E+01 0. -1.
        -11    1    1    2    0    0  0.72558683574E+02  0.67179718792E+02 -0.17860064514E+03  0.20414717148E+03  0.00000000000E+00 0.  1.
         11    1    1    2    0    0 -0.21616254147E+02  0.72526323380E+01 -0.96619167622E+02  0.99272990643E+02  0.00000000000E+00 0. -1.
<mgrwt>
<rscale>  0 0.14706718E+03</rscale>
<asrwt>0</asrwt>
<pdfrwt beam="2">  1        2 0.63446025E-01 0.15413828E+03</pdfrwt>
<pdfrwt beam="1">  1       -2 0.95936871E-02 0.15413828E+03</pdfrwt>
<totfact> 0.52962914E+03</totfact>
</mgrwt>
</event>
<event>
 7    1  0.6095443E-006  0.1518476E+03  0.7546771E-02  0.1206825E+00
         -1   -1    0    0    0  501 -0.00000000000E+00  0.00000000000E+00  0.41987623071E+02  0.41987623071E+02  0.00000000000E+00 0.  1.
          1   -1    0    0  501    0  0.00000000000E+00 -0.00000000000E+00 -0.46043512268E+03  0.46043512268E+03  0.00000000000E+00 0. -1.
         23    2    1    2    0    0 -0.84151961611E+02  0.18667380349E+02 -0.21984940362E+03  0.26719180999E+03  0.12501071684E+03 0.  0.
          5    1    3    3  502    0  0.29081450940E+02  0.59017701796E+01 -0.17106356442E+02  0.34572808836E+02  0.47000000000E+01 0.  1.
         -5    1    3    3    0  502 -0.11323341255E+03  0.12765610169E+02 -0.20274304718E+03  0.23261900116E+03  0.47000000000E+01 0.  1.
        -11    1    1    2    0    0  0.45037274907E+02 -0.36818081493E+02 -0.39307227717E+02  0.70206733343E+02  0.00000000000E+00 0.  1.
         11    1    1    2    0    0  0.39114686705E+02  0.18150701144E+02 -0.15929086827E+03  0.16502420241E+03  0.00000000000E+00 0. -1.
<mgrwt>
<rscale>  0 0.14494548E+03</rscale>
<asrwt>0</asrwt>
<pdfrwt beam="2">  1        1 0.70836169E-01 0.15184763E+03</pdfrwt>
<pdfrwt beam="1">  1       -1 0.64596346E-02 0.15184763E+03</pdfrwt>
<totfact> 0.58179338E+03</totfact>
</mgrwt>
</event>
<event>
 7    1  0.6095443E-006  0.2221947E+03  0.7546771E-02  0.1135512E+00
          2   -1    0    0  501    0  0.00000000000E+00  0.00000000000E+00  0.91574838763E+03  0.91574838763E+03  0.00000000000E+00 0. -1.
         -2   -1    0    0    0  501 -0.00000000000E+00 -0.00000000000E+00 -0.50933869401E+02  0.50933869401E+02  0.00000000000E+00 0.  1.
         23    2    1    2    0    0  0.17260540590E+03  0.62921266325E+02  0.37962915221E+03  0.43987361203E+03  0.12497515531E+03 0.  0.
          5    1    3    3  502    0  0.12810379020E+03  0.10115260829E+03  0.28292945658E+03  0.32667047407E+03  0.47000000000E+01 0. -1.
         -5    1    3    3    0  502  0.44501615704E+02 -0.38231341964E+02  0.96699695635E+02  0.11320313796E+03  0.47000000000E+01 0. -1.
        -11    1    1    2    0    0 -0.52451537478E+02 -0.61948452713E+02  0.14715791784E+03  0.16806018969E+03  0.00000000000E+00 0.  1.
         11    1    1    2    0    0 -0.12015386843E+03 -0.97281361195E+00  0.33802744819E+03  0.35874845532E+03  0.00000000000E+00 0. -1.
<mgrwt>
<rscale>  0 0.21782845E+03</rscale>
<asrwt>0</asrwt>
<pdfrwt beam="1">  1        2 0.14088435E+00 0.22219474E+03</pdfrwt>
<pdfrwt beam="2">  1       -2 0.78359806E-02 0.22219474E+03</pdfrwt>
<totfact> 0.28836623E+03</totfact>
</mgrwt>
</event>
<event>
 7    1  0.6095443E-006  0.1390445E+03  0.7546771E-02  0.1224551E+00
         -2   -1    0    0    0  501 -0.00000000000E+00  0.00000000000E+00  0.24827658762E+02  0.24827658762E+02  0.00000000000E+00 0.  1.
          2   -1    0    0  501    0  0.00000000000E+00 -0.00000000000E+00 -0.68928419807E+03  0.68928419807E+03  0.00000000000E+00 0. -1.
         23    2    1    2    0    0 -0.45939410509E+02 -0.40019964729E+02 -0.26824222902E+03  0.30213781819E+03  0.12498536207E+03 0.  0.
          5    1    3    3  502    0 -0.66885667476E+02  0.16588957791E+01 -0.64433974001E+02  0.93006835526E+02  0.47000000000E+01 0.  1.
         -5    1    3    3    0  502  0.20946256967E+02 -0.41678860508E+02 -0.20380825502E+03  0.20913098266E+03  0.47000000000E+01 0.  1.
        -11    1    1    2    0    0  0.68045657471E+02  0.53042319567E+02 -0.32583433528E+03  0.33706336676E+03  0.00000000000E+00 0.  1.
         11    1    1    2    0    0 -0.22106246962E+02 -0.13022354839E+02 -0.70379975009E+02  0.74910671887E+02  0.00000000000E+00 0. -1.
<mgrwt>
<rscale>  0 0.13197692E+03</rscale>
<asrwt>0</asrwt>
<pdfrwt beam="2">  1        2 0.10604372E+00 0.13904448E+03</pdfrwt>
<pdfrwt beam="1">  1       -2 0.38196401E-02 0.13904448E+03</pdfrwt>
<totfact> 0.12038709E+04</totfact>
</mgrwt>
</event>
<event>
 7    1  0.6095443E-006  0.1443294E+03  0.7546771E-02  0.1213648E+00
          1   -1    0    0  501    0  0.00000000000E+00  0.00000000000E+00  0.69236283698E+02  0.69236283698E+02  0.00000000000E+00 0. -1.
         -1   -1    0    0    0  501 -0.00000000000E+00 -0.00000000000E+00 -0.33762861579E+03  0.33762861579E+03  0.00000000000E+00 0.  1.
         23    2    1    2    0    0  0.22574550047E+02 -0.68530221069E+02 -0.23474761355E+03  0.27556744631E+03  0.12499989557E+03 0.  0.
          5    1    3    3  502    0  0.48967933955E+02  0.18420998338E+01 -0.30574747273E+02  0.57949607923E+02  0.47000000000E+01 0. -1.
         -5    1    3    3    0  502 -0.26393383908E+02 -0.70372320903E+02 -0.20417286628E+03  0.21761783839E+03  0.47000000000E+01 0. -1.
        -11    1    1    2    0    0 -0.46929418264E+02  0.69386540587E+01 -0.43465840464E+02  0.64341234881E+02  0.00000000000E+00 0.  1.
         11    1    1    2    0    0  0.24354868217E+02  0.61591567010E+02  0.98211219164E+01  0.66956218295E+02  0.00000000000E+00 0. -1.
<mgrwt>
<rscale>  0 0.13976329E+03</rscale>
<asrwt>0</asrwt>
<pdfrwt beam="1">  1        1 0.10651736E-01 0.14432940E+03</pdfrwt>
<pdfrwt beam="2">  1       -1 0.51942864E-01 0.14432940E+03</pdfrwt>
<totfact> 0.21934313E+03</totfact>
</mgrwt>
</event>
<event>
 7    1  0.6095443E-006  0.1385585E+03  0.7546771E-02  0.1226458E+00
         -1   -1    0    0    0  501 -0.00000000000E+00  0.00000000000E+00  0.19222928403E+03  0.19222928403E+03  0.00000000000E+00 0.  1.
          1   -1    0    0  501    0  0.00000000000E+00 -0.00000000000E+00 -0.99186766750E+02  0.99186766750E+02  0.00000000000E+00 0. -1.
         23    2    1    2    0    0 -0.19659049403E+02 -0.56456799402E+02  0.11446949477E+03  0.17972676636E+03  0.12499838755E+03 0.  0.
          5    1    3    3  502    0  0.47290472553E+02 -0.42438747304E+02  0.28588789921E+02  0.69834411118E+02  0.47000000000E+01 0. -1.
         -5    1    3    3    0  502 -0.66949521957E+02 -0.14018052098E+02  0.85880704853E+02  0.10989235524E+03  0.47000000000E+01 0. -1.
        -11    1    1    2    0    0  0.10281267507E+02  0.15487798252E+02  0.36005485914E+02  0.40521245935E+02  0.00000000000E+00 0.  1.
         11    1    1    2    0    0  0.93777818959E+01  0.40969001150E+02 -0.57432463408E+02  0.71168038484E+02  0.00000000000E+00 0. -1.
<mgrwt>
<rscale>  0 0.13067484E+03</rscale>
<asrwt>0</asrwt>
<pdfrwt beam="2">  1        1 0.15259503E-01 0.13855845E+03</pdfrwt>
<pdfrwt beam="1">  1       -1 0.29573736E-01 0.13855845E+03</pdfrwt>
<totfact> 0.36693002E+03</totfact>
</mgrwt>
</event>
<event>
 7    1  0.6095443E-006  0.3242120E+03  0.7546771E-02  0.1075183E+00
          1   -1    0    0  501    0  0.00000000000E+00  0.00000000000E+00  0.56379401792E+03  0.56379401792E+03  0.00000000000E+00 0. -1.
         -1   -1    0    0    0  501 -0.00000000000E+00 -0.00000000000E+00 -0.17926886898E+03  0.17926886898E+03  0.00000000000E+00 0.  1.
         23    2    1    2    0    0 -0.21769374673E+03 -0.20517166809E+03  0.19406096021E+03  0.37785322814E+03  0.12500969957E+03 0.  0.
          5    1    3    3  502    0 -0.43878248827E+02 -0.63371598274E+02  0.11784570804E+03  0.14089343878E+03  0.47000000000E+01 0. -1.
         -5    1    3    3    0  502 -0.17381549790E+03 -0.14180006981E+03  0.76215252175E+02  0.23695978936E+03  0.47000000000E+01 0. -1.
        -11    1    1    2    0    0  0.80801980242E+02  0.13550301151E+03  0.10374312086E+03  0.18881912315E+03  0.00000000000E+00 0. -1.
         11    1    1    2    0    0  0.13689176649E+03  0.69668656572E+02  0.86721067867E+02  0.17639053561E+03  0.00000000000E+00 0.  1.
<mgrwt>
<rscale>  0 0.32101478E+03</rscale>
<asrwt>0</asrwt>
<pdfrwt beam="1">  1        1 0.86737541E-01 0.32421198E+03</pdfrwt>
<pdfrwt beam="2">  1       -1 0.27579826E-01 0.32421198E+03</pdfrwt>
<totfact> 0.45369630E+02</totfact>
</mgrwt>
</event>
<event>
 7    1  0.6095443E-006  0.1147439E+03  0.7546771E-02  0.1261176E+00
          1   -1    0    0  501    0  0.00000000000E+00  0.00000000000E+00  0.18816993056E+02  0.18816993056E+02  0.00000000000E+00 0. -1.
         -1   -1    0    0    0  501 -0.00000000000E+00 -0.00000000000E+00 -0.61183730889E+03  0.61183730889E+03  0.00000000000E+00 0.  1.
         23    2    1    2    0    0  0.27311157647E+02 -0.14032994320E+02 -0.38322591648E+03  0.40003532703E+03  0.11055919476E+03 0.  0.
          5    1    3    3  502    0 -0.32598792716E+02  0.23022797295E+02 -0.19279529113E+03  0.19693868275E+03  0.47000000000E+01 0. -1.
         -5    1    3    3    0  502  0.59909950364E+02 -0.37055791616E+02 -0.19043062535E+03  0.20309664428E+03  0.47000000000E+01 0.  1.
        -11    1    1    2    0    0 -0.13070414566E+02  0.42854755490E+02 -0.18407416883E+03  0.18944831864E+03  0.00000000000E+00 0. -1.
         11    1    1    2    0    0 -0.14240743081E+02 -0.28821761169E+02 -0.25720230531E+02  0.41170656286E+02  0.00000000000E+00 0.  1.
<mgrwt>
<rscale>  0 0.10967351E+03</rscale>
<asrwt>0</asrwt>
<pdfrwt beam="1">  1        1 0.28949219E-02 0.11474389E+03</pdfrwt>
<pdfrwt beam="2">  1       -1 0.94128821E-01 0.11474389E+03</pdfrwt>
<totfact> 0.39142557E+03</totfact>
</mgrwt>
</event>
<event>
 7    1  0.6095443E-006  0.1481147E+03  0.7546771E-02  0.1207985E+00
         -2   -1    0    0    0  501 -0.00000000000E+00  0.00000000000E+00  0.81972238354E+02  0.81972238354E+02  0.00000000000E+00 0.  1.
          2   -1    0    0  501    0  0.00000000000E+00 -0.00000000000E+00 -0.25099542907E+03  0.25099542907E+03  0.00000000000E+00 0. -1.
         23    2    1    2    0    0 -0.63465137257E+02  0.72601215614E+02 -0.54468565230E+02  0.15781250007E+03  0.11242419857E+03 0.  0.
          5    1    3    3  502    0 -0.19312030645E+02  0.35836677369E+02 -0.83688189277E+02  0.93182750533E+02  0.47000000000E+01 0. -1.
         -5    1    3    3    0  502 -0.44153106612E+02  0.36764538245E+02  0.29219624047E+02  0.64629749538E+02  0.47000000000E+01 0.  1.
        -11    1    1    2    0    0  0.55685777814E+02 -0.93426130788E+02 -0.10423487980E+03  0.15064613481E+03  0.00000000000E+00 0.  1.
         11    1    1    2    0    0  0.77793594432E+01  0.20824915175E+02 -0.10319745681E+02  0.24509032545E+02  0.00000000000E+00 0. -1.
<mgrwt>
<rscale>  0 0.14404678E+03</rscale>
<asrwt>0</asrwt>
<pdfrwt beam="2">  1        2 0.38614682E-01 0.14811469E+03</pdfrwt>
<pdfrwt beam="1">  1       -2 0.12611113E-01 0.14811469E+03</pdfrwt>
<totfact> 0.58111969E+03</totfact>
</mgrwt>
</event>
<event>
 7    1  0.6095443E-006  0.1317445E+03  0.7546771E-02  0.1237898E+00
         -2   -1    0    0    0  501 -0.00000000000E+00  0.00000000000E+00  0.25327115521E+03  0.25327115521E+03  0.00000000000E+00 0.  1.
          2   -1    0    0  501    0  0.00000000000E+00 -0.00000000000E+00 -0.55351491581E+02  0.55351491581E+02  0.00000000000E+00 0. -1.
         23    2    1    2    0    0  0.33493300656E+02 -0.24690257073E+02  0.14064338429E+03  0.19271007239E+03  0.12500080188E+03 0.  0.
          5    1    3    3  502    0  0.77174469066E+02  0.33511773213E+01  0.66237378490E+02  0.10186564374E+03  0.47000000000E+01 0. -1.
         -5    1    3    3    0  502 -0.43681168410E+02 -0.28041434394E+02  0.74406005804E+02  0.90844428647E+02  0.47000000000E+01 0. -1.
        -11    1    1    2    0    0  0.19285794160E+02  0.40889500679E+02  0.20975297125E+02  0.49838300650E+02  0.00000000000E+00 0.  1.
         11    1    1    2    0    0 -0.52779094816E+02 -0.16199243606E+02  0.36300982210E+02  0.66074273756E+02  0.00000000000E+00 0. -1.
<mgrwt>
<rscale>  0 0.12320693E+03</rscale>
<asrwt>0</asrwt>
<pdfrwt beam="2">  1        2 0.85156142E-02 0.13174449E+03</pdfrwt>
<pdfrwt beam="1">  1       -2 0.38964792E-01 0.13174449E+03</pdfrwt>
<totfact> 0.46709246E+03</totfact>
</mgrwt>
</event>
<event>
 7    1  0.6095443E-006  0.1532806E+03  0.7546771E-02  0.1201292E+00
          1   -1    0    0  501    0  0.00000000000E+00  0.00000000000E+00  0.76314992332E+02  0.76314992332E+02  0.00000000000E+00 0. -1.
         -1   -1    0    0    0  501 -0.00000000000E+00 -0.00000000000E+00 -0.28438945830E+03  0.28438945830E+03  0.00000000000E+00 0.  1.
         23    2    1    2    0    0 -0.84567867938E+02  0.55507731531E+02 -0.13605467403E+03  0.20495323217E+03  0.11516128040E+03 0.  0.
          5    1    3    3  502    0  0.21636961139E+02  0.55330079392E+01  0.28919525729E+01  0.23004904996E+02  0.47000000000E+01 0. -1.
         -5    1    3    3    0  502 -0.10620482908E+03  0.49974723592E+02 -0.13894662660E+03  0.18194832717E+03  0.47000000000E+01 0.  1.
        -11    1    1    2    0    0 -0.21660578518E+01  0.12411418428E+02  0.11849643847E+02  0.17295929386E+02  0.00000000000E+00 0.  1.
         11    1    1    2    0    0  0.86733925790E+02 -0.67919149959E+02 -0.83869435790E+02  0.13845528908E+03  0.00000000000E+00 0. -1.
<mgrwt>
<rscale>  0 0.14933577E+03</rscale>
<asrwt>0</asrwt>
<pdfrwt beam="1">  1        1 0.11740768E-01 0.15328063E+03</pdfrwt>
<pdfrwt beam="2">  1       -1 0.43752223E-01 0.15328063E+03</pdfrwt>
<totfact> 0.26398637E+03</totfact>
</mgrwt>
</event>
<event>
 7    1  0.6095443E-006  0.1265578E+03  0.7546771E-02  0.1247187E+00
          1   -1    0    0  501    0  0.00000000000E+00  0.00000000000E+00  0.26133972060E+03  0.26133972060E+03  0.00000000000E+00 0. -1.
         -1   -1    0    0    0  501 -0.00000000000E+00 -0.00000000000E+00 -0.53564032651E+02  0.53564032651E+02  0.00000000000E+00 0.  1.
         23    2    1    2    0    0 -0.92638185415E+01  0.17455473954E+02  0.60990296942E+02  0.14048732649E+03  0.12500544260E+03 0.  0.
          5    1    3    3  502    0 -0.52872805285E+02  0.34541727201E+02  0.67969134934E+02  0.92900795262E+02  0.47000000000E+01 0. -1.
         -5    1    3    3    0  502  0.43608986743E+02 -0.17086253247E+02 -0.69788379918E+01  0.47586531230E+02  0.47000000000E+01 0. -1.
        -11    1    1    2    0    0  0.47524399926E+01  0.27963633194E+02  0.11586499640E+03  0.11928641104E+03  0.00000000000E+00 0. -1.
         11    1    1    2    0    0  0.45113785489E+01 -0.45419107148E+02  0.30920394600E+02  0.55130015715E+02  0.00000000000E+00 0.  1.
<mgrwt>
<rscale>  0 0.11755431E+03</rscale>
<asrwt>0</asrwt>
<pdfrwt beam="1">  1        1 0.40206110E-01 0.12655778E+03</pdfrwt>
<pdfrwt beam="2">  1       -1 0.82406206E-02 0.12655778E+03</pdfrwt>
<totfact> 0.81028961E+03</totfact>
</mgrwt>
</event>
<event>
 7    1  0.6095443E-006  0.1332768E+03  0.7546771E-02  0.1234804E+00
         -1   -1    0    0    0  501 -0.00000000000E+00  0.00000000000E+00  0.21850790588E+02  0.21850790588E+02  0.00000000000E+00 0.  1.
          1   -1    0    0  501    0  0.00000000000E+00 -0.00000000000E+00 -0.64716325404E+03  0.64716325404E+03  0.00000000000E+00 0. -1.
         23    2    1    2    0    0  0.22178395073E+02 -0.40584968659E+02 -0.37969461573E+03  0.40240614415E+03  0.12499473088E+03 0.  0.
          5    1    3    3  502    0 -0.50534524913E+02 -0.24016451484E+01 -0.15593151317E+03  0.16400071008E+03  0.47000000000E+01 0.  1.
         -5    1    3    3    0  502  0.72712919985E+02 -0.38183323510E+02 -0.22376310255E+03  0.23840543407E+03  0.47000000000E+01 0.  1.
        -11    1    1    2    0    0 -0.69676649118E+01  0.69174431332E+02 -0.14306880297E+03  0.15906706978E+03  0.00000000000E+00 0.  1.
         11    1    1    2    0    0 -0.15210730161E+02 -0.28589462673E+02 -0.10254904476E+03  0.10754083070E+03  0.00000000000E+00 0. -1.
<mgrwt>
<rscale>  0 0.12517000E+03</rscale>
<asrwt>0</asrwt>
<pdfrwt beam="2">  1        1 0.99563556E-01 0.13327679E+03</pdfrwt>
<pdfrwt beam="1">  1       -1 0.33616608E-02 0.13327679E+03</pdfrwt>
<totfact> 0.96240193E+03</totfact>
</mgrwt>
</event>
<event>
 7    1  0.6095443E-006  0.1457063E+03  0.7546771E-02  0.1221836E+00
         -1   -1    0    0    0  501 -0.00000000000E+00  0.00000000000E+00  0.24460942050E+03  0.24460942050E+03  0.00000000000E+00 0.  1.
          1   -1    0    0  501    0  0.00000000000E+00 -0.00000000000E+00 -0.99894861248E+02  0.99894861248E+02  0.00000000000E+00 0. -1.
         23    2    1    2    0    0 -0.10362507493E+02  0.74144942099E+02  0.18295459990E+03  0.23388613492E+03  0.12500193792E+03 0.  0.
          5    1    3    3  502    0  0.17528648201E+02  0.37174218550E+02  0.18271171732E+03  0.18733616223E+03  0.47000000000E+01 0.  1.
         -5    1    3    3    0  502 -0.27891155693E+02  0.36970723549E+02  0.24288257561E+00  0.46549972692E+02  0.47000000000E+01 0.  1.
        -11    1    1    2    0    0  0.45897712139E+01 -0.22562626945E+02  0.21484180812E+02  0.31491398185E+02  0.00000000000E+00 0.  1.
         11    1    1    2    0    0  0.57727362787E+01 -0.51582315154E+02 -0.59724221461E+02  0.79126748637E+02  0.00000000000E+00 0. -1.
<mgrwt>
<rscale>  0 0.13386170E+03</rscale>
<asrwt>0</asrwt>
<pdfrwt beam="2">  1        1 0.15368440E-01 0.14570634E+03</pdfrwt>
<pdfrwt beam="1">  1       -1 0.37632218E-01 0.14570634E+03</pdfrwt>
<totfact> 0.24157386E+03</totfact>
</mgrwt>
</event>
<event>
 7    1  0.6095443E-006  0.1266928E+03  0.7546771E-02  0.1246776E+00
          1   -1    0    0  501    0  0.00000000000E+00  0.00000000000E+00  0.25300682389E+03  0.25300682389E+03  0.00000000000E+00 0. -1.
         -1   -1    0    0    0  501 -0.00000000000E+00 -0.00000000000E+00 -0.48643615888E+02  0.48643615888E+02  0.00000000000E+00 0.  1.
         23    2    1    2    0    0  0.10205422786E+02 -0.17756481759E+02  0.10689548298E+03  0.16576399029E+03  0.12502644879E+03 0.  0.
          5    1    3    3  502    0  0.67190354949E+02 -0.20422288718E+01  0.55885014102E+02  0.87543927820E+02  0.47000000000E+01 0.  1.
         -5    1    3    3    0  502 -0.56984932163E+02 -0.15714252887E+02  0.51010468873E+02  0.78220062465E+02  0.47000000000E+01 0.  1.
        -11    1    1    2    0    0 -0.20126109754E+02  0.48998810520E+00  0.11034860201E+03  0.11217002428E+03  0.00000000000E+00 0. -1.
         11    1    1    2    0    0  0.99206869682E+01  0.17266493654E+02 -0.12880876981E+02  0.23716425212E+02  0.00000000000E+00 0.  1.
<mgrwt>
<rscale>  0 0.11779685E+03</rscale>
<asrwt>0</asrwt>
<pdfrwt beam="1">  1        1 0.38924126E-01 0.12669276E+03</pdfrwt>
<pdfrwt beam="2">  1       -1 0.74836334E-02 0.12669276E+03</pdfrwt>
<totfact> 0.97495963E+03</totfact>
</mgrwt>
</event>
<event>
 7    1  0.6095443E-006  0.2719615E+03  0.7546771E-02  0.1103886E+00
          1   -1    0    0  501    0  0.00000000000E+00  0.00000000000E+00  0.80489893856E+03  0.80489893856E+03  0.00000000000E+00 0. -1.
         -1   -1    0    0    0  501 -0.00000000000E+00 -0.00000000000E+00 -0.11614486489E+03  0.11614486489E+03  0.00000000000E+00 0.  1.
         23    2    1    2    0    0 -0.44381407823E+02  0.23741409179E+03  0.11292435982E+03  0.29447408501E+03  0.12501166089E+03 0.  0.
          5    1    3    3  502    0 -0.92680818826E+01  0.23023933025E+03  0.11633020278E+03  0.25816826415E+03  0.47000000000E+01 0.  1.
         -5    1    3    3    0  502 -0.35113325941E+02  0.71747615430E+01 -0.34058429583E+01  0.36305820857E+02  0.47000000000E+01 0.  1.
        -11    1    1    2    0    0  0.26950281904E+02 -0.14739645325E+03  0.29046236857E+03  0.32683393288E+03  0.00000000000E+00 0.  1.
         11    1    1    2    0    0  0.17431125919E+02 -0.90017638547E+02  0.28536734527E+03  0.29973578556E+03  0.00000000000E+00 0. -1.
<mgrwt>
<rscale>  0 0.26549449E+03</rscale>
<asrwt>0</asrwt>
<pdfrwt beam="1">  1        1 0.12383060E+00 0.27196153E+03</pdfrwt>
<pdfrwt beam="2">  1       -1 0.17868441E-01 0.27196153E+03</pdfrwt>
<totfact> 0.55577562E+02</totfact>
</mgrwt>
</event>
<event>
 7    1  0.6095443E-006  0.1418785E+03  0.7546771E-02  0.1221449E+00
         -1   -1    0    0    0  501 -0.00000000000E+00  0.00000000000E+00  0.43697190593E+02  0.43697190593E+02  0.00000000000E+00 0.  1.
          1   -1    0    0  501    0  0.00000000000E+00 -0.00000000000E+00 -0.38716654939E+03  0.38716654939E+03  0.00000000000E+00 0. -1.
         23    2    1    2    0    0 -0.65834705848E+02  0.13028797777E+02 -0.23166302950E+03  0.27165651639E+03  0.12500218235E+03 0.  0.
          5    1    3    3  502    0 -0.97513498379E+02  0.33617299259E+02 -0.17948244509E+03  0.20706289690E+03  0.47000000000E+01 0. -1.
         -5    1    3    3    0  502  0.31678792532E+02 -0.20588501482E+02 -0.52180584408E+02  0.64593619489E+02  0.47000000000E+01 0. -1.
        -11    1    1    2    0    0  0.59554060146E+02  0.61619717012E+01 -0.16949385534E+02  0.62224895702E+02  0.00000000000E+00 0.  1.
         11    1    1    2    0    0  0.62806457014E+01 -0.19190769479E+02 -0.94856943761E+02  0.96982327892E+02  0.00000000000E+00 0. -1.
<mgrwt>
<rscale>  0 0.13413268E+03</rscale>
<asrwt>0</asrwt>
<pdfrwt beam="2">  1        1 0.59564086E-01 0.14187848E+03</pdfrwt>
<pdfrwt beam="1">  1       -1 0.67226445E-02 0.14187848E+03</pdfrwt>
<totfact> 0.68059956E+03</totfact>
</mgrwt>
</event>
<event>
 7    1  0.6095443E-006  0.1380642E+03  0.7546771E-02  0.1226897E+00
          1   -1    0    0  501    0  0.00000000000E+00  0.00000000000E+00  0.52031858702E+02  0.52031858702E+02  0.00000000000E+00 0. -1.
         -1   -1    0    0    0  501 -0.00000000000E+00 -0.00000000000E+00 -0.35964738773E+03  0.35964738773E+03  0.00000000000E+00 0.  1.
         23    2    1    2    0    0 -0.16016383701E+02 -0.56397643517E+02 -0.25489821928E+03  0.28988760421E+03  0.12499800855E+03 0.  0.
          5    1    3    3  502    0  0.24245940629E+01 -0.21240425286E+02  0.84937114536E+01  0.23479085522E+02  0.47000000000E+01 0. -1.
         -5    1    3    3    0  502 -0.18440977764E+02 -0.35157218231E+02 -0.26339193073E+03  0.26640851869E+03  0.47000000000E+01 0. -1.
        -11    1    1    2    0    0 -0.13610842071E+02  0.73993045181E+02 -0.33746187137E+02  0.82456236292E+02  0.00000000000E+00 0.  1.
         11    1    1    2    0    0  0.29627225772E+02 -0.17595401664E+02 -0.18971122615E+02  0.39335405934E+02  0.00000000000E+00 0. -1.
<mgrwt>
<rscale>  0 0.13037748E+03</rscale>
<asrwt>0</asrwt>
<pdfrwt beam="1">  1        1 0.80049012E-02 0.13806419E+03</pdfrwt>
<pdfrwt beam="2">  1       -1 0.55330368E-01 0.13806419E+03</pdfrwt>
<totfact> 0.28491461E+03</totfact>
</mgrwt>
</event>
<event>
 6    1  0.6095443E-006  0.1513706E+03  0.7546771E-02  0.1216955E+00
         -2   -1    0    0    0  501 -0.00000000000E+00  0.00000000000E+00  0.39182929886E+02  0.39182929886E+02  0.00000000000E+00 0.  1.
          2   -1    0    0  501    0  0.00000000000E+00 -0.00000000000E+00 -0.47658440788E+03  0.47658440788E+03  0.00000000000E+00 0. -1.
          5    1    1    2  502    0  0.40948771201E+02 -0.43894511863E+02 -0.14807203314E+03  0.15984663597E+03  0.47000000000E+01 0. -1.
         -5    1    1    2    0  502  0.21850284235E+01  0.59628204524E+02 -0.13113333419E+02  0.61272723436E+02  0.47000000000E+01 0.  1.
        -11    1    1    2    0    0 -0.17793095707E+02  0.32231308745E+02 -0.18410128253E+03  0.18774646135E+03  0.00000000000E+00 0.  1.
         11    1    1    2    0    0 -0.25340703918E+02 -0.47965001406E+02 -0.92114828911E+02  0.10690151702E+03  0.00000000000E+00 0. -1.
<mgrwt>
<rscale>  0 0.13733899E+03</rscale>
<asrwt>0</asrwt>
<pdfrwt beam="2">  1        2 0.73320676E-01 0.15137057E+03</pdfrwt>
<pdfrwt beam="1">  1       -2 0.60281433E-02 0.15137057E+03</pdfrwt>
<totfact> 0.92677474E+03</totfact>
</mgrwt>
</event>
<event>
 7    1  0.6095443E-006  0.1303441E+03  0.7546771E-02  0.1240255E+00
         -4   -1    0    0    0  501 -0.00000000000E+00  0.00000000000E+00  0.18781739201E+02  0.18781739201E+02  0.00000000000E+00 0.  1.
          4   -1    0    0  501    0  0.00000000000E+00 -0.00000000000E+00 -0.70651959778E+03  0.70651959778E+03  0.00000000000E+00 0. -1.
         23    2    1    2    0    0 -0.17644412745E+02  0.32499543756E+02 -0.35921315594E+03  0.38213042780E+03  0.12498810666E+03 0.  0.
          5    1    3    3  502    0  0.28248476819E+01 -0.43329408280E+02 -0.19775084715E+03  0.20251643127E+03  0.47000000000E+01 0. -1.
         -5    1    3    3    0  502 -0.20469260427E+02  0.75828952036E+02 -0.16146230878E+03  0.17961399652E+03  0.47000000000E+01 0. -1.
        -11    1    1    2    0    0  0.69098186222E+01  0.32244678311E+02 -0.12801334361E+03  0.13219259062E+03  0.00000000000E+00 0. -1.
         11    1    1    2    0    0  0.10734594123E+02 -0.64744222067E+02 -0.20051135902E+03  0.21097831855E+03  0.00000000000E+00 0.  1.
<mgrwt>
<rscale>  0 0.12173925E+03</rscale>
<asrwt>0</asrwt>
<pdfrwt beam="2">  1        4 0.10869531E+00 0.13034405E+03</pdfrwt>
<pdfrwt beam="1">  1       -4 0.28894986E-02 0.13034405E+03</pdfrwt>
<totfact> 0.66269606E+02</totfact>
</mgrwt>
</event>
<event>
 7    1  0.6095443E-006  0.1475992E+03  0.7546771E-02  0.1213546E+00
          1   -1    0    0  501    0  0.00000000000E+00  0.00000000000E+00  0.23438571868E+03  0.23438571868E+03  0.00000000000E+00 0. -1.
         -1   -1    0    0    0  501 -0.00000000000E+00 -0.00000000000E+00 -0.97803951364E+02  0.97803951364E+02  0.00000000000E+00 0.  1.
         23    2    1    2    0    0 -0.35346154756E+02 -0.70093730899E+02 -0.45065617383E+01  0.14766796745E+03  0.12499215073E+03 0.  0.
          5    1    3    3  502    0  0.45795705325E+02 -0.15140801927E+02  0.66806557554E+01  0.48920462697E+02  0.47000000000E+01 0.  1.
         -5    1    3    3    0  502 -0.81141860081E+02 -0.54952928972E+02 -0.11187217494E+02  0.98747504754E+02  0.47000000000E+01 0.  1.
        -11    1    1    2    0    0  0.52916098749E+02  0.30796359912E+02  0.36158280903E+02  0.71105207745E+02  0.00000000000E+00 0.  1.
         11    1    1    2    0    0 -0.17569943993E+02  0.39297370987E+02  0.10493004815E+03  0.11341649484E+03  0.00000000000E+00 0. -1.
<mgrwt>
<rscale>  0 0.13983894E+03</rscale>
<asrwt>0</asrwt>
<pdfrwt beam="1">  1        1 0.36059341E-01 0.14759919E+03</pdfrwt>
<pdfrwt beam="2">  1       -1 0.15046762E-01 0.14759919E+03</pdfrwt>
<totfact> 0.37090853E+03</totfact>
</mgrwt>
</event>
<event>
 7    1  0.6095443E-006  0.1894751E+03  0.7546771E-02  0.1163175E+00
          2   -1    0    0  501    0  0.00000000000E+00  0.00000000000E+00  0.31361765239E+03  0.31361765239E+03  0.00000000000E+00 0. -1.
         -2   -1    0    0    0  501 -0.00000000000E+00 -0.00000000000E+00 -0.11799759488E+03  0.11799759488E+03  0.00000000000E+00 0.  1.
         23    2    1    2    0    0 -0.13073213163E+03 -0.56422884033E+02  0.27769022113E+02  0.19149918964E+03  0.12500555572E+03 0.  0.
          5    1    3    3  502    0 -0.47677289056E+02 -0.70592601724E+02  0.56533745373E+02  0.10234546241E+03  0.47000000000E+01 0.  1.
         -5    1    3    3    0  502 -0.83054842579E+02  0.14169717691E+02 -0.28764723261E+02  0.89153727233E+02  0.47000000000E+01 0.  1.
        -11    1    1    2    0    0  0.61201157964E+02  0.77615636615E+02  0.91395842064E+02  0.13462157602E+03  0.00000000000E+00 0.  1.
         11    1    1    2    0    0  0.69530973670E+02 -0.21192752581E+02  0.76455193333E+02  0.10549448160E+03  0.00000000000E+00 0. -1.
<mgrwt>
<rscale>  0 0.18486654E+03</rscale>
<asrwt>0</asrwt>
<pdfrwt beam="1">  1        2 0.48248869E-01 0.18947512E+03</pdfrwt>
<pdfrwt beam="2">  1       -2 0.18153476E-01 0.18947512E+03</pdfrwt>
<totfact> 0.25466566E+03</totfact>
</mgrwt>
</event>
<event>
 7    1  0.6095443E-006  0.1803658E+03  0.7546771E-02  0.1173066E+00
         -2   -1    0    0    0  501 -0.00000000000E+00  0.00000000000E+00  0.27264856760E+02  0.27264856760E+02  0.00000000000E+00 0.  1.
          2   -1    0    0  501    0  0.00000000000E+00 -0.00000000000E+00 -0.10725669307E+04  0.10725669307E+04  0.00000000000E+00 0. -1.
         23    2    1    2    0    0 -0.94673915130E+02  0.89116052905E+02 -0.62832544348E+03  0.65370074846E+03  0.12500793787E+03 0.  0.
          5    1    3    3  502    0 -0.13651032209E+01  0.86185224106E+02 -0.32766238580E+03  0.33884286244E+03  0.47000000000E+01 0.  1.
         -5    1    3    3    0  502 -0.93308811909E+02  0.29308287994E+01 -0.30066305768E+03  0.31485788602E+03  0.47000000000E+01 0.  1.
        -11    1    1    2    0    0  0.25424406243E+02  0.17291080776E+02 -0.63641237825E+02  0.70679481175E+02  0.00000000000E+00 0.  1.
         11    1    1    2    0    0  0.69249508887E+02 -0.10640713368E+03 -0.35333539261E+03  0.37545155780E+03  0.00000000000E+00 0. -1.
<mgrwt>
<rscale>  0 0.17466734E+03</rscale>
<asrwt>0</asrwt>
<pdfrwt beam="2">  1        2 0.16501028E+00 0.18036576E+03</pdfrwt>
<pdfrwt beam="1">  1       -2 0.41945938E-02 0.18036576E+03</pdfrwt>
<totfact> 0.59779438E+03</totfact>
</mgrwt>
</event>
<event>
 7    1  0.6095443E-006  0.1260618E+03  0.7546771E-02  0.1249314E+00
          2   -1    0    0  501    0  0.00000000000E+00  0.00000000000E+00  0.35492225909E+02  0.35492225909E+02  0.00000000000E+00 0.  1.
         -2   -1    0    0    0  501 -0.00000000000E+00 -0.00000000000E+00 -0.35041021998E+03  0.35041021998E+03  0.00000000000E+00 0. -1.
         23    2    1    2    0    0  0.53138758397E-01  0.16317045742E+02 -0.22390839138E+03  0.25695633260E+03  0.12500136131E+03 0.  0.
          5    1    3    3  502    0  0.60826777977E+02  0.89699284578E+01 -0.84317034480E+02  0.10445960386E+03  0.47000000000E+01 0.  1.
         -5    1    3    3    0  502 -0.60773639218E+02  0.73471172843E+01 -0.13959135690E+03  0.15249672874E+03  0.47000000000E+01 0.  1.
        -11    1    1    2    0    0  0.37283407344E+02  0.13476864828E+02 -0.22985512488E+02  0.45825889333E+02  0.00000000000E+00 0.  1.
         11    1    1    2    0    0 -0.37336546103E+02 -0.29793910570E+02 -0.68024090207E+02  0.83120223956E+02  0.00000000000E+00 0. -1.
<mgrwt>
<rscale>  0 0.11630860E+03</rscale>
<asrwt>0</asrwt>
<pdfrwt beam="1">  1        2 0.54603424E-02 0.12606185E+03</pdfrwt>
<pdfrwt beam="2">  1       -2 0.53909265E-01 0.12606185E+03</pdfrwt>
<totfact> 0.43604017E+03</totfact>
</mgrwt>
</event>
<event>
 7    1  0.6095443E-006  0.1396828E+03  0.7546771E-02  0.1225263E+00
          2   -1    0    0  501    0  0.00000000000E+00  0.00000000000E+00  0.48138709604E+03  0.48138709604E+03  0.00000000000E+00 0. -1.
         -2   -1    0    0    0  501 -0.00000000000E+00 -0.00000000000E+00 -0.36465436249E+02  0.36465436249E+02  0.00000000000E+00 0.  1.
         23    2    1    2    0    0 -0.56868132410E+02  0.25547495389E+02  0.15914329683E+03  0.21174952867E+03  0.12499845983E+03 0.  0.
          5    1    3    3  502    0 -0.12319663816E+02  0.27801466664E+02  0.16379175418E+03  0.16665690625E+03  0.47000000000E+01 0.  1.
         -5    1    3    3    0  502 -0.44548468594E+02 -0.22539712749E+01 -0.46484573447E+01  0.45092622415E+02  0.47000000000E+01 0.  1.
        -11    1    1    2    0    0  0.33687889896E+02 -0.31378008323E+02  0.27674907541E+03  0.28055214145E+03  0.00000000000E+00 0. -1.
         11    1    1    2    0    0  0.23180242513E+02  0.58305129347E+01  0.90292875490E+01  0.25550862171E+02  0.00000000000E+00 0.  1.
<mgrwt>
<rscale>  0 0.13148896E+03</rscale>
<asrwt>0</asrwt>
<pdfrwt beam="1">  1        2 0.74059548E-01 0.13968276E+03</pdfrwt>
<pdfrwt beam="2">  1       -2 0.56100675E-02 0.13968276E+03</pdfrwt>
<totfact> 0.10167167E+04</totfact>
</mgrwt>
</event>
<event>
 6    1  0.6095443E-006  0.1918593E+03  0.7546771E-02  0.1168253E+00
          2   -1    0    0  501    0  0.00000000000E+00  0.00000000000E+00  0.41617444235E+03  0.41617444235E+03  0.00000000000E+00 0. -1.
         -2   -1    0    0    0  501 -0.00000000000E+00 -0.00000000000E+00 -0.75296207980E+02  0.75296207980E+02  0.00000000000E+00 0.  1.
          5    1    1    2  502    0  0.60254637091E+01  0.58680906990E+02  0.14817422423E+03  0.15955389617E+03  0.47000000000E+01 0. -1.
         -5    1    1    2    0  502 -0.29384357062E+02  0.53519448215E+02 -0.27471354146E+02  0.67115848171E+02  0.47000000000E+01 0.  1.
        -11    1    1    2    0    0  0.26375559674E+02 -0.12816188095E+03  0.19441737081E+03  0.23434856934E+03  0.00000000000E+00 0.  1.
         11    1    1    2    0    0 -0.30166663213E+01  0.15961525741E+02  0.25757993479E+02  0.30452336655E+02  0.00000000000E+00 0. -1.
<mgrwt>
<rscale>  0 0.17953542E+03</rscale>
<asrwt>0</asrwt>
<pdfrwt beam="1">  1        2 0.64026836E-01 0.19185930E+03</pdfrwt>
<pdfrwt beam="2">  1       -2 0.11584032E-01 0.19185930E+03</pdfrwt>
<totfact> 0.39283488E+03</totfact>
</mgrwt>
</event>
<event>
 7    1  0.6095443E-006  0.1596003E+03  0.7546771E-02  0.1195268E+00
          3   -1    0    0  501    0  0.00000000000E+00  0.00000000000E+00  0.29812544180E+03  0.29812544180E+03  0.00000000000E+00 0. -1.
         -3   -1    0    0    0  501 -0.00000000000E+00 -0.00000000000E+00 -0.75674172138E+02  0.75674172138E+02  0.00000000000E+00 0.  1.
         23    2    1    2    0    0 -0.73275502436E+02 -0.66935845563E+02  0.10121451117E+03  0.18898844914E+03  0.12499019944E+03 0.  0.
          5    1    3    3  502    0 -0.46222225187E+02  0.13402848420E+02  0.91553862417E+02  0.10353902728E+03  0.47000000000E+01 0.  1.
         -5    1    3    3    0  502 -0.27053277249E+02 -0.80338693983E+02  0.96606487553E+01  0.85449421854E+02  0.47000000000E+01 0.  1.
        -11    1    1    2    0    0  0.16873147988E+02  0.53407089345E+01  0.95922409429E+02  0.97541452345E+02  0.00000000000E+00 0. -1.
         11    1    1    2    0    0  0.56402354448E+02  0.61595136629E+02  0.25314349059E+02  0.87269712454E+02  0.00000000000E+00 0.  1.
<mgrwt>
<rscale>  0 0.15431539E+03</rscale>
<asrwt>0</asrwt>
<pdfrwt beam="1">  1        3 0.45865452E-01 0.15960030E+03</pdfrwt>
<pdfrwt beam="2">  1       -3 0.11642181E-01 0.15960030E+03</pdfrwt>
<totfact> 0.64352378E+02</totfact>
</mgrwt>
</event>
<event>
 7    1  0.6095443E-006  0.1173863E+03  0.7546771E-02  0.1254462E+00
         -1   -1    0    0    0  501 -0.00000000000E+00  0.00000000000E+00  0.29153800463E+03  0.29153800463E+03  0.00000000000E+00 0.  1.
          1   -1    0    0  501    0  0.00000000000E+00 -0.00000000000E+00 -0.42207591912E+02  0.42207591912E+02  0.00000000000E+00 0. -1.
         23    2    1    2    0    0  0.40390237137E+02  0.35498957563E+01  0.15738526622E+03  0.19634068969E+03  0.11016156947E+03 0.  0.
          5    1    3    3  502    0 -0.10011171923E+02 -0.32156522403E+02  0.84542746612E+01  0.35040408907E+02  0.47000000000E+01 0. -1.
         -5    1    3    3    0  502  0.50401409060E+02  0.35706418159E+02  0.14893099156E+03  0.16130028078E+03  0.47000000000E+01 0.  1.
        -11    1    1    2    0    0 -0.44615358639E+02  0.38931569136E+02  0.49107256954E+02  0.76926718293E+02  0.00000000000E+00 0.  1.
         11    1    1    2    0    0  0.42251215017E+01 -0.42481464893E+02  0.42837889546E+02  0.60478188563E+02  0.00000000000E+00 0. -1.
<mgrwt>
<rscale>  0 0.11336496E+03</rscale>
<asrwt>0</asrwt>
<pdfrwt beam="2">  1        1 0.64934759E-02 0.11738630E+03</pdfrwt>
<pdfrwt beam="1">  1       -1 0.44851999E-01 0.11738630E+03</pdfrwt>
<totfact> 0.54776114E+03</totfact>
</mgrwt>
</event>
<event>
 6    1  0.6095443E-006  0.3304275E+03  0.7546771E-02  0.1118008E+00
          2   -1    0    0  501    0  0.00000000000E+00  0.00000000000E+00  0.16014369967E+04  0.16014369967E+04  0.00000000000E+00 0. -1.
         -2   -1    0    0    0  501 -0.00000000000E+00 -0.00000000000E+00 -0.28435671590E+02  0.28435671590E+02  0.00000000000E+00 0.  1.
          5    1    1    2  502    0  0.70820434764E+01  0.31956843878E+02  0.12167630960E+04  0.12172123550E+04  0.47000000000E+01 0. -1.
         -5    1    1    2    0  502  0.12108016919E+02 -0.87842420168E+01 -0.19378647013E+02  0.24927674211E+02  0.47000000000E+01 0.  1.
        -11    1    1    2    0    0 -0.24833426211E+02  0.31212523687E+02  0.19426756408E+03  0.19831996154E+03  0.00000000000E+00 0. -1.
         11    1    1    2    0    0  0.56433658148E+01 -0.54385125547E+02  0.18134931202E+03  0.18941267758E+03  0.00000000000E+00 0.  1.
<mgrwt>
<rscale>  0 0.24269812E+03</rscale>
<asrwt>0</asrwt>
<pdfrwt beam="1">  1        2 0.24637485E+00 0.33042750E+03</pdfrwt>
<pdfrwt beam="2">  1       -2 0.43747200E-02 0.33042750E+03</pdfrwt>
<totfact> 0.28886297E+03</totfact>
</mgrwt>
</event>
<event>
 7    1  0.6095443E-006  0.1296148E+03  0.7546771E-02  0.1242020E+00
         -2   -1    0    0    0  501 -0.00000000000E+00  0.00000000000E+00  0.25023015156E+03  0.25023015156E+03  0.00000000000E+00 0. -1.
          2   -1    0    0  501    0  0.00000000000E+00 -0.00000000000E+00 -0.57671111473E+02  0.57671111473E+02  0.00000000000E+00 0.  1.
         23    2    1    2    0    0  0.26469395940E+02 -0.21740464668E+02  0.15859241917E+03  0.20482078478E+03  0.12500688676E+03 0.  0.
          5    1    3    3  502    0  0.61211660734E+00 -0.25394521127E+02  0.17280161747E+03  0.17472190873E+03  0.47000000000E+01 0.  1.
         -5    1    3    3    0  502  0.25857279333E+02  0.36540564593E+01 -0.14209198304E+02  0.30098876051E+02  0.47000000000E+01 0.  1.
        -11    1    1    2    0    0 -0.24818129517E+02  0.38863735209E+02 -0.17110421561E+02  0.49184306371E+02  0.00000000000E+00 0.  1.
         11    1    1    2    0    0 -0.16512664229E+01 -0.17123270541E+02  0.51077042483E+02  0.53896171883E+02  0.00000000000E+00 0. -1.
<mgrwt>
<rscale>  0 0.12065500E+03</rscale>
<asrwt>0</asrwt>
<pdfrwt beam="2">  1        2 0.88724789E-02 0.12961481E+03</pdfrwt>
<pdfrwt beam="1">  1       -2 0.38496946E-01 0.12961481E+03</pdfrwt>
<totfact> 0.45349710E+03</totfact>
</mgrwt>
</event>
<event>
 7    1  0.6095443E-006  0.1298168E+03  0.7546771E-02  0.1244512E+00
          1   -1    0    0  501    0  0.00000000000E+00  0.00000000000E+00  0.45276546560E+03  0.45276546560E+03  0.00000000000E+00 0. -1.
         -1   -1    0    0    0  501 -0.00000000000E+00 -0.00000000000E+00 -0.28609195737E+02  0.28609195737E+02  0.00000000000E+00 0.  1.
         23    2    1    2    0    0 -0.56442459589E+01  0.34591648778E+02  0.19357011511E+03  0.23307037354E+03  0.12499587946E+03 0.  0.
          5    1    3    3  502    0 -0.23854412043E+01  0.35934577962E+02 -0.29720170700E+01  0.36440459773E+02  0.47000000000E+01 0. -1.
         -5    1    3    3    0  502 -0.32588047546E+01 -0.13429291839E+01  0.19654213218E+03  0.19662991377E+03  0.47000000000E+01 0. -1.
        -11    1    1    2    0    0  0.37709266684E+02 -0.12361992830E+02  0.51492830707E+02  0.65010147475E+02  0.00000000000E+00 0.  1.
         11    1    1    2    0    0 -0.32065020725E+02 -0.22229655948E+02  0.17909332404E+03  0.18329414031E+03  0.00000000000E+00 0. -1.
<mgrwt>
<rscale>  0 0.11914615E+03</rscale>
<asrwt>0</asrwt>
<pdfrwt beam="1">  1        1 0.69656220E-01 0.12981683E+03</pdfrwt>
<pdfrwt beam="2">  1       -1 0.44014151E-02 0.12981683E+03</pdfrwt>
<totfact> 0.10401930E+04</totfact>
</mgrwt>
</event>
<event>
 7    1  0.6095443E-006  0.1677680E+03  0.7546771E-02  0.1186999E+00
          2   -1    0    0  501    0  0.00000000000E+00  0.00000000000E+00  0.12425388457E+03  0.12425388457E+03  0.00000000000E+00 0. -1.
         -2   -1    0    0    0  501 -0.00000000000E+00 -0.00000000000E+00 -0.20404516984E+03  0.20404516984E+03  0.00000000000E+00 0.  1.
         23    2    1    2    0    0 -0.12253174746E+02 -0.11121887405E+03 -0.75885108379E+02  0.18413214043E+03  0.12500526881E+03 0.  0.
          5    1    3    3  502    0 -0.13310773632E+02 -0.12685545420E+03 -0.94896015147E+02  0.15904976154E+03  0.47000000000E+01 0. -1.
         -5    1    3    3    0  502  0.10575988867E+01  0.15636580157E+02  0.19010906767E+02  0.25082378885E+02  0.47000000000E+01 0. -1.
        -11    1    1    2    0    0  0.11624377412E+02  0.27031305457E+02  0.39651375739E+02  0.49376606029E+02  0.00000000000E+00 0. -1.
         11    1    1    2    0    0  0.62879733358E+00  0.84187568590E+02 -0.43557552635E+02  0.94790307958E+02  0.00000000000E+00 0.  1.
<mgrwt>
<rscale>  0 0.16151332E+03</rscale>
<asrwt>0</asrwt>
<pdfrwt beam="1">  1        2 0.19115982E-01 0.16776798E+03</pdfrwt>
<pdfrwt beam="2">  1       -2 0.31391564E-01 0.16776798E+03</pdfrwt>
<totfact> 0.26860429E+03</totfact>
</mgrwt>
</event>
<event>
 7    1  0.6095443E-006  0.1305871E+03  0.7546771E-02  0.1239413E+00
          1   -1    0    0  501    0  0.00000000000E+00  0.00000000000E+00  0.25197507437E+02  0.25197507437E+02  0.00000000000E+00 0. -1.
         -1   -1    0    0    0  501 -0.00000000000E+00 -0.00000000000E+00 -0.52936076641E+03  0.52936076641E+03  0.00000000000E+00 0.  1.
         23    2    1    2    0    0  0.34911904527E+02 -0.14416485615E+02 -0.29154610605E+03  0.31945598916E+03  0.12500528356E+03 0.  0.
          5    1    3    3  502    0 -0.21100074133E+02  0.12615189318E+02 -0.41509690629E+01  0.25370783868E+02  0.47000000000E+01 0. -1.
         -5    1    3    3    0  502  0.56011978660E+02 -0.27031674933E+02 -0.28739513699E+03  0.29408520529E+03  0.47000000000E+01 0. -1.
        -11    1    1    2    0    0 -0.35439162137E+02 -0.34957027040E+02 -0.12470119715E+03  0.13426956663E+03  0.00000000000E+00 0.  1.
         11    1    1    2    0    0  0.52725761010E+00  0.49373512655E+02 -0.87915955761E+02  0.10083271805E+03  0.00000000000E+00 0. -1.
<mgrwt>
<rscale>  0 0.12226100E+03</rscale>
<asrwt>0</asrwt>
<pdfrwt beam="1">  1        1 0.38765396E-02 0.13058712E+03</pdfrwt>
<pdfrwt beam="2">  1       -1 0.81440118E-01 0.13058712E+03</pdfrwt>
<totfact> 0.35780006E+03</totfact>
</mgrwt>
</event>
<event>
 7    1  0.6095443E-006  0.1397501E+03  0.7546771E-02  0.1224217E+00
         -1   -1    0    0    0  501 -0.00000000000E+00  0.00000000000E+00  0.15031267725E+03  0.15031267725E+03  0.00000000000E+00 0.  1.
          1   -1    0    0  501    0  0.00000000000E+00 -0.00000000000E+00 -0.10650608874E+03  0.10650608874E+03  0.00000000000E+00 0. -1.
         23    2    1    2    0    0  0.52557330064E+02 -0.33964245090E+02  0.37568843304E+02  0.14471184153E+03  0.12495701743E+03 0.  0.
          5    1    3    3  502    0  0.84698459790E+02  0.25192433063E+01  0.30931004045E+01  0.84922511431E+02  0.47000000000E+01 0.  1.
         -5    1    3    3    0  502 -0.32141129726E+02 -0.36483488396E+02  0.34475742900E+02  0.59789330102E+02  0.47000000000E+01 0.  1.
        -11    1    1    2    0    0  0.14919331798E+01  0.24378405465E+02 -0.35540715235E+02  0.43123948765E+02  0.00000000000E+00 0. -1.
         11    1    1    2    0    0 -0.54049263243E+02  0.95858396245E+01  0.41778460437E+02  0.68982975690E+02  0.00000000000E+00 0.  1.
<mgrwt>
<rscale>  0 0.13220685E+03</rscale>
<asrwt>0</asrwt>
<pdfrwt beam="2">  1        1 0.16385552E-01 0.13975013E+03</pdfrwt>
<pdfrwt beam="1">  1       -1 0.23125027E-01 0.13975013E+03</pdfrwt>
<totfact> 0.50285086E+03</totfact>
</mgrwt>
</event>
<event>
 7    1  0.6095443E-006  0.2163782E+03  0.7546771E-02  0.1140556E+00
         -2   -1    0    0    0  501 -0.00000000000E+00  0.00000000000E+00  0.46385994879E+02  0.46385994879E+02  0.00000000000E+00 0. -1.
          2   -1    0    0  501    0  0.00000000000E+00 -0.00000000000E+00 -0.96119478055E+03  0.96119478055E+03  0.00000000000E+00 0.  1.
         23    2    1    2    0    0  0.17298621547E+03 -0.35663704274E+02 -0.37359252098E+03  0.43173010323E+03  0.12499351885E+03 0.  0.
          5    1    3    3  502    0  0.12564655188E+03 -0.69150113995E+02 -0.32733116872E+03  0.35740254375E+03  0.47000000000E+01 0.  1.
         -5    1    3    3    0  502  0.47339663585E+02  0.33486409721E+02 -0.46261352265E+02  0.74327559476E+02  0.47000000000E+01 0.  1.
        -11    1    1    2    0    0 -0.97599703365E+02 -0.23222207913E+02 -0.30146499579E+03  0.31772018621E+03  0.00000000000E+00 0.  1.
         11    1    1    2    0    0 -0.75386512102E+02  0.58885912187E+02 -0.23975126890E+03  0.25813048600E+03  0.00000000000E+00 0. -1.
<mgrwt>
<rscale>  0 0.21128003E+03</rscale>
<asrwt>0</asrwt>
<pdfrwt beam="2">  1        2 0.14787610E+00 0.21637817E+03</pdfrwt>
<pdfrwt beam="1">  1       -2 0.71363076E-02 0.21637817E+03</pdfrwt>
<totfact> 0.31209189E+03</totfact>
</mgrwt>
</event>
<event>
 7    1  0.6095443E-006  0.1517090E+03  0.7546771E-02  0.1206827E+00
         -1   -1    0    0    0  501 -0.00000000000E+00  0.00000000000E+00  0.13152069471E+03  0.13152069471E+03  0.00000000000E+00 0.  1.
          1   -1    0    0  501    0  0.00000000000E+00 -0.00000000000E+00 -0.17684872516E+03  0.17684872516E+03  0.00000000000E+00 0. -1.
         23    2    1    2    0    0 -0.57591979934E+02 -0.63839927440E+02  0.38719510839E+02  0.15657211329E+03  0.12499301442E+03 0.  0.
          5    1    3    3  502    0 -0.95428386513E+02 -0.29209792389E+02  0.20915059057E+02  0.10207506365E+03  0.47000000000E+01 0. -1.
         -5    1    3    3    0  502  0.37836406578E+02 -0.34630135051E+02  0.17804451782E+02  0.54497049642E+02  0.47000000000E+01 0. -1.
        -11    1    1    2    0    0 -0.12767427971E+02  0.43044886186E+02 -0.59274902027E+02  0.74359824194E+02  0.00000000000E+00 0. -1.
         11    1    1    2    0    0  0.70359407905E+02  0.20795041253E+02 -0.24772639263E+02  0.77437482382E+02  0.00000000000E+00 0.  1.
<mgrwt>
<rscale>  0 0.14494403E+03</rscale>
<asrwt>0</asrwt>
<pdfrwt beam="2">  1        1 0.27207496E-01 0.15170902E+03</pdfrwt>
<pdfrwt beam="1">  1       -1 0.20233953E-01 0.15170902E+03</pdfrwt>
<totfact> 0.32938234E+03</totfact>
</mgrwt>
</event>
<event>
 6    1  0.6095443E-006  0.1423063E+03  0.7546771E-02  0.1222773E+00
         -2   -1    0    0    0  501 -0.00000000000E+00  0.00000000000E+00  0.77963218749E+02  0.77963218749E+02  0.00000000000E+00 0.  1.
          2   -1    0    0  501    0  0.00000000000E+00 -0.00000000000E+00 -0.25067572827E+03  0.25067572827E+03  0.00000000000E+00 0. -1.
          5    1    1    2  502    0 -0.39251901780E+02 -0.45704862225E+02 -0.62683783914E+02  0.87068897950E+02  0.47000000000E+01 0. -1.
         -5    1    1    2    0  502  0.40781499183E+02 -0.11271797455E+02  0.38356505571E+02  0.57301794153E+02  0.47000000000E+01 0.  1.
        -11    1    1    2    0    0 -0.29699983385E+02 -0.14034255672E+02 -0.45846176459E+02  0.56399656393E+02  0.00000000000E+00 0.  1.
         11    1    1    2    0    0  0.28170385982E+02  0.71010915353E+02 -0.10253905472E+03  0.12786859852E+03  0.00000000000E+00 0. -1.
<mgrwt>
<rscale>  0 0.13320736E+03</rscale>
<asrwt>0</asrwt>
<pdfrwt beam="2">  1        2 0.38565496E-01 0.14230629E+03</pdfrwt>
<pdfrwt beam="1">  1       -2 0.11994342E-01 0.14230629E+03</pdfrwt>
<totfact> 0.62905031E+03</totfact>
</mgrwt>
</event>
<event>
 7    1  0.6095443E-006  0.1843377E+03  0.7546771E-02  0.1168936E+00
          1   -1    0    0  501    0  0.00000000000E+00  0.00000000000E+00  0.50848817765E+02  0.50848817765E+02  0.00000000000E+00 0. -1.
         -1   -1    0    0    0  501 -0.00000000000E+00 -0.00000000000E+00 -0.79337100727E+03  0.79337100727E+03  0.00000000000E+00 0.  1.
         23    2    1    2    0    0 -0.12181398577E+03  0.59305614721E+02 -0.59933385683E+03  0.62704184057E+03  0.12499837927E+03 0.  0.
          5    1    3    3  502    0 -0.19737955619E+02 -0.76022182855E+01 -0.77979595812E+01  0.23027782970E+02  0.47000000000E+01 0. -1.
         -5    1    3    3    0  502 -0.10207603015E+03  0.66907833007E+02 -0.59153589725E+03  0.60401405760E+03  0.47000000000E+01 0. -1.
        -11    1    1    2    0    0 -0.11634820462E+02 -0.20008394113E+02 -0.12497662240E+02  0.26303924491E+02  0.00000000000E+00 0.  1.
         11    1    1    2    0    0  0.13344880623E+03 -0.39297220608E+02 -0.13069067044E+03  0.19087405997E+03  0.00000000000E+00 0. -1.
<mgrwt>
<rscale>  0 0.17883399E+03</rscale>
<asrwt>0</asrwt>
<pdfrwt beam="1">  1        1 0.78228958E-02 0.18433773E+03</pdfrwt>
<pdfrwt beam="2">  1       -1 0.12205707E+00 0.18433773E+03</pdfrwt>
<totfact> 0.56790310E+02</totfact>
</mgrwt>
</event>
<event>
 7    1  0.6095443E-006  0.1375139E+03  0.7546771E-02  0.1228843E+00
          2   -1    0    0  501    0  0.00000000000E+00  0.00000000000E+00  0.28264000389E+03  0.28264000389E+03  0.00000000000E+00 0. -1.
         -2   -1    0    0    0  501 -0.00000000000E+00 -0.00000000000E+00 -0.53025546604E+02  0.53025546604E+02  0.00000000000E+00 0.  1.
         23    2    1    2    0    0 -0.44114447937E+02 -0.36590443772E+02  0.14093580903E+03  0.19690850992E+03  0.12500045569E+03 0.  0.
          5    1    3    3  502    0  0.13494444645E+02 -0.67858970420E+02  0.90793415811E+02  0.11424742561E+03  0.47000000000E+01 0.  1.
         -5    1    3    3    0  502 -0.57608892581E+02  0.31268526648E+02  0.50142393219E+02  0.82661084320E+02  0.47000000000E+01 0.  1.
        -11    1    1    2    0    0 -0.27640826428E+02  0.15750589207E+02  0.22771594022E+02  0.39123418055E+02  0.00000000000E+00 0. -1.
         11    1    1    2    0    0  0.71755274364E+02  0.20839854565E+02  0.65907054230E+02  0.99633622511E+02  0.00000000000E+00 0.  1.
<mgrwt>
<rscale>  0 0.12906945E+03</rscale>
<asrwt>0</asrwt>
<pdfrwt beam="1">  1        2 0.43483076E-01 0.13751385E+03</pdfrwt>
<pdfrwt beam="2">  1       -2 0.81577766E-02 0.13751385E+03</pdfrwt>
<totfact> 0.10123757E+04</totfact>
</mgrwt>
</event>
<event>
 7    1  0.6095443E-006  0.1349102E+03  0.7546771E-02  0.1231887E+00
         -1   -1    0    0    0  501 -0.00000000000E+00  0.00000000000E+00  0.12835496201E+03  0.12835496201E+03  0.00000000000E+00 0.  1.
          1   -1    0    0  501    0  0.00000000000E+00 -0.00000000000E+00 -0.25081178943E+03  0.25081178943E+03  0.00000000000E+00 0. -1.
         23    2    1    2    0    0 -0.28020006903E+02 -0.42353576180E+02  0.75464346424E+02  0.15458211237E+03  0.12498726207E+03 0.  0.
          5    1    3    3  502    0  0.14666479930E+02 -0.86374981880E+01  0.94974764719E+02  0.96602318512E+02  0.47000000000E+01 0. -1.
         -5    1    3    3    0  502 -0.42686486834E+02 -0.33716077992E+02 -0.19510418295E+02  0.57979793854E+02  0.47000000000E+01 0. -1.
        -11    1    1    2    0    0  0.92749058932E+01 -0.26512059937E+02 -0.25344482153E+02  0.37831943871E+02  0.00000000000E+00 0.  1.
         11    1    1    2    0    0  0.18745101010E+02  0.68865636117E+02 -0.17257669169E+03  0.18675269520E+03  0.00000000000E+00 0. -1.
<mgrwt>
<rscale>  0 0.12705807E+03</rscale>
<asrwt>0</asrwt>
<pdfrwt beam="2">  1        1 0.38586429E-01 0.13491020E+03</pdfrwt>
<pdfrwt beam="1">  1       -1 0.19746917E-01 0.13491020E+03</pdfrwt>
<totfact> 0.22073211E+03</totfact>
</mgrwt>
</event>
<event>
 6    1  0.6095443E-006  0.3439774E+03  0.7546771E-02  0.1091756E+00
          1   -1    0    0  501    0  0.00000000000E+00  0.00000000000E+00  0.27583382578E+03  0.27583382578E+03  0.00000000000E+00 0. -1.
         -1   -1    0    0    0  501 -0.00000000000E+00 -0.00000000000E+00 -0.25663845408E+03  0.25663845408E+03  0.00000000000E+00 0.  1.
          5    1    1    2  502    0  0.10676600757E+03  0.16352478961E+01  0.38740402657E+02  0.11368624898E+03  0.47000000000E+01 0. -1.
         -5    1    1    2    0  502 -0.17645701235E+03  0.12216398094E+03 -0.95452822667E+02  0.23493498420E+03  0.47000000000E+01 0.  1.
        -11    1    1    2    0    0  0.85478953267E+02 -0.69915429737E+02  0.59045741680E+02  0.12522467160E+03  0.00000000000E+00 0. -1.
         11    1    1    2    0    0 -0.15787948484E+02 -0.53883799099E+02  0.16862050031E+02  0.58626375070E+02  0.00000000000E+00 0.  1.
<mgrwt>
<rscale>  0 0.28732154E+03</rscale>
<asrwt>0</asrwt>
<pdfrwt beam="1">  1        1 0.42435973E-01 0.34397742E+03</pdfrwt>
<pdfrwt beam="2">  1       -1 0.39482839E-01 0.34397742E+03</pdfrwt>
<totfact> 0.61764502E+02</totfact>
</mgrwt>
</event>
<event>
 7    1  0.6095443E-006  0.1272807E+03  0.7546771E-02  0.1246445E+00
          1   -1    0    0  501    0  0.00000000000E+00  0.00000000000E+00  0.22196461798E+03  0.22196461798E+03  0.00000000000E+00 0. -1.
         -1   -1    0    0    0  501 -0.00000000000E+00 -0.00000000000E+00 -0.55879080932E+02  0.55879080932E+02  0.00000000000E+00 0.  1.
         23    2    1    2    0    0  0.21546046690E+02 -0.10547477250E+02  0.79691644614E+02  0.15017032811E+03  0.12499955128E+03 0.  0.
          5    1    3    3  502    0  0.19438134739E+02  0.41553750293E+02  0.85852270481E+02  0.97453874178E+02  0.47000000000E+01 0.  1.
         -5    1    3    3    0  502  0.21079119515E+01 -0.52101227543E+02 -0.61606258672E+01  0.52716453934E+02  0.47000000000E+01 0.  1.
        -11    1    1    2    0    0 -0.37626410714E+02 -0.20672349538E+02  0.10722147583E+02  0.44249940875E+02  0.00000000000E+00 0.  1.
         11    1    1    2    0    0  0.16080364024E+02  0.31219826788E+02  0.75671744849E+02  0.83423429924E+02  0.00000000000E+00 0. -1.
<mgrwt>
<rscale>  0 0.11799331E+03</rscale>
<asrwt>0</asrwt>
<pdfrwt beam="1">  1        1 0.34148402E-01 0.12728067E+03</pdfrwt>
<pdfrwt beam="2">  1       -1 0.85967818E-02 0.12728067E+03</pdfrwt>
<totfact> 0.93036439E+03</totfact>
</mgrwt>
</event>
<event>
 7    1  0.6095443E-006  0.1361641E+03  0.7546771E-02  0.1233888E+00
         -1   -1    0    0    0  501 -0.00000000000E+00  0.00000000000E+00  0.13776639981E+03  0.13776639981E+03  0.00000000000E+00 0.  1.
          1   -1    0    0  501    0  0.00000000000E+00 -0.00000000000E+00 -0.10363074743E+03  0.10363074743E+03  0.00000000000E+00 0. -1.
         23    2    1    2    0    0 -0.46286609164E+02 -0.27815447018E+02  0.40664452061E+02  0.14210650183E+03  0.12499804366E+03 0.  0.
          5    1    3    3  502    0 -0.17545721973E+02  0.13066251070E+02  0.76971457018E+02  0.80157809800E+02  0.47000000000E+01 0. -1.
         -5    1    3    3    0  502 -0.28740887191E+02 -0.40881698088E+02 -0.36307004957E+02  0.61948692028E+02  0.47000000000E+01 0. -1.
        -11    1    1    2    0    0  0.63047327257E+02  0.28661298318E+02  0.16114474380E+02  0.71106341349E+02  0.00000000000E+00 0.  1.
         11    1    1    2    0    0 -0.16760718092E+02 -0.84585130065E+00 -0.22643274057E+02  0.28184304061E+02  0.00000000000E+00 0. -1.
<mgrwt>
<rscale>  0 0.12575892E+03</rscale>
<asrwt>0</asrwt>
<pdfrwt beam="2">  1        1 0.15943192E-01 0.13616409E+03</pdfrwt>
<pdfrwt beam="1">  1       -1 0.21194831E-01 0.13616409E+03</pdfrwt>
<totfact> 0.59901875E+03</totfact>
</mgrwt>
</event>
<event>
 7    1  0.6095443E-006  0.1895437E+03  0.7546771E-02  0.1163720E+00
         -2   -1    0    0    0  501 -0.00000000000E+00  0.00000000000E+00  0.60480535889E+02  0.60480535889E+02  0.00000000000E+00 0.  1.
          2   -1    0    0  501    0  0.00000000000E+00 -0.00000000000E+00 -0.55437731969E+03  0.55437731969E+03  0.00000000000E+00 0. -1.
         23    2    1    2    0    0 -0.11779696384E+03  0.80159841975E+02 -0.19926154740E+03  0.27501268318E+03  0.12500034673E+03 0.  0.
          5    1    3    3  502    0 -0.41165848089E+02  0.99336406090E+02 -0.13758315679E+03  0.17468132028E+03  0.47000000000E+01 0. -1.
         -5    1    3    3    0  502 -0.76631115752E+02 -0.19176564115E+02 -0.61678390609E+02  0.10033136290E+03  0.47000000000E+01 0. -1.
        -11    1    1    2    0    0  0.10059728141E+03 -0.46909031553E+02 -0.27710375924E+03  0.29850756046E+03  0.00000000000E+00 0. -1.
         11    1    1    2    0    0  0.17199682431E+02 -0.33250810422E+02 -0.17531477172E+02  0.41337611944E+02  0.00000000000E+00 0.  1.
<mgrwt>
<rscale>  0 0.18428438E+03</rscale>
<asrwt>0</asrwt>
<pdfrwt beam="2">  1        2 0.85288820E-01 0.18954369E+03</pdfrwt>
<pdfrwt beam="1">  1       -2 0.93046977E-02 0.18954369E+03</pdfrwt>
<totfact> 0.40498746E+03</totfact>
</mgrwt>
</event>
<event>
 7    1  0.6095443E-006  0.1530623E+03  0.7546771E-02  0.1205468E+00
         -1   -1    0    0    0  501 -0.00000000000E+00  0.00000000000E+00  0.50308939552E+02  0.50308939552E+02  0.00000000000E+00 0.  1.
          1   -1    0    0  501    0  0.00000000000E+00 -0.00000000000E+00 -0.47545821041E+03  0.47545821041E+03  0.00000000000E+00 0. -1.
         23    2    1    2    0    0 -0.34895886719E+02 -0.81141948615E+02 -0.11725888571E+03  0.19281520294E+03  0.12500526978E+03 0.  0.
          5    1    3    3  502    0 -0.81972365876E+01 -0.37742419403E+01  0.25910084139E+02  0.27836344049E+02  0.47000000000E+01 0.  1.
         -5    1    3    3    0  502 -0.26698650132E+02 -0.77367706675E+02 -0.14316896985E+03  0.16497885889E+03  0.47000000000E+01 0.  1.
        -11    1    1    2    0    0 -0.11648691546E+02  0.71321659483E+02 -0.12919274942E+03  0.14803120492E+03  0.00000000000E+00 0.  1.
         11    1    1    2    0    0  0.46544578265E+02  0.98202891325E+01 -0.17869763573E+03  0.18492074211E+03  0.00000000000E+00 0. -1.
<mgrwt>
<rscale>  0 0.14600610E+03</rscale>
<asrwt>0</asrwt>
<pdfrwt beam="2">  1        1 0.73147415E-01 0.15306226E+03</pdfrwt>
<pdfrwt beam="1">  1       -1 0.77398371E-02 0.15306226E+03</pdfrwt>
<totfact> 0.42537017E+03</totfact>
</mgrwt>
</event>
<event>
 7    1  0.6095443E-006  0.1287616E+03  0.7546771E-02  0.1241731E+00
         -4   -1    0    0    0  501 -0.00000000000E+00  0.00000000000E+00  0.40828207608E+03  0.40828207608E+03  0.00000000000E+00 0.  1.
          4   -1    0    0  501    0  0.00000000000E+00 -0.00000000000E+00 -0.35132700969E+02  0.35132700969E+02  0.00000000000E+00 0. -1.
         23    2    1    2    0    0  0.26283144721E+02  0.16238115648E+02  0.27375496294E+03  0.30252491372E+03  0.12500025435E+03 0.  0.
          5    1    3    3  502    0  0.54875050808E+02 -0.15224244156E+02  0.24354802852E+03  0.25016150985E+03  0.47000000000E+01 0.  1.
         -5    1    3    3    0  502 -0.28591906086E+02  0.31462359804E+02  0.30206934420E+02  0.52363403872E+02  0.47000000000E+01 0.  1.
        -11    1    1    2    0    0  0.33678138027E+02 -0.20986351573E+02  0.38044788671E+02  0.54973174170E+02  0.00000000000E+00 0.  1.
         11    1    1    2    0    0 -0.59961282748E+02  0.47482359249E+01  0.61349623502E+02  0.85916689165E+02  0.00000000000E+00 0. -1.
<mgrwt>
<rscale>  0 0.12083158E+03</rscale>
<asrwt>0</asrwt>
<pdfrwt beam="2">  1        4 0.54050312E-02 0.12876158E+03</pdfrwt>
<pdfrwt beam="1">  1       -4 0.62812624E-01 0.12876158E+03</pdfrwt>
<totfact> 0.82937797E+02</totfact>
</mgrwt>
</event>
<event>
 6    1  0.6095443E-006  0.2541577E+03  0.7546771E-02  0.1149945E+00
         -1   -1    0    0    0  501 -0.00000000000E+00  0.00000000000E+00  0.16174336714E+03  0.16174336714E+03  0.00000000000E+00 0.  1.
          1   -1    0    0  501    0  0.00000000000E+00 -0.00000000000E+00 -0.21571330094E+03  0.21571330094E+03  0.00000000000E+00 0. -1.
          5    1    1    2  502    0 -0.78945373356E+02 -0.61700911509E+02  0.93811282433E+02  0.13733907371E+03  0.47000000000E+01 0. -1.
         -5    1    1    2    0  502  0.48237900565E+02  0.78511888742E+02 -0.73023955098E+02  0.11766732657E+03  0.47000000000E+01 0.  1.
        -11    1    1    2    0    0  0.21855502216E+02 -0.54218606928E+02 -0.42609318590E+02  0.72338608952E+02  0.00000000000E+00 0. -1.
         11    1    1    2    0    0  0.88519705740E+01  0.37407629695E+02 -0.32147942541E+02  0.50111658844E+02  0.00000000000E+00 0.  1.
<mgrwt>
<rscale>  0 0.19975597E+03</rscale>
<asrwt>0</asrwt>
<pdfrwt beam="2">  1        1 0.33186662E-01 0.25415773E+03</pdfrwt>
<pdfrwt beam="1">  1       -1 0.24883595E-01 0.25415773E+03</pdfrwt>
<totfact> 0.18620755E+03</totfact>
</mgrwt>
</event>
<event>
 7    1  0.6095443E-006  0.1732433E+03  0.7546771E-02  0.1180755E+00
          2   -1    0    0  501    0  0.00000000000E+00  0.00000000000E+00  0.10062145307E+04  0.10062145307E+04  0.00000000000E+00 0. -1.
         -2   -1    0    0    0  501 -0.00000000000E+00 -0.00000000000E+00 -0.28332969213E+02  0.28332969213E+02  0.00000000000E+00 0.  1.
         23    2    1    2    0    0 -0.11985524734E+03  0.46485338512E+01  0.37354597494E+03  0.41176429963E+03  0.12500541539E+03 0.  0.
          5    1    3    3  502    0  0.21847127513E+02 -0.13422578879E+02  0.30425996881E+02  0.40066118985E+02  0.47000000000E+01 0. -1.
         -5    1    3    3    0  502 -0.14170237485E+03  0.18071112730E+02  0.34311997806E+03  0.37169818065E+03  0.47000000000E+01 0. -1.
        -11    1    1    2    0    0  0.10539895180E+03 -0.22019928417E+01  0.59727946573E+03  0.60651178718E+03  0.00000000000E+00 0. -1.
         11    1    1    2    0    0  0.14456295531E+02 -0.24465410095E+01  0.70561208327E+01  0.16271413110E+02  0.00000000000E+00 0.  1.
<mgrwt>
<rscale>  0 0.16724213E+03</rscale>
<asrwt>0</asrwt>
<pdfrwt beam="1">  1        2 0.15480221E+00 0.17324331E+03</pdfrwt>
<pdfrwt beam="2">  1       -2 0.43589191E-02 0.17324331E+03</pdfrwt>
<totfact> 0.61697515E+03</totfact>
</mgrwt>
</event>
<event>
 7    1  0.6095443E-006  0.1505088E+03  0.7546771E-02  0.1208866E+00
          1   -1    0    0  501    0  0.00000000000E+00  0.00000000000E+00  0.48565240115E+03  0.48565240115E+03  0.00000000000E+00 0. -1.
         -1   -1    0    0    0  501 -0.00000000000E+00 -0.00000000000E+00 -0.38776821414E+02  0.38776821414E+02  0.00000000000E+00 0.  1.
         23    2    1    2    0    0  0.22047148092E+02  0.80883295029E+02  0.24112233462E+03  0.28424090563E+03  0.12499891210E+03 0.  0.
          5    1    3    3  502    0 -0.49293213798E+02  0.50951226684E+02  0.92659726498E+02  0.11676370730E+03  0.47000000000E+01 0. -1.
         -5    1    3    3    0  502  0.71340361890E+02  0.29932068345E+02  0.14846260812E+03  0.16747719833E+03  0.47000000000E+01 0. -1.
        -11    1    1    2    0    0 -0.32211134737E+02 -0.90499478092E+02  0.20474529191E+03  0.22616000375E+03  0.00000000000E+00 0. -1.
         11    1    1    2    0    0  0.10163986645E+02  0.96161830638E+01  0.10079532049E+01  0.14028313188E+02  0.00000000000E+00 0.  1.
<mgrwt>
<rscale>  0 0.14336937E+03</rscale>
<asrwt>0</asrwt>
<pdfrwt beam="1">  1        1 0.74715750E-01 0.15050884E+03</pdfrwt>
<pdfrwt beam="2">  1       -1 0.59656652E-02 0.15050884E+03</pdfrwt>
<totfact> 0.61126398E+03</totfact>
</mgrwt>
</event>
<event>
 7    1  0.6095443E-006  0.1255078E+03  0.7546771E-02  0.1246067E+00
          1   -1    0    0  501    0  0.00000000000E+00  0.00000000000E+00  0.76852883949E+03  0.76852883949E+03  0.00000000000E+00 0. -1.
         -1   -1    0    0    0  501 -0.00000000000E+00 -0.00000000000E+00 -0.18014445385E+02  0.18014445385E+02  0.00000000000E+00 0.  1.
         23    2    1    2    0    0 -0.10572713432E+02  0.37366729444E+02  0.29765099763E+03  0.32302991340E+03  0.11934887439E+03 0.  0.
          5    1    3    3  502    0  0.52998331217E+02  0.27237553943E+02  0.12104284570E+03  0.13499691830E+03  0.47000000000E+01 0. -1.
         -5    1    3    3    0  502 -0.63571044649E+02  0.10129175501E+02  0.17660815194E+03  0.18803299510E+03  0.47000000000E+01 0.  1.
        -11    1    1    2    0    0  0.40480675263E+02  0.10706028379E+02  0.21059145436E+03  0.21471391376E+03  0.00000000000E+00 0. -1.
         11    1    1    2    0    0 -0.29907961830E+02 -0.48072757823E+02  0.24227194211E+03  0.24879945772E+03  0.00000000000E+00 0.  1.
<mgrwt>
<rscale>  0 0.11821726E+03</rscale>
<asrwt>0</asrwt>
<pdfrwt beam="1">  1        1 0.11823518E+00 0.12550780E+03</pdfrwt>
<pdfrwt beam="2">  1       -1 0.27714537E-02 0.12550780E+03</pdfrwt>
<totfact> 0.99261881E+03</totfact>
</mgrwt>
</event>
<event>
 7    1  0.6095443E-006  0.1126939E+03  0.7546771E-02  0.1304758E+00
          1   -1    0    0  501    0  0.00000000000E+00  0.00000000000E+00  0.26827601385E+03  0.26827601385E+03  0.00000000000E+00 0. -1.
         -1   -1    0    0    0  501 -0.00000000000E+00 -0.00000000000E+00 -0.38815225941E+02  0.38815225941E+02  0.00000000000E+00 0.  1.
         23    2    1    2    0    0 -0.10567103710E+02 -0.93542103277E+01  0.51855678877E+02  0.12405211579E+03  0.11180675771E+03 0.  0.
          5    1    3    3  502    0  0.41845896571E+01 -0.98483952795E+01  0.85877902780E+02  0.86669520975E+02  0.47000000000E+01 0. -1.
         -5    1    3    3    0  502 -0.14751693367E+02  0.49418495186E+00 -0.34022223903E+02  0.37382594817E+02  0.47000000000E+01 0.  1.
        -11    1    1    2    0    0  0.16220148116E+02 -0.12680207716E+02  0.10322613958E+03  0.10525928351E+03  0.00000000000E+00 0. -1.
         11    1    1    2    0    0 -0.56530444055E+01  0.22034418044E+02  0.74378969453E+02  0.77779840489E+02  0.00000000000E+00 0.  1.
<mgrwt>
<rscale>  0 0.89217551E+02</rscale>
<asrwt>0</asrwt>
<pdfrwt beam="1">  1        1 0.41273232E-01 0.11269390E+03</pdfrwt>
<pdfrwt beam="2">  1       -1 0.59715734E-02 0.11269390E+03</pdfrwt>
<totfact> 0.12579716E+04</totfact>
</mgrwt>
</event>
<event>
 7    1  0.6095443E-006  0.1472813E+03  0.7546771E-02  0.1213868E+00
         -1   -1    0    0    0  501 -0.00000000000E+00  0.00000000000E+00  0.27317409412E+03  0.27317409412E+03  0.00000000000E+00 0.  1.
          1   -1    0    0  501    0  0.00000000000E+00 -0.00000000000E+00 -0.71354312743E+02  0.71354312743E+02  0.00000000000E+00 0. -1.
         23    2    1    2    0    0  0.65506478093E+02  0.42146696908E+02  0.58879468174E+02  0.15861451143E+03  0.12499731489E+03 0.  0.
          5    1    3    3  502    0  0.41699703331E+02 -0.31729854606E+02  0.61346622754E+02  0.80815512462E+02  0.47000000000E+01 0. -1.
         -5    1    3    3    0  502  0.23806774762E+02  0.73876551514E+02 -0.24671545805E+01  0.77798998965E+02  0.47000000000E+01 0. -1.
        -11    1    1    2    0    0 -0.23101916095E+02 -0.49244839187E+01  0.12424967350E+03  0.12647501901E+03  0.00000000000E+00 0.  1.
         11    1    1    2    0    0 -0.42404561998E+02 -0.37222212990E+02  0.18690639704E+02  0.59438876425E+02  0.00000000000E+00 0. -1.
<mgrwt>
<rscale>  0 0.13960027E+03</rscale>
<asrwt>0</asrwt>
<pdfrwt beam="2">  1        1 0.10977587E-01 0.14728127E+03</pdfrwt>
<pdfrwt beam="1">  1       -1 0.42026783E-01 0.14728127E+03</pdfrwt>
<totfact> 0.30927265E+03</totfact>
</mgrwt>
</event>
<event>
 7    1  0.6095443E-006  0.1494077E+03  0.7546771E-02  0.1210225E+00
          1   -1    0    0  501    0  0.00000000000E+00  0.00000000000E+00  0.55359014281E+02  0.55359014281E+02  0.00000000000E+00 0. -1.
         -1   -1    0    0    0  501 -0.00000000000E+00 -0.00000000000E+00 -0.34073330771E+03  0.34073330771E+03  0.00000000000E+00 0.  1.
         23    2    1    2    0    0  0.70352263409E+02 -0.41822895003E+02 -0.18128655730E+03  0.23492017211E+03  0.12499630351E+03 0.  0.
          5    1    3    3  502    0  0.85123544624E+01 -0.75280374659E+02 -0.11741288326E+03  0.13981226750E+03  0.47000000000E+01 0. -1.
         -5    1    3    3    0  502  0.61839908947E+02  0.33457479656E+02 -0.63873674038E+02  0.95107904607E+02  0.47000000000E+01 0. -1.
        -11    1    1    2    0    0 -0.91196777287E+02  0.21038170639E+02 -0.77776233561E+02  0.12169058845E+03  0.00000000000E+00 0.  1.
         11    1    1    2    0    0  0.20844513877E+02  0.20784724364E+02 -0.26311502562E+02  0.39481561427E+02  0.00000000000E+00 0. -1.
<mgrwt>
<rscale>  0 0.14233230E+03</rscale>
<asrwt>0</asrwt>
<pdfrwt beam="1">  1        1 0.85167714E-02 0.14940774E+03</pdfrwt>
<pdfrwt beam="2">  1       -1 0.52420509E-01 0.14940774E+03</pdfrwt>
<totfact> 0.29101291E+03</totfact>
</mgrwt>
</event>
<event>
 6    1  0.6095443E-006  0.1827508E+03  0.7546771E-02  0.1179152E+00
         -2   -1    0    0    0  501 -0.00000000000E+00  0.00000000000E+00  0.21116918589E+02  0.21116918589E+02  0.00000000000E+00 0.  1.
          2   -1    0    0  501    0  0.00000000000E+00 -0.00000000000E+00 -0.11870677733E+04  0.11870677733E+04  0.00000000000E+00 0. -1.
          5    1    1    2  502    0 -0.57467469379E+01 -0.49411353845E+02 -0.36198180506E+03  0.36541404486E+03  0.47000000000E+01 0. -1.
         -5    1    1    2    0  502 -0.91100710673E+02  0.64741751439E+02 -0.26456980513E+03  0.28724572347E+03  0.47000000000E+01 0.  1.
        -11    1    1    2    0    0  0.67340154633E+02 -0.52203032040E+02 -0.32471527296E+03  0.33570800031E+03  0.00000000000E+00 0. -1.
         11    1    1    2    0    0  0.29507302979E+02  0.36872634446E+02 -0.21468397161E+03  0.21981692330E+03  0.00000000000E+00 0.  1.
<mgrwt>
<rscale>  0 0.16875522E+03</rscale>
<asrwt>0</asrwt>
<pdfrwt beam="2">  1        2 0.18262583E+00 0.18275079E+03</pdfrwt>
<pdfrwt beam="1">  1       -2 0.32487563E-02 0.18275079E+03</pdfrwt>
<totfact> 0.75270221E+03</totfact>
</mgrwt>
</event>
<event>
 6    1  0.6095443E-006  0.4916642E+03  0.7546771E-02  0.1073475E+00
          3   -1    0    0  501    0  0.00000000000E+00  0.00000000000E+00  0.67336139289E+03  0.67336139289E+03  0.00000000000E+00 0. -1.
         -3   -1    0    0    0  501 -0.00000000000E+00 -0.00000000000E+00 -0.13023906506E+03  0.13023906506E+03  0.00000000000E+00 0.  1.
          5    1    1    2  502    0 -0.12108368020E+03  0.98027975132E+02  0.43492065913E+03  0.46200520696E+03  0.47000000000E+01 0. -1.
         -5    1    1    2    0  502  0.10350331826E+03 -0.13910332664E+03 -0.28644400514E+02  0.17579893075E+03  0.47000000000E+01 0.  1.
        -11    1    1    2    0    0 -0.33173124171E+02  0.13836335660E+02  0.49733018356E+02  0.61361824179E+02  0.00000000000E+00 0.  1.
         11    1    1    2    0    0  0.50753486111E+02  0.27239015843E+02  0.87113050865E+02  0.10443449606E+03  0.00000000000E+00 0. -1.
<mgrwt>
<rscale>  0 0.32476874E+03</rscale>
<asrwt>0</asrwt>
<pdfrwt beam="1">  1        3 0.10359406E+00 0.49166423E+03</pdfrwt>
<pdfrwt beam="2">  1       -3 0.20036780E-01 0.49166423E+03</pdfrwt>
<totfact> 0.48095463E+01</totfact>
</mgrwt>
</event>
<event>
 7    1  0.6095443E-006  0.1468038E+03  0.7546771E-02  0.1214171E+00
          1   -1    0    0  501    0  0.00000000000E+00  0.00000000000E+00  0.50382325293E+02  0.50382325293E+02  0.00000000000E+00 0. -1.
         -1   -1    0    0    0  501 -0.00000000000E+00 -0.00000000000E+00 -0.39924204510E+03  0.39924204510E+03  0.00000000000E+00 0.  1.
         23    2    1    2    0    0  0.54262007763E+02 -0.54600881423E+02 -0.26784645055E+03  0.30543914307E+03  0.12500290919E+03 0.  0.
          5    1    3    3  502    0 -0.28890833742E+02  0.16849588242E+01 -0.13879448556E+03  0.14185738818E+03  0.47000000000E+01 0. -1.
         -5    1    3    3    0  502  0.83152841505E+02 -0.56285840247E+02 -0.12905196499E+03  0.16358175488E+03  0.47000000000E+01 0. -1.
        -11    1    1    2    0    0 -0.40942682859E+02  0.35806098978E+02  0.54899212186E+01  0.54667350756E+02  0.00000000000E+00 0. -1.
         11    1    1    2    0    0 -0.13319324904E+02  0.18794782445E+02 -0.86503190477E+02  0.89517876571E+02  0.00000000000E+00 0.  1.
<mgrwt>
<rscale>  0 0.13937637E+03</rscale>
<asrwt>0</asrwt>
<pdfrwt beam="1">  1        1 0.77511268E-02 0.14680378E+03</pdfrwt>
<pdfrwt beam="2">  1       -1 0.61421855E-01 0.14680378E+03</pdfrwt>
<totfact> 0.24498726E+03</totfact>
</mgrwt>
</event>
<event>
 7    1  0.6095443E-006  0.1438297E+03  0.7546771E-02  0.1221694E+00
          2   -1    0    0  501    0  0.00000000000E+00  0.00000000000E+00  0.78736482765E+02  0.78736482765E+02  0.00000000000E+00 0.  1.
         -2   -1    0    0    0  501 -0.00000000000E+00 -0.00000000000E+00 -0.20191628198E+03  0.20191628198E+03  0.00000000000E+00 0. -1.
         23    2    1    2    0    0 -0.24568760124E+02  0.66770225408E+02 -0.74421407825E+02  0.16194297211E+03  0.12500037319E+03 0.  0.
          5    1    3    3  502    0 -0.39523049417E+02  0.32415435545E+02  0.23897495630E+02  0.56621658349E+02  0.47000000000E+01 0.  1.
         -5    1    3    3    0  502  0.14954289292E+02  0.34354789863E+02 -0.98318903455E+02  0.10532131376E+03  0.47000000000E+01 0.  1.
        -11    1    1    2    0    0  0.11394120774E+02  0.16923089489E+02 -0.21666011618E+02  0.29759586783E+02  0.00000000000E+00 0. -1.
         11    1    1    2    0    0  0.13174639350E+02 -0.83693314897E+02 -0.27092379774E+02  0.88950205858E+02  0.00000000000E+00 0.  1.
<mgrwt>
<rscale>  0 0.13396073E+03</rscale>
<asrwt>0</asrwt>
<pdfrwt beam="1">  1        2 0.12113305E-01 0.14382969E+03</pdfrwt>
<pdfrwt beam="2">  1       -2 0.31064043E-01 0.14382969E+03</pdfrwt>
<totfact> 0.46355226E+03</totfact>
</mgrwt>
</event>
<event>
 6    1  0.6095443E-006  0.1552189E+03  0.7546771E-02  0.1206273E+00
         -2   -1    0    0    0  501 -0.00000000000E+00  0.00000000000E+00  0.79175337163E+02  0.79175337163E+02  0.00000000000E+00 0.  1.
          2   -1    0    0  501    0  0.00000000000E+00 -0.00000000000E+00 -0.32786864190E+03  0.32786864190E+03  0.00000000000E+00 0. -1.
          5    1    1    2  502    0  0.33363589209E+02  0.90169889883E+02 -0.49864013355E+02  0.10840778549E+03  0.47000000000E+01 0. -1.
         -5    1    1    2    0  502  0.25181610169E+02 -0.37910616876E+02  0.19529332995E+02  0.49747494508E+02  0.47000000000E+01 0.  1.
        -11    1    1    2    0    0 -0.14059100838E+02 -0.65509294568E+02 -0.16546792949E+03  0.17851823907E+03  0.00000000000E+00 0.  1.
         11    1    1    2    0    0 -0.44486098540E+02  0.13250021561E+02 -0.52890694886E+02  0.70370459998E+02  0.00000000000E+00 0. -1.
<mgrwt>
<rscale>  0 0.14537601E+03</rscale>
<asrwt>0</asrwt>
<pdfrwt beam="2">  1        2 0.50441329E-01 0.15521888E+03</pdfrwt>
<pdfrwt beam="1">  1       -2 0.12180821E-01 0.15521888E+03</pdfrwt>
<totfact> 0.46358034E+03</totfact>
</mgrwt>
</event>
<event>
 7    1  0.6095443E-006  0.1983803E+03  0.7546771E-02  0.1155900E+00
          2   -1    0    0  501    0  0.00000000000E+00  0.00000000000E+00  0.44011200316E+03  0.44011200316E+03  0.00000000000E+00 0.  1.
         -2   -1    0    0    0  501 -0.00000000000E+00 -0.00000000000E+00 -0.84011294589E+02  0.84011294589E+02  0.00000000000E+00 0. -1.
         23    2    1    2    0    0 -0.81702101270E+02  0.13059401099E+03  0.13145132260E+03  0.23797936279E+03  0.12499879135E+03 0.  0.
          5    1    3    3  502    0 -0.10123946935E+03  0.11955513709E+03  0.68619635017E+02  0.17109531048E+03  0.47000000000E+01 0. -1.
         -5    1    3    3    0  502  0.19537368075E+02  0.11038873904E+02  0.62831687587E+02  0.66884052310E+02  0.47000000000E+01 0. -1.
        -11    1    1    2    0    0  0.85697539173E+02 -0.10900298775E+03  0.13382871060E+03  0.19270662506E+03  0.00000000000E+00 0. -1.
         11    1    1    2    0    0 -0.39954379032E+01 -0.21591023238E+02  0.90820675368E+02  0.93437309908E+02  0.00000000000E+00 0.  1.
<mgrwt>
<rscale>  0 0.19286751E+03</rscale>
<asrwt>0</asrwt>
<pdfrwt beam="1">  1        2 0.67709538E-01 0.19838026E+03</pdfrwt>
<pdfrwt beam="2">  1       -2 0.12924815E-01 0.19838026E+03</pdfrwt>
<totfact> 0.31014091E+03</totfact>
</mgrwt>
</event>
<event>
 7    1  0.6095443E-006  0.1376756E+03  0.7546771E-02  0.1228243E+00
          1   -1    0    0  501    0  0.00000000000E+00  0.00000000000E+00  0.53095345796E+02  0.53095345796E+02  0.00000000000E+00 0. -1.
         -1   -1    0    0    0  501 -0.00000000000E+00 -0.00000000000E+00 -0.42963378153E+03  0.42963378153E+03  0.00000000000E+00 0.  1.
         23    2    1    2    0    0 -0.57596134120E+02  0.36313008534E+01 -0.34355712645E+03  0.37011630058E+03  0.12499630319E+03 0.  0.
          5    1    3    3  502    0 -0.10767013728E+02 -0.53162002362E+02 -0.21612105927E+03  0.22287334821E+03  0.47000000000E+01 0.  1.
         -5    1    3    3    0  502 -0.46829120392E+02  0.56793303216E+02 -0.12743606718E+03  0.14724295238E+03  0.47000000000E+01 0.  1.
        -11    1    1    2    0    0  0.57053372024E+02 -0.23161464536E+02 -0.55432302363E+02  0.82850955601E+02  0.00000000000E+00 0.  1.
         11    1    1    2    0    0  0.54276209571E+00  0.19530163682E+02  0.22450993075E+02  0.29761871147E+02  0.00000000000E+00 0. -1.
<mgrwt>
<rscale>  0 0.12947067E+03</rscale>
<asrwt>0</asrwt>
<pdfrwt beam="1">  1        1 0.81685147E-02 0.13767562E+03</pdfrwt>
<pdfrwt beam="2">  1       -1 0.66097505E-01 0.13767562E+03</pdfrwt>
<totfact> 0.19761917E+03</totfact>
</mgrwt>
</event>
<event>
 7    1  0.6095443E-006  0.1294289E+03  0.7546771E-02  0.1241939E+00
          1   -1    0    0  501    0  0.00000000000E+00  0.00000000000E+00  0.16366300509E+02  0.16366300509E+02  0.00000000000E+00 0.  1.
         -1   -1    0    0    0  501 -0.00000000000E+00 -0.00000000000E+00 -0.79909243333E+03  0.79909243333E+03  0.00000000000E+00 0. -1.
         23    2    1    2    0    0  0.25396062919E+02  0.21949799266E+02 -0.48935636516E+03  0.50618325565E+03  0.12500032992E+03 0.  0.
          5    1    3    3  502    0  0.46151600860E+02  0.23474054135E+02 -0.74889375956E+02  0.91167483845E+02  0.47000000000E+01 0.  1.
         -5    1    3    3    0  502 -0.20755537940E+02 -0.15242548687E+01 -0.41446698921E+03  0.41501577181E+03  0.47000000000E+01 0.  1.
        -11    1    1    2    0    0 -0.95824198709E+01 -0.43844490519E+02 -0.26956025557E+03  0.27327073298E+03  0.00000000000E+00 0. -1.
         11    1    1    2    0    0 -0.15813643048E+02  0.21894691253E+02 -0.23809512087E+02  0.36004745206E+02  0.00000000000E+00 0.  1.
<mgrwt>
<rscale>  0 0.12070500E+03</rscale>
<asrwt>0</asrwt>
<pdfrwt beam="1">  1        1 0.25178927E-02 0.12942888E+03</pdfrwt>
<pdfrwt beam="2">  1       -1 0.12293728E+00 0.12942888E+03</pdfrwt>
<totfact> 0.26223831E+03</totfact>
</mgrwt>
</event>
<event>
 7    1  0.6095443E-006  0.1326604E+03  0.7546771E-02  0.1236857E+00
          1   -1    0    0  501    0  0.00000000000E+00  0.00000000000E+00  0.28253616648E+03  0.28253616648E+03  0.00000000000E+00 0. -1.
         -1   -1    0    0    0  501 -0.00000000000E+00 -0.00000000000E+00 -0.60375093704E+02  0.60375093704E+02  0.00000000000E+00 0.  1.
         23    2    1    2    0    0  0.32371977852E+02  0.30445264909E+02  0.46874017455E+02  0.14069806203E+03  0.12499564809E+03 0.  0.
          5    1    3    3  502    0  0.28634602248E+01  0.64573314890E+02 -0.12477376456E+02  0.65997631197E+02  0.47000000000E+01 0.  1.
         -5    1    3    3    0  502  0.29508517627E+02 -0.34128049982E+02  0.59351393911E+02  0.74700430838E+02  0.47000000000E+01 0.  1.
        -11    1    1    2    0    0 -0.58708050048E+02 -0.31369584518E+02  0.15584569803E+03  0.16946553504E+03  0.00000000000E+00 0.  1.
         11    1    1    2    0    0  0.26336072197E+02  0.92431960912E+00  0.19441357286E+02  0.32747663102E+02  0.00000000000E+00 0. -1.
<mgrwt>
<rscale>  0 0.12386320E+03</rscale>
<asrwt>0</asrwt>
<pdfrwt beam="1">  1        1 0.43467102E-01 0.13266036E+03</pdfrwt>
<pdfrwt beam="2">  1       -1 0.92884761E-02 0.13266036E+03</pdfrwt>
<totfact> 0.61603872E+03</totfact>
</mgrwt>
</event>
<event>
 7    1  0.6095443E-006  0.1634204E+03  0.7546771E-02  0.1192941E+00
          1   -1    0    0  501    0  0.00000000000E+00  0.00000000000E+00  0.20885821336E+03  0.20885821336E+03  0.00000000000E+00 0. -1.
         -1   -1    0    0    0  501 -0.00000000000E+00 -0.00000000000E+00 -0.11049802718E+03  0.11049802718E+03  0.00000000000E+00 0.  1.
         23    2    1    2    0    0  0.34682764144E+02 -0.99362340381E+02  0.78104803429E+02  0.18112586380E+03  0.12502179571E+03 0.  0.
          5    1    3    3  502    0 -0.22701897788E+02 -0.54819371901E+02  0.89459153491E+02  0.10745031336E+03  0.47000000000E+01 0.  1.
         -5    1    3    3    0  502  0.57384661932E+02 -0.44542968479E+02 -0.11354350062E+02  0.73675550431E+02  0.47000000000E+01 0.  1.
        -11    1    1    2    0    0  0.27718298548E+02  0.21069092286E+02 -0.44735800312E+01  0.35103043208E+02  0.00000000000E+00 0.  1.
         11    1    1    2    0    0 -0.62401062691E+02  0.78293248094E+02  0.24728962790E+02  0.10312733354E+03  0.00000000000E+00 0. -1.
<mgrwt>
<rscale>  0 0.15629755E+03</rscale>
<asrwt>0</asrwt>
<pdfrwt beam="1">  1        1 0.32132033E-01 0.16342037E+03</pdfrwt>
<pdfrwt beam="2">  1       -1 0.16999697E-01 0.16342037E+03</pdfrwt>
<totfact> 0.35480978E+03</totfact>
</mgrwt>
</event>
<event>
 7    1  0.6095443E-006  0.1388905E+03  0.7546771E-02  0.1225728E+00
          1   -1    0    0  501    0  0.00000000000E+00  0.00000000000E+00  0.18812918591E+02  0.18812918591E+02  0.00000000000E+00 0. -1.
         -1   -1    0    0    0  501 -0.00000000000E+00 -0.00000000000E+00 -0.83738657323E+03  0.83738657323E+03  0.00000000000E+00 0.  1.
         23    2    1    2    0    0 -0.47535213577E+02 -0.37495490873E+02 -0.50385786861E+03  0.52265027650E+03  0.12500020562E+03 0.  0.
          5    1    3    3  502    0 -0.43916881072E+01  0.23153244023E+02 -0.15420742196E+02  0.28552564212E+02  0.47000000000E+01 0. -1.
         -5    1    3    3    0  502 -0.43143525470E+02 -0.60648734896E+02 -0.48843712641E+03  0.49409771229E+03  0.47000000000E+01 0. -1.
        -11    1    1    2    0    0  0.57903339014E+02  0.54902968814E+02 -0.29374284054E+03  0.30438789238E+03  0.00000000000E+00 0.  1.
         11    1    1    2    0    0 -0.10368125437E+02 -0.17407477941E+02 -0.20972945485E+02  0.29161322941E+02  0.00000000000E+00 0. -1.
<mgrwt>
<rscale>  0 0.13117152E+03</rscale>
<asrwt>0</asrwt>
<pdfrwt beam="1">  1        1 0.28942947E-02 0.13889046E+03</pdfrwt>
<pdfrwt beam="2">  1       -1 0.12882872E+00 0.13889046E+03</pdfrwt>
<totfact> 0.19393370E+03</totfact>
</mgrwt>
</event>
<event>
 7    1  0.6095443E-006  0.2652687E+03  0.7546771E-02  0.1106142E+00
          1   -1    0    0  501    0  0.00000000000E+00  0.00000000000E+00  0.86230094061E+02  0.86230094061E+02  0.00000000000E+00 0. -1.
         -1   -1    0    0    0  501 -0.00000000000E+00 -0.00000000000E+00 -0.82592287617E+03  0.82592287617E+03  0.00000000000E+00 0.  1.
         23    2    1    2    0    0  0.16507194488E+03  0.16581200770E+03 -0.26417539489E+03  0.37437432858E+03  0.12500051900E+03 0.  0.
          5    1    3    3  502    0  0.88497278139E+02  0.59519903391E+02 -0.38681338681E+02  0.11354612763E+03  0.47000000000E+01 0.  1.
         -5    1    3    3    0  502  0.76574666746E+02  0.10629210430E+03 -0.22549405621E+03  0.26082820095E+03  0.47000000000E+01 0.  1.
        -11    1    1    2    0    0 -0.82556483073E+02 -0.11359497821E+03 -0.19168628679E+03  0.23761949523E+03  0.00000000000E+00 0. -1.
         11    1    1    2    0    0 -0.82515461811E+02 -0.52217029482E+02 -0.28383110043E+03  0.30015914642E+03  0.00000000000E+00 0.  1.
<mgrwt>
<rscale>  0 0.26167294E+03</rscale>
<asrwt>0</asrwt>
<pdfrwt beam="1">  1        1 0.13266169E-01 0.26526873E+03</pdfrwt>
<pdfrwt beam="2">  1       -1 0.12706505E+00 0.26526873E+03</pdfrwt>
<totfact> 0.25333678E+02</totfact>
</mgrwt>
</event>
<event>
 7    1  0.6095443E-006  0.2311628E+03  0.7546771E-02  0.1128790E+00
          1   -1    0    0  501    0  0.00000000000E+00  0.00000000000E+00  0.52766420628E+03  0.52766420628E+03  0.00000000000E+00 0. -1.
         -1   -1    0    0    0  501 -0.00000000000E+00 -0.00000000000E+00 -0.14176241214E+03  0.14176241214E+03  0.00000000000E+00 0.  1.
         23    2    1    2    0    0  0.87261554947E+02 -0.17377121286E+03  0.39514142942E+01  0.23119655909E+03  0.12500088748E+03 0.  0.
          5    1    3    3  502    0  0.60073442383E+02 -0.50397146574E+02 -0.50671243491E+02  0.93479172972E+02  0.47000000000E+01 0.  1.
         -5    1    3    3    0  502  0.27188112564E+02 -0.12337406628E+03  0.54622657785E+02  0.13771738612E+03  0.47000000000E+01 0.  1.
        -11    1    1    2    0    0 -0.20301240039E+02  0.49396784493E+02  0.35602021997E+02  0.64184785079E+02  0.00000000000E+00 0.  1.
         11    1    1    2    0    0 -0.66960314908E+02  0.12437442837E+03  0.34634835784E+03  0.37404527425E+03  0.00000000000E+00 0. -1.
<mgrwt>
<rscale>  0 0.22697137E+03</rscale>
<asrwt>0</asrwt>
<pdfrwt beam="1">  1        1 0.81179108E-01 0.23116279E+03</pdfrwt>
<pdfrwt beam="2">  1       -1 0.21809602E-01 0.23116279E+03</pdfrwt>
<totfact> 0.73711212E+02</totfact>
</mgrwt>
</event>
<event>
 7    1  0.6095443E-006  0.1768304E+03  0.7546771E-02  0.1176768E+00
         -1   -1    0    0    0  501 -0.00000000000E+00  0.00000000000E+00  0.15992234881E+03  0.15992234881E+03  0.00000000000E+00 0.  1.
          1   -1    0    0  501    0  0.00000000000E+00 -0.00000000000E+00 -0.20102786733E+03  0.20102786733E+03  0.00000000000E+00 0. -1.
         23    2    1    2    0    0  0.64449630633E+02 -0.10719560672E+03  0.46842158502E+02  0.18292944991E+03  0.12499737134E+03 0.  0.
          5    1    3    3  502    0 -0.25901458265E+02 -0.31119140996E+02  0.50212784944E+02  0.64673798778E+02  0.47000000000E+01 0.  1.
         -5    1    3    3    0  502  0.90351088898E+02 -0.76076465723E+02 -0.33706264414E+01  0.11825565113E+03  0.47000000000E+01 0.  1.
        -11    1    1    2    0    0  0.10478341571E+02  0.64621571159E+02 -0.20544490932E+02  0.68613549746E+02  0.00000000000E+00 0.  1.
         11    1    1    2    0    0 -0.74927972203E+02  0.42574035560E+02 -0.67403186098E+02  0.10940721648E+03  0.00000000000E+00 0. -1.
<mgrwt>
<rscale>  0 0.17103928E+03</rscale>
<asrwt>0</asrwt>
<pdfrwt beam="2">  1        1 0.30927364E-01 0.17683042E+03</pdfrwt>
<pdfrwt beam="1">  1       -1 0.24603438E-01 0.17683042E+03</pdfrwt>
<totfact> 0.20520677E+03</totfact>
</mgrwt>
</event>
<event>
 7    1  0.6095443E-006  0.1930765E+03  0.7546771E-02  0.1160688E+00
         -2   -1    0    0    0  501 -0.00000000000E+00  0.00000000000E+00  0.46553919398E+02  0.46553919398E+02  0.00000000000E+00 0.  1.
          2   -1    0    0  501    0  0.00000000000E+00 -0.00000000000E+00 -0.79775561421E+03  0.79775561421E+03  0.00000000000E+00 0. -1.
         23    2    1    2    0    0  0.11324452042E+03  0.93968545718E+02 -0.25968158342E+03  0.32359394673E+03  0.12499643436E+03 0.  0.
          5    1    3    3  502    0  0.11221335693E+03  0.12119316453E+03 -0.22740433870E+03  0.28109507976E+03  0.47000000000E+01 0.  1.
         -5    1    3    3    0  502  0.10311634910E+01 -0.27224618810E+02 -0.32277244722E+02  0.42498866978E+02  0.47000000000E+01 0.  1.
        -11    1    1    2    0    0 -0.14997609635E+02 -0.55077626031E+02 -0.26045186387E+03  0.26663391866E+03  0.00000000000E+00 0. -1.
         11    1    1    2    0    0 -0.98246910790E+02 -0.38890919687E+02 -0.23106824752E+03  0.25408166822E+03  0.00000000000E+00 0.  1.
<mgrwt>
<rscale>  0 0.18755197E+03</rscale>
<asrwt>0</asrwt>
<pdfrwt beam="2">  1        2 0.12273162E+00 0.19307646E+03</pdfrwt>
<pdfrwt beam="1">  1       -2 0.71621420E-02 0.19307646E+03</pdfrwt>
<totfact> 0.39541856E+03</totfact>
</mgrwt>
</event>
<event>
 7    1  0.6095443E-006  0.1381386E+03  0.7546771E-02  0.1226029E+00
         -2   -1    0    0    0  501 -0.00000000000E+00  0.00000000000E+00  0.65929128439E+02  0.65929128439E+02  0.00000000000E+00 0.  1.
          2   -1    0    0  501    0  0.00000000000E+00 -0.00000000000E+00 -0.24556824015E+03  0.24556824015E+03  0.00000000000E+00 0. -1.
         23    2    1    2    0    0 -0.16876771156E+02 -0.56334451764E+02 -0.12874907089E+03  0.18883480245E+03  0.12499545393E+03 0.  0.
          5    1    3    3  502    0  0.28063528352E+01  0.29519324455E+02  0.31205103813E+01  0.30184329007E+02  0.47000000000E+01 0.  1.
         -5    1    3    3    0  502 -0.19683123991E+02 -0.85853776219E+02 -0.13186958127E+03  0.15865047345E+03  0.47000000000E+01 0.  1.
        -11    1    1    2    0    0  0.50762071240E+02  0.16032134678E+02 -0.44952215999E+02  0.69674377946E+02  0.00000000000E+00 0.  1.
         11    1    1    2    0    0 -0.33885300084E+02  0.40302317087E+02 -0.59378248288E+01  0.52988188194E+02  0.00000000000E+00 0. -1.
<mgrwt>
<rscale>  0 0.13096639E+03</rscale>
<asrwt>0</asrwt>
<pdfrwt beam="2">  1        2 0.37779728E-01 0.13813855E+03</pdfrwt>
<pdfrwt beam="1">  1       -2 0.10142943E-01 0.13813855E+03</pdfrwt>
<totfact> 0.83720681E+03</totfact>
</mgrwt>
</event>
<event>
 7    1  0.6095443E-006  0.1357795E+03  0.7546771E-02  0.1230471E+00
         -2   -1    0    0    0  501 -0.00000000000E+00  0.00000000000E+00  0.22186100438E+02  0.22186100438E+02  0.00000000000E+00 0.  1.
          2   -1    0    0  501    0  0.00000000000E+00 -0.00000000000E+00 -0.66690564346E+03  0.66690564346E+03  0.00000000000E+00 0. -1.
         23    2    1    2    0    0  0.34653726452E+02 -0.40159254385E+02 -0.34318941422E+03  0.36907321533E+03  0.12498967068E+03 0.  0.
          5    1    3    3  502    0 -0.88448257310E+01 -0.56917279740E+02 -0.29945794174E+03  0.30498353488E+03  0.47000000000E+01 0. -1.
         -5    1    3    3    0  502  0.43498552183E+02  0.16758025354E+02 -0.43731472472E+02  0.64089680451E+02  0.47000000000E+01 0. -1.
        -11    1    1    2    0    0  0.27534726879E+02  0.30649333142E+02 -0.83786520750E+02  0.93368752084E+02  0.00000000000E+00 0. -1.
         11    1    1    2    0    0 -0.62188453331E+02  0.95099212430E+01 -0.21774360805E+03  0.22664977648E+03  0.00000000000E+00 0.  1.
<mgrwt>
<rscale>  0 0.12798892E+03</rscale>
<asrwt>0</asrwt>
<pdfrwt beam="2">  1        2 0.10260085E+00 0.13577947E+03</pdfrwt>
<pdfrwt beam="1">  1       -2 0.34132470E-02 0.13577947E+03</pdfrwt>
<totfact> 0.14758346E+04</totfact>
</mgrwt>
</event>
<event>
 7    1  0.6095443E-006  0.1489314E+03  0.7546771E-02  0.1211244E+00
         -1   -1    0    0    0  501 -0.00000000000E+00  0.00000000000E+00  0.36309364524E+02  0.36309364524E+02  0.00000000000E+00 0.  1.
          1   -1    0    0  501    0  0.00000000000E+00 -0.00000000000E+00 -0.53183503847E+03  0.53183503847E+03  0.00000000000E+00 0. -1.
         23    2    1    2    0    0 -0.76001065228E+02 -0.27960252330E+02 -0.20658641941E+03  0.25467336370E+03  0.12499054311E+03 0.  0.
          5    1    3    3  502    0 -0.16146597729E+02  0.25832730767E+02 -0.15707403066E+03  0.16006993379E+03  0.47000000000E+01 0.  1.
         -5    1    3    3    0  502 -0.59854467498E+02 -0.53792983097E+02 -0.49512388749E+02  0.94603429904E+02  0.47000000000E+01 0.  1.
        -11    1    1    2    0    0  0.88911865267E+02 -0.20072476962E+01 -0.21186878504E+03  0.22977756832E+03  0.00000000000E+00 0.  1.
         11    1    1    2    0    0 -0.12910800039E+02  0.29967500026E+02 -0.77070469498E+02  0.83693470977E+02  0.00000000000E+00 0. -1.
<mgrwt>
<rscale>  0 0.14156063E+03</rscale>
<asrwt>0</asrwt>
<pdfrwt beam="2">  1        1 0.81820775E-01 0.14893144E+03</pdfrwt>
<pdfrwt beam="1">  1       -1 0.55860561E-02 0.14893144E+03</pdfrwt>
<totfact> 0.59806385E+03</totfact>
</mgrwt>
</event>
<event>
 7    1  0.6095443E-006  0.1257176E+03  0.7546771E-02  0.1247485E+00
         -1   -1    0    0    0  501 -0.00000000000E+00  0.00000000000E+00  0.13555481031E+03  0.13555481031E+03  0.00000000000E+00 0.  1.
          1   -1    0    0  501    0  0.00000000000E+00 -0.00000000000E+00 -0.11200099756E+03  0.11200099756E+03  0.00000000000E+00 0. -1.
         23    2    1    2    0    0 -0.47904764706E+01 -0.12528271310E+02  0.67166271203E+02  0.14253501272E+03  0.12500006246E+03 0.  0.
          5    1    3    3  502    0  0.87428599600E+01  0.45392093883E+02 -0.73843322982E+01  0.47047828333E+02  0.47000000000E+01 0.  1.
         -5    1    3    3    0  502 -0.13533336431E+02 -0.57920365193E+02  0.74550603501E+02  0.95487184383E+02  0.47000000000E+01 0.  1.
        -11    1    1    2    0    0  0.24814328632E+02 -0.76171289107E+01 -0.64655292890E+02  0.69671216847E+02  0.00000000000E+00 0. -1.
         11    1    1    2    0    0 -0.20023852161E+02  0.20145400221E+02  0.21042834436E+02  0.35349578307E+02  0.00000000000E+00 0.  1.
<mgrwt>
<rscale>  0 0.11737890E+03</rscale>
<asrwt>0</asrwt>
<pdfrwt beam="2">  1        1 0.17230923E-01 0.12571763E+03</pdfrwt>
<pdfrwt beam="1">  1       -1 0.20854586E-01 0.12571763E+03</pdfrwt>
<totfact> 0.55341709E+03</totfact>
</mgrwt>
</event>
<event>
 7    1  0.6095443E-006  0.1268255E+03  0.7546771E-02  0.1246876E+00
         -2   -1    0    0    0  501 -0.00000000000E+00  0.00000000000E+00  0.79291069513E+02  0.79291069513E+02  0.00000000000E+00 0.  1.
          2   -1    0    0  501    0  0.00000000000E+00 -0.00000000000E+00 -0.15475389783E+03  0.15475389783E+03  0.00000000000E+00 0. -1.
         23    2    1    2    0    0  0.16831999155E+01 -0.21324511636E+02 -0.35344385391E+02  0.13165839439E+03  0.12500855681E+03 0.  0.
          5    1    3    3  502    0  0.59852590019E+02  0.23314106279E+01 -0.33213297949E+02  0.68651155621E+02  0.47000000000E+01 0. -1.
         -5    1    3    3    0  502 -0.58169390104E+02 -0.23655922264E+02 -0.21310874422E+01  0.63007238766E+02  0.47000000000E+01 0. -1.
        -11    1    1    2    0    0 -0.14059301270E+02 -0.67580736779E+01  0.25530410294E+02  0.29918846265E+02  0.00000000000E+00 0.  1.
         11    1    1    2    0    0  0.12376101355E+02  0.28082585314E+02 -0.65648853224E+02  0.72467726695E+02  0.00000000000E+00 0. -1.
<mgrwt>
<rscale>  0 0.11773808E+03</rscale>
<asrwt>0</asrwt>
<pdfrwt beam="2">  1        2 0.23808292E-01 0.12682550E+03</pdfrwt>
<pdfrwt beam="1">  1       -2 0.12198626E-01 0.12682550E+03</pdfrwt>
<totfact> 0.10240981E+04</totfact>
</mgrwt>
</event>
<event>
 7    1  0.6095443E-006  0.1966562E+03  0.7546771E-02  0.1157084E+00
          3   -1    0    0  501    0  0.00000000000E+00  0.00000000000E+00  0.10370994361E+04  0.10370994361E+04  0.00000000000E+00 0. -1.
         -3   -1    0    0    0  501 -0.00000000000E+00 -0.00000000000E+00 -0.40633555286E+02  0.40633555286E+02  0.00000000000E+00 0.  1.
         23    2    1    2    0    0 -0.14581464447E+03  0.42276430666E+02  0.29682379982E+03  0.35605900265E+03  0.12499775238E+03 0.  0.
          5    1    3    3  502    0 -0.13123643613E+01  0.37720516168E+01  0.13697314312E+03  0.13711193460E+03  0.47000000000E+01 0. -1.
         -5    1    3    3    0  502 -0.14450228011E+03  0.38504379049E+02  0.15985065670E+03  0.21894706806E+03  0.47000000000E+01 0. -1.
        -11    1    1    2    0    0  0.25393897600E+02  0.19928436255E+02  0.63277223733E+02  0.71035200079E+02  0.00000000000E+00 0. -1.
         11    1    1    2    0    0  0.12042074687E+03 -0.62204866921E+02  0.63636485729E+03  0.65063878869E+03  0.00000000000E+00 0.  1.
<mgrwt>
<rscale>  0 0.19153516E+03</rscale>
<asrwt>0</asrwt>
<pdfrwt beam="1">  1        3 0.15955374E+00 0.19665616E+03</pdfrwt>
<pdfrwt beam="2">  1       -3 0.62513170E-02 0.19665616E+03</pdfrwt>
<totfact> 0.11430774E+02</totfact>
</mgrwt>
</event>
<event>
 7    1  0.6095443E-006  0.2089249E+03  0.7546771E-02  0.1146174E+00
          1   -1    0    0  501    0  0.00000000000E+00  0.00000000000E+00  0.17849951686E+03  0.17849951686E+03  0.00000000000E+00 0. -1.
         -1   -1    0    0    0  501 -0.00000000000E+00 -0.00000000000E+00 -0.22985132235E+03  0.22985132235E+03  0.00000000000E+00 0.  1.
         23    2    1    2    0    0 -0.14456766300E+03 -0.84394594463E+02 -0.59415428241E+02  0.21720912315E+03  0.12500941287E+03 0.  0.
          5    1    3    3  502    0 -0.46314978928E+02 -0.38061012075E+02 -0.86319168414E+02  0.10519889139E+03  0.47000000000E+01 0. -1.
         -5    1    3    3    0  502 -0.98252684075E+02 -0.46333582388E+02  0.26903740173E+02  0.11201023177E+03  0.47000000000E+01 0. -1.
        -11    1    1    2    0    0  0.85217324196E+02  0.54248673861E+02 -0.40403008057E+02  0.10879942104E+03  0.00000000000E+00 0.  1.
         11    1    1    2    0    0  0.59350338807E+02  0.30145920602E+02  0.48466630813E+02  0.82342295012E+02  0.00000000000E+00 0. -1.
<mgrwt>
<rscale>  0 0.20428421E+03</rscale>
<asrwt>0</asrwt>
<pdfrwt beam="1">  1        1 0.27461464E-01 0.20892489E+03</pdfrwt>
<pdfrwt beam="2">  1       -1 0.35361742E-01 0.20892489E+03</pdfrwt>
<totfact> 0.12958318E+03</totfact>
</mgrwt>
</event>
<event>
 7    1  0.6095443E-006  0.1305484E+03  0.7546771E-02  0.1240970E+00
          1   -1    0    0  501    0  0.00000000000E+00  0.00000000000E+00  0.40950176942E+03  0.40950176942E+03  0.00000000000E+00 0. -1.
         -1   -1    0    0    0  501 -0.00000000000E+00 -0.00000000000E+00 -0.35644516557E+02  0.35644516557E+02  0.00000000000E+00 0.  1.
         23    2    1    2    0    0 -0.35837416528E+02 -0.11584241576E+02  0.13778717656E+03  0.18981094275E+03  0.12499749152E+03 0.  0.
          5    1    3    3  502    0 -0.10855705928E+02  0.40598947396E+02  0.22264791632E+01  0.42345815499E+02  0.47000000000E+01 0.  1.
         -5    1    3    3    0  502 -0.24981710600E+02 -0.52183188972E+02  0.13556069740E+03  0.14746512725E+03  0.47000000000E+01 0.  1.
        -11    1    1    2    0    0 -0.30205987827E+02  0.66295387686E+01  0.68781607995E+02  0.75413938256E+02  0.00000000000E+00 0.  1.
         11    1    1    2    0    0  0.66043404355E+02  0.49547028075E+01  0.16728846831E+03  0.17992140498E+03  0.00000000000E+00 0. -1.
<mgrwt>
<rscale>  0 0.12129854E+03</rscale>
<asrwt>0</asrwt>
<pdfrwt beam="1">  1        1 0.63000269E-01 0.13054841E+03</pdfrwt>
<pdfrwt beam="2">  1       -1 0.54837721E-02 0.13054841E+03</pdfrwt>
<totfact> 0.85445416E+03</totfact>
</mgrwt>
</event>
<event>
 7    1  0.6095443E-006  0.1412937E+03  0.7546771E-02  0.1223180E+00
         -1   -1    0    0    0  501 -0.00000000000E+00  0.00000000000E+00  0.14756452278E+03  0.14756452278E+03  0.00000000000E+00 0.  1.
          1   -1    0    0  501    0  0.00000000000E+00 -0.00000000000E+00 -0.11455431848E+03  0.11455431848E+03  0.00000000000E+00 0. -1.
         23    2    1    2    0    0  0.59077341512E+02 -0.29130473464E+02  0.50546973024E+02  0.15006304233E+03  0.12500081370E+03 0.  0.
          5    1    3    3  502    0  0.37668630592E+01 -0.39478137886E+02 -0.31222522200E+02  0.50691700709E+02  0.47000000000E+01 0. -1.
         -5    1    3    3    0  502  0.55310478453E+02  0.10347664421E+02  0.81769495224E+02  0.99371341617E+02  0.47000000000E+01 0. -1.
        -11    1    1    2    0    0 -0.34251821244E+02 -0.19427235059E+02  0.21616309912E+02  0.44920703187E+02  0.00000000000E+00 0.  1.
         11    1    1    2    0    0 -0.24825520268E+02  0.48557708524E+02 -0.39153078642E+02  0.67135095746E+02  0.00000000000E+00 0. -1.
<mgrwt>
<rscale>  0 0.13292437E+03</rscale>
<asrwt>0</asrwt>
<pdfrwt beam="2">  1        1 0.17623741E-01 0.14129374E+03</pdfrwt>
<pdfrwt beam="1">  1       -1 0.22702234E-01 0.14129374E+03</pdfrwt>
<totfact> 0.47218079E+03</totfact>
</mgrwt>
</event>
<event>
 7    1  0.6095443E-006  0.1301201E+03  0.7546771E-02  0.1242113E+00
         -4   -1    0    0    0  501 -0.00000000000E+00  0.00000000000E+00  0.22380874954E+03  0.22380874954E+03  0.00000000000E+00 0. -1.
          4   -1    0    0  501    0  0.00000000000E+00 -0.00000000000E+00 -0.57534877210E+02  0.57534877210E+02  0.00000000000E+00 0.  1.
         23    2    1    2    0    0 -0.36096454396E+02  0.23130851487E+01  0.83782710206E+02  0.15476037830E+03  0.12499171084E+03 0.  0.
          5    1    3    3  502    0 -0.33268407203E+02  0.54503934109E+02  0.10898001037E+02  0.64948611823E+02  0.47000000000E+01 0. -1.
         -5    1    3    3    0  502 -0.28280471930E+01 -0.52190848960E+02  0.72884709170E+02  0.89811766472E+02  0.47000000000E+01 0. -1.
        -11    1    1    2    0    0  0.12951942867E+02 -0.26858165025E+02 -0.72701612411E+01  0.30691515065E+02  0.00000000000E+00 0.  1.
         11    1    1    2    0    0  0.23144511529E+02  0.24545079876E+02  0.89761323364E+02  0.95891733388E+02  0.00000000000E+00 0. -1.
<mgrwt>
<rscale>  0 0.12059822E+03</rscale>
<asrwt>0</asrwt>
<pdfrwt beam="2">  1        4 0.88515197E-02 0.13012007E+03</pdfrwt>
<pdfrwt beam="1">  1       -4 0.34432115E-01 0.13012007E+03</pdfrwt>
<totfact> 0.12429634E+03</totfact>
</mgrwt>
</event>
<event>
 7    1  0.6095443E-006  0.1338102E+03  0.7546771E-02  0.1243497E+00
          1   -1    0    0  501    0  0.00000000000E+00  0.00000000000E+00  0.12367871476E+03  0.12367871476E+03  0.00000000000E+00 0. -1.
         -1   -1    0    0    0  501 -0.00000000000E+00 -0.00000000000E+00 -0.11173248200E+03  0.11173248200E+03  0.00000000000E+00 0.  1.
         23    2    1    2    0    0 -0.47734822383E+02  0.25542378412E+00 -0.33966127890E+02  0.13805382430E+03  0.12500592807E+03 0.  0.
          5    1    3    3  502    0  0.32796178250E+02  0.32967826234E+02 -0.13074068740E+02  0.48533371486E+02  0.47000000000E+01 0. -1.
         -5    1    3    3    0  502 -0.80531000633E+02 -0.32712402450E+02 -0.20892059149E+02  0.89520452817E+02  0.47000000000E+01 0. -1.
        -11    1    1    2    0    0  0.23332017206E+02  0.14842796723E+02  0.59496320164E+02  0.65608717062E+02  0.00000000000E+00 0. -1.
         11    1    1    2    0    0  0.24402805178E+02 -0.15098220507E+02 -0.13583959512E+02  0.31748655389E+02  0.00000000000E+00 0.  1.
<mgrwt>
<rscale>  0 0.11975787E+03</rscale>
<asrwt>0</asrwt>
<pdfrwt beam="1">  1        1 0.19027495E-01 0.13381017E+03</pdfrwt>
<pdfrwt beam="2">  1       -1 0.17189613E-01 0.13381017E+03</pdfrwt>
<totfact> 0.66659854E+03</totfact>
</mgrwt>
</event>
<event>
 7    1  0.6095443E-006  0.1861975E+03  0.7546771E-02  0.1166321E+00
         -2   -1    0    0    0  501 -0.00000000000E+00  0.00000000000E+00  0.43409901489E+02  0.43409901489E+02  0.00000000000E+00 0. -1.
          2   -1    0    0  501    0  0.00000000000E+00 -0.00000000000E+00 -0.76990381126E+03  0.76990381126E+03  0.00000000000E+00 0.  1.
         23    2    1    2    0    0 -0.10405994380E+03  0.90672496156E+02 -0.48019936063E+03  0.51503487427E+03  0.12497808728E+03 0.  0.
          5    1    3    3  502    0 -0.40398152000E+01  0.77640542641E+02 -0.28251633049E+03  0.29305620785E+03  0.47000000000E+01 0. -1.
         -5    1    3    3    0  502 -0.10002012860E+03  0.13031953515E+02 -0.19768303015E+03  0.22197866642E+03  0.47000000000E+01 0. -1.
        -11    1    1    2    0    0  0.12086299523E+03 -0.74713336708E+02 -0.18884270252E+03  0.23632924617E+03  0.00000000000E+00 0. -1.
         11    1    1    2    0    0 -0.16803051431E+02 -0.15959159448E+02 -0.57451846624E+02  0.61949592316E+02  0.00000000000E+00 0.  1.
<mgrwt>
<rscale>  0 0.18153961E+03</rscale>
<asrwt>0</asrwt>
<pdfrwt beam="2">  1        2 0.11844675E+00 0.18619746E+03</pdfrwt>
<pdfrwt beam="1">  1       -2 0.66784459E-02 0.18619746E+03</pdfrwt>
<totfact> 0.45989227E+03</totfact>
</mgrwt>
</event>
<event>
 7    1  0.6095443E-006  0.1259649E+03  0.7546771E-02  0.1246110E+00
         -1   -1    0    0    0  501 -0.00000000000E+00  0.00000000000E+00  0.65516698153E+02  0.65516698153E+02  0.00000000000E+00 0.  1.
          1   -1    0    0  501    0  0.00000000000E+00 -0.00000000000E+00 -0.20114869550E+03  0.20114869550E+03  0.00000000000E+00 0. -1.
         23    2    1    2    0    0 -0.49442409292E+00 -0.15569137009E+02 -0.45923977079E+02  0.13407524184E+03  0.12499806527E+03 0.  0.
          5    1    3    3  502    0  0.40813619686E+02 -0.35184485148E+02 -0.64775913021E+02  0.84390215397E+02  0.47000000000E+01 0. -1.
         -5    1    3    3    0  502 -0.41308043779E+02  0.19615348140E+02  0.18851935942E+02  0.49685026439E+02  0.47000000000E+01 0. -1.
        -11    1    1    2    0    0 -0.13420281204E+02 -0.38662617972E+02 -0.45931641450E+02  0.61519246276E+02  0.00000000000E+00 0.  1.
         11    1    1    2    0    0  0.13914705297E+02  0.54231754981E+02 -0.43776378815E+02  0.71070905538E+02  0.00000000000E+00 0. -1.
<mgrwt>
<rscale>  0 0.11819217E+03</rscale>
<asrwt>0</asrwt>
<pdfrwt beam="2">  1        1 0.30945953E-01 0.12596491E+03</pdfrwt>
<pdfrwt beam="1">  1       -1 0.10079492E-01 0.12596491E+03</pdfrwt>
<totfact> 0.82485682E+03</totfact>
</mgrwt>
</event>
<event>
 7    1  0.6095443E-006  0.1690966E+03  0.7546771E-02  0.1185305E+00
          2   -1    0    0  501    0  0.00000000000E+00  0.00000000000E+00  0.21351322504E+03  0.21351322504E+03  0.00000000000E+00 0. -1.
         -2   -1    0    0    0  501 -0.00000000000E+00 -0.00000000000E+00 -0.14622492749E+03  0.14622492749E+03  0.00000000000E+00 0.  1.
         23    2    1    2    0    0 -0.20780143317E+02  0.11198144592E+03 -0.45522105676E+02  0.17511684148E+03  0.12498794933E+03 0.  0.
          5    1    3    3  502    0  0.47916755978E+02  0.21247252469E+02 -0.28801895906E+02  0.59992503271E+02  0.47000000000E+01 0.  1.
         -5    1    3    3    0  502 -0.68696899295E+02  0.90734193448E+02 -0.16720209770E+02  0.11512433821E+03  0.47000000000E+01 0.  1.
        -11    1    1    2    0    0 -0.10889558188E+02 -0.48695427968E+02  0.10130116875E+03  0.11292366436E+03  0.00000000000E+00 0. -1.
         11    1    1    2    0    0  0.31669701505E+02 -0.63286017949E+02  0.11509234475E+02  0.71697646680E+02  0.00000000000E+00 0.  1.
<mgrwt>
<rscale>  0 0.16304155E+03</rscale>
<asrwt>0</asrwt>
<pdfrwt beam="1">  1        2 0.32848189E-01 0.16909656E+03</pdfrwt>
<pdfrwt beam="2">  1       -2 0.22496143E-01 0.16909656E+03</pdfrwt>
<totfact> 0.26580018E+03</totfact>
</mgrwt>
</event>
<event>
 7    1  0.6095443E-006  0.2179708E+03  0.7546771E-02  0.1139126E+00
         -1   -1    0    0    0  501 -0.00000000000E+00  0.00000000000E+00  0.52438586629E+02  0.52438586629E+02  0.00000000000E+00 0.  1.
          1   -1    0    0  501    0  0.00000000000E+00 -0.00000000000E+00 -0.84616803140E+03  0.84616803140E+03  0.00000000000E+00 0. -1.
         23    2    1    2    0    0  0.16494256002E+02 -0.17783123806E+03 -0.35156444600E+03  0.41365301488E+03  0.12496098319E+03 0.  0.
          5    1    3    3  502    0  0.27713604669E+02 -0.11545193281E+03 -0.10351155619E+03  0.15758783245E+03  0.47000000000E+01 0.  1.
         -5    1    3    3    0  502 -0.11219348666E+02 -0.62379305248E+02 -0.24805288981E+03  0.25606518243E+03  0.47000000000E+01 0.  1.
        -11    1    1    2    0    0 -0.31554453204E+01  0.11662300233E+03 -0.17346570155E+03  0.20904839421E+03  0.00000000000E+00 0.  1.
         11    1    1    2    0    0 -0.13338810682E+02  0.61208235728E+02 -0.26869929722E+03  0.27590520894E+03  0.00000000000E+00 0. -1.
<mgrwt>
<rscale>  0 0.21311137E+03</rscale>
<asrwt>0</asrwt>
<pdfrwt beam="2">  1        1 0.13017970E+00 0.21797077E+03</pdfrwt>
<pdfrwt beam="1">  1       -1 0.80674745E-02 0.21797077E+03</pdfrwt>
<totfact> 0.17889797E+03</totfact>
</mgrwt>
</event>
<event>
 7    1  0.6095443E-006  0.2786983E+03  0.7546771E-02  0.1098227E+00
          2   -1    0    0  501    0  0.00000000000E+00  0.00000000000E+00  0.16952816667E+04  0.16952816667E+04  0.00000000000E+00 0. -1.
         -2   -1    0    0    0  501 -0.00000000000E+00 -0.00000000000E+00 -0.50890365262E+02  0.50890365262E+02  0.00000000000E+00 0.  1.
         23    2    1    2    0    0  0.79139892318E+02  0.23619904033E+03  0.51117206360E+03  0.58221097923E+03  0.12497854428E+03 0.  0.
          5    1    3    3  502    0  0.45455757936E+02  0.23661177310E+03  0.47453855614E+03  0.53222202920E+03  0.47000000000E+01 0. -1.
         -5    1    3    3    0  502  0.33684134382E+02 -0.41273276838E+00  0.36633507456E+02  0.49988950038E+02  0.47000000000E+01 0. -1.
        -11    1    1    2    0    0 -0.48504548464E+02 -0.78894300228E+02  0.25632601811E+03  0.27254362841E+03  0.00000000000E+00 0.  1.
         11    1    1    2    0    0 -0.30635343854E+02 -0.15730474010E+03  0.87689321977E+03  0.89141742435E+03  0.00000000000E+00 0. -1.
<mgrwt>
<rscale>  0 0.27540151E+03</rscale>
<asrwt>0</asrwt>
<pdfrwt beam="1">  1        2 0.26081252E+00 0.27869831E+03</pdfrwt>
<pdfrwt beam="2">  1       -2 0.78292883E-02 0.27869831E+03</pdfrwt>
<totfact> 0.10511887E+03</totfact>
</mgrwt>
</event>
<event>
 7    1  0.6095443E-006  0.1473876E+03  0.7546771E-02  0.1213129E+00
         -2   -1    0    0    0  501 -0.00000000000E+00  0.00000000000E+00  0.10159973220E+03  0.10159973220E+03  0.00000000000E+00 0. -1.
          2   -1    0    0  501    0  0.00000000000E+00 -0.00000000000E+00 -0.19472548595E+03  0.19472548595E+03  0.00000000000E+00 0.  1.
         23    2    1    2    0    0  0.55663154310E+02 -0.54697924015E+02 -0.57813119430E+01  0.14750096119E+03  0.12503143742E+03 0.  0.
          5    1    3    3  502    0  0.18387660679E+02  0.26822699559E+02  0.35785088383E+02  0.48582155443E+02  0.47000000000E+01 0.  1.
         -5    1    3    3    0  502  0.37275493631E+02 -0.81520623574E+02 -0.41566400326E+02  0.98918805742E+02  0.47000000000E+01 0.  1.
        -11    1    1    2    0    0  0.48351940204E+01 -0.99426711473E+01 -0.52545100561E+02  0.53695655353E+02  0.00000000000E+00 0.  1.
         11    1    1    2    0    0 -0.60498348330E+02  0.64640595162E+02 -0.34799341250E+02  0.95128601614E+02  0.00000000000E+00 0. -1.
<mgrwt>
<rscale>  0 0.14014903E+03</rscale>
<asrwt>0</asrwt>
<pdfrwt beam="2">  1        2 0.29957767E-01 0.14738762E+03</pdfrwt>
<pdfrwt beam="1">  1       -2 0.15630728E-01 0.14738762E+03</pdfrwt>
<totfact> 0.53854655E+03</totfact>
</mgrwt>
</event>
<event>
 7    1  0.6095443E-006  0.1834516E+03  0.7546771E-02  0.1169929E+00
         -2   -1    0    0    0  501 -0.00000000000E+00  0.00000000000E+00  0.70856650213E+02  0.70856650213E+02  0.00000000000E+00 0.  1.
          2   -1    0    0  501    0  0.00000000000E+00 -0.00000000000E+00 -0.62026735615E+03  0.62026735615E+03  0.00000000000E+00 0. -1.
         23    2    1    2    0    0  0.12389686878E+03 -0.51754918293E+02 -0.90664635725E+02  0.20463275251E+03  0.12500192626E+03 0.  0.
          5    1    3    3  502    0  0.80680938243E+02 -0.46723541211E+02 -0.11993615533E+03  0.15198445465E+03  0.47000000000E+01 0.  1.
         -5    1    3    3    0  502  0.43215930534E+02 -0.50313770819E+01  0.29271519608E+02  0.52648297858E+02  0.47000000000E+01 0.  1.
        -11    1    1    2    0    0 -0.92064116970E+02  0.68725189484E+02 -0.25650724960E+03  0.28106035366E+03  0.00000000000E+00 0.  1.
         11    1    1    2    0    0 -0.31832751807E+02 -0.16970271191E+02 -0.20223882062E+03  0.20543090020E+03  0.00000000000E+00 0. -1.
<mgrwt>
<rscale>  0 0.17782064E+03</rscale>
<asrwt>0</asrwt>
<pdfrwt beam="2">  1        2 0.95425744E-01 0.18345159E+03</pdfrwt>
<pdfrwt beam="1">  1       -2 0.10901023E-01 0.18345159E+03</pdfrwt>
<totfact> 0.27677312E+03</totfact>
</mgrwt>
</event>
<event>
 7    1  0.6095443E-006  0.1359405E+03  0.7546771E-02  0.1230555E+00
          4   -1    0    0  501    0  0.00000000000E+00  0.00000000000E+00  0.21633798458E+02  0.21633798458E+02  0.00000000000E+00 0. -1.
         -4   -1    0    0    0  501 -0.00000000000E+00 -0.00000000000E+00 -0.70768686574E+03  0.70768686574E+03  0.00000000000E+00 0.  1.
         23    2    1    2    0    0  0.43943972693E+02 -0.30380722031E+02 -0.45450129027E+03  0.47439566457E+03  0.12500305076E+03 0.  0.
          5    1    3    3  502    0  0.44442191386E+02 -0.76752465720E+02 -0.27795853986E+03  0.29180316868E+03  0.47000000000E+01 0. -1.
         -5    1    3    3    0  502 -0.49821869217E+00  0.46371743689E+02 -0.17654275041E+03  0.18259249589E+03  0.47000000000E+01 0. -1.
        -11    1    1    2    0    0 -0.67872370613E+02 -0.78699829109E-01 -0.14469787735E+03  0.15982534403E+03  0.00000000000E+00 0. -1.
         11    1    1    2    0    0  0.23928397920E+02  0.30459421860E+02 -0.86853899665E+02  0.95099655594E+02  0.00000000000E+00 0.  1.
<mgrwt>
<rscale>  0 0.12793350E+03</rscale>
<asrwt>0</asrwt>
<pdfrwt beam="1">  1        4 0.33282765E-02 0.13594052E+03</pdfrwt>
<pdfrwt beam="2">  1       -4 0.10887491E+00 0.13594052E+03</pdfrwt>
<totfact> 0.53324884E+02</totfact>
</mgrwt>
</event>
<event>
 7    1  0.6095443E-006  0.1548680E+03  0.7546771E-02  0.1203093E+00
         -1   -1    0    0    0  501 -0.00000000000E+00  0.00000000000E+00  0.23401994298E+03  0.23401994298E+03  0.00000000000E+00 0.  1.
          1   -1    0    0  501    0  0.00000000000E+00 -0.00000000000E+00 -0.19655855537E+03  0.19655855537E+03  0.00000000000E+00 0. -1.
         23    2    1    2    0    0 -0.91036433439E+02  0.84979822098E+01  0.18068486017E+03  0.23797292234E+03  0.12499698060E+03 0.  0.
          5    1    3    3  502    0 -0.11442745771E+03  0.33095693805E+02  0.15274948168E+03  0.19376135368E+03  0.47000000000E+01 0. -1.
         -5    1    3    3    0  502  0.23391024273E+02 -0.24597711595E+02  0.27935378489E+02  0.44211568662E+02  0.47000000000E+01 0. -1.
        -11    1    1    2    0    0  0.77086494105E+02  0.44107005631E+01 -0.15289116271E+03  0.17128190064E+03  0.00000000000E+00 0. -1.
         11    1    1    2    0    0  0.13949939334E+02 -0.12908682773E+02  0.96676901490E+01  0.21323675367E+02  0.00000000000E+00 0.  1.
<mgrwt>
<rscale>  0 0.14788776E+03</rscale>
<asrwt>0</asrwt>
<pdfrwt beam="2">  1        1 0.30239778E-01 0.15486799E+03</pdfrwt>
<pdfrwt beam="1">  1       -1 0.36003068E-01 0.15486799E+03</pdfrwt>
<totfact> 0.11063397E+03</totfact>
</mgrwt>
</event>
<event>
 7    1  0.6095443E-006  0.1517343E+03  0.7546771E-02  0.1209840E+00
          3   -1    0    0  501    0  0.00000000000E+00  0.00000000000E+00  0.50732968178E+02  0.50732968178E+02  0.00000000000E+00 0. -1.
         -3   -1    0    0    0  501 -0.00000000000E+00 -0.00000000000E+00 -0.42693413227E+03  0.42693413227E+03  0.00000000000E+00 0.  1.
         23    2    1    2    0    0  0.34412959256E+02 -0.78817822526E+02 -0.30177863064E+03  0.33777748205E+03  0.12500713802E+03 0.  0.
          5    1    3    3  502    0 -0.18261133591E+02  0.11475844923E+02 -0.16026668040E+03  0.16177967383E+03  0.47000000000E+01 0. -1.
         -5    1    3    3    0  502  0.52674092847E+02 -0.90293667449E+02 -0.14151195024E+03  0.17599780822E+03  0.47000000000E+01 0. -1.
        -11    1    1    2    0    0 -0.55258492864E+02  0.47508698057E+02 -0.71612395161E+02  0.10217099669E+03  0.00000000000E+00 0.  1.
         11    1    1    2    0    0  0.20845533608E+02  0.31309124469E+02 -0.28101382966E+01  0.37718621709E+02  0.00000000000E+00 0. -1.
<mgrwt>
<rscale>  0 0.14262526E+03</rscale>
<asrwt>0</asrwt>
<pdfrwt beam="1">  1        3 0.78050721E-02 0.15173426E+03</pdfrwt>
<pdfrwt beam="2">  1       -3 0.65682173E-01 0.15173426E+03</pdfrwt>
<totfact> 0.59549338E+02</totfact>
</mgrwt>
</event>
<event>
 7    1  0.6095443E-006  0.2093350E+03  0.7546771E-02  0.1145807E+00
         -2   -1    0    0    0  501 -0.00000000000E+00  0.00000000000E+00  0.24221367341E+03  0.24221367341E+03  0.00000000000E+00 0.  1.
          2   -1    0    0  501    0  0.00000000000E+00 -0.00000000000E+00 -0.23113049666E+03  0.23113049666E+03  0.00000000000E+00 0. -1.
         23    2    1    2    0    0  0.14674446361E+03  0.81617826797E+02  0.13140742634E+03  0.24716196607E+03  0.12500287406E+03 0.  0.
          5    1    3    3  502    0  0.66404068907E+01 -0.23578966890E+02 -0.45400083356E+01  0.25352797853E+02  0.47000000000E+01 0. -1.
         -5    1    3    3    0  502  0.14010405672E+03  0.10519679369E+03  0.13594743467E+03  0.22180916822E+03  0.47000000000E+01 0. -1.
        -11    1    1    2    0    0 -0.69401536786E+02 -0.45605726575E+02 -0.56291304129E+01  0.83235465481E+02  0.00000000000E+00 0.  1.
         11    1    1    2    0    0 -0.77342926823E+02 -0.36012100222E+02 -0.11469511918E+03  0.14294673852E+03  0.00000000000E+00 0. -1.
<mgrwt>
<rscale>  0 0.20473198E+03</rscale>
<asrwt>0</asrwt>
<pdfrwt beam="2">  1        2 0.35558538E-01 0.20933496E+03</pdfrwt>
<pdfrwt beam="1">  1       -2 0.37263642E-01 0.20933496E+03</pdfrwt>
<totfact> 0.98873454E+02</totfact>
</mgrwt>
</event>
<event>
 6    1  0.6095443E-006  0.2712782E+03  0.7546771E-02  0.1100550E+00
         -2   -1    0    0    0  501 -0.00000000000E+00  0.00000000000E+00  0.95758814996E+02  0.95758814996E+02  0.00000000000E+00 0.  1.
          2   -1    0    0  501    0  0.00000000000E+00 -0.00000000000E+00 -0.19212815296E+03  0.19212815296E+03  0.00000000000E+00 0. -1.
          5    1    1    2  502    0 -0.12695357046E+02 -0.64192314052E+01 -0.10449641656E+03  0.10556500223E+03  0.47000000000E+01 0. -1.
         -5    1    1    2    0  502  0.68975136742E+02  0.16659922677E+02  0.20466439935E+02  0.74000592401E+02  0.47000000000E+01 0.  1.
        -11    1    1    2    0    0 -0.10412533952E+01 -0.38850510489E+02 -0.23068365403E+02  0.45195086639E+02  0.00000000000E+00 0.  1.
         11    1    1    2    0    0 -0.55238526300E+02  0.28609819217E+02  0.10729004056E+02  0.63126286691E+02  0.00000000000E+00 0. -1.
<mgrwt>
<rscale>  0 0.27127819E+03</rscale>
<asrwt>0</asrwt>
<pdfrwt beam="2">  1        2 0.29558177E-01 0.27127819E+03</pdfrwt>
<pdfrwt beam="1">  1       -2 0.14732126E-01 0.27127819E+03</pdfrwt>
<totfact> 0.62364217E+03</totfact>
</mgrwt>
</event>
<event>
 7    1  0.8655080E-006  0.2003623E+03  0.7546771E-02  0.1153452E+00
         -3   -1    0    0    0  501 -0.00000000000E+00  0.00000000000E+00  0.14732984512E+03  0.14732984512E+03  0.00000000000E+00 0.  1.
          3   -1    0    0  501    0  0.00000000000E+00 -0.00000000000E+00 -0.25072212720E+03  0.25072212720E+03  0.00000000000E+00 0. -1.
         23    2    1    2    0    0 -0.15325970267E+03  0.32110270381E+02 -0.34821356933E+02  0.20336557963E+03  0.12500170461E+03 0.  0.
          5    1    3    3  502    0 -0.10432546540E+03 -0.32207076037E+02  0.11845295937E+02  0.10992497220E+03  0.47000000000E+01 0. -1.
         -5    1    3    3    0  502 -0.48934237274E+02  0.64317346417E+02 -0.46666652870E+02  0.93440607435E+02  0.47000000000E+01 0. -1.
        -11    1    1    2    0    0  0.11981015304E+03 -0.32209983589E+02 -0.65703751323E+01  0.12423818110E+03  0.00000000000E+00 0.  1.
         11    1    1    2    0    0  0.33449549632E+02  0.99713208506E-01 -0.62000550017E+02  0.70448211586E+02  0.00000000000E+00 0. -1.
<mgrwt>
<rscale>  0 0.19566157E+03</rscale>
<asrwt>0</asrwt>
<pdfrwt beam="2">  1        3 0.38572635E-01 0.20036225E+03</pdfrwt>
<pdfrwt beam="1">  1       -3 0.22666130E-01 0.20036225E+03</pdfrwt>
<totfact> 0.29205717E+02</totfact>
</mgrwt>
</event>
<event>
 7    1  0.6095443E-006  0.1276677E+03  0.7546771E-02  0.1237707E+00
          1   -1    0    0  501    0  0.00000000000E+00  0.00000000000E+00  0.11209460208E+03  0.11209460208E+03  0.00000000000E+00 0. -1.
         -1   -1    0    0    0  501 -0.00000000000E+00 -0.00000000000E+00 -0.18692706296E+03  0.18692706296E+03  0.00000000000E+00 0.  1.
         23    2    1    2    0    0  0.46700598909E+02 -0.40430915059E+02 -0.12353388493E+03  0.17765041474E+03  0.11172933500E+03 0.  0.
          5    1    3    3  502    0 -0.77765674024E+01 -0.64026440642E+02 -0.84657644089E+02  0.10653106028E+03  0.47000000000E+01 0. -1.
         -5    1    3    3    0  502  0.54477166312E+02  0.23595525583E+02 -0.38876240844E+02  0.71119354462E+02  0.47000000000E+01 0.  1.
        -11    1    1    2    0    0  0.18535306631E+02  0.18434658927E+02 -0.12754189314E+02  0.29087172203E+02  0.00000000000E+00 0.  1.
         11    1    1    2    0    0 -0.65235905541E+02  0.21996256132E+02  0.61455613362E+02  0.92284078092E+02  0.00000000000E+00 0. -1.
<mgrwt>
<rscale>  0 0.12332736E+03</rscale>
<asrwt>0</asrwt>
<pdfrwt beam="1">  1        1 0.17245324E-01 0.12766773E+03</pdfrwt>
<pdfrwt beam="2">  1       -1 0.28758009E-01 0.12766773E+03</pdfrwt>
<totfact> 0.32701617E+03</totfact>
</mgrwt>
</event>
<event>
 7    1  0.6095443E-006  0.1457261E+03  0.7546771E-02  0.1215590E+00
         -4   -1    0    0    0  501 -0.00000000000E+00  0.00000000000E+00  0.17654421391E+03  0.17654421391E+03  0.00000000000E+00 0.  1.
          4   -1    0    0  501    0  0.00000000000E+00 -0.00000000000E+00 -0.99174452352E+02  0.99174452352E+02  0.00000000000E+00 0. -1.
         23    2    1    2    0    0  0.62668136581E+02  0.41031964043E+02  0.51794737107E+02  0.15465698838E+03  0.12500068739E+03 0.  0.
          5    1    3    3  502    0  0.64224494026E+02  0.41533130169E+01  0.83668396895E+02  0.10566232195E+03  0.47000000000E+01 0.  1.
         -5    1    3    3    0  502 -0.15563574448E+01  0.36878651026E+02 -0.31873659788E+02  0.48994666427E+02  0.47000000000E+01 0.  1.
        -11    1    1    2    0    0 -0.12437178141E+02 -0.15328199418E+02  0.54277626672E+02  0.57755500644E+02  0.00000000000E+00 0.  1.
         11    1    1    2    0    0 -0.50230958440E+02 -0.25703764625E+02 -0.28702602223E+02  0.63306177235E+02  0.00000000000E+00 0. -1.
<mgrwt>
<rscale>  0 0.13833310E+03</rscale>
<asrwt>0</asrwt>
<pdfrwt beam="2">  1        4 0.15257608E-01 0.14572608E+03</pdfrwt>
<pdfrwt beam="1">  1       -4 0.27160648E-01 0.14572608E+03</pdfrwt>
<totfact> 0.78733354E+02</totfact>
</mgrwt>
</event>
<event>
 7    1  0.6095443E-006  0.1537711E+03  0.7546771E-02  0.1205368E+00
         -1   -1    0    0    0  501 -0.00000000000E+00  0.00000000000E+00  0.16427112806E+03  0.16427112806E+03  0.00000000000E+00 0.  1.
          1   -1    0    0  501    0  0.00000000000E+00 -0.00000000000E+00 -0.18803569831E+03  0.18803569831E+03  0.00000000000E+00 0. -1.
         23    2    1    2    0    0  0.40347364509E+02  0.79946760587E+02  0.94130758896E+02  0.18029458536E+03  0.12500457347E+03 0.  0.
          5    1    3    3  502    0 -0.16870712723E+02 -0.26407439616E+02  0.29235985516E+02  0.43113880178E+02  0.47000000000E+01 0. -1.
         -5    1    3    3    0  502  0.57218077232E+02  0.10635420020E+03  0.64894773380E+02  0.13718070519E+03  0.47000000000E+01 0. -1.
        -11    1    1    2    0    0 -0.46666511245E+02 -0.55735369992E+02 -0.26691147182E+02  0.77437794892E+02  0.00000000000E+00 0.  1.
         11    1    1    2    0    0  0.63191467356E+01 -0.24211390595E+02 -0.91204181965E+02  0.94574446115E+02  0.00000000000E+00 0. -1.
<mgrwt>
<rscale>  0 0.14608480E+03</rscale>
<asrwt>0</asrwt>
<pdfrwt beam="2">  1        1 0.28928569E-01 0.15377106E+03</pdfrwt>
<pdfrwt beam="1">  1       -1 0.25272481E-01 0.15377106E+03</pdfrwt>
<totfact> 0.21241435E+03</totfact>
</mgrwt>
</event>
<event>
 7    1  0.6095443E-006  0.1318199E+03  0.7546771E-02  0.1248114E+00
          2   -1    0    0  501    0  0.00000000000E+00  0.00000000000E+00  0.32969685586E+03  0.32969685586E+03  0.00000000000E+00 0.  1.
         -2   -1    0    0    0  501 -0.00000000000E+00 -0.00000000000E+00 -0.36130577500E+02  0.36130577500E+02  0.00000000000E+00 0. -1.
         23    2    1    2    0    0  0.40445781448E+02  0.10743749552E+02  0.21616109442E+03  0.25318392627E+03  0.12500076956E+03 0.  0.
          5    1    3    3  502    0  0.29996747752E+02 -0.24382268132E+02  0.21251929291E+03  0.21605749173E+03  0.47000000000E+01 0.  1.
         -5    1    3    3    0  502  0.10449033696E+02  0.35126017684E+02  0.36418015088E+01  0.37126434541E+02  0.47000000000E+01 0.  1.
        -11    1    1    2    0    0 -0.26057194847E+02 -0.34237435993E+02  0.73011252078E+02  0.84745633260E+02  0.00000000000E+00 0. -1.
         11    1    1    2    0    0 -0.14388586601E+02  0.23493686441E+02  0.43939318685E+01  0.27897873830E+02  0.00000000000E+00 0.  1.
<mgrwt>
<rscale>  0 0.11700939E+03</rscale>
<asrwt>0</asrwt>
<pdfrwt beam="1">  1        2 0.50722591E-01 0.13181988E+03</pdfrwt>
<pdfrwt beam="2">  1       -2 0.55585506E-02 0.13181988E+03</pdfrwt>
<totfact> 0.15396921E+04</totfact>
</mgrwt>
</event>
<event>
 7    1  0.6095443E-006  0.1250446E+03  0.7546771E-02  0.1250218E+00
         -1   -1    0    0    0  501 -0.00000000000E+00  0.00000000000E+00  0.47926904579E+03  0.47926904579E+03  0.00000000000E+00 0.  1.
          1   -1    0    0  501    0  0.00000000000E+00 -0.00000000000E+00 -0.42948501837E+02  0.42948501837E+02  0.00000000000E+00 0. -1.
         23    2    1    2    0    0  0.18134657414E+01  0.32492496958E+01  0.40693837092E+03  0.42571702472E+03  0.12498920405E+03 0.  0.
          5    1    3    3  502    0 -0.32365041790E+02  0.54265117651E+02  0.21485251542E+03  0.22399975961E+03  0.47000000000E+01 0.  1.
         -5    1    3    3    0  502  0.34178507531E+02 -0.51015867956E+02  0.19208585550E+03  0.20171726511E+03  0.47000000000E+01 0.  1.
        -11    1    1    2    0    0 -0.57725526044E+01  0.30697749355E+02 -0.19524107042E+02  0.36835647610E+02  0.00000000000E+00 0. -1.
         11    1    1    2    0    0  0.39590868630E+01 -0.33946999051E+02  0.48906280078E+02  0.59664875299E+02  0.00000000000E+00 0.  1.
<mgrwt>
<rscale>  0 0.11578427E+03</rscale>
<asrwt>0</asrwt>
<pdfrwt beam="2">  1        1 0.66074622E-02 0.12504458E+03</pdfrwt>
<pdfrwt beam="1">  1       -1 0.73733695E-01 0.12504458E+03</pdfrwt>
<totfact> 0.21098639E+03</totfact>
</mgrwt>
</event>
<event>
 7    1  0.6095443E-006  0.1314396E+03  0.7546771E-02  0.1238648E+00
         -1   -1    0    0    0  501 -0.00000000000E+00  0.00000000000E+00  0.23358547602E+03  0.23358547602E+03  0.00000000000E+00 0. -1.
          1   -1    0    0  501    0  0.00000000000E+00 -0.00000000000E+00 -0.62320443441E+02  0.62320443441E+02  0.00000000000E+00 0.  1.
         23    2    1    2    0    0  0.25362757963E+02 -0.31763575029E+02  0.13799356470E+03  0.19057437189E+03  0.12499669249E+03 0.  0.
          5    1    3    3  502    0  0.10185892621E+02  0.17433905796E+02 -0.17236951836E+02  0.26961008668E+02  0.47000000000E+01 0.  1.
         -5    1    3    3    0  502  0.15176865342E+02 -0.49197480825E+02  0.15523051653E+03  0.16361336322E+03  0.47000000000E+01 0.  1.
        -11    1    1    2    0    0 -0.41726509284E+02 -0.17562794287E+02  0.34259463393E+01  0.45401436415E+02  0.00000000000E+00 0.  1.
         11    1    1    2    0    0  0.16363751322E+02  0.49326369316E+02  0.29845521544E+02  0.59930111158E+02  0.00000000000E+00 0. -1.
<mgrwt>
<rscale>  0 0.12273773E+03</rscale>
<asrwt>0</asrwt>
<pdfrwt beam="2">  1        1 0.95877607E-02 0.13143960E+03</pdfrwt>
<pdfrwt beam="1">  1       -1 0.35936227E-01 0.13143960E+03</pdfrwt>
<totfact> 0.48312155E+03</totfact>
</mgrwt>
</event>
<event>
 7    1  0.6095443E-006  0.1389742E+03  0.7546771E-02  0.1226364E+00
          2   -1    0    0  501    0  0.00000000000E+00  0.00000000000E+00  0.21680018225E+03  0.21680018225E+03  0.00000000000E+00 0.  1.
         -2   -1    0    0    0  501 -0.00000000000E+00 -0.00000000000E+00 -0.71538380181E+02  0.71538380181E+02  0.00000000000E+00 0. -1.
         23    2    1    2    0    0  0.25338943514E+02  0.55176007605E+02  0.67022564710E+02  0.15429143998E+03  0.12500948123E+03 0.  0.
          5    1    3    3  502    0 -0.16169178332E+01  0.16543214898E+02  0.96822862901E+02  0.98351660702E+02  0.47000000000E+01 0.  1.
         -5    1    3    3    0  502  0.26955861348E+02  0.38632792707E+02 -0.29800298191E+02  0.55939779277E+02  0.47000000000E+01 0.  1.
        -11    1    1    2    0    0 -0.29459674351E+02 -0.66314016256E+02  0.91149120058E+02  0.11650572197E+03  0.00000000000E+00 0.  1.
         11    1    1    2    0    0  0.41207308363E+01  0.11138008651E+02 -0.12909882702E+02  0.17541400478E+02  0.00000000000E+00 0. -1.
<mgrwt>
<rscale>  0 0.13073829E+03</rscale>
<asrwt>0</asrwt>
<pdfrwt beam="1">  1        2 0.33353874E-01 0.13897419E+03</pdfrwt>
<pdfrwt beam="2">  1       -2 0.11005905E-01 0.13897419E+03</pdfrwt>
<totfact> 0.84133350E+03</totfact>
</mgrwt>
</event>
<event>
 7    1  0.6095443E-006  0.1260109E+03  0.7546771E-02  0.1248540E+00
          2   -1    0    0  501    0  0.00000000000E+00  0.00000000000E+00  0.55013102528E+02  0.55013102528E+02  0.00000000000E+00 0. -1.
         -2   -1    0    0    0  501 -0.00000000000E+00 -0.00000000000E+00 -0.21818289222E+03  0.21818289222E+03  0.00000000000E+00 0.  1.
         23    2    1    2    0    0  0.14173572226E+02 -0.71908057240E+01 -0.87876619446E+02  0.15362635716E+03  0.12500463804E+03 0.  0.
          5    1    3    3  502    0  0.27481255525E+02  0.12237136633E+02 -0.11408638765E+03  0.11807946801E+03  0.47000000000E+01 0. -1.
         -5    1    3    3    0  502 -0.13307683299E+02 -0.19427942357E+02  0.26209768202E+02  0.35546889150E+02  0.47000000000E+01 0. -1.
        -11    1    1    2    0    0 -0.22754249753E+02  0.33041159181E+02 -0.82202391114E+02  0.91469706388E+02  0.00000000000E+00 0. -1.
         11    1    1    2    0    0  0.85806775268E+01 -0.25850353457E+02  0.69092208674E+01  0.28099931204E+02  0.00000000000E+00 0.  1.
<mgrwt>
<rscale>  0 0.11675996E+03</rscale>
<asrwt>0</asrwt>
<pdfrwt beam="1">  1        2 0.84635542E-02 0.12601094E+03</pdfrwt>
<pdfrwt beam="2">  1       -2 0.33566599E-01 0.12601094E+03</pdfrwt>
<totfact> 0.61860507E+03</totfact>
</mgrwt>
</event>
<event>
 7    1  0.6095443E-006  0.1293016E+03  0.7546771E-02  0.1241927E+00
          1   -1    0    0  501    0  0.00000000000E+00  0.00000000000E+00  0.10785434124E+03  0.10785434124E+03  0.00000000000E+00 0. -1.
         -1   -1    0    0    0  501 -0.00000000000E+00 -0.00000000000E+00 -0.14075164225E+03  0.14075164225E+03  0.00000000000E+00 0.  1.
         23    2    1    2    0    0 -0.16226948582E+02 -0.28746544964E+02 -0.65724696094E+02  0.14504699730E+03  0.12501687103E+03 0.  0.
          5    1    3    3  502    0  0.14280951644E+02 -0.73443380581E+02 -0.37002615782E+02  0.83601192012E+02  0.47000000000E+01 0.  1.
         -5    1    3    3    0  502 -0.30507900226E+02  0.44696835617E+02 -0.28722080312E+02  0.61445805290E+02  0.47000000000E+01 0.  1.
        -11    1    1    2    0    0  0.10620209260E+02 -0.27597024462E+01  0.60356638087E+02  0.61345974305E+02  0.00000000000E+00 0. -1.
         11    1    1    2    0    0  0.56067393218E+01  0.31506247411E+02 -0.27529243002E+02  0.42213011880E+02  0.00000000000E+00 0.  1.
<mgrwt>
<rscale>  0 0.12071213E+03</rscale>
<asrwt>0</asrwt>
<pdfrwt beam="1">  1        1 0.16592976E-01 0.12930157E+03</pdfrwt>
<pdfrwt beam="2">  1       -1 0.21654099E-01 0.12930157E+03</pdfrwt>
<totfact> 0.54771760E+03</totfact>
</mgrwt>
</event>
<event>
 7    1  0.6095443E-006  0.1446156E+03  0.7546771E-02  0.1219644E+00
          1   -1    0    0  501    0  0.00000000000E+00  0.00000000000E+00  0.95802176640E+02  0.95802176640E+02  0.00000000000E+00 0. -1.
         -1   -1    0    0    0  501 -0.00000000000E+00 -0.00000000000E+00 -0.17217407127E+03  0.17217407127E+03  0.00000000000E+00 0.  1.
         23    2    1    2    0    0  0.66142090474E+02  0.30237376952E+02 -0.55359912869E+02  0.15484957662E+03  0.12499838531E+03 0.  0.
          5    1    3    3  502    0  0.14046866049E+02 -0.48026014178E+02 -0.15194945109E+02  0.52505131563E+02  0.47000000000E+01 0.  1.
         -5    1    3    3    0  502  0.52095224425E+02  0.78263391130E+02 -0.40164967761E+02  0.10234444506E+03  0.47000000000E+01 0.  1.
        -11    1    1    2    0    0 -0.50781782265E+02 -0.32491968697E+02 -0.51255918178E+02  0.79130819458E+02  0.00000000000E+00 0.  1.
         11    1    1    2    0    0 -0.15360308209E+02  0.22545917453E+01  0.30243936413E+02  0.33995851835E+02  0.00000000000E+00 0. -1.
<mgrwt>
<rscale>  0 0.13540874E+03</rscale>
<asrwt>0</asrwt>
<pdfrwt beam="1">  1        1 0.14738797E-01 0.14461560E+03</pdfrwt>
<pdfrwt beam="2">  1       -1 0.26488318E-01 0.14461560E+03</pdfrwt>
<totfact> 0.46233052E+03</totfact>
</mgrwt>
</event>
<event>
 7    1  0.6095443E-006  0.1369212E+03  0.7546771E-02  0.1229698E+00
          2   -1    0    0  501    0  0.00000000000E+00  0.00000000000E+00  0.29716357417E+03  0.29716357417E+03  0.00000000000E+00 0.  1.
         -2   -1    0    0    0  501 -0.00000000000E+00 -0.00000000000E+00 -0.52491621981E+02  0.52491621981E+02  0.00000000000E+00 0. -1.
         23    2    1    2    0    0  0.16603145729E+02  0.53354695890E+02  0.97210033584E+02  0.16792026975E+03  0.12500015337E+03 0.  0.
          5    1    3    3  502    0  0.18057560725E+02  0.79876289894E+02  0.17639451280E+02  0.83901951277E+02  0.47000000000E+01 0.  1.
         -5    1    3    3    0  502 -0.14544149956E+01 -0.26521594005E+02  0.79570582303E+02  0.84018318477E+02  0.47000000000E+01 0.  1.
        -11    1    1    2    0    0 -0.51834029537E+02 -0.28885050970E+02  0.60356821202E+02  0.84640762362E+02  0.00000000000E+00 0.  1.
         11    1    1    2    0    0  0.35230883807E+02 -0.24469644919E+02  0.87105097403E+02  0.97094164036E+02  0.00000000000E+00 0. -1.
<mgrwt>
<rscale>  0 0.12850029E+03</rscale>
<asrwt>0</asrwt>
<pdfrwt beam="1">  1        2 0.45717472E-01 0.13692124E+03</pdfrwt>
<pdfrwt beam="2">  1       -2 0.80756343E-02 0.13692124E+03</pdfrwt>
<totfact> 0.97484153E+03</totfact>
</mgrwt>
</event>
<event>
 7    1  0.6095443E-006  0.1609278E+03  0.7546771E-02  0.1195164E+00
          3   -1    0    0  501    0  0.00000000000E+00  0.00000000000E+00  0.50502158638E+03  0.50502158638E+03  0.00000000000E+00 0. -1.
         -3   -1    0    0    0  501 -0.00000000000E+00 -0.00000000000E+00 -0.61555102007E+02  0.61555102007E+02  0.00000000000E+00 0.  1.
         23    2    1    2    0    0  0.10137452450E+03 -0.17304160168E+01  0.82782522371E+02  0.18097152180E+03  0.12497182537E+03 0.  0.
          5    1    3    3  502    0  0.20969205402E+02 -0.42542941206E+01 -0.33180180975E+02  0.39759539776E+02  0.47000000000E+01 0.  1.
         -5    1    3    3    0  502  0.80405319101E+02  0.25238781037E+01  0.11596270335E+03  0.14121198203E+03  0.47000000000E+01 0.  1.
        -11    1    1    2    0    0 -0.58256581868E+02  0.36851082837E+02  0.27460457762E+03  0.28312454094E+03  0.00000000000E+00 0. -1.
         11    1    1    2    0    0 -0.43117942636E+02 -0.35120666820E+02  0.86079384382E+02  0.10248062564E+03  0.00000000000E+00 0.  1.
<mgrwt>
<rscale>  0 0.15440372E+03</rscale>
<asrwt>0</asrwt>
<pdfrwt beam="1">  1        3 0.77695626E-01 0.16092777E+03</pdfrwt>
<pdfrwt beam="2">  1       -3 0.94700160E-02 0.16092777E+03</pdfrwt>
<totfact> 0.30595706E+02</totfact>
</mgrwt>
</event>
<event>
 7    1  0.6095443E-006  0.1379962E+03  0.7546771E-02  0.1228608E+00
          1   -1    0    0  501    0  0.00000000000E+00  0.00000000000E+00  0.89234976359E+02  0.89234976359E+02  0.00000000000E+00 0. -1.
         -1   -1    0    0    0  501 -0.00000000000E+00 -0.00000000000E+00 -0.16756411859E+03  0.16756411859E+03  0.00000000000E+00 0.  1.
         23    2    1    2    0    0  0.36309009977E+02 -0.45827260908E+02 -0.36598363959E+02  0.14276695909E+03  0.12499792924E+03 0.  0.
          5    1    3    3  502    0 -0.34011677147E+01 -0.83023242396E+02 -0.18748264919E+02  0.85311278019E+02  0.47000000000E+01 0. -1.
         -5    1    3    3    0  502  0.39710177691E+02  0.37195981488E+02 -0.17850099040E+02  0.57455681067E+02  0.47000000000E+01 0. -1.
        -11    1    1    2    0    0  0.12954441927E+02  0.20513990008E+02 -0.52293417632E+02  0.57647574792E+02  0.00000000000E+00 0.  1.
         11    1    1    2    0    0 -0.49263451904E+02  0.25313270900E+02  0.10562639358E+02  0.56384561073E+02  0.00000000000E+00 0. -1.
<mgrwt>
<rscale>  0 0.12922656E+03</rscale>
<asrwt>0</asrwt>
<pdfrwt beam="1">  1        1 0.13728458E-01 0.13799625E+03</pdfrwt>
<pdfrwt beam="2">  1       -1 0.25779095E-01 0.13799625E+03</pdfrwt>
<totfact> 0.52876110E+03</totfact>
</mgrwt>
</event>
<event>
 7    1  0.6095443E-006  0.1287025E+03  0.7546771E-02  0.1241719E+00
          2   -1    0    0  501    0  0.00000000000E+00  0.00000000000E+00  0.64109203787E+02  0.64109203787E+02  0.00000000000E+00 0. -1.
         -2   -1    0    0    0  501 -0.00000000000E+00 -0.00000000000E+00 -0.31551591081E+03  0.31551591081E+03  0.00000000000E+00 0.  1.
         23    2    1    2    0    0 -0.15489975566E+02 -0.26446793926E+02 -0.24816892429E+03  0.27955706689E+03  0.12499986564E+03 0.  0.
          5    1    3    3  502    0 -0.51292293568E+02  0.21933757331E+02 -0.60549131273E+02  0.82463788344E+02  0.47000000000E+01 0.  1.
         -5    1    3    3    0  502  0.35802318003E+02 -0.48380551257E+02 -0.18761979302E+03  0.19709327854E+03  0.47000000000E+01 0.  1.
        -11    1    1    2    0    0 -0.32978592342E+02 -0.87341711203E+01 -0.17731626799E+02  0.38448457536E+02  0.00000000000E+00 0.  1.
         11    1    1    2    0    0  0.48468567907E+02  0.35180965046E+02  0.14493844074E+02  0.61619590169E+02  0.00000000000E+00 0. -1.
<mgrwt>
<rscale>  0 0.12083904E+03</rscale>
<asrwt>0</asrwt>
<pdfrwt beam="1">  1        2 0.98629546E-02 0.12870252E+03</pdfrwt>
<pdfrwt beam="2">  1       -2 0.48540909E-01 0.12870252E+03</pdfrwt>
<totfact> 0.25493158E+03</totfact>
</mgrwt>
</event>
<event>
 7    1  0.6095443E-006  0.2454106E+03  0.7546771E-02  0.1119048E+00
         -2   -1    0    0    0  501 -0.00000000000E+00  0.00000000000E+00  0.74102165302E+02  0.74102165302E+02  0.00000000000E+00 0.  1.
          2   -1    0    0  501    0  0.00000000000E+00 -0.00000000000E+00 -0.10764312504E+04  0.10764312504E+04  0.00000000000E+00 0. -1.
         23    2    1    2    0    0 -0.19714499262E+03 -0.75739301993E+02 -0.20103152324E+03  0.31723816428E+03  0.12499515815E+03 0.  0.
          5    1    3    3  502    0 -0.44214622615E+02 -0.36922955315E+02 -0.13364453588E+03  0.14560628232E+03  0.47000000000E+01 0.  1.
         -5    1    3    3    0  502 -0.15293037000E+03 -0.38816346678E+02 -0.67386987362E+02  0.17163188196E+03  0.47000000000E+01 0.  1.
        -11    1    1    2    0    0  0.15975826398E+03  0.95663370395E+02 -0.66319748722E+03  0.68884329887E+03  0.00000000000E+00 0.  1.
         11    1    1    2    0    0  0.37386728638E+02 -0.19924068402E+02 -0.13810007468E+03  0.14445195259E+03  0.00000000000E+00 0. -1.
<mgrwt>
<rscale>  0 0.24112157E+03</rscale>
<asrwt>0</asrwt>
<pdfrwt beam="2">  1        2 0.16560479E+00 0.24541063E+03</pdfrwt>
<pdfrwt beam="1">  1       -2 0.11400334E-01 0.24541063E+03</pdfrwt>
<totfact> 0.12696407E+03</totfact>
</mgrwt>
</event>
<event>
 6    1  0.6095443E-006  0.3770548E+03  0.7546771E-02  0.1102906E+00
          3   -1    0    0  501    0  0.00000000000E+00  0.00000000000E+00  0.95710298962E+02  0.95710298962E+02  0.00000000000E+00 0. -1.
         -3   -1    0    0    0  501 -0.00000000000E+00 -0.00000000000E+00 -0.77548633899E+03  0.77548633899E+03  0.00000000000E+00 0.  1.
          5    1    1    2  502    0 -0.27335837591E+02  0.11777218509E+03 -0.39776609776E+02  0.12736484712E+03  0.47000000000E+01 0. -1.
         -5    1    1    2    0  502  0.46916047531E+02 -0.10416916346E+03 -0.63860879775E+03  0.64876468515E+03  0.47000000000E+01 0.  1.
        -11    1    1    2    0    0  0.71069934516E+01 -0.22713650595E+02 -0.40426002166E+02  0.46911415779E+02  0.00000000000E+00 0.  1.
         11    1    1    2    0    0 -0.26687203392E+02  0.91106289628E+01  0.39035369664E+02  0.48155689901E+02  0.00000000000E+00 0. -1.
<mgrwt>
<rscale>  0 0.26717712E+03</rscale>
<asrwt>0</asrwt>
<pdfrwt beam="1">  1        3 0.14724662E-01 0.37705476E+03</pdfrwt>
<pdfrwt beam="2">  1       -3 0.11930558E+00 0.37705476E+03</pdfrwt>
<totfact> 0.58467001E+01</totfact>
</mgrwt>
</event>
<event>
 7    1  0.6095443E-006  0.2515261E+03  0.7546771E-02  0.1114612E+00
          2   -1    0    0  501    0  0.00000000000E+00  0.00000000000E+00  0.32431660065E+03  0.32431660065E+03  0.00000000000E+00 0. -1.
         -2   -1    0    0    0  501 -0.00000000000E+00 -0.00000000000E+00 -0.18448798893E+03  0.18448798893E+03  0.00000000000E+00 0.  1.
         23    2    1    2    0    0 -0.15149511795E+03  0.15712655858E+03  0.64771053138E+02  0.25973189164E+03  0.12500336010E+03 0.  0.
          5    1    3    3  502    0 -0.96321970838E+02  0.10600778899E+03 -0.21795856432E+02  0.14495765847E+03  0.47000000000E+01 0. -1.
         -5    1    3    3    0  502 -0.55173147115E+02  0.51118769595E+02  0.86566909571E+02  0.11477423317E+03  0.47000000000E+01 0. -1.
        -11    1    1    2    0    0  0.40466029506E+02 -0.10279249358E+03  0.14478255923E+02  0.11141551137E+03  0.00000000000E+00 0.  1.
         11    1    1    2    0    0  0.11102908845E+03 -0.54334065008E+02  0.60579302659E+02  0.13765718656E+03  0.00000000000E+00 0. -1.
<mgrwt>
<rscale>  0 0.24794228E+03</rscale>
<asrwt>0</asrwt>
<pdfrwt beam="1">  1        2 0.49894861E-01 0.25152607E+03</pdfrwt>
<pdfrwt beam="2">  1       -2 0.28382768E-01 0.25152607E+03</pdfrwt>
<totfact> 0.11359140E+03</totfact>
</mgrwt>
</event>
<event>
 7    1  0.6095443E-006  0.1504467E+03  0.7546771E-02  0.1209077E+00
         -1   -1    0    0    0  501 -0.00000000000E+00  0.00000000000E+00  0.63924065158E+03  0.63924065158E+03  0.00000000000E+00 0.  1.
          1   -1    0    0  501    0  0.00000000000E+00 -0.00000000000E+00 -0.29651547069E+02  0.29651547069E+02  0.00000000000E+00 0. -1.
         23    2    1    2    0    0  0.50819420758E+02  0.66546732109E+02  0.36785324233E+03  0.39742952314E+03  0.12499254737E+03 0.  0.
          5    1    3    3  502    0 -0.11032189592E+02  0.18920660954E+02  0.10964253018E+01  0.22427500230E+02  0.47000000000E+01 0. -1.
         -5    1    3    3    0  502  0.61851610350E+02  0.47626071155E+02  0.36675681702E+03  0.37500202291E+03  0.47000000000E+01 0. -1.
        -11    1    1    2    0    0 -0.42598753727E+02  0.18194659261E+00  0.16027676285E+03  0.16584127240E+03  0.00000000000E+00 0.  1.
         11    1    1    2    0    0 -0.82206670312E+01 -0.66728678702E+02  0.81459099334E+02  0.10562140310E+03  0.00000000000E+00 0. -1.
<mgrwt>
<rscale>  0 0.14320767E+03</rscale>
<asrwt>0</asrwt>
<pdfrwt beam="2">  1        1 0.45617769E-02 0.15044673E+03</pdfrwt>
<pdfrwt beam="1">  1       -1 0.98344705E-01 0.15044673E+03</pdfrwt>
<totfact> 0.19319837E+03</totfact>
</mgrwt>
</event>
<event>
 7    1  0.6095443E-006  0.1806780E+03  0.7546771E-02  0.1172560E+00
         -2   -1    0    0    0  501 -0.00000000000E+00  0.00000000000E+00  0.30901951680E+03  0.30901951680E+03  0.00000000000E+00 0.  1.
          2   -1    0    0  501    0  0.00000000000E+00 -0.00000000000E+00 -0.11511558559E+03  0.11511558559E+03  0.00000000000E+00 0. -1.
         23    2    1    2    0    0 -0.12996184083E+03  0.11431527052E+02  0.19316707407E+03  0.26449585232E+03  0.12499510993E+03 0.  0.
          5    1    3    3  502    0 -0.46700078006E+02  0.75652784012E+01 -0.65891075532E+01  0.47996219241E+02  0.47000000000E+01 0. -1.
         -5    1    3    3    0  502 -0.83261762826E+02  0.38662486509E+01  0.19975618162E+03  0.21649963308E+03  0.47000000000E+01 0. -1.
        -11    1    1    2    0    0  0.32515004836E+02 -0.45877465264E+02 -0.16572220243E+01  0.56255788532E+02  0.00000000000E+00 0.  1.
         11    1    1    2    0    0  0.97446835995E+02  0.34445938212E+02  0.23940791684E+01  0.10338346154E+03  0.00000000000E+00 0. -1.
<mgrwt>
<rscale>  0 0.17517120E+03</rscale>
<asrwt>0</asrwt>
<pdfrwt beam="2">  1        2 0.17710090E-01 0.18067799E+03</pdfrwt>
<pdfrwt beam="1">  1       -2 0.47541464E-01 0.18067799E+03</pdfrwt>
<totfact> 0.13418277E+03</totfact>
</mgrwt>
</event>
<event>
 7    1  0.6095443E-006  0.1260777E+03  0.7546771E-02  0.1248906E+00
         -2   -1    0    0    0  501 -0.00000000000E+00  0.00000000000E+00  0.75419796205E+02  0.75419796205E+02  0.00000000000E+00 0. -1.
          2   -1    0    0  501    0  0.00000000000E+00 -0.00000000000E+00 -0.22712265237E+03  0.22712265237E+03  0.00000000000E+00 0.  1.
         23    2    1    2    0    0 -0.13319479720E+02 -0.10532523095E+02 -0.11614553423E+01  0.12608304792E+03  0.12492895345E+03 0.  0.
          5    1    3    3  502    0 -0.47992812981E+01  0.23773371745E+02 -0.55693623319E+02  0.60926808414E+02  0.47000000000E+01 0.  1.
         -5    1    3    3    0  502 -0.85201984222E+01 -0.34305894840E+02  0.54532167977E+02  0.65156239503E+02  0.47000000000E+01 0.  1.
        -11    1    1    2    0    0 -0.30528141839E+02  0.17391628845E+02 -0.11298046371E+03  0.11831746016E+03  0.00000000000E+00 0.  1.
         11    1    1    2    0    0  0.43847621559E+02 -0.68591057496E+01 -0.37560937105E+02  0.58141940493E+02  0.00000000000E+00 0. -1.
<mgrwt>
<rscale>  0 0.11654603E+03</rscale>
<asrwt>0</asrwt>
<pdfrwt beam="2">  1        2 0.34941946E-01 0.12607770E+03</pdfrwt>
<pdfrwt beam="1">  1       -2 0.11603046E-01 0.12607770E+03</pdfrwt>
<totfact> 0.73091789E+03</totfact>
</mgrwt>
</event>
<event>
 7    1  0.6095443E-006  0.1425671E+03  0.7546771E-02  0.1229065E+00
         -1   -1    0    0    0  501 -0.00000000000E+00  0.00000000000E+00  0.12611272637E+03  0.12611272637E+03  0.00000000000E+00 0.  1.
          1   -1    0    0  501    0  0.00000000000E+00 -0.00000000000E+00 -0.15142188808E+03  0.15142188808E+03  0.00000000000E+00 0. -1.
         23    2    1    2    0    0  0.77715607716E+01  0.68120918091E+02  0.55075172077E+02  0.15283538146E+03  0.12499809041E+03 0.  0.
          5    1    3    3  502    0 -0.22832246304E+02  0.44946338047E+02  0.88341077001E+02  0.10182200480E+03  0.47000000000E+01 0.  1.
         -5    1    3    3    0  502  0.30603807075E+02  0.23174580044E+02 -0.33265904924E+02  0.51013376659E+02  0.47000000000E+01 0.  1.
        -11    1    1    2    0    0 -0.17947948360E+02 -0.65399893188E+01  0.42198913093E+01  0.19562918834E+02  0.00000000000E+00 0. -1.
         11    1    1    2    0    0  0.10176387589E+02 -0.61580928772E+02 -0.84604225089E+02  0.10513631416E+03  0.00000000000E+00 0.  1.
<mgrwt>
<rscale>  0 0.12892127E+03</rscale>
<asrwt>0</asrwt>
<pdfrwt beam="2">  1        1 0.23295675E-01 0.14256710E+03</pdfrwt>
<pdfrwt beam="1">  1       -1 0.19401958E-01 0.14256710E+03</pdfrwt>
<totfact> 0.42696051E+03</totfact>
</mgrwt>
</event>
<event>
 7    1  0.6095443E-006  0.1584637E+03  0.7546771E-02  0.1198759E+00
          1   -1    0    0  501    0  0.00000000000E+00  0.00000000000E+00  0.18283022726E+03  0.18283022726E+03  0.00000000000E+00 0. -1.
         -1   -1    0    0    0  501 -0.00000000000E+00 -0.00000000000E+00 -0.12149429366E+03  0.12149429366E+03  0.00000000000E+00 0.  1.
         23    2    1    2    0    0 -0.93835524932E+02 -0.26020168448E+02 -0.60436448990E+00  0.15846488919E+03  0.12501440295E+03 0.  0.
          5    1    3    3  502    0 -0.82900235233E+02 -0.69534543821E+02  0.17774142553E+02  0.10975204750E+03  0.47000000000E+01 0.  1.
         -5    1    3    3    0  502 -0.10935289699E+02  0.43514375373E+02 -0.18378507043E+02  0.48712841696E+02  0.47000000000E+01 0.  1.
        -11    1    1    2    0    0  0.55838631943E+02 -0.82134011751E+01 -0.10275971937E+02  0.57367311035E+02  0.00000000000E+00 0.  1.
         11    1    1    2    0    0  0.37996892990E+02  0.34233569623E+02  0.72216270026E+02  0.88492320698E+02  0.00000000000E+00 0. -1.
<mgrwt>
<rscale>  0 0.15140348E+03</rscale>
<asrwt>0</asrwt>
<pdfrwt beam="1">  1        1 0.28127727E-01 0.15846374E+03</pdfrwt>
<pdfrwt beam="2">  1       -1 0.18691430E-01 0.15846374E+03</pdfrwt>
<totfact> 0.35964740E+03</totfact>
</mgrwt>
</event>
<event>
 7    1  0.6095443E-006  0.1942738E+03  0.7546771E-02  0.1159287E+00
          1   -1    0    0  501    0  0.00000000000E+00  0.00000000000E+00  0.31877910771E+03  0.31877910771E+03  0.00000000000E+00 0. -1.
         -1   -1    0    0    0  501 -0.00000000000E+00 -0.00000000000E+00 -0.13771924364E+03  0.13771924364E+03  0.00000000000E+00 0.  1.
         23    2    1    2    0    0  0.61605488215E+02  0.13545983257E+03 -0.14124133652E+02  0.19478650599E+03  0.12489070961E+03 0.  0.
          5    1    3    3  502    0  0.98898928400E+02  0.84416780292E+02 -0.13355606344E+01  0.13011942421E+03  0.47000000000E+01 0. -1.
         -5    1    3    3    0  502 -0.37293440185E+02  0.51043052274E+02 -0.12788573018E+02  0.64667081781E+02  0.47000000000E+01 0. -1.
        -11    1    1    2    0    0 -0.45040442681E+02 -0.43223944612E+02  0.24630863248E+02  0.67109092447E+02  0.00000000000E+00 0.  1.
         11    1    1    2    0    0 -0.16565045534E+02 -0.92235887954E+02  0.17055313448E+03  0.19460275291E+03  0.00000000000E+00 0. -1.
<mgrwt>
<rscale>  0 0.18908766E+03</rscale>
<asrwt>0</asrwt>
<pdfrwt beam="1">  1        1 0.49042939E-01 0.19427375E+03</pdfrwt>
<pdfrwt beam="2">  1       -1 0.21187576E-01 0.19427375E+03</pdfrwt>
<totfact> 0.14773608E+03</totfact>
</mgrwt>
</event>
<event>
 7    1  0.6095443E-006  0.1396985E+03  0.7546771E-02  0.1225449E+00
         -2   -1    0    0    0  501 -0.00000000000E+00  0.00000000000E+00  0.29512188964E+02  0.29512188964E+02  0.00000000000E+00 0.  1.
          2   -1    0    0  501    0  0.00000000000E+00 -0.00000000000E+00 -0.52487425962E+03  0.52487425962E+03  0.00000000000E+00 0. -1.
         23    2    1    2    0    0  0.60060282390E+02 -0.16865281728E+02 -0.27702760088E+03  0.31025790019E+03  0.12499599088E+03 0.  0.
          5    1    3    3  502    0 -0.24006895456E+02 -0.44727980120E+02 -0.10418429514E+03  0.11598870889E+03  0.47000000000E+01 0.  1.
         -5    1    3    3    0  502  0.84067177846E+02  0.27862698392E+02 -0.17284330573E+03  0.19426919130E+03  0.47000000000E+01 0.  1.
        -11    1    1    2    0    0 -0.15662346148E+02  0.31417699254E+02 -0.20078637343E+02  0.40441718446E+02  0.00000000000E+00 0.  1.
         11    1    1    2    0    0 -0.44397936242E+02 -0.14552417527E+02 -0.19825583244E+03  0.20368682995E+03  0.00000000000E+00 0. -1.
<mgrwt>
<rscale>  0 0.13136161E+03</rscale>
<asrwt>0</asrwt>
<pdfrwt beam="2">  1        2 0.80749882E-01 0.13969851E+03</pdfrwt>
<pdfrwt beam="1">  1       -2 0.45403370E-02 0.13969851E+03</pdfrwt>
<totfact> 0.12705823E+04</totfact>
</mgrwt>
</event>
<event>
 7    1  0.6095443E-006  0.1414170E+03  0.7546771E-02  0.1222734E+00
         -2   -1    0    0    0  501 -0.00000000000E+00  0.00000000000E+00  0.37938109466E+02  0.37938109466E+02  0.00000000000E+00 0.  1.
          2   -1    0    0  501    0  0.00000000000E+00 -0.00000000000E+00 -0.42513332762E+03  0.42513332762E+03  0.00000000000E+00 0. -1.
         23    2    1    2    0    0  0.56548999631E+02 -0.34299724301E+02 -0.23833191752E+03  0.27712972455E+03  0.12499808349E+03 0.  0.
          5    1    3    3  502    0 -0.12980550574E+02  0.34500425588E+02 -0.33239067933E+02  0.49856791874E+02  0.47000000000E+01 0.  1.
         -5    1    3    3    0  502  0.69529550205E+02 -0.68800149888E+02 -0.20509284958E+03  0.22727293268E+03  0.47000000000E+01 0.  1.
        -11    1    1    2    0    0  0.14084515457E+01  0.20378345664E+02  0.49198084962E+01  0.21011073828E+02  0.00000000000E+00 0.  1.
         11    1    1    2    0    0 -0.57957451177E+02  0.13921378637E+02 -0.15378310914E+03  0.16493063871E+03  0.00000000000E+00 0. -1.
<mgrwt>
<rscale>  0 0.13323412E+03</rscale>
<asrwt>0</asrwt>
<pdfrwt beam="2">  1        2 0.65405124E-01 0.14141705E+03</pdfrwt>
<pdfrwt beam="1">  1       -2 0.58366326E-02 0.14141705E+03</pdfrwt>
<totfact> 0.10966323E+04</totfact>
</mgrwt>
</event>
<event>
 7    1  0.6095443E-006  0.1335299E+03  0.7546771E-02  0.1234247E+00
          1   -1    0    0  501    0  0.00000000000E+00  0.00000000000E+00  0.10449736404E+03  0.10449736404E+03  0.00000000000E+00 0.  1.
         -1   -1    0    0    0  501 -0.00000000000E+00 -0.00000000000E+00 -0.19095005481E+03  0.19095005481E+03  0.00000000000E+00 0. -1.
         23    2    1    2    0    0 -0.12343284022E+02 -0.45278979381E+02 -0.12631075738E+03  0.18380600673E+03  0.12501079171E+03 0.  0.
          5    1    3    3  502    0 -0.32950050325E+02 -0.25519334340E+02  0.11097756423E+02  0.43384241831E+02  0.47000000000E+01 0.  1.
         -5    1    3    3    0  502  0.20606766304E+02 -0.19759645041E+02 -0.13740851381E+03  0.14042176489E+03  0.47000000000E+01 0.  1.
        -11    1    1    2    0    0  0.39352454752E+02  0.42334590171E+02  0.55633676430E+02  0.80224305376E+02  0.00000000000E+00 0.  1.
         11    1    1    2    0    0 -0.27009170730E+02  0.29443892101E+01 -0.15775609815E+02  0.31417106748E+02  0.00000000000E+00 0. -1.
<mgrwt>
<rscale>  0 0.12552733E+03</rscale>
<asrwt>0</asrwt>
<pdfrwt beam="1">  1        1 0.16076518E-01 0.13352992E+03</pdfrwt>
<pdfrwt beam="2">  1       -1 0.29376931E-01 0.13352992E+03</pdfrwt>
<totfact> 0.34621025E+03</totfact>
</mgrwt>
</event>
<event>
 7    1  0.6095443E-006  0.1456408E+03  0.7546771E-02  0.1216061E+00
          3   -1    0    0  501    0  0.00000000000E+00  0.00000000000E+00  0.20072148585E+03  0.20072148585E+03  0.00000000000E+00 0. -1.
         -3   -1    0    0    0  501 -0.00000000000E+00 -0.00000000000E+00 -0.87158305081E+02  0.87158305081E+02  0.00000000000E+00 0.  1.
         23    2    1    2    0    0  0.36619887300E+02  0.65161332853E+02  0.47437797665E+02  0.15317171023E+03  0.12499685085E+03 0.  0.
          5    1    3    3  502    0 -0.35183937829E+02  0.63320226787E+02  0.33078454383E+02  0.79772393382E+02  0.47000000000E+01 0. -1.
         -5    1    3    3    0  502  0.71803825129E+02  0.18411060663E+01  0.14359343282E+02  0.73399316851E+02  0.47000000000E+01 0. -1.
        -11    1    1    2    0    0 -0.40779103481E+00 -0.76625543396E+02  0.57384009935E+02  0.95731733456E+02  0.00000000000E+00 0.  1.
         11    1    1    2    0    0 -0.36212096265E+02  0.11464210542E+02  0.87413731649E+01  0.38976347239E+02  0.00000000000E+00 0. -1.
<mgrwt>
<rscale>  0 0.13798870E+03</rscale>
<asrwt>0</asrwt>
<pdfrwt beam="1">  1        3 0.30880228E-01 0.14564075E+03</pdfrwt>
<pdfrwt beam="2">  1       -3 0.13408970E-01 0.14564075E+03</pdfrwt>
<totfact> 0.10665982E+03</totfact>
</mgrwt>
</event>
<event>
 7    1  0.6095443E-006  0.1511613E+03  0.7546771E-02  0.1208077E+00
         -2   -1    0    0    0  501 -0.00000000000E+00  0.00000000000E+00  0.75699473264E+02  0.75699473264E+02  0.00000000000E+00 0.  1.
          2   -1    0    0  501    0  0.00000000000E+00 -0.00000000000E+00 -0.30196725670E+03  0.30196725670E+03  0.00000000000E+00 0. -1.
         23    2    1    2    0    0 -0.14242409270E+02 -0.83804846910E+02 -0.44817703023E+02  0.15766537250E+03  0.12499457826E+03 0.  0.
          5    1    3    3  502    0 -0.14468680704E+02 -0.10937087500E+03 -0.61870713149E+02  0.12657569342E+03  0.47000000000E+01 0. -1.
         -5    1    3    3    0  502  0.22627143452E+00  0.25566028087E+02  0.17053010126E+02  0.31089679080E+02  0.47000000000E+01 0. -1.
        -11    1    1    2    0    0  0.23903725801E+02  0.53753622651E+02 -0.17890934170E+03  0.18833319570E+03  0.00000000000E+00 0. -1.
         11    1    1    2    0    0 -0.96613165309E+01  0.30051224259E+02 -0.25407387172E+01  0.31668161769E+02  0.00000000000E+00 0.  1.
<mgrwt>
<rscale>  0 0.14397579E+03</rscale>
<asrwt>0</asrwt>
<pdfrwt beam="2">  1        2 0.46456500E-01 0.15116132E+03</pdfrwt>
<pdfrwt beam="1">  1       -2 0.11646073E-01 0.15116132E+03</pdfrwt>
<totfact> 0.54288939E+03</totfact>
</mgrwt>
</event>
<event>
 7    1  0.6095443E-006  0.1488812E+03  0.7546771E-02  0.1211224E+00
          2   -1    0    0  501    0  0.00000000000E+00  0.00000000000E+00  0.22603399029E+03  0.22603399029E+03  0.00000000000E+00 0. -1.
         -2   -1    0    0    0  501 -0.00000000000E+00 -0.00000000000E+00 -0.10219713031E+03  0.10219713031E+03  0.00000000000E+00 0.  1.
         23    2    1    2    0    0 -0.42735870156E+02 -0.68665607382E+02 -0.76019895337E+01  0.14907515202E+03  0.12499716184E+03 0.  0.
          5    1    3    3  502    0 -0.28550678882E+02 -0.39514619858E+02  0.57901744693E+02  0.75836986264E+02  0.47000000000E+01 0.  1.
         -5    1    3    3    0  502 -0.14185191274E+02 -0.29150987524E+02 -0.65503734227E+02  0.73238165752E+02  0.47000000000E+01 0.  1.
        -11    1    1    2    0    0 -0.23105026783E+00  0.42917962048E+02  0.50644876618E+01  0.43216361321E+02  0.00000000000E+00 0.  1.
         11    1    1    2    0    0  0.42966920423E+02  0.25747645334E+02  0.12637436185E+03  0.13593960726E+03  0.00000000000E+00 0. -1.
<mgrwt>
<rscale>  0 0.14157561E+03</rscale>
<asrwt>0</asrwt>
<pdfrwt beam="1">  1        2 0.34774460E-01 0.14888120E+03</pdfrwt>
<pdfrwt beam="2">  1       -2 0.15722636E-01 0.14888120E+03</pdfrwt>
<totfact> 0.45432356E+03</totfact>
</mgrwt>
</event>
<event>
 7    1  0.6095443E-006  0.1880705E+03  0.7546771E-02  0.1165394E+00
          2   -1    0    0  501    0  0.00000000000E+00  0.00000000000E+00  0.69687635451E+03  0.69687635451E+03  0.00000000000E+00 0. -1.
         -2   -1    0    0    0  501 -0.00000000000E+00 -0.00000000000E+00 -0.46725806661E+02  0.46725806661E+02  0.00000000000E+00 0.  1.
         23    2    1    2    0    0  0.10459973056E+03 -0.93823717235E+02  0.41146453265E+03  0.45240865560E+03  0.12500614579E+03 0.  0.
          5    1    3    3  502    0  0.11829620712E+03 -0.41878319029E+02  0.21814128178E+03  0.25170517484E+03  0.47000000000E+01 0.  1.
         -5    1    3    3    0  502 -0.13696476554E+02 -0.51945398206E+02  0.19332325087E+03  0.20070348076E+03  0.47000000000E+01 0.  1.
        -11    1    1    2    0    0 -0.13148150670E+02  0.66481854952E+02  0.12955043315E+03  0.14620542272E+03  0.00000000000E+00 0. -1.
         11    1    1    2    0    0 -0.91451579894E+02  0.27341862283E+02  0.10913558205E+03  0.14498808284E+03  0.00000000000E+00 0.  1.
<mgrwt>
<rscale>  0 0.18251156E+03</rscale>
<asrwt>0</asrwt>
<pdfrwt beam="1">  1        2 0.10721174E+00 0.18807055E+03</pdfrwt>
<pdfrwt beam="2">  1       -2 0.71885862E-02 0.18807055E+03</pdfrwt>
<totfact> 0.46385370E+03</totfact>
</mgrwt>
</event>
<event>
 7    1  0.6095443E-006  0.1111530E+03  0.7546771E-02  0.1268722E+00
          2   -1    0    0  501    0  0.00000000000E+00  0.00000000000E+00  0.60846510509E+02  0.60846510509E+02  0.00000000000E+00 0. -1.
         -2   -1    0    0    0  501 -0.00000000000E+00 -0.00000000000E+00 -0.23031721657E+03  0.23031721657E+03  0.00000000000E+00 0.  1.
         23    2    1    2    0    0 -0.36871189596E+01 -0.38315001486E+01 -0.16648186262E+03  0.20017790685E+03  0.11102571130E+03 0.  0.
          5    1    3    3  502    0 -0.22399867822E+02  0.45285922402E+02 -0.45362883424E+02  0.68062104278E+02  0.47000000000E+01 0. -1.
         -5    1    3    3    0  502  0.18712748863E+02 -0.49117422551E+02 -0.12111897919E+03  0.13211580257E+03  0.47000000000E+01 0.  1.
        -11    1    1    2    0    0  0.46140660443E+02  0.40514550456E+01 -0.11413917698E+02  0.47703798081E+02  0.00000000000E+00 0. -1.
         11    1    1    2    0    0 -0.42453541484E+02 -0.21995489698E+00  0.84250742580E+01  0.43282022145E+02  0.00000000000E+00 0.  1.
<mgrwt>
<rscale>  0 0.10571233E+03</rscale>
<asrwt>0</asrwt>
<pdfrwt beam="1">  1        2 0.93610018E-02 0.11115297E+03</pdfrwt>
<pdfrwt beam="2">  1       -2 0.35433417E-01 0.11115297E+03</pdfrwt>
<totfact> 0.48969985E+03</totfact>
</mgrwt>
</event>
<event>
 7    1  0.6095443E-006  0.2049948E+03  0.7546771E-02  0.1149610E+00
          2   -1    0    0  501    0  0.00000000000E+00  0.00000000000E+00  0.30802023759E+02  0.30802023759E+02  0.00000000000E+00 0. -1.
         -2   -1    0    0    0  501 -0.00000000000E+00 -0.00000000000E+00 -0.12630088429E+04  0.12630088429E+04  0.00000000000E+00 0.  1.
         23    2    1    2    0    0  0.14197998817E+03 -0.78992167974E+02 -0.72697675094E+03  0.75532646766E+03  0.12499918681E+03 0.  0.
          5    1    3    3  502    0  0.13153096383E+03 -0.10841130484E+03 -0.65296831728E+03  0.67486525976E+03  0.47000000000E+01 0. -1.
         -5    1    3    3    0  502  0.10449024338E+02  0.29419136869E+02 -0.74008433661E+02  0.80461207899E+02  0.47000000000E+01 0. -1.
        -11    1    1    2    0    0 -0.14801683749E+03  0.49680715535E+02 -0.43362002372E+03  0.46087252321E+03  0.00000000000E+00 0.  1.
         11    1    1    2    0    0  0.60368493189E+01  0.29311452439E+02 -0.71610044522E+02  0.77611875833E+02  0.00000000000E+00 0. -1.
<mgrwt>
<rscale>  0 0.20015245E+03</rscale>
<asrwt>0</asrwt>
<pdfrwt beam="1">  1        2 0.47387730E-02 0.20499482E+03</pdfrwt>
<pdfrwt beam="2">  1       -2 0.19430905E+00 0.20499482E+03</pdfrwt>
<totfact> 0.26373137E+02</totfact>
</mgrwt>
</event>
<event>
 7    1  0.6095443E-006  0.1972798E+03  0.7546771E-02  0.1156319E+00
         -4   -1    0    0    0  501 -0.00000000000E+00  0.00000000000E+00  0.12002777072E+03  0.12002777072E+03  0.00000000000E+00 0.  1.
          4   -1    0    0  501    0  0.00000000000E+00 -0.00000000000E+00 -0.29503301042E+03  0.29503301042E+03  0.00000000000E+00 0. -1.
         23    2    1    2    0    0  0.12698870012E+03 -0.84661054322E+02 -0.79905710117E+02  0.21284795120E+03  0.12500281494E+03 0.  0.
          5    1    3    3  502    0 -0.23556059411E+02 -0.15373562443E+02 -0.25784874331E+02  0.38447159862E+02  0.47000000000E+01 0. -1.
         -5    1    3    3    0  502  0.15054475953E+03 -0.69287491879E+02 -0.54120835786E+02  0.17440079134E+03  0.47000000000E+01 0. -1.
        -11    1    1    2    0    0 -0.32909005276E+02  0.15476524930E+02  0.17172773794E+02  0.40217280017E+02  0.00000000000E+00 0.  1.
         11    1    1    2    0    0 -0.94079694844E+02  0.69184529391E+02 -0.11227230337E+03  0.16199554992E+03  0.00000000000E+00 0. -1.
<mgrwt>
<rscale>  0 0.19239512E+03</rscale>
<asrwt>0</asrwt>
<pdfrwt beam="2">  1        4 0.45389694E-01 0.19727982E+03</pdfrwt>
<pdfrwt beam="1">  1       -4 0.18465811E-01 0.19727982E+03</pdfrwt>
<totfact> 0.21837113E+02</totfact>
</mgrwt>
</event>
<event>
 6    1  0.6095443E-006  0.2689528E+03  0.7546771E-02  0.1132593E+00
          1   -1    0    0  501    0  0.00000000000E+00  0.00000000000E+00  0.70523678270E+02  0.70523678270E+02  0.00000000000E+00 0. -1.
         -1   -1    0    0    0  501 -0.00000000000E+00 -0.00000000000E+00 -0.67414785622E+03  0.67414785622E+03  0.00000000000E+00 0.  1.
          5    1    1    2  502    0 -0.91172151633E+02  0.11453275480E+01 -0.36894930473E+03  0.38007808733E+03  0.47000000000E+01 0. -1.
         -5    1    1    2    0  502  0.11155641194E+03  0.91195024329E+02 -0.17503221554E+03  0.22675919383E+03  0.47000000000E+01 0.  1.
        -11    1    1    2    0    0 -0.12376151511E+02 -0.90766904481E+01  0.18035151737E+02  0.23681683510E+02  0.00000000000E+00 0. -1.
         11    1    1    2    0    0 -0.80081087970E+01 -0.83263661429E+02 -0.77677809412E+02  0.11415256982E+03  0.00000000000E+00 0.  1.
<mgrwt>
<rscale>  0 0.22173873E+03</rscale>
<asrwt>0</asrwt>
<pdfrwt beam="1">  1        1 0.10849797E-01 0.26895277E+03</pdfrwt>
<pdfrwt beam="2">  1       -1 0.10371505E+00 0.26895277E+03</pdfrwt>
<totfact> 0.53384450E+02</totfact>
</mgrwt>
</event>
<event>
 7    1  0.6095443E-006  0.1272926E+03  0.7546771E-02  0.1246691E+00
         -2   -1    0    0    0  501 -0.00000000000E+00  0.00000000000E+00  0.32189185822E+02  0.32189185822E+02  0.00000000000E+00 0.  1.
          2   -1    0    0  501    0  0.00000000000E+00 -0.00000000000E+00 -0.39225503547E+03  0.39225503547E+03  0.00000000000E+00 0. -1.
         23    2    1    2    0    0 -0.23688084777E+02  0.43159990012E+01 -0.16756110695E+03  0.21042846272E+03  0.12499464050E+03 0.  0.
          5    1    3    3  502    0  0.21910522196E+02  0.23250767664E+02  0.33513452637E+01  0.32465222854E+02  0.47000000000E+01 0. -1.
         -5    1    3    3    0  502 -0.45598606974E+02 -0.18934768663E+02 -0.17091245221E+03  0.17796323987E+03  0.47000000000E+01 0. -1.
        -11    1    1    2    0    0  0.38625047184E+02 -0.33770795568E+02 -0.67875180570E+02  0.85084669834E+02  0.00000000000E+00 0. -1.
         11    1    1    2    0    0 -0.14936962406E+02  0.29454796567E+02 -0.12462956212E+03  0.12893108873E+03  0.00000000000E+00 0.  1.
<mgrwt>
<rscale>  0 0.11784750E+03</rscale>
<asrwt>0</asrwt>
<pdfrwt beam="2">  1        2 0.60346927E-01 0.12729263E+03</pdfrwt>
<pdfrwt beam="1">  1       -2 0.49521825E-02 0.12729263E+03</pdfrwt>
<totfact> 0.15185615E+04</totfact>
</mgrwt>
</event>
<event>
 7    1  0.6095443E-006  0.1288614E+03  0.7546771E-02  0.1244027E+00
          2   -1    0    0  501    0  0.00000000000E+00  0.00000000000E+00  0.95303239827E+02  0.95303239827E+02  0.00000000000E+00 0. -1.
         -2   -1    0    0    0  501 -0.00000000000E+00 -0.00000000000E+00 -0.13753766558E+03  0.13753766558E+03  0.00000000000E+00 0.  1.
         23    2    1    2    0    0 -0.29063730211E+02 -0.11615747267E+02 -0.48122107700E+02  0.13755357338E+03  0.12500248918E+03 0.  0.
          5    1    3    3  502    0 -0.77740274958E+02 -0.18654294740E+01 -0.20534134407E+02  0.80565320415E+02  0.47000000000E+01 0.  1.
         -5    1    3    3    0  502  0.48676544747E+02 -0.97503177929E+01 -0.27587973294E+02  0.56988252966E+02  0.47000000000E+01 0.  1.
        -11    1    1    2    0    0  0.60374419321E+02  0.17411393641E+02  0.81662232522E+01  0.63363351703E+02  0.00000000000E+00 0. -1.
         11    1    1    2    0    0 -0.31310689110E+02 -0.57956463736E+01 -0.22785413088E+01  0.31923980327E+02  0.00000000000E+00 0.  1.
<mgrwt>
<rscale>  0 0.11943817E+03</rscale>
<asrwt>0</asrwt>
<pdfrwt beam="1">  1        2 0.14662037E-01 0.12886135E+03</pdfrwt>
<pdfrwt beam="2">  1       -2 0.21159641E-01 0.12886135E+03</pdfrwt>
<totfact> 0.71916300E+03</totfact>
</mgrwt>
</event>
<event>
 7    1  0.6095443E-006  0.1498644E+03  0.7546771E-02  0.1210234E+00
          1   -1    0    0  501    0  0.00000000000E+00  0.00000000000E+00  0.78205789816E+02  0.78205789816E+02  0.00000000000E+00 0. -1.
         -1   -1    0    0    0  501 -0.00000000000E+00 -0.00000000000E+00 -0.25202549087E+03  0.25202549087E+03  0.00000000000E+00 0.  1.
         23    2    1    2    0    0  0.53838390506E+02 -0.62739750039E+02 -0.13657673229E+03  0.20276227585E+03  0.12499795269E+03 0.  0.
          5    1    3    3  502    0  0.57003023384E+02 -0.41798655347E+02 -0.67805067932E+01  0.71165564257E+02  0.47000000000E+01 0.  1.
         -5    1    3    3    0  502 -0.31646328775E+01 -0.20941094692E+02 -0.12979622550E+03  0.13159671159E+03  0.47000000000E+01 0.  1.
        -11    1    1    2    0    0 -0.27989012614E+02  0.53535480979E+02  0.20290678808E+02  0.63727107241E+02  0.00000000000E+00 0. -1.
         11    1    1    2    0    0 -0.25849377892E+02  0.92042690601E+01 -0.57533647568E+02  0.63741897593E+02  0.00000000000E+00 0.  1.
<mgrwt>
<rscale>  0 0.14232493E+03</rscale>
<asrwt>0</asrwt>
<pdfrwt beam="1">  1        1 0.12031660E-01 0.14986439E+03</pdfrwt>
<pdfrwt beam="2">  1       -1 0.38773153E-01 0.14986439E+03</pdfrwt>
<totfact> 0.31607764E+03</totfact>
</mgrwt>
</event>
<event>
 7    1  0.6095443E-006  0.1282350E+03  0.7546771E-02  0.1239738E+00
         -1   -1    0    0    0  501 -0.00000000000E+00  0.00000000000E+00  0.50505102005E+02  0.50505102005E+02  0.00000000000E+00 0.  1.
          1   -1    0    0  501    0  0.00000000000E+00 -0.00000000000E+00 -0.29246728054E+03  0.29246728054E+03  0.00000000000E+00 0. -1.
         23    2    1    2    0    0 -0.16451883416E+02  0.50169611431E+02 -0.84513905722E+02  0.15357997469E+03  0.11686125957E+03 0.  0.
          5    1    3    3  502    0 -0.37505421894E+02 -0.26638116498E+02 -0.17685115694E+02  0.49508577430E+02  0.47000000000E+01 0. -1.
         -5    1    3    3    0  502  0.21053538478E+02  0.76807727929E+02 -0.66828790029E+02  0.10407139727E+03  0.47000000000E+01 0.  1.
        -11    1    1    2    0    0 -0.14397407436E+02 -0.12883688255E+02  0.49439466438E+01  0.19942852663E+02  0.00000000000E+00 0.  1.
         11    1    1    2    0    0  0.30849290852E+02 -0.37285923175E+02 -0.16239221946E+03  0.16944955519E+03  0.00000000000E+00 0. -1.
<mgrwt>
<rscale>  0 0.12205906E+03</rscale>
<asrwt>0</asrwt>
<pdfrwt beam="2">  1        1 0.44994967E-01 0.12823497E+03</pdfrwt>
<pdfrwt beam="1">  1       -1 0.77700155E-02 0.12823497E+03</pdfrwt>
<totfact> 0.77134111E+03</totfact>
</mgrwt>
</event>
<event>
 6    1  0.6095443E-006  0.1974806E+03  0.7546771E-02  0.1161799E+00
         -2   -1    0    0    0  501 -0.00000000000E+00  0.00000000000E+00  0.32664159667E+02  0.32664159667E+02  0.00000000000E+00 0.  1.
          2   -1    0    0  501    0  0.00000000000E+00 -0.00000000000E+00 -0.99254070949E+03  0.99254070949E+03  0.00000000000E+00 0. -1.
          5    1    1    2  502    0 -0.87731312705E+02 -0.68437672717E+02 -0.44226256012E+03  0.45606881100E+03  0.47000000000E+01 0. -1.
         -5    1    1    2    0  502 -0.24763177571E+02  0.84480271473E+01  0.17936656923E+01  0.26643786568E+02  0.47000000000E+01 0.  1.
        -11    1    1    2    0    0  0.62194851297E+02  0.80524626990E+02 -0.31764546265E+03  0.33354318314E+03  0.00000000000E+00 0.  1.
         11    1    1    2    0    0  0.50299638979E+02 -0.20534981420E+02 -0.20176219275E+03  0.20894908846E+03  0.00000000000E+00 0. -1.
<mgrwt>
<rscale>  0 0.18634562E+03</rscale>
<asrwt>0</asrwt>
<pdfrwt beam="2">  1        2 0.15269856E+00 0.19748064E+03</pdfrwt>
<pdfrwt beam="1">  1       -2 0.50252555E-02 0.19748064E+03</pdfrwt>
<totfact> 0.50973182E+03</totfact>
</mgrwt>
</event>
<event>
 7    1  0.6095443E-006  0.2473864E+03  0.7546771E-02  0.1118604E+00
          2   -1    0    0  501    0  0.00000000000E+00  0.00000000000E+00  0.16968361155E+04  0.16968361155E+04  0.00000000000E+00 0. -1.
         -2   -1    0    0    0  501 -0.00000000000E+00 -0.00000000000E+00 -0.34110258833E+02  0.34110258833E+02  0.00000000000E+00 0.  1.
         23    2    1    2    0    0  0.82121670665E+02  0.19705617522E+03  0.10252866738E+04  0.10547098065E+04  0.12499962965E+03 0.  0.
          5    1    3    3  502    0  0.29624812700E+02  0.40390188742E+02  0.76023554836E+02  0.91162863953E+02  0.47000000000E+01 0.  1.
         -5    1    3    3    0  502  0.52496857965E+02  0.15666598648E+03  0.94926311896E+03  0.96354694252E+03  0.47000000000E+01 0.  1.
        -11    1    1    2    0    0 -0.46558558597E+02 -0.10154856003E+03  0.44105653562E+03  0.45498426020E+03  0.00000000000E+00 0. -1.
         11    1    1    2    0    0 -0.35563112068E+02 -0.95507615196E+02  0.19638264721E+03  0.22125230762E+03  0.00000000000E+00 0.  1.
<mgrwt>
<rscale>  0 0.24179268E+03</rscale>
<asrwt>0</asrwt>
<pdfrwt beam="1">  1        2 0.26105164E+00 0.24738636E+03</pdfrwt>
<pdfrwt beam="2">  1       -2 0.52477335E-02 0.24738636E+03</pdfrwt>
<totfact> 0.19520557E+03</totfact>
</mgrwt>
</event>
<event>
 7    1  0.6095443E-006  0.1300291E+03  0.7546771E-02  0.1241502E+00
          2   -1    0    0  501    0  0.00000000000E+00  0.00000000000E+00  0.32878044917E+02  0.32878044917E+02  0.00000000000E+00 0. -1.
         -2   -1    0    0    0  501 -0.00000000000E+00 -0.00000000000E+00 -0.39435083680E+03  0.39435083680E+03  0.00000000000E+00 0.  1.
         23    2    1    2    0    0  0.33111982972E+02 -0.13687539425E+02 -0.21726180248E+03  0.25320005555E+03  0.12499530056E+03 0.  0.
          5    1    3    3  502    0 -0.38258492137E+02 -0.17254258428E+02 -0.14672345645E+03  0.15268033380E+03  0.47000000000E+01 0.  1.
         -5    1    3    3    0  502  0.71370475109E+02  0.35667190023E+01 -0.70538346027E+02  0.10051972176E+03  0.47000000000E+01 0.  1.
        -11    1    1    2    0    0 -0.64542150049E+02  0.12650738978E+02 -0.92309419606E+02  0.11334354537E+03  0.00000000000E+00 0. -1.
         11    1    1    2    0    0  0.31430167076E+02  0.10368004474E+01 -0.51901569801E+02  0.60685280797E+02  0.00000000000E+00 0.  1.
<mgrwt>
<rscale>  0 0.12097186E+03</rscale>
<asrwt>0</asrwt>
<pdfrwt beam="1">  1        2 0.50581607E-02 0.13002914E+03</pdfrwt>
<pdfrwt beam="2">  1       -2 0.60669360E-01 0.13002914E+03</pdfrwt>
<totfact> 0.37974782E+03</totfact>
</mgrwt>
</event>
<event>
 7    1  0.6095443E-006  0.1282554E+03  0.7546771E-02  0.1245813E+00
         -1   -1    0    0    0  501 -0.00000000000E+00  0.00000000000E+00  0.38014110610E+03  0.38014110610E+03  0.00000000000E+00 0.  1.
          1   -1    0    0  501    0  0.00000000000E+00 -0.00000000000E+00 -0.52491227493E+02  0.52491227493E+02  0.00000000000E+00 0. -1.
         23    2    1    2    0    0  0.48772092045E+01  0.28292694409E+02  0.31323041804E+03  0.33847119101E+03  0.12500075454E+03 0.  0.
          5    1    3    3  502    0  0.29034640523E+02 -0.43314448095E+02  0.13694846720E+03  0.14661556682E+03  0.47000000000E+01 0. -1.
         -5    1    3    3    0  502 -0.24157431319E+02  0.71607142503E+02  0.17628195083E+03  0.19185562419E+03  0.47000000000E+01 0. -1.
        -11    1    1    2    0    0  0.40284010948E+02 -0.11609752900E+02  0.18541753184E+02  0.45840860720E+02  0.00000000000E+00 0.  1.
         11    1    1    2    0    0 -0.45161220152E+02 -0.16682941509E+02 -0.41222926104E+01  0.48320281864E+02  0.00000000000E+00 0. -1.
<mgrwt>
<rscale>  0 0.11836860E+03</rscale>
<asrwt>0</asrwt>
<pdfrwt beam="2">  1        1 0.80755737E-02 0.12825542E+03</pdfrwt>
<pdfrwt beam="1">  1       -1 0.58483245E-01 0.12825542E+03</pdfrwt>
<totfact> 0.25282732E+03</totfact>
</mgrwt>
</event>
<event>
 6    1  0.6095443E-006  0.1667917E+03  0.7546771E-02  0.1190644E+00
         -1   -1    0    0    0  501 -0.00000000000E+00  0.00000000000E+00  0.77289531085E+02  0.77289531085E+02  0.00000000000E+00 0.  1.
          1   -1    0    0  501    0  0.00000000000E+00 -0.00000000000E+00 -0.32074239647E+03  0.32074239647E+03  0.00000000000E+00 0. -1.
          5    1    1    2  502    0 -0.16763432903E+02  0.18448306318E+02  0.30571606315E+02  0.39724876354E+02  0.47000000000E+01 0. -1.
         -5    1    1    2    0  502  0.66185507036E+02  0.68631238218E+02 -0.10806352163E+03  0.14418939943E+03  0.47000000000E+01 0.  1.
        -11    1    1    2    0    0 -0.19564690651E+02 -0.75706727244E+02 -0.47650134660E+02  0.91568668241E+02  0.00000000000E+00 0. -1.
         11    1    1    2    0    0 -0.29857383483E+02 -0.11372817291E+02 -0.11831081541E+03  0.12254898353E+03  0.00000000000E+00 0.  1.
<mgrwt>
<rscale>  0 0.15828766E+03</rscale>
<asrwt>0</asrwt>
<pdfrwt beam="2">  1        1 0.49344986E-01 0.16679168E+03</pdfrwt>
<pdfrwt beam="1">  1       -1 0.11890697E-01 0.16679168E+03</pdfrwt>
<totfact> 0.36474479E+03</totfact>
</mgrwt>
</event>
<event>
 7    1  0.6095443E-006  0.1559106E+03  0.7546771E-02  0.1199796E+00
          1   -1    0    0  501    0  0.00000000000E+00  0.00000000000E+00  0.38830404155E+03  0.38830404155E+03  0.00000000000E+00 0. -1.
         -1   -1    0    0    0  501 -0.00000000000E+00 -0.00000000000E+00 -0.10922750526E+03  0.10922750526E+03  0.00000000000E+00 0.  1.
         23    2    1    2    0    0 -0.16070410698E+02 -0.10327034847E+03 -0.31140036992E+02  0.15899000424E+03  0.11569397812E+03 0.  0.
          5    1    3    3  502    0  0.19904672455E+02  0.18837616292E+02  0.20549540016E+00  0.27806186389E+02  0.47000000000E+01 0. -1.
         -5    1    3    3    0  502 -0.35975083153E+02 -0.12210796476E+03 -0.31345532392E+02  0.13118381785E+03  0.47000000000E+01 0.  1.
        -11    1    1    2    0    0  0.17409260636E+02 -0.49160078337E+01  0.13090437135E+02  0.22329555152E+02  0.00000000000E+00 0.  1.
         11    1    1    2    0    0 -0.13388499374E+01  0.10818635630E+03  0.29712613614E+03  0.31621198742E+03  0.00000000000E+00 0. -1.
<mgrwt>
<rscale>  0 0.15055261E+03</rscale>
<asrwt>0</asrwt>
<pdfrwt beam="1">  1        1 0.59739083E-01 0.15591061E+03</pdfrwt>
<pdfrwt beam="2">  1       -1 0.16804232E-01 0.15591061E+03</pdfrwt>
<totfact> 0.16646480E+03</totfact>
</mgrwt>
</event>
<event>
 6    1  0.6095443E-006  0.2384131E+03  0.7546771E-02  0.1162467E+00
         -2   -1    0    0    0  501 -0.00000000000E+00  0.00000000000E+00  0.31502175255E+02  0.31502175255E+02  0.00000000000E+00 0.  1.
          2   -1    0    0  501    0  0.00000000000E+00 -0.00000000000E+00 -0.84954521465E+03  0.84954521465E+03  0.00000000000E+00 0. -1.
          5    1    1    2  502    0  0.45757759856E+02  0.10213654980E+01 -0.57385171855E+03  0.57569323485E+03  0.47000000000E+01 0. -1.
         -5    1    1    2    0  502 -0.34387913845E+02 -0.61194550218E+01  0.98799276765E+01  0.36601630008E+02  0.47000000000E+01 0.  1.
        -11    1    1    2    0    0 -0.41583620942E+02 -0.19869166186E+02 -0.10607626397E+03  0.11565532878E+03  0.00000000000E+00 0.  1.
         11    1    1    2    0    0  0.30213774931E+02  0.24967255710E+02 -0.14799498455E+03  0.15309719627E+03  0.00000000000E+00 0. -1.
<mgrwt>
<rscale>  0 0.18562545E+03</rscale>
<asrwt>0</asrwt>
<pdfrwt beam="2">  1        2 0.13069927E+00 0.23841313E+03</pdfrwt>
<pdfrwt beam="1">  1       -2 0.48464883E-02 0.23841313E+03</pdfrwt>
<totfact> 0.66831921E+03</totfact>
</mgrwt>
</event>
<event>
 7    1  0.6095443E-006  0.1323457E+03  0.7546771E-02  0.1236361E+00
         -2   -1    0    0    0  501 -0.00000000000E+00  0.00000000000E+00  0.20269932783E+02  0.20269932783E+02  0.00000000000E+00 0.  1.
          2   -1    0    0  501    0  0.00000000000E+00 -0.00000000000E+00 -0.68512225754E+03  0.68512225754E+03  0.00000000000E+00 0. -1.
         23    2    1    2    0    0  0.18697446858E+02 -0.39244943128E+02 -0.34602762554E+03  0.37047334878E+03  0.12500249773E+03 0.  0.
          5    1    3    3  502    0  0.14897395448E+02  0.21984318377E+02 -0.27576088077E+03  0.27707651652E+03  0.47000000000E+01 0. -1.
         -5    1    3    3    0  502  0.38000514094E+01 -0.61229261504E+02 -0.70266744776E+02  0.93396832261E+02  0.47000000000E+01 0. -1.
        -11    1    1    2    0    0 -0.51100099501E+02  0.46238237232E+02 -0.19907352914E+03  0.21066434145E+03  0.00000000000E+00 0. -1.
         11    1    1    2    0    0  0.32402652644E+02 -0.69932941039E+01 -0.11975117007E+03  0.12425450010E+03  0.00000000000E+00 0.  1.
<mgrwt>
<rscale>  0 0.12417718E+03</rscale>
<asrwt>0</asrwt>
<pdfrwt beam="2">  1        2 0.10540342E+00 0.13234570E+03</pdfrwt>
<pdfrwt beam="1">  1       -2 0.31184514E-02 0.13234570E+03</pdfrwt>
<totfact> 0.16303456E+04</totfact>
</mgrwt>
</event>
<event>
 7    1  0.6095443E-006  0.1223704E+03  0.7546771E-02  0.1247089E+00
          3   -1    0    0  501    0  0.00000000000E+00  0.00000000000E+00  0.36473677563E+02  0.36473677563E+02  0.00000000000E+00 0. -1.
         -3   -1    0    0    0  501 -0.00000000000E+00 -0.00000000000E+00 -0.40884914817E+03  0.40884914817E+03  0.00000000000E+00 0.  1.
         23    2    1    2    0    0 -0.51103220036E+02  0.12211159822E+02 -0.28130688232E+03  0.30677038367E+03  0.11051630980E+03 0.  0.
          5    1    3    3  502    0 -0.47066566804E+02 -0.20285791440E+02 -0.45627127516E+02  0.68780082948E+02  0.47000000000E+01 0. -1.
         -5    1    3    3    0  502 -0.40366532323E+01  0.32496951262E+02 -0.23567975481E+03  0.23799030072E+03  0.47000000000E+01 0.  1.
        -11    1    1    2    0    0  0.10906636613E+02 -0.42741448885E+02 -0.13728655522E+02  0.46198075257E+02  0.00000000000E+00 0. -1.
         11    1    1    2    0    0  0.40196583423E+02  0.30530289062E+02 -0.77339932763E+02  0.92354366810E+02  0.00000000000E+00 0.  1.
<mgrwt>
<rscale>  0 0.11761207E+03</rscale>
<asrwt>0</asrwt>
<pdfrwt beam="1">  1        3 0.56113351E-02 0.12237037E+03</pdfrwt>
<pdfrwt beam="2">  1       -3 0.62899867E-01 0.12237037E+03</pdfrwt>
<totfact> 0.10716881E+03</totfact>
</mgrwt>
</event>
<event>
 7    1  0.6095443E-006  0.1256993E+03  0.7546771E-02  0.1249089E+00
          1   -1    0    0  501    0  0.00000000000E+00  0.00000000000E+00  0.16817144312E+03  0.16817144312E+03  0.00000000000E+00 0. -1.
         -1   -1    0    0    0  501 -0.00000000000E+00 -0.00000000000E+00 -0.73036655880E+02  0.73036655880E+02  0.00000000000E+00 0.  1.
         23    2    1    2    0    0 -0.12211946035E+02 -0.51780334741E+01  0.33767595043E+02  0.13015592398E+03  0.12499748163E+03 0.  0.
          5    1    3    3  502    0  0.48473260616E+02  0.24684354394E+01 -0.15830660073E+02  0.51268411001E+02  0.47000000000E+01 0. -1.
         -5    1    3    3    0  502 -0.60685206651E+02 -0.76464689136E+01  0.49598255116E+02  0.78887512977E+02  0.47000000000E+01 0. -1.
        -11    1    1    2    0    0 -0.22855572854E+00 -0.28462962864E+02  0.68770686627E+02  0.74428488040E+02  0.00000000000E+00 0. -1.
         11    1    1    2    0    0  0.12440501763E+02  0.33640996338E+02 -0.74034944262E+01  0.36623686986E+02  0.00000000000E+00 0.  1.
<mgrwt>
<rscale>  0 0.11643969E+03</rscale>
<asrwt>0</asrwt>
<pdfrwt beam="1">  1        1 0.25872530E-01 0.12569930E+03</pdfrwt>
<pdfrwt beam="2">  1       -1 0.11236409E-01 0.12569930E+03</pdfrwt>
<totfact> 0.87283783E+03</totfact>
</mgrwt>
</event>
<event>
 6    1  0.6095443E-006  0.1825569E+03  0.7546771E-02  0.1180688E+00
          1   -1    0    0  501    0  0.00000000000E+00  0.00000000000E+00  0.19734356189E+03  0.19734356189E+03  0.00000000000E+00 0. -1.
         -1   -1    0    0    0  501 -0.00000000000E+00 -0.00000000000E+00 -0.12934201791E+03  0.12934201791E+03  0.00000000000E+00 0.  1.
          5    1    1    2  502    0  0.16489505519E+02 -0.45721236240E+02  0.19545980737E+02  0.52597248964E+02  0.47000000000E+01 0. -1.
         -5    1    1    2    0  502  0.33771261249E+02  0.12438766432E+03 -0.16204542715E+02  0.12999025473E+03  0.47000000000E+01 0.  1.
        -11    1    1    2    0    0 -0.49429725902E+02 -0.67088148414E+02  0.51760493898E+01  0.83491969360E+02  0.00000000000E+00 0.  1.
         11    1    1    2    0    0 -0.83104086500E+00 -0.11578279665E+02  0.59484056566E+02  0.60606106742E+02  0.00000000000E+00 0. -1.
<mgrwt>
<rscale>  0 0.16730453E+03</rscale>
<asrwt>0</asrwt>
<pdfrwt beam="1">  1        1 0.30360548E-01 0.18255693E+03</pdfrwt>
<pdfrwt beam="2">  1       -1 0.19898772E-01 0.18255693E+03</pdfrwt>
<totfact> 0.29736932E+03</totfact>
</mgrwt>
</event>
<event>
 7    1  0.6095443E-006  0.1747175E+03  0.7546771E-02  0.1179113E+00
         -2   -1    0    0    0  501 -0.00000000000E+00  0.00000000000E+00  0.10272270907E+03  0.10272270907E+03  0.00000000000E+00 0.  1.
          2   -1    0    0  501    0  0.00000000000E+00 -0.00000000000E+00 -0.31205947422E+03  0.31205947422E+03  0.00000000000E+00 0. -1.
         23    2    1    2    0    0  0.12104366448E+03 -0.15796715425E+02 -0.26219521011E+02  0.17667393560E+03  0.12500044524E+03 0.  0.
          5    1    3    3  502    0  0.93288057004E+02 -0.45663611709E+02  0.28937151002E+02  0.10792254501E+03  0.47000000000E+01 0.  1.
         -5    1    3    3    0  502  0.27755607476E+02  0.29866896284E+02 -0.55156672013E+02  0.68751390586E+02  0.47000000000E+01 0.  1.
        -11    1    1    2    0    0 -0.43586570683E+02  0.39927374094E+02 -0.12512266478E+03  0.13838231674E+03  0.00000000000E+00 0. -1.
         11    1    1    2    0    0 -0.77457093797E+02 -0.24130658669E+02 -0.57994579367E+02  0.99725930947E+02  0.00000000000E+00 0.  1.
<mgrwt>
<rscale>  0 0.16879250E+03</rscale>
<asrwt>0</asrwt>
<pdfrwt beam="2">  1        2 0.48009150E-01 0.17471753E+03</pdfrwt>
<pdfrwt beam="1">  1       -2 0.15803494E-01 0.17471753E+03</pdfrwt>
<totfact> 0.32160762E+03</totfact>
</mgrwt>
</event>
<event>
 7    1  0.6095443E-006  0.1304816E+03  0.7546771E-02  0.1239066E+00
         -2   -1    0    0    0  501 -0.00000000000E+00  0.00000000000E+00  0.20031773128E+03  0.20031773128E+03  0.00000000000E+00 0.  1.
          2   -1    0    0  501    0  0.00000000000E+00 -0.00000000000E+00 -0.69072961447E+02  0.69072961447E+02  0.00000000000E+00 0. -1.
         23    2    1    2    0    0 -0.37210060800E+02  0.38438218033E+01  0.96564660428E+02  0.16232740876E+03  0.12500436153E+03 0.  0.
          5    1    3    3  502    0  0.17504501499E+02 -0.16216070627E+02 -0.20283866823E+02  0.31668498111E+02  0.47000000000E+01 0. -1.
         -5    1    3    3    0  502 -0.54714562299E+02  0.20059892431E+02  0.11684852725E+03  0.13065891065E+03  0.47000000000E+01 0. -1.
        -11    1    1    2    0    0  0.28801905948E+02  0.41892205463E+02  0.32628334965E+01  0.50942641738E+02  0.00000000000E+00 0.  1.
         11    1    1    2    0    0  0.84081548517E+01 -0.45736027267E+02  0.31417275905E+02  0.56120642222E+02  0.00000000000E+00 0. -1.
<mgrwt>
<rscale>  0 0.12247701E+03</rscale>
<asrwt>0</asrwt>
<pdfrwt beam="2">  1        2 0.10626610E-01 0.13048162E+03</pdfrwt>
<pdfrwt beam="1">  1       -2 0.30818112E-01 0.13048162E+03</pdfrwt>
<totfact> 0.54735089E+03</totfact>
</mgrwt>
</event>
<event>
 7    1  0.6095443E-006  0.1477444E+03  0.7546771E-02  0.1212965E+00
          2   -1    0    0  501    0  0.00000000000E+00  0.00000000000E+00  0.12429042211E+03  0.12429042211E+03  0.00000000000E+00 0. -1.
         -2   -1    0    0    0  501 -0.00000000000E+00 -0.00000000000E+00 -0.16790312742E+03  0.16790312742E+03  0.00000000000E+00 0.  1.
         23    2    1    2    0    0 -0.10295181128E+02  0.78441322358E+02 -0.78338590240E+02  0.16722842889E+03  0.12477732526E+03 0.  0.
          5    1    3    3  502    0  0.56643362515E+02  0.30081055027E+02 -0.26114193252E+02  0.69407358960E+02  0.47000000000E+01 0.  1.
         -5    1    3    3    0  502 -0.66938543643E+02  0.48360267331E+02 -0.52224396987E+02  0.97821069929E+02  0.47000000000E+01 0.  1.
        -11    1    1    2    0    0  0.21485390701E+02 -0.41157102823E+01 -0.21826944099E+02  0.30902695245E+02  0.00000000000E+00 0.  1.
         11    1    1    2    0    0 -0.11190209573E+02 -0.74325612076E+02  0.56552829024E+02  0.94062425396E+02  0.00000000000E+00 0. -1.
<mgrwt>
<rscale>  0 0.14027097E+03</rscale>
<asrwt>0</asrwt>
<pdfrwt beam="1">  1        2 0.19121603E-01 0.14774442E+03</pdfrwt>
<pdfrwt beam="2">  1       -2 0.25831250E-01 0.14774442E+03</pdfrwt>
<totfact> 0.37805322E+03</totfact>
</mgrwt>
</event>
<event>
 7    1  0.6095443E-006  0.1384659E+03  0.7546771E-02  0.1226693E+00
          2   -1    0    0  501    0  0.00000000000E+00  0.00000000000E+00  0.64295932127E+03  0.64295932127E+03  0.00000000000E+00 0. -1.
         -2   -1    0    0    0  501 -0.00000000000E+00 -0.00000000000E+00 -0.24028382672E+02  0.24028382672E+02  0.00000000000E+00 0.  1.
         23    2    1    2    0    0 -0.41990106616E+02 -0.42242039493E+02  0.31869865871E+03  0.34747898868E+03  0.12500101421E+03 0.  0.
          5    1    3    3  502    0  0.36025448929E+02 -0.17421011407E+02  0.19464547540E+03  0.19877191880E+03  0.47000000000E+01 0. -1.
         -5    1    3    3    0  502 -0.78015555546E+02 -0.24821028086E+02  0.12405318331E+03  0.14870706987E+03  0.47000000000E+01 0. -1.
        -11    1    1    2    0    0 -0.85991021815E+01 -0.22173640379E+02  0.10741073934E+03  0.11001218937E+03  0.00000000000E+00 0. -1.
         11    1    1    2    0    0  0.50589208798E+02  0.64415679872E+02  0.19282154055E+03  0.20949652589E+03  0.00000000000E+00 0.  1.
<mgrwt>
<rscale>  0 0.13051541E+03</rscale>
<asrwt>0</asrwt>
<pdfrwt beam="1">  1        2 0.98916806E-01 0.13846593E+03</pdfrwt>
<pdfrwt beam="2">  1       -2 0.36966747E-02 0.13846593E+03</pdfrwt>
<totfact> 0.13705688E+04</totfact>
</mgrwt>
</event>
<event>
 7    1  0.6095443E-006  0.2188396E+03  0.7546771E-02  0.1138224E+00
          2   -1    0    0  501    0  0.00000000000E+00  0.00000000000E+00  0.47684323040E+03  0.47684323040E+03  0.00000000000E+00 0. -1.
         -2   -1    0    0    0  501 -0.00000000000E+00 -0.00000000000E+00 -0.92731808558E+02  0.92731808558E+02  0.00000000000E+00 0.  1.
         23    2    1    2    0    0 -0.13950244783E+03 -0.11315761180E+03  0.18521478143E+03  0.28669721638E+03  0.12500080224E+03 0.  0.
          5    1    3    3  502    0 -0.12384365825E+03 -0.13773470716E+03  0.13805583055E+03  0.23106190425E+03  0.47000000000E+01 0.  1.
         -5    1    3    3    0  502 -0.15658789584E+02  0.24577095365E+02  0.47158950881E+02  0.55635312132E+02  0.47000000000E+01 0.  1.
        -11    1    1    2    0    0  0.10780050770E+03  0.45466952992E+02  0.77573493108E+02  0.14037749146E+03  0.00000000000E+00 0.  1.
         11    1    1    2    0    0  0.31701940130E+02  0.67690658807E+02  0.12132314730E+03  0.14250033112E+03  0.00000000000E+00 0. -1.
<mgrwt>
<rscale>  0 0.21427558E+03</rscale>
<asrwt>0</asrwt>
<pdfrwt beam="1">  1        2 0.73360496E-01 0.21883962E+03</pdfrwt>
<pdfrwt beam="2">  1       -2 0.14266432E-01 0.21883962E+03</pdfrwt>
<totfact> 0.24237655E+03</totfact>
</mgrwt>
</event>
<event>
 7    1  0.6095443E-006  0.1291081E+03  0.7546771E-02  0.1243066E+00
         -3   -1    0    0    0  501 -0.00000000000E+00  0.00000000000E+00  0.15567664342E+03  0.15567664342E+03  0.00000000000E+00 0.  1.
          3   -1    0    0  501    0  0.00000000000E+00 -0.00000000000E+00 -0.96537343391E+02  0.96537343391E+02  0.00000000000E+00 0. -1.
         23    2    1    2    0    0  0.31924273917E+02  0.49832824953E+01  0.82235556351E+02  0.15307380200E+03  0.12499963905E+03 0.  0.
          5    1    3    3  502    0  0.59565064848E+02 -0.32826396511E+02  0.13077534025E+02  0.69416721000E+02  0.47000000000E+01 0. -1.
         -5    1    3    3    0  502 -0.27640790931E+02  0.37809679006E+02  0.69158022326E+02  0.83657081002E+02  0.47000000000E+01 0. -1.
        -11    1    1    2    0    0 -0.18252242667E+02  0.39335150526E+02 -0.29319246791E+02  0.52345168466E+02  0.00000000000E+00 0. -1.
         11    1    1    2    0    0 -0.13672031250E+02 -0.44318433022E+02  0.62229904674E+01  0.46795016341E+02  0.00000000000E+00 0.  1.
<mgrwt>
<rscale>  0 0.12001852E+03</rscale>
<asrwt>0</asrwt>
<pdfrwt beam="2">  1        3 0.14851899E-01 0.12910810E+03</pdfrwt>
<pdfrwt beam="1">  1       -3 0.23950253E-01 0.12910810E+03</pdfrwt>
<totfact> 0.13983113E+03</totfact>
</mgrwt>
</event>
<event>
 7    1  0.6095443E-006  0.1605370E+03  0.7546771E-02  0.1195624E+00
         -1   -1    0    0    0  501 -0.00000000000E+00  0.00000000000E+00  0.45801560947E+02  0.45801560947E+02  0.00000000000E+00 0.  1.
          1   -1    0    0  501    0  0.00000000000E+00 -0.00000000000E+00 -0.48057262257E+03  0.48057262257E+03  0.00000000000E+00 0. -1.
         23    2    1    2    0    0  0.76828264079E+02  0.65126294236E+02 -0.22601917706E+03  0.27723058069E+03  0.12501243982E+03 0.  0.
          5    1    3    3  502    0  0.26014730668E+02  0.75773184331E+02 -0.20653550634E+03  0.22157921170E+03  0.47000000000E+01 0. -1.
         -5    1    3    3    0  502  0.50813533411E+02 -0.10646890095E+02 -0.19483670715E+02  0.55651368994E+02  0.47000000000E+01 0. -1.
        -11    1    1    2    0    0  0.17494658193E+02 -0.65629936504E+01 -0.92971641973E+01  0.20870390822E+02  0.00000000000E+00 0.  1.
         11    1    1    2    0    0 -0.94322922272E+02 -0.58563300586E+02 -0.19945472037E+03  0.22827321200E+03  0.00000000000E+00 0. -1.
<mgrwt>
<rscale>  0 0.15401523E+03</rscale>
<asrwt>0</asrwt>
<pdfrwt beam="2">  1        1 0.73934245E-01 0.16053699E+03</pdfrwt>
<pdfrwt beam="1">  1       -1 0.70463944E-02 0.16053699E+03</pdfrwt>
<totfact> 0.48440693E+03</totfact>
</mgrwt>
</event>
<event>
 7    1  0.6095443E-006  0.1259903E+03  0.7546771E-02  0.1249567E+00
         -1   -1    0    0    0  501 -0.00000000000E+00  0.00000000000E+00  0.55504120542E+03  0.55504120542E+03  0.00000000000E+00 0.  1.
          1   -1    0    0  501    0  0.00000000000E+00 -0.00000000000E+00 -0.22728922246E+02  0.22728922246E+02  0.00000000000E+00 0. -1.
         23    2    1    2    0    0  0.70757472274E+01  0.14141957493E+02  0.37978997888E+03  0.40014244219E+03  0.12499393915E+03 0.  0.
          5    1    3    3  502    0 -0.28663292808E+02 -0.23447897218E+02  0.31410759709E+03  0.31631797418E+03  0.47000000000E+01 0. -1.
         -5    1    3    3    0  502  0.35739040036E+02  0.37589854711E+02  0.65682381788E+02  0.83824468010E+02  0.47000000000E+01 0. -1.
        -11    1    1    2    0    0 -0.30719992248E+02 -0.42513740432E+02  0.72399801344E+02  0.89402837113E+02  0.00000000000E+00 0.  1.
         11    1    1    2    0    0  0.23644245020E+02  0.28371782939E+02  0.80122502955E+02  0.88224848368E+02  0.00000000000E+00 0. -1.
<mgrwt>
<rscale>  0 0.11616158E+03</rscale>
<asrwt>0</asrwt>
<pdfrwt beam="2">  1        1 0.34967577E-02 0.12599026E+03</pdfrwt>
<pdfrwt beam="1">  1       -1 0.85390945E-01 0.12599026E+03</pdfrwt>
<totfact> 0.37299504E+03</totfact>
</mgrwt>
</event>
<event>
 7    1  0.6095443E-006  0.1260588E+03  0.7546771E-02  0.1250389E+00
          2   -1    0    0  501    0  0.00000000000E+00  0.00000000000E+00  0.76490386890E+02  0.76490386890E+02  0.00000000000E+00 0. -1.
         -2   -1    0    0    0  501 -0.00000000000E+00 -0.00000000000E+00 -0.15174932732E+03  0.15174932732E+03  0.00000000000E+00 0.  1.
         23    2    1    2    0    0  0.99016841253E+01  0.13011507972E+02 -0.44748541293E+02  0.13376568863E+03  0.12499393913E+03 0.  0.
          5    1    3    3  502    0  0.53473215855E+02  0.12745425119E+02 -0.65194062934E+02  0.85406009842E+02  0.47000000000E+01 0. -1.
         -5    1    3    3    0  502 -0.43571531730E+02  0.26608285289E+00  0.20445521641E+02  0.48359678788E+02  0.47000000000E+01 0. -1.
        -11    1    1    2    0    0  0.32076217153E+02 -0.74538239567E+01  0.11446483993E+02  0.34863522401E+02  0.00000000000E+00 0. -1.
         11    1    1    2    0    0 -0.41977901278E+02 -0.55576840152E+01 -0.41956883134E+02  0.59610503182E+02  0.00000000000E+00 0.  1.
<mgrwt>
<rscale>  0 0.11568540E+03</rscale>
<asrwt>0</asrwt>
<pdfrwt beam="1">  1        2 0.11767752E-01 0.12605883E+03</pdfrwt>
<pdfrwt beam="2">  1       -2 0.23346050E-01 0.12605883E+03</pdfrwt>
<totfact> 0.78745777E+03</totfact>
</mgrwt>
</event>
<event>
 7    1  0.6095443E-006  0.1491507E+03  0.7546771E-02  0.1211055E+00
          1   -1    0    0  501    0  0.00000000000E+00  0.00000000000E+00  0.67831005012E+02  0.67831005012E+02  0.00000000000E+00 0. -1.
         -1   -1    0    0    0  501 -0.00000000000E+00 -0.00000000000E+00 -0.37049481508E+03  0.37049481508E+03  0.00000000000E+00 0.  1.
         23    2    1    2    0    0 -0.81106442101E+02  0.66072460047E+01 -0.27628728223E+03  0.31397546354E+03  0.12499607489E+03 0.  0.
          5    1    3    3  502    0 -0.21414215167E+02 -0.19108974520E+02  0.10334230878E+01  0.29101193819E+02  0.47000000000E+01 0.  1.
         -5    1    3    3    0  502 -0.59692226934E+02  0.25716220525E+02 -0.27732070532E+03  0.28487426972E+03  0.47000000000E+01 0.  1.
        -11    1    1    2    0    0  0.56236166367E+02  0.33028596702E+02 -0.38864780258E+02  0.75920127451E+02  0.00000000000E+00 0.  1.
         11    1    1    2    0    0  0.24870275734E+02 -0.39635842707E+02  0.12488252415E+02  0.48430229099E+02  0.00000000000E+00 0. -1.
<mgrwt>
<rscale>  0 0.14170382E+03</rscale>
<asrwt>0</asrwt>
<pdfrwt beam="1">  1        1 0.10435539E-01 0.14915069E+03</pdfrwt>
<pdfrwt beam="2">  1       -1 0.56999203E-01 0.14915069E+03</pdfrwt>
<totfact> 0.18986191E+03</totfact>
</mgrwt>
</event>
<event>
 6    1  0.6095443E-006  0.1944700E+03  0.7546771E-02  0.1185361E+00
          2   -1    0    0  501    0  0.00000000000E+00  0.00000000000E+00  0.16455781053E+03  0.16455781053E+03  0.00000000000E+00 0. -1.
         -2   -1    0    0    0  501 -0.00000000000E+00 -0.00000000000E+00 -0.12828769723E+03  0.12828769723E+03  0.00000000000E+00 0.  1.
          5    1    1    2  502    0 -0.46986290663E+02 -0.56073288752E+02  0.64998035122E+02  0.97973260594E+02  0.47000000000E+01 0. -1.
         -5    1    1    2    0  502  0.79445257187E+02  0.45686853431E+02 -0.36141018758E+02  0.98626065027E+02  0.47000000000E+01 0.  1.
        -11    1    1    2    0    0 -0.29028593203E+02 -0.36683804458E+02  0.13428885982E+02  0.48669248110E+02  0.00000000000E+00 0. -1.
         11    1    1    2    0    0 -0.34303733198E+01  0.47070239778E+02 -0.60157890369E+01  0.47576934029E+02  0.00000000000E+00 0.  1.
<mgrwt>
<rscale>  0 0.16299049E+03</rscale>
<asrwt>0</asrwt>
<pdfrwt beam="1">  1        2 0.25316586E-01 0.19446997E+03</pdfrwt>
<pdfrwt beam="2">  1       -2 0.19736569E-01 0.19446997E+03</pdfrwt>
<totfact> 0.44562840E+03</totfact>
</mgrwt>
</event>
<event>
 7    1  0.6592797E-006  0.1658769E+03  0.7546771E-02  0.1189029E+00
         -1   -1    0    0    0  501 -0.00000000000E+00  0.00000000000E+00  0.30223838473E+03  0.30223838473E+03  0.00000000000E+00 0.  1.
          1   -1    0    0  501    0  0.00000000000E+00 -0.00000000000E+00 -0.78840800768E+02  0.78840800768E+02  0.00000000000E+00 0. -1.
         23    2    1    2    0    0 -0.94817209057E+02  0.53848981438E+02  0.12875701378E+03  0.20998454437E+03  0.12500049737E+03 0.  0.
          5    1    3    3  502    0 -0.68553415569E+02  0.48816887944E+02  0.15228590606E+03  0.17405673362E+03  0.47000000000E+01 0.  1.
         -5    1    3    3    0  502 -0.26263793488E+02  0.50320934945E+01 -0.23528892283E+02  0.35927810751E+02  0.47000000000E+01 0.  1.
        -11    1    1    2    0    0  0.79570821282E+02 -0.51703438917E+02  0.11272168662E+03  0.14734632615E+03  0.00000000000E+00 0.  1.
         11    1    1    2    0    0  0.15246387774E+02 -0.21455425210E+01 -0.18081116431E+02  0.23748314978E+02  0.00000000000E+00 0. -1.
<mgrwt>
<rscale>  0 0.15970577E+03</rscale>
<asrwt>0</asrwt>
<pdfrwt beam="2">  1        1 0.12129354E-01 0.16587688E+03</pdfrwt>
<pdfrwt beam="1">  1       -1 0.46498213E-01 0.16587688E+03</pdfrwt>
<totfact> 0.22746670E+03</totfact>
</mgrwt>
</event>
<event>
 7    1  0.6095443E-006  0.1530784E+03  0.7546771E-02  0.1205811E+00
          2   -1    0    0  501    0  0.00000000000E+00  0.00000000000E+00  0.83761113674E+02  0.83761113674E+02  0.00000000000E+00 0. -1.
         -2   -1    0    0    0  501 -0.00000000000E+00 -0.00000000000E+00 -0.23519837183E+03  0.23519837183E+03  0.00000000000E+00 0.  1.
         23    2    1    2    0    0 -0.81588950684E+02  0.33928573755E+02 -0.64701873941E+02  0.16619061615E+03  0.12500033365E+03 0.  0.
          5    1    3    3  502    0 -0.76467782652E+02  0.74722211805E+02 -0.27379990550E+02  0.11046485687E+03  0.47000000000E+01 0.  1.
         -5    1    3    3    0  502 -0.51211680321E+01 -0.40793638050E+02 -0.37321883391E+02  0.55725759279E+02  0.47000000000E+01 0.  1.
        -11    1    1    2    0    0 -0.16425250514E+02 -0.12363106340E+02 -0.68407738816E+00  0.20569472883E+02  0.00000000000E+00 0. -1.
         11    1    1    2    0    0  0.98014201198E+02 -0.21565467414E+02 -0.86051306830E+02  0.13219939647E+03  0.00000000000E+00 0.  1.
<mgrwt>
<rscale>  0 0.14573708E+03</rscale>
<asrwt>0</asrwt>
<pdfrwt beam="1">  1        2 0.12886325E-01 0.15307837E+03</pdfrwt>
<pdfrwt beam="2">  1       -2 0.36184365E-01 0.15307837E+03</pdfrwt>
<totfact> 0.32648287E+03</totfact>
</mgrwt>
</event>
<event>
 7    1  0.6095443E-006  0.1619737E+03  0.7546771E-02  0.1193881E+00
         -2   -1    0    0    0  501 -0.00000000000E+00  0.00000000000E+00  0.25073796270E+02  0.25073796270E+02  0.00000000000E+00 0. -1.
          2   -1    0    0  501    0  0.00000000000E+00 -0.00000000000E+00 -0.10338320221E+04  0.10338320221E+04  0.00000000000E+00 0.  1.
         23    2    1    2    0    0 -0.92279467405E+02  0.45769844464E+02 -0.34620254806E+03  0.38221941433E+03  0.12500039058E+03 0.  0.
          5    1    3    3  502    0  0.30947422047E+02  0.12695983288E+02 -0.85544544972E+02  0.91972224598E+02  0.47000000000E+01 0. -1.
         -5    1    3    3    0  502 -0.12322688945E+03  0.33073861177E+02 -0.26065800308E+03  0.29024718973E+03  0.47000000000E+01 0. -1.
        -11    1    1    2    0    0  0.40450534005E+02 -0.68392125751E+02 -0.43586067652E+03  0.44304430693E+03  0.00000000000E+00 0. -1.
         11    1    1    2    0    0  0.51828933400E+02  0.22622281287E+02 -0.22669500128E+03  0.23364209713E+03  0.00000000000E+00 0.  1.
<mgrwt>
<rscale>  0 0.15549317E+03</rscale>
<asrwt>0</asrwt>
<pdfrwt beam="2">  1        2 0.15905108E+00 0.16197369E+03</pdfrwt>
<pdfrwt beam="1">  1       -2 0.38575071E-02 0.16197369E+03</pdfrwt>
<totfact> 0.71119162E+03</totfact>
</mgrwt>
</event>
<event>
 7    1  0.6095443E-006  0.1448656E+03  0.7546771E-02  0.1217755E+00
         -2   -1    0    0    0  501 -0.00000000000E+00  0.00000000000E+00  0.32050272763E+02  0.32050272763E+02  0.00000000000E+00 0.  1.
          2   -1    0    0  501    0  0.00000000000E+00 -0.00000000000E+00 -0.52702913773E+03  0.52702913773E+03  0.00000000000E+00 0. -1.
         23    2    1    2    0    0  0.63636794906E+02 -0.36220715130E+02 -0.27689773488E+03  0.31250345746E+03  0.12499789387E+03 0.  0.
          5    1    3    3  502    0  0.78837715471E+02  0.16374803359E+02 -0.21553977198E+03  0.23013692201E+03  0.47000000000E+01 0.  1.
         -5    1    3    3    0  502 -0.15200920565E+02 -0.52595518488E+02 -0.61357962900E+02  0.82366535452E+02  0.47000000000E+01 0.  1.
        -11    1    1    2    0    0 -0.11986302707E+02  0.18778381683E+02 -0.51505815285E+00  0.22283724018E+02  0.00000000000E+00 0.  1.
         11    1    1    2    0    0 -0.51650492199E+02  0.17442333447E+02 -0.21756607193E+03  0.22429222902E+03  0.00000000000E+00 0. -1.
<mgrwt>
<rscale>  0 0.13676072E+03</rscale>
<asrwt>0</asrwt>
<pdfrwt beam="2">  1        2 0.81081403E-01 0.14486565E+03</pdfrwt>
<pdfrwt beam="1">  1       -2 0.49308114E-02 0.14486565E+03</pdfrwt>
<totfact> 0.11205450E+04</totfact>
</mgrwt>
</event>
<event>
 7    1  0.6095443E-006  0.1565015E+03  0.7546771E-02  0.1201274E+00
          2   -1    0    0  501    0  0.00000000000E+00  0.00000000000E+00  0.75508948280E+03  0.75508948280E+03  0.00000000000E+00 0. -1.
         -2   -1    0    0    0  501 -0.00000000000E+00 -0.00000000000E+00 -0.27346096945E+02  0.27346096945E+02  0.00000000000E+00 0.  1.
         23    2    1    2    0    0  0.86058273772E+01 -0.93774335878E+02  0.36357341640E+03  0.39582617288E+03  0.12500017478E+03 0.  0.
          5    1    3    3  502    0  0.34718533651E+02 -0.78013355948E+02  0.35298938975E+03  0.36320112825E+03  0.47000000000E+01 0. -1.
         -5    1    3    3    0  502 -0.26112706274E+02 -0.15760979929E+02  0.10584026644E+02  0.32625044632E+02  0.47000000000E+01 0. -1.
        -11    1    1    2    0    0 -0.28285797219E+02  0.38940482813E+02  0.60039423641E+02  0.76949203486E+02  0.00000000000E+00 0.  1.
         11    1    1    2    0    0  0.19679969842E+02  0.54833853064E+02  0.30413054582E+03  0.30966020337E+03  0.00000000000E+00 0. -1.
<mgrwt>
<rscale>  0 0.14934975E+03</rscale>
<asrwt>0</asrwt>
<pdfrwt beam="1">  1        2 0.11616760E+00 0.15650153E+03</pdfrwt>
<pdfrwt beam="2">  1       -2 0.42070924E-02 0.15650153E+03</pdfrwt>
<totfact> 0.94113811E+03</totfact>
</mgrwt>
</event>
<event>
 6    1  0.6095443E-006  0.1816777E+03  0.7546771E-02  0.1197762E+00
          1   -1    0    0  501    0  0.00000000000E+00  0.00000000000E+00  0.16540160983E+03  0.16540160983E+03  0.00000000000E+00 0. -1.
         -1   -1    0    0    0  501 -0.00000000000E+00 -0.00000000000E+00 -0.16031070581E+03  0.16031070581E+03  0.00000000000E+00 0.  1.
          5    1    1    2  502    0 -0.60263499038E+02  0.53416246301E+02 -0.24740530558E+01  0.80704371776E+02  0.47000000000E+01 0. -1.
         -5    1    1    2    0  502  0.59277118171E+02 -0.64258375069E+02 -0.80845235079E+02  0.11916777056E+03  0.47000000000E+01 0.  1.
        -11    1    1    2    0    0  0.36031306008E+02 -0.21175089998E+02  0.36364709018E+02  0.55398840340E+02  0.00000000000E+00 0.  1.
         11    1    1    2    0    0 -0.35044925140E+02  0.32017218766E+02  0.52045483137E+02  0.70441332970E+02  0.00000000000E+00 0. -1.
<mgrwt>
<rscale>  0 0.15222773E+03</rscale>
<asrwt>0</asrwt>
<pdfrwt beam="1">  1        1 0.25446402E-01 0.18167765E+03</pdfrwt>
<pdfrwt beam="2">  1       -1 0.24663186E-01 0.18167765E+03</pdfrwt>
<totfact> 0.26148223E+03</totfact>
</mgrwt>
</event>
<event>
 7    1  0.6095443E-006  0.1504794E+03  0.7546771E-02  0.1209613E+00
          1   -1    0    0  501    0  0.00000000000E+00  0.00000000000E+00  0.35409000521E+03  0.35409000521E+03  0.00000000000E+00 0. -1.
         -1   -1    0    0    0  501 -0.00000000000E+00 -0.00000000000E+00 -0.52507291264E+02  0.52507291264E+02  0.00000000000E+00 0.  1.
         23    2    1    2    0    0 -0.83664943353E+02 -0.43960809381E+01  0.17428045855E+03  0.23025575827E+03  0.12499955084E+03 0.  0.
          5    1    3    3  502    0 -0.81775379572E+02 -0.53797757881E+02  0.93593883303E+02  0.13551131484E+03  0.47000000000E+01 0.  1.
         -5    1    3    3    0  502 -0.18895637810E+01  0.49401676943E+02  0.80686575250E+02  0.94744443434E+02  0.47000000000E+01 0.  1.
        -11    1    1    2    0    0  0.44156628063E+02 -0.59176680126E+01  0.12797043917E+03  0.13550372651E+03  0.00000000000E+00 0. -1.
         11    1    1    2    0    0  0.39508315290E+02  0.10313748951E+02 -0.66818377505E+00  0.40837811695E+02  0.00000000000E+00 0.  1.
<mgrwt>
<rscale>  0 0.14279771E+03</rscale>
<asrwt>0</asrwt>
<pdfrwt beam="1">  1        1 0.54475384E-01 0.15047935E+03</pdfrwt>
<pdfrwt beam="2">  1       -1 0.80780450E-02 0.15047935E+03</pdfrwt>
<totfact> 0.57943523E+03</totfact>
</mgrwt>
</event>
<event>
 7    1  0.6095443E-006  0.1282932E+03  0.7546771E-02  0.1245404E+00
          1   -1    0    0  501    0  0.00000000000E+00  0.00000000000E+00  0.23961967216E+03  0.23961967216E+03  0.00000000000E+00 0. -1.
         -1   -1    0    0    0  501 -0.00000000000E+00 -0.00000000000E+00 -0.59384653442E+02  0.59384653442E+02  0.00000000000E+00 0.  1.
         23    2    1    2    0    0  0.30494184254E+01  0.28729453061E+02  0.48133824207E+02  0.13702560166E+03  0.12499788019E+03 0.  0.
          5    1    3    3  502    0  0.59922846974E+02 -0.67610648028E+01  0.29445089503E+02  0.67272303978E+02  0.47000000000E+01 0. -1.
         -5    1    3    3    0  502 -0.56873428548E+02  0.35490517864E+02  0.18688734704E+02  0.69753297685E+02  0.47000000000E+01 0. -1.
        -11    1    1    2    0    0  0.18695339256E+02 -0.39184463701E+02  0.13079872568E+03  0.13781598073E+03  0.00000000000E+00 0. -1.
         11    1    1    2    0    0 -0.21744757681E+02  0.10455010640E+02  0.13024688285E+01  0.24162743204E+02  0.00000000000E+00 0.  1.
<mgrwt>
<rscale>  0 0.11861211E+03</rscale>
<asrwt>0</asrwt>
<pdfrwt beam="1">  1        1 0.36864564E-01 0.12829322E+03</pdfrwt>
<pdfrwt beam="2">  1       -1 0.91361007E-02 0.12829322E+03</pdfrwt>
<totfact> 0.77238629E+03</totfact>
</mgrwt>
</event>
<event>
 7    1  0.6095443E-006  0.1459595E+03  0.7546771E-02  0.1215474E+00
         -1   -1    0    0    0  501 -0.00000000000E+00  0.00000000000E+00  0.32187469795E+02  0.32187469795E+02  0.00000000000E+00 0.  1.
          1   -1    0    0  501    0  0.00000000000E+00 -0.00000000000E+00 -0.57176345356E+03  0.57176345356E+03  0.00000000000E+00 0. -1.
         23    2    1    2    0    0 -0.75750950344E+02 -0.62488260240E+01 -0.22754153492E+03  0.27033186712E+03  0.12460703817E+03 0.  0.
          5    1    3    3  502    0 -0.54390129958E+01 -0.51994638192E+02 -0.44061207178E+02  0.68531053115E+02  0.47000000000E+01 0. -1.
         -5    1    3    3    0  502 -0.70311937348E+02  0.45745812168E+02 -0.18348032774E+03  0.20180081401E+03  0.47000000000E+01 0. -1.
        -11    1    1    2    0    0  0.66082754223E+02 -0.35626615062E+02 -0.19847798744E+03  0.21220202073E+03  0.00000000000E+00 0.  1.
         11    1    1    2    0    0  0.96681961206E+01  0.41875441086E+02 -0.11355646141E+03  0.12141703550E+03  0.00000000000E+00 0. -1.
<mgrwt>
<rscale>  0 0.13841787E+03</rscale>
<asrwt>0</asrwt>
<pdfrwt beam="2">  1        1 0.87963606E-01 0.14595947E+03</pdfrwt>
<pdfrwt beam="1">  1       -1 0.49519186E-02 0.14595947E+03</pdfrwt>
<totfact> 0.64860801E+03</totfact>
</mgrwt>
</event>
<event>
 7    1  0.6095443E-006  0.1743358E+03  0.7546771E-02  0.1179411E+00
          2   -1    0    0  501    0  0.00000000000E+00  0.00000000000E+00  0.42057090502E+02  0.42057090502E+02  0.00000000000E+00 0.  1.
         -2   -1    0    0    0  501 -0.00000000000E+00 -0.00000000000E+00 -0.76463034137E+03  0.76463034137E+03  0.00000000000E+00 0. -1.
         23    2    1    2    0    0  0.99060158565E+02 -0.70393085295E+02 -0.54818460082E+03  0.57523850659E+03  0.12499952567E+03 0.  0.
          5    1    3    3  502    0  0.18487225367E+02 -0.83944877319E+02 -0.35778055182E+03  0.36799121347E+03  0.47000000000E+01 0. -1.
         -5    1    3    3    0  502  0.80572933198E+02  0.13551792025E+02 -0.19040404900E+03  0.20724729312E+03  0.47000000000E+01 0. -1.
        -11    1    1    2    0    0 -0.22858968187E+02 -0.11009013559E+02 -0.11119939623E+01  0.25396207132E+02  0.00000000000E+00 0.  1.
         11    1    1    2    0    0 -0.76201190378E+02  0.81402098853E+02 -0.17327665609E+03  0.20605271816E+03  0.00000000000E+00 0. -1.
<mgrwt>
<rscale>  0 0.16851003E+03</rscale>
<asrwt>0</asrwt>
<pdfrwt beam="1">  1        2 0.64703218E-02 0.17433583E+03</pdfrwt>
<pdfrwt beam="2">  1       -2 0.11763543E+00 0.17433583E+03</pdfrwt>
<totfact> 0.64378061E+02</totfact>
</mgrwt>
</event>
<event>
 7    1  0.6095443E-006  0.1771065E+03  0.7546771E-02  0.1176500E+00
          2   -1    0    0  501    0  0.00000000000E+00  0.00000000000E+00  0.58515499186E+03  0.58515499186E+03  0.00000000000E+00 0. -1.
         -2   -1    0    0    0  501 -0.00000000000E+00 -0.00000000000E+00 -0.48601893581E+02  0.48601893581E+02  0.00000000000E+00 0.  1.
         23    2    1    2    0    0  0.87791302509E+02  0.89630355170E+02  0.23039135988E+03  0.29059745855E+03  0.12500316333E+03 0.  0.
          5    1    3    3  502    0  0.37509561762E+02  0.23670562016E+02 -0.11372917403E+01  0.44616657901E+02  0.47000000000E+01 0.  1.
         -5    1    3    3    0  502  0.50281740747E+02  0.65959793154E+02  0.23152865162E+03  0.24598080065E+03  0.47000000000E+01 0.  1.
        -11    1    1    2    0    0 -0.20932425134E+02 -0.75185150325E+02  0.21816553389E+03  0.23170492750E+03  0.00000000000E+00 0. -1.
         11    1    1    2    0    0 -0.66858877374E+02 -0.14445204845E+02  0.87996204511E+02  0.11145449939E+03  0.00000000000E+00 0.  1.
<mgrwt>
<rscale>  0 0.17129911E+03</rscale>
<asrwt>0</asrwt>
<pdfrwt beam="1">  1        2 0.90023840E-01 0.17710648E+03</pdfrwt>
<pdfrwt beam="2">  1       -2 0.74772148E-02 0.17710648E+03</pdfrwt>
<totfact> 0.53416734E+03</totfact>
</mgrwt>
</event>
<event>
 7    1  0.6095443E-006  0.1367292E+03  0.7546771E-02  0.1230057E+00
         -1   -1    0    0    0  501 -0.00000000000E+00  0.00000000000E+00  0.24500091943E+03  0.24500091943E+03  0.00000000000E+00 0. -1.
          1   -1    0    0  501    0  0.00000000000E+00 -0.00000000000E+00 -0.64000429655E+02  0.64000429655E+02  0.00000000000E+00 0.  1.
         23    2    1    2    0    0 -0.50028624100E+02 -0.23824543281E+02  0.13934212878E+03  0.19522067427E+03  0.12499764285E+03 0.  0.
          5    1    3    3  502    0 -0.82445400124E+02 -0.13839991647E+02  0.45433151808E+02  0.95263060278E+02  0.47000000000E+01 0. -1.
         -5    1    3    3    0  502  0.32416776023E+02 -0.99845516340E+01  0.93908976971E+02  0.99957613991E+02  0.47000000000E+01 0. -1.
        -11    1    1    2    0    0  0.74750410802E+02  0.28711836587E+02  0.26368682628E+02  0.84304809464E+02  0.00000000000E+00 0.  1.
         11    1    1    2    0    0 -0.24721786702E+02 -0.48872933063E+01  0.15289678367E+02  0.29475865350E+02  0.00000000000E+00 0. -1.
<mgrwt>
<rscale>  0 0.12826251E+03</rscale>
<asrwt>0</asrwt>
<pdfrwt beam="2">  1        1 0.98462201E-02 0.13672923E+03</pdfrwt>
<pdfrwt beam="1">  1       -1 0.37692449E-01 0.13672923E+03</pdfrwt>
<totfact> 0.43051334E+03</totfact>
</mgrwt>
</event>
<event>
 7    1  0.6095443E-006  0.1288486E+03  0.7546771E-02  0.1243462E+00
         -1   -1    0    0    0  501 -0.00000000000E+00  0.00000000000E+00  0.42600318009E+03  0.42600318009E+03  0.00000000000E+00 0.  1.
          1   -1    0    0  501    0  0.00000000000E+00 -0.00000000000E+00 -0.44343509822E+02  0.44343509822E+02  0.00000000000E+00 0. -1.
         23    2    1    2    0    0 -0.19705865377E+02 -0.24217113194E+02  0.34343201228E+03  0.36680718286E+03  0.12500869025E+03 0.  0.
          5    1    3    3  502    0 -0.35067413071E+02  0.15277599458E+02  0.25917638700E+02  0.46442895048E+02  0.47000000000E+01 0. -1.
         -5    1    3    3    0  502  0.15361547694E+02 -0.39494712652E+02  0.31751437358E+03  0.32036428782E+03  0.47000000000E+01 0. -1.
        -11    1    1    2    0    0  0.55488609181E+02  0.10917188742E+02  0.31637066475E+02  0.64800268009E+02  0.00000000000E+00 0.  1.
         11    1    1    2    0    0 -0.35782743804E+02  0.13299924452E+02  0.65905915052E+01  0.38739239035E+02  0.00000000000E+00 0. -1.
<mgrwt>
<rscale>  0 0.11977902E+03</rscale>
<asrwt>0</asrwt>
<pdfrwt beam="2">  1        1 0.68220787E-02 0.12884860E+03</pdfrwt>
<pdfrwt beam="1">  1       -1 0.65538948E-01 0.12884860E+03</pdfrwt>
<totfact> 0.25515305E+03</totfact>
</mgrwt>
</event>
<event>
 7    1  0.6095443E-006  0.1475877E+03  0.7546771E-02  0.1210456E+00
         -4   -1    0    0    0  501 -0.00000000000E+00  0.00000000000E+00  0.10152751131E+03  0.10152751131E+03  0.00000000000E+00 0.  1.
          4   -1    0    0  501    0  0.00000000000E+00 -0.00000000000E+00 -0.23225451661E+03  0.23225451661E+03  0.00000000000E+00 0. -1.
         23    2    1    2    0    0  0.11986203404E+02 -0.77601813279E+02  0.52706101350E+01  0.14768177117E+03  0.12496565811E+03 0.  0.
          5    1    3    3  502    0 -0.40517701706E+02 -0.82152622781E+02  0.17502203764E+02  0.93376414141E+02  0.47000000000E+01 0.  1.
         -5    1    3    3    0  502  0.52503905110E+02  0.45508095013E+01 -0.12231593630E+02  0.54305357026E+02  0.47000000000E+01 0.  1.
        -11    1    1    2    0    0 -0.17932503472E+02  0.53222563597E+01  0.11344325672E+02  0.21876810062E+02  0.00000000000E+00 0.  1.
         11    1    1    2    0    0  0.59463000677E+01  0.72279556920E+02 -0.14734194110E+03  0.16422344669E+03  0.00000000000E+00 0. -1.
<mgrwt>
<rscale>  0 0.14215713E+03</rscale>
<asrwt>0</asrwt>
<pdfrwt beam="2">  1        4 0.35731464E-01 0.14758769E+03</pdfrwt>
<pdfrwt beam="1">  1       -4 0.15619617E-01 0.14758769E+03</pdfrwt>
<totfact> 0.44947350E+02</totfact>
</mgrwt>
</event>
<event>
 7    1  0.6095443E-006  0.2251771E+03  0.7546771E-02  0.1133237E+00
         -3   -1    0    0    0  501 -0.00000000000E+00  0.00000000000E+00  0.56363895434E+03  0.56363895434E+03  0.00000000000E+00 0.  1.
          3   -1    0    0  501    0  0.00000000000E+00 -0.00000000000E+00 -0.86365972906E+02  0.86365972906E+02  0.00000000000E+00 0. -1.
         23    2    1    2    0    0  0.59978175384E+02 -0.17742175861E+03  0.30777455574E+03  0.38135271290E+03  0.12501540915E+03 0.  0.
          5    1    3    3  502    0 -0.11001656071E+02 -0.18707151497E+02 -0.56419213146E+01  0.22911028557E+02  0.47000000000E+01 0.  1.
         -5    1    3    3    0  502  0.70979831455E+02 -0.15871460711E+03  0.31341647706E+03  0.35844168434E+03  0.47000000000E+01 0.  1.
        -11    1    1    2    0    0 -0.77049689021E+01  0.14843443508E+03  0.12280129045E+03  0.19280120591E+03  0.00000000000E+00 0.  1.
         11    1    1    2    0    0 -0.52273206482E+02  0.28987323527E+02  0.46697135239E+02  0.75851008435E+02  0.00000000000E+00 0. -1.
<mgrwt>
<rscale>  0 0.22086898E+03</rscale>
<asrwt>0</asrwt>
<pdfrwt beam="2">  1        3 0.13287073E-01 0.22517707E+03</pdfrwt>
<pdfrwt beam="1">  1       -3 0.86713683E-01 0.22517707E+03</pdfrwt>
<totfact> 0.14085012E+02</totfact>
</mgrwt>
</event>
<event>
 7    1  0.6095443E-006  0.1587693E+03  0.7546771E-02  0.1197996E+00
         -2   -1    0    0    0  501 -0.00000000000E+00  0.00000000000E+00  0.57279999824E+02  0.57279999824E+02  0.00000000000E+00 0.  1.
          2   -1    0    0  501    0  0.00000000000E+00 -0.00000000000E+00 -0.37351857779E+03  0.37351857779E+03  0.00000000000E+00 0. -1.
         23    2    1    2    0    0  0.67071023823E+02 -0.71371955868E+02 -0.16238346143E+03  0.22710368004E+03  0.12496085235E+03 0.  0.
          5    1    3    3  502    0  0.90760290160E+01 -0.82165949563E+02 -0.41733755685E+02  0.92722240773E+02  0.47000000000E+01 0.  1.
         -5    1    3    3    0  502  0.57994994807E+02  0.10793993695E+02 -0.12064970574E+03  0.13438143926E+03  0.47000000000E+01 0.  1.
        -11    1    1    2    0    0 -0.62716536966E+02  0.53705778919E+02 -0.46406457337E+02  0.94716598233E+02  0.00000000000E+00 0.  1.
         11    1    1    2    0    0 -0.43544868566E+01  0.17666176949E+02 -0.10744865920E+03  0.10897829934E+03  0.00000000000E+00 0. -1.
<mgrwt>
<rscale>  0 0.15203341E+03</rscale>
<asrwt>0</asrwt>
<pdfrwt beam="2">  1        2 0.57464395E-01 0.15876931E+03</pdfrwt>
<pdfrwt beam="1">  1       -2 0.88123079E-02 0.15876931E+03</pdfrwt>
<totfact> 0.67393635E+03</totfact>
</mgrwt>
</event>
<event>
 7    1  0.6095443E-006  0.1392362E+03  0.7546771E-02  0.1226266E+00
          2   -1    0    0  501    0  0.00000000000E+00  0.00000000000E+00  0.53326938100E+02  0.53326938100E+02  0.00000000000E+00 0.  1.
         -2   -1    0    0    0  501 -0.00000000000E+00 -0.00000000000E+00 -0.30986786857E+03  0.30986786857E+03  0.00000000000E+00 0. -1.
         23    2    1    2    0    0  0.48518009325E+02  0.37547301174E+02 -0.19138224273E+03  0.23667249793E+03  0.12499164529E+03 0.  0.
          5    1    3    3  502    0  0.49573004322E+02 -0.37089756519E+02 -0.10868393828E+03  0.12516956993E+03  0.47000000000E+01 0.  1.
         -5    1    3    3    0  502 -0.10549949978E+01  0.74637057692E+02 -0.82698304441E+02  0.11150292800E+03  0.47000000000E+01 0.  1.
        -11    1    1    2    0    0  0.57642805981E+01  0.14918124595E+02 -0.45907322030E+02  0.48613368411E+02  0.00000000000E+00 0. -1.
         11    1    1    2    0    0 -0.54282289923E+02 -0.52465425769E+02 -0.19251365710E+02  0.77908940322E+02  0.00000000000E+00 0.  1.
<mgrwt>
<rscale>  0 0.13080528E+03</rscale>
<asrwt>0</asrwt>
<pdfrwt beam="1">  1        2 0.82041440E-02 0.13923616E+03</pdfrwt>
<pdfrwt beam="2">  1       -2 0.47671982E-01 0.13923616E+03</pdfrwt>
<totfact> 0.33346539E+03</totfact>
</mgrwt>
</event>
<event>
 7    1  0.6095443E-006  0.4510865E+03  0.7546771E-02  0.1028012E+00
          2   -1    0    0  501    0  0.00000000000E+00  0.00000000000E+00  0.11060083929E+04  0.11060083929E+04  0.00000000000E+00 0. -1.
         -2   -1    0    0    0  501 -0.00000000000E+00 -0.00000000000E+00 -0.23074759904E+03  0.23074759904E+03  0.00000000000E+00 0.  1.
         23    2    1    2    0    0 -0.25428616526E+03 -0.35098825496E+03  0.12936706533E+03  0.46927055904E+03  0.12499924412E+03 0.  0.
          5    1    3    3  502    0 -0.18098560347E+03 -0.21792365870E+03  0.24006354681E+02  0.28433238428E+03  0.47000000000E+01 0. -1.
         -5    1    3    3    0  502 -0.73300561790E+02 -0.13306459625E+03  0.10536071065E+03  0.18493817476E+03  0.47000000000E+01 0. -1.
        -11    1    1    2    0    0  0.70117969173E+02  0.53868983716E+02  0.10340052193E+03  0.13605169952E+03  0.00000000000E+00 0.  1.
         11    1    1    2    0    0  0.18416819608E+03  0.29711927124E+03  0.64249320660E+03  0.73143373337E+03  0.00000000000E+00 0. -1.
<mgrwt>
<rscale>  0 0.44902954E+03</rscale>
<asrwt>0</asrwt>
<pdfrwt beam="1">  1        2 0.17015513E+00 0.45108649E+03</pdfrwt>
<pdfrwt beam="2">  1       -2 0.35499631E-01 0.45108649E+03</pdfrwt>
<totfact> 0.16711555E+02</totfact>
</mgrwt>
</event>
<event>
 6    1  0.6095443E-006  0.1666160E+03  0.7546771E-02  0.1190218E+00
         -3   -1    0    0    0  501 -0.00000000000E+00  0.00000000000E+00  0.38910358352E+03  0.38910358352E+03  0.00000000000E+00 0.  1.
          3   -1    0    0  501    0  0.00000000000E+00 -0.00000000000E+00 -0.61017743174E+02  0.61017743174E+02  0.00000000000E+00 0. -1.
          5    1    1    2  502    0  0.47176492112E+02 -0.25380374465E+02  0.10790393239E+03  0.12056174120E+03  0.47000000000E+01 0. -1.
         -5    1    1    2    0  502  0.15354991223E+02  0.10620812249E+03  0.11004800038E+03  0.15378099176E+03  0.47000000000E+01 0.  1.
        -11    1    1    2    0    0 -0.73167254045E+02 -0.20877705825E+02  0.62840443380E+02  0.98682556661E+02  0.00000000000E+00 0.  1.
         11    1    1    2    0    0  0.10635770710E+02 -0.59950042195E+02  0.47293464200E+02  0.77096037082E+02  0.00000000000E+00 0. -1.
<mgrwt>
<rscale>  0 0.15865969E+03</rscale>
<asrwt>0</asrwt>
<pdfrwt beam="2">  1        3 0.93873454E-02 0.16661600E+03</pdfrwt>
<pdfrwt beam="1">  1       -3 0.59862088E-01 0.16661600E+03</pdfrwt>
<totfact> 0.54064415E+02</totfact>
</mgrwt>
</event>
<event>
 7    1  0.6095443E-006  0.1610155E+03  0.7546771E-02  0.1194820E+00
          2   -1    0    0  501    0  0.00000000000E+00  0.00000000000E+00  0.18510488303E+03  0.18510488303E+03  0.00000000000E+00 0. -1.
         -2   -1    0    0    0  501 -0.00000000000E+00 -0.00000000000E+00 -0.12477237379E+03  0.12477237379E+03  0.00000000000E+00 0.  1.
         23    2    1    2    0    0  0.67292453192E+02 -0.76015077334E+02  0.25835945803E+01  0.16103623118E+03  0.12497770423E+03 0.  0.
          5    1    3    3  502    0  0.17763129895E+02 -0.72130374911E+02  0.52005523827E+02  0.90801895778E+02  0.47000000000E+01 0.  1.
         -5    1    3    3    0  502  0.49529323297E+02 -0.38847024229E+01 -0.49421929246E+02  0.70234335404E+02  0.47000000000E+01 0.  1.
        -11    1    1    2    0    0 -0.75114960152E+02  0.39441347247E+02  0.60823015646E+01  0.85058047848E+02  0.00000000000E+00 0.  1.
         11    1    1    2    0    0  0.78225069602E+01  0.36573730087E+02  0.51666613088E+02  0.63782977788E+02  0.00000000000E+00 0. -1.
<mgrwt>
<rscale>  0 0.15469437E+03</rscale>
<asrwt>0</asrwt>
<pdfrwt beam="1">  1        2 0.28477674E-01 0.16101550E+03</pdfrwt>
<pdfrwt beam="2">  1       -2 0.19195750E-01 0.16101550E+03</pdfrwt>
<totfact> 0.40620970E+03</totfact>
</mgrwt>
</event>
<event>
 7    1  0.6095443E-006  0.1556305E+03  0.7546771E-02  0.1202230E+00
         -3   -1    0    0    0  501 -0.00000000000E+00  0.00000000000E+00  0.18873890254E+03  0.18873890254E+03  0.00000000000E+00 0.  1.
          3   -1    0    0  501    0  0.00000000000E+00 -0.00000000000E+00 -0.12801849691E+03  0.12801849691E+03  0.00000000000E+00 0. -1.
         23    2    1    2    0    0  0.67081372177E+02 -0.64003785710E+02  0.95857850737E+02  0.18278284689E+03  0.12499778594E+03 0.  0.
          5    1    3    3  502    0  0.49855166957E+02 -0.10164178453E+03  0.77385667286E+02  0.13721232283E+03  0.47000000000E+01 0.  1.
         -5    1    3    3    0  502  0.17226205220E+02  0.37637998820E+02  0.18472183451E+02  0.45570524058E+02  0.47000000000E+01 0.  1.
        -11    1    1    2    0    0 -0.34776727139E+02  0.41076115079E+02 -0.64982291445E+02  0.84376336623E+02  0.00000000000E+00 0. -1.
         11    1    1    2    0    0 -0.32304645038E+02  0.22927670631E+02  0.29844846338E+02  0.49598215941E+02  0.00000000000E+00 0.  1.
<mgrwt>
<rscale>  0 0.14857911E+03</rscale>
<asrwt>0</asrwt>
<pdfrwt beam="2">  1        3 0.19695153E-01 0.15563046E+03</pdfrwt>
<pdfrwt beam="1">  1       -3 0.29036754E-01 0.15563046E+03</pdfrwt>
<totfact> 0.62123741E+02</totfact>
</mgrwt>
</event>
<event>
 7    1  0.6095443E-006  0.1295163E+03  0.7546771E-02  0.1243606E+00
          2   -1    0    0  501    0  0.00000000000E+00  0.00000000000E+00  0.22369275979E+03  0.22369275979E+03  0.00000000000E+00 0. -1.
         -2   -1    0    0    0  501 -0.00000000000E+00 -0.00000000000E+00 -0.60683048716E+02  0.60683048716E+02  0.00000000000E+00 0.  1.
         23    2    1    2    0    0 -0.31206688512E+02 -0.13290246574E+02  0.54529175295E+02  0.14052724158E+03  0.12499594636E+03 0.  0.
          5    1    3    3  502    0 -0.41475697125E+02 -0.39645386220E+02 -0.19785300077E+02  0.60873132002E+02  0.47000000000E+01 0. -1.
         -5    1    3    3    0  502  0.10269008613E+02  0.26355139646E+02  0.74314475372E+02  0.79654109583E+02  0.47000000000E+01 0. -1.
        -11    1    1    2    0    0  0.43367928882E+02  0.22654573860E+02  0.18092373568E+02  0.52166473463E+02  0.00000000000E+00 0.  1.
         11    1    1    2    0    0 -0.12161240370E+02 -0.93643272861E+01  0.90388162212E+02  0.91682093458E+02  0.00000000000E+00 0. -1.
<mgrwt>
<rscale>  0 0.11969214E+03</rscale>
<asrwt>0</asrwt>
<pdfrwt beam="1">  1        2 0.34414270E-01 0.12951631E+03</pdfrwt>
<pdfrwt beam="2">  1       -2 0.93358537E-02 0.12951631E+03</pdfrwt>
<totfact> 0.10482838E+04</totfact>
</mgrwt>
</event>
<event>
 7    1  0.6095443E-006  0.2181018E+03  0.7546771E-02  0.1138628E+00
          4   -1    0    0  501    0  0.00000000000E+00  0.00000000000E+00  0.16459442228E+03  0.16459442228E+03  0.00000000000E+00 0. -1.
         -4   -1    0    0    0  501 -0.00000000000E+00 -0.00000000000E+00 -0.26869409076E+03  0.26869409076E+03  0.00000000000E+00 0.  1.
         23    2    1    2    0    0 -0.14680503456E+03  0.10196359997E+03 -0.70979813506E+02  0.22936109137E+03  0.12498032814E+03 0.  0.
          5    1    3    3  502    0 -0.12370892173E+03  0.21716710874E+02 -0.10456446079E+02  0.12612271846E+03  0.47000000000E+01 0.  1.
         -5    1    3    3    0  502 -0.23096112822E+02  0.80246889092E+02 -0.60523367426E+02  0.10323837291E+03  0.47000000000E+01 0.  1.
        -11    1    1    2    0    0  0.98784072943E+02 -0.31132415422E+02  0.16692963063E+02  0.10491032062E+03  0.00000000000E+00 0. -1.
         11    1    1    2    0    0  0.48020961613E+02 -0.70831184544E+02 -0.49812818035E+02  0.99017101042E+02  0.00000000000E+00 0.  1.
<mgrwt>
<rscale>  0 0.21375296E+03</rscale>
<asrwt>0</asrwt>
<pdfrwt beam="1">  1        4 0.25322219E-01 0.21810176E+03</pdfrwt>
<pdfrwt beam="2">  1       -4 0.41337552E-01 0.21810176E+03</pdfrwt>
<totfact> 0.14995123E+02</totfact>
</mgrwt>
</event>
<event>
 7    1  0.6095443E-006  0.1979100E+03  0.7546771E-02  0.1153238E+00
         -1   -1    0    0    0  501 -0.00000000000E+00  0.00000000000E+00  0.41575282539E+03  0.41575282539E+03  0.00000000000E+00 0.  1.
          1   -1    0    0  501    0  0.00000000000E+00 -0.00000000000E+00 -0.10176124159E+03  0.10176124159E+03  0.00000000000E+00 0. -1.
         23    2    1    2    0    0  0.43709778645E+02 -0.14707393785E+03  0.24592157390E+03  0.31566722844E+03  0.12500836234E+03 0.  0.
          5    1    3    3  502    0 -0.50157984102E+01 -0.67416816877E+02  0.19214858167E+02  0.70437818009E+02  0.47000000000E+01 0. -1.
         -5    1    3    3    0  502  0.48725577055E+02 -0.79657120976E+02  0.22670671573E+03  0.24522941043E+03  0.47000000000E+01 0. -1.
        -11    1    1    2    0    0  0.56482717458E+01  0.76414116648E+02 -0.19405944801E+02  0.79041830005E+02  0.00000000000E+00 0. -1.
         11    1    1    2    0    0 -0.49358050391E+02  0.70659821205E+02  0.87475954702E+02  0.12280500854E+03  0.00000000000E+00 0.  1.
<mgrwt>
<rscale>  0 0.19590802E+03</rscale>
<asrwt>0</asrwt>
<pdfrwt beam="2">  1        1 0.15655576E-01 0.19791003E+03</pdfrwt>
<pdfrwt beam="1">  1       -1 0.63961972E-01 0.19791003E+03</pdfrwt>
<totfact> 0.89987955E+02</totfact>
</mgrwt>
</event>
<event>
 7    1  0.6095443E-006  0.2174105E+03  0.7546771E-02  0.1139130E+00
         -1   -1    0    0    0  501 -0.00000000000E+00  0.00000000000E+00  0.88916415561E+03  0.88916415561E+03  0.00000000000E+00 0.  1.
          1   -1    0    0  501    0  0.00000000000E+00 -0.00000000000E+00 -0.51911000239E+02  0.51911000239E+02  0.00000000000E+00 0. -1.
         23    2    1    2    0    0  0.16226781734E+03 -0.72864893939E+02  0.54288106087E+03  0.58479668627E+03  0.12500872256E+03 0.  0.
          5    1    3    3  502    0  0.13896974521E+02 -0.64875249849E+02  0.20867085240E+03  0.21901492777E+03  0.47000000000E+01 0. -1.
         -5    1    3    3    0  502  0.14837084282E+03 -0.79896440905E+01  0.33421020846E+03  0.36578175850E+03  0.47000000000E+01 0. -1.
        -11    1    1    2    0    0 -0.10034664447E+03 -0.20560367463E+00  0.18825667655E+03  0.21333088758E+03  0.00000000000E+00 0. -1.
         11    1    1    2    0    0 -0.61921172873E+02  0.73070497614E+02  0.10611541796E+03  0.14294758200E+03  0.00000000000E+00 0.  1.
<mgrwt>
<rscale>  0 0.21310604E+03</rscale>
<asrwt>0</asrwt>
<pdfrwt beam="2">  1        1 0.79863084E-02 0.21741048E+03</pdfrwt>
<pdfrwt beam="1">  1       -1 0.13679447E+00 0.21741048E+03</pdfrwt>
<totfact> 0.41822351E+02</totfact>
</mgrwt>
</event>
<event>
 7    1  0.6095443E-006  0.1285652E+03  0.7546771E-02  0.1257653E+00
         -2   -1    0    0    0  501 -0.00000000000E+00  0.00000000000E+00  0.18449493289E+02  0.18449493289E+02  0.00000000000E+00 0.  1.
          2   -1    0    0  501    0  0.00000000000E+00 -0.00000000000E+00 -0.55182189163E+03  0.55182189163E+03  0.00000000000E+00 0. -1.
         23    2    1    2    0    0  0.26217298725E+02 -0.14658416505E+02 -0.32597316083E+03  0.35041047702E+03  0.12500713939E+03 0.  0.
          5    1    3    3  502    0  0.35871569982E+01 -0.15068963763E+02  0.62735425958E+01  0.17360550133E+02  0.47000000000E+01 0. -1.
         -5    1    3    3    0  502  0.22630141726E+02  0.41054725744E+00 -0.33224670342E+03  0.33304992689E+03  0.47000000000E+01 0. -1.
        -11    1    1    2    0    0 -0.27266386260E+02  0.38830480866E+02 -0.11637021451E+03  0.12567135270E+03  0.00000000000E+00 0.  1.
         11    1    1    2    0    0  0.10490875353E+01 -0.24172064361E+02 -0.91029023010E+02  0.94189555208E+02  0.00000000000E+00 0. -1.
<mgrwt>
<rscale>  0 0.11159020E+03</rscale>
<asrwt>0</asrwt>
<pdfrwt beam="2">  1        2 0.84895690E-01 0.12856516E+03</pdfrwt>
<pdfrwt beam="1">  1       -2 0.28383831E-02 0.12856516E+03</pdfrwt>
<totfact> 0.23916658E+04</totfact>
</mgrwt>
</event>
<event>
 7    1  0.6095443E-006  0.1950351E+03  0.7546771E-02  0.1158530E+00
          2   -1    0    0  501    0  0.00000000000E+00  0.00000000000E+00  0.71365642385E+03  0.71365642385E+03  0.00000000000E+00 0. -1.
         -2   -1    0    0    0  501 -0.00000000000E+00 -0.00000000000E+00 -0.85964089368E+02  0.85964089368E+02  0.00000000000E+00 0.  1.
         23    2    1    2    0    0 -0.14878206841E+03  0.16648515000E+02  0.57899795891E+02  0.20344795018E+03  0.12500162054E+03 0.  0.
          5    1    3    3  502    0 -0.11957267616E+03  0.59812051131E+02  0.68127403121E+02  0.15012840970E+03  0.47000000000E+01 0.  1.
         -5    1    3    3    0  502 -0.29209392249E+02 -0.43163536131E+02 -0.10227607230E+02  0.53319540476E+02  0.47000000000E+01 0.  1.
        -11    1    1    2    0    0  0.38270421841E+02 -0.45559557026E+02  0.15808216276E+03  0.16890905425E+03  0.00000000000E+00 0.  1.
         11    1    1    2    0    0  0.11051164656E+03  0.28911042026E+02  0.41171037583E+03  0.42726350879E+03  0.00000000000E+00 0. -1.
<mgrwt>
<rscale>  0 0.18992391E+03</rscale>
<asrwt>0</asrwt>
<pdfrwt beam="1">  1        2 0.10979329E+00 0.19503508E+03</pdfrwt>
<pdfrwt beam="2">  1       -2 0.13225245E-01 0.19503508E+03</pdfrwt>
<totfact> 0.17194879E+03</totfact>
</mgrwt>
</event>
<event>
 7    1  0.6095443E-006  0.1542442E+03  0.7546771E-02  0.1199452E+00
         -3   -1    0    0    0  501 -0.00000000000E+00  0.00000000000E+00  0.60639476310E+02  0.60639476310E+02  0.00000000000E+00 0.  1.
          3   -1    0    0  501    0  0.00000000000E+00 -0.00000000000E+00 -0.36879910621E+03  0.36879910621E+03  0.00000000000E+00 0. -1.
         23    2    1    2    0    0  0.30048934064E+02  0.85230524584E+02 -0.12672143822E+03  0.19962365974E+03  0.12499640741E+03 0.  0.
          5    1    3    3  502    0 -0.43496884288E+02  0.21241169058E+02 -0.14185673769E+02  0.50660532429E+02  0.47000000000E+01 0.  1.
         -5    1    3    3    0  502  0.73545818352E+02  0.63989355526E+02 -0.11253576446E+03  0.14896312731E+03  0.47000000000E+01 0.  1.
        -11    1    1    2    0    0 -0.52050693114E+02 -0.26442318844E+01 -0.94393468490E+02  0.10782575532E+03  0.00000000000E+00 0.  1.
         11    1    1    2    0    0  0.22001759050E+02 -0.82586292699E+02 -0.87044723184E+02  0.12198916746E+03  0.00000000000E+00 0. -1.
<mgrwt>
<rscale>  0 0.15083423E+03</rscale>
<asrwt>0</asrwt>
<pdfrwt beam="2">  1        3 0.56738323E-01 0.15424423E+03</pdfrwt>
<pdfrwt beam="1">  1       -3 0.93291503E-02 0.15424423E+03</pdfrwt>
<totfact> 0.60388718E+02</totfact>
</mgrwt>
</event>
<event>
 7    1  0.6095443E-006  0.1688353E+03  0.7546771E-02  0.1188218E+00
          1   -1    0    0  501    0  0.00000000000E+00  0.00000000000E+00  0.58087903951E+03  0.58087903951E+03  0.00000000000E+00 0. -1.
         -1   -1    0    0    0  501 -0.00000000000E+00 -0.00000000000E+00 -0.53269012579E+02  0.53269012579E+02  0.00000000000E+00 0.  1.
         23    2    1    2    0    0 -0.59313373699E+02 -0.96767306606E+02  0.12908477493E+03  0.21252816823E+03  0.12499342081E+03 0.  0.
          5    1    3    3  502    0 -0.79605908210E+02 -0.28153314504E+02  0.28989850286E+02  0.89399167553E+02  0.47000000000E+01 0.  1.
         -5    1    3    3    0  502  0.20292534511E+02 -0.68613992102E+02  0.10009492464E+03  0.12312900068E+03  0.47000000000E+01 0.  1.
        -11    1    1    2    0    0 -0.17096028557E+02  0.16785872875E+02  0.42276873350E+02  0.48593968153E+02  0.00000000000E+00 0.  1.
         11    1    1    2    0    0  0.76409402256E+02  0.79981433731E+02  0.35624837865E+03  0.37302591570E+03  0.00000000000E+00 0. -1.
<mgrwt>
<rscale>  0 0.16042519E+03</rscale>
<asrwt>0</asrwt>
<pdfrwt beam="1">  1        1 0.89366002E-01 0.16883525E+03</pdfrwt>
<pdfrwt beam="2">  1       -1 0.81952331E-02 0.16883525E+03</pdfrwt>
<totfact> 0.30022952E+03</totfact>
</mgrwt>
</event>
<event>
 7    1  0.6095443E-006  0.1432607E+03  0.7546771E-02  0.1219113E+00
         -2   -1    0    0    0  501 -0.00000000000E+00  0.00000000000E+00  0.13981964812E+03  0.13981964812E+03  0.00000000000E+00 0.  1.
          2   -1    0    0  501    0  0.00000000000E+00 -0.00000000000E+00 -0.12013345815E+03  0.12013345815E+03  0.00000000000E+00 0. -1.
         23    2    1    2    0    0  0.38232831490E+02  0.58644185168E+02  0.17331770571E+02  0.14430524688E+03  0.12499089626E+03 0.  0.
          5    1    3    3  502    0  0.32185906383E+02  0.38234343209E+02  0.70670053425E+02  0.86684162460E+02  0.47000000000E+01 0.  1.
         -5    1    3    3    0  502  0.60469251064E+01  0.20409841959E+02 -0.53338282853E+02  0.57621084420E+02  0.47000000000E+01 0.  1.
        -11    1    1    2    0    0 -0.55789604152E+02 -0.19462772944E+02  0.28265761921E+02  0.65499868390E+02  0.00000000000E+00 0.  1.
         11    1    1    2    0    0  0.17556772662E+02 -0.39181412224E+02 -0.25911342521E+02  0.50147991001E+02  0.00000000000E+00 0. -1.
<mgrwt>
<rscale>  0 0.13578665E+03</rscale>
<asrwt>0</asrwt>
<pdfrwt beam="2">  1        2 0.18482071E-01 0.14326065E+03</pdfrwt>
<pdfrwt beam="1">  1       -2 0.21510715E-01 0.14326065E+03</pdfrwt>
<totfact> 0.53881834E+03</totfact>
</mgrwt>
</event>
<event>
 7    1  0.6095443E-006  0.3719386E+03  0.7546771E-02  0.1054897E+00
          2   -1    0    0  501    0  0.00000000000E+00  0.00000000000E+00  0.16191501530E+03  0.16191501530E+03  0.00000000000E+00 0. -1.
         -2   -1    0    0    0  501 -0.00000000000E+00 -0.00000000000E+00 -0.84901524217E+03  0.84901524217E+03  0.00000000000E+00 0.  1.
         23    2    1    2    0    0  0.19873370887E+03 -0.28847675040E+03 -0.41948119923E+03  0.56062713626E+03  0.12499754730E+03 0.  0.
          5    1    3    3  502    0  0.19267914830E+03 -0.29877673323E+03 -0.41616913119E+03  0.54736790759E+03  0.47000000000E+01 0. -1.
         -5    1    3    3    0  502  0.60545605743E+01  0.10299982828E+02 -0.33120680436E+01  0.13259228663E+02  0.47000000000E+01 0. -1.
        -11    1    1    2    0    0 -0.98955204303E+02  0.92358174648E+02 -0.14517084375E+03  0.19848611729E+03  0.00000000000E+00 0.  1.
         11    1    1    2    0    0 -0.99778504567E+02  0.19611857575E+03 -0.12244818388E+03  0.25181700392E+03  0.00000000000E+00 0. -1.
<mgrwt>
<rscale>  0 0.36946703E+03</rscale>
<asrwt>0</asrwt>
<pdfrwt beam="1">  1        2 0.24910003E-01 0.37193858E+03</pdfrwt>
<pdfrwt beam="2">  1       -2 0.13061773E+00 0.37193858E+03</pdfrwt>
<totfact> 0.97160088E+01</totfact>
</mgrwt>
</event>
<event>
 7    1  0.6095443E-006  0.1280178E+03  0.7546771E-02  0.1245170E+00
          4   -1    0    0  501    0  0.00000000000E+00  0.00000000000E+00  0.28529094983E+03  0.28529094983E+03  0.00000000000E+00 0.  1.
         -4   -1    0    0    0  501 -0.00000000000E+00 -0.00000000000E+00 -0.43507264059E+02  0.43507264059E+02  0.00000000000E+00 0. -1.
         23    2    1    2    0    0  0.78820500958E+00 -0.27613302779E+02  0.14073925485E+03  0.19025271946E+03  0.12500177459E+03 0.  0.
          5    1    3    3  502    0 -0.26547153290E+02  0.38961426975E+02  0.91147830010E+02  0.10272663265E+03  0.47000000000E+01 0. -1.
         -5    1    3    3    0  502  0.27335358299E+02 -0.66574729755E+02  0.49591424841E+02  0.87526086814E+02  0.47000000000E+01 0. -1.
        -11    1    1    2    0    0  0.14459784704E+02  0.13428308193E+02  0.11287971254E+03  0.11459159802E+03  0.00000000000E+00 0.  1.
         11    1    1    2    0    0 -0.15247989714E+02  0.14184994586E+02 -0.11835281622E+02  0.23953896401E+02  0.00000000000E+00 0. -1.
<mgrwt>
<rscale>  0 0.11875224E+03</rscale>
<asrwt>0</asrwt>
<pdfrwt beam="1">  1        4 0.43890914E-01 0.12801781E+03</pdfrwt>
<pdfrwt beam="2">  1       -4 0.66934254E-02 0.12801781E+03</pdfrwt>
<totfact> 0.12213914E+03</totfact>
</mgrwt>
</event>
<event>
 7    1  0.6095443E-006  0.1257974E+03  0.7546771E-02  0.1252673E+00
          2   -1    0    0  501    0  0.00000000000E+00  0.00000000000E+00  0.38357736966E+03  0.38357736966E+03  0.00000000000E+00 0. -1.
         -2   -1    0    0    0  501 -0.00000000000E+00 -0.00000000000E+00 -0.29995439226E+02  0.29995439226E+02  0.00000000000E+00 0.  1.
         23    2    1    2    0    0  0.84847650668E+01  0.11283282215E+02  0.17668471846E+03  0.21689275776E+03  0.12500269972E+03 0.  0.
          5    1    3    3  502    0 -0.55479530090E+02 -0.13064559109E+02  0.81203740512E+02  0.99321691674E+02  0.47000000000E+01 0. -1.
         -5    1    3    3    0  502  0.63964295157E+02  0.24347841324E+02  0.95480977945E+02  0.11757106609E+03  0.47000000000E+01 0. -1.
        -11    1    1    2    0    0  0.23149107623E+02 -0.25118160802E+02  0.14728422804E+03  0.15119340930E+03  0.00000000000E+00 0. -1.
         11    1    1    2    0    0 -0.31633872689E+02  0.13834878587E+02  0.29612983936E+02  0.45486641824E+02  0.00000000000E+00 0.  1.
<mgrwt>
<rscale>  0 0.11437663E+03</rscale>
<asrwt>0</asrwt>
<pdfrwt beam="1">  1        2 0.59011900E-01 0.12579737E+03</pdfrwt>
<pdfrwt beam="2">  1       -2 0.46146832E-02 0.12579737E+03</pdfrwt>
<totfact> 0.17264890E+04</totfact>
</mgrwt>
</event>
<event>
 7    1  0.6095443E-006  0.1591402E+03  0.7546771E-02  0.1197741E+00
          1   -1    0    0  501    0  0.00000000000E+00  0.00000000000E+00  0.46466113611E+03  0.46466113611E+03  0.00000000000E+00 0. -1.
         -1   -1    0    0    0  501 -0.00000000000E+00 -0.00000000000E+00 -0.49948732913E+02  0.49948732913E+02  0.00000000000E+00 0.  1.
         23    2    1    2    0    0 -0.93628529459E+02 -0.30569396513E+02  0.15226730640E+03  0.22025195675E+03  0.12499920928E+03 0.  0.
          5    1    3    3  502    0  0.17424152490E+02  0.47623599301E+01  0.81979598912E+02  0.84077498773E+02  0.47000000000E+01 0.  1.
         -5    1    3    3    0  502 -0.11105268195E+03 -0.35331756443E+02  0.70287707490E+02  0.13617445798E+03  0.47000000000E+01 0.  1.
        -11    1    1    2    0    0  0.18536072342E+02 -0.31628121565E+01 -0.51747058951E+00  0.18811090729E+02  0.00000000000E+00 0.  1.
         11    1    1    2    0    0  0.75092457117E+02  0.33732208670E+02  0.26296256738E+03  0.27554682154E+03  0.00000000000E+00 0. -1.
<mgrwt>
<rscale>  0 0.15224505E+03</rscale>
<asrwt>0</asrwt>
<pdfrwt beam="1">  1        1 0.71486326E-01 0.15914016E+03</pdfrwt>
<pdfrwt beam="2">  1       -1 0.76844208E-02 0.15914016E+03</pdfrwt>
<totfact> 0.44382163E+03</totfact>
</mgrwt>
</event>
<event>
 7    1  0.6095443E-006  0.1551058E+03  0.7546771E-02  0.1202204E+00
          4   -1    0    0  501    0  0.00000000000E+00  0.00000000000E+00  0.14744134919E+03  0.14744134919E+03  0.00000000000E+00 0. -1.
         -4   -1    0    0    0  501 -0.00000000000E+00 -0.00000000000E+00 -0.14635144851E+03  0.14635144851E+03  0.00000000000E+00 0.  1.
         23    2    1    2    0    0 -0.68814129223E+02  0.60835144231E+02 -0.33364614335E+02  0.15865369059E+03  0.12498598679E+03 0.  0.
          5    1    3    3  502    0  0.22614461670E+02  0.49735308854E+02 -0.37348891318E+02  0.66347905063E+02  0.47000000000E+01 0.  1.
         -5    1    3    3    0  502 -0.91428590893E+02  0.11099835376E+02  0.39842769832E+01  0.92305785524E+02  0.47000000000E+01 0.  1.
        -11    1    1    2    0    0  0.26053566999E+02 -0.16609109966E+02  0.60813378599E+02  0.68212300239E+02  0.00000000000E+00 0. -1.
         11    1    1    2    0    0  0.42760562224E+02 -0.44226034265E+02 -0.26358863579E+02  0.66926806869E+02  0.00000000000E+00 0.  1.
<mgrwt>
<rscale>  0 0.14859955E+03</rscale>
<asrwt>0</asrwt>
<pdfrwt beam="1">  1        4 0.22683284E-01 0.15510576E+03</pdfrwt>
<pdfrwt beam="2">  1       -4 0.22515607E-01 0.15510576E+03</pdfrwt>
<totfact> 0.55436329E+02</totfact>
</mgrwt>
</event>
<event>
 7    1  0.6095443E-006  0.1308843E+03  0.7546771E-02  0.1239095E+00
         -2   -1    0    0    0  501 -0.00000000000E+00  0.00000000000E+00  0.12024452009E+03  0.12024452009E+03  0.00000000000E+00 0.  1.
          2   -1    0    0  501    0  0.00000000000E+00 -0.00000000000E+00 -0.11560953805E+03  0.11560953805E+03  0.00000000000E+00 0. -1.
         23    2    1    2    0    0 -0.15536255734E+02 -0.35558523565E+02  0.25658567069E+02  0.13337567235E+03  0.12499969628E+03 0.  0.
          5    1    3    3  502    0 -0.28321601373E+02 -0.27600264354E+02  0.73174288792E+02  0.83309388649E+02  0.47000000000E+01 0.  1.
         -5    1    3    3    0  502  0.12785345639E+02 -0.79582592110E+01 -0.47515721723E+02  0.50066283702E+02  0.47000000000E+01 0.  1.
        -11    1    1    2    0    0  0.25655293972E+02  0.58257232203E+02 -0.36327188192E+02  0.73292317569E+02  0.00000000000E+00 0.  1.
         11    1    1    2    0    0 -0.10119038238E+02 -0.22698708637E+02  0.15303603166E+02  0.29186068227E+02  0.00000000000E+00 0. -1.
<mgrwt>
<rscale>  0 0.12245868E+03</rscale>
<asrwt>0</asrwt>
<pdfrwt beam="2">  1        2 0.17786083E-01 0.13088433E+03</pdfrwt>
<pdfrwt beam="1">  1       -2 0.18499157E-01 0.13088433E+03</pdfrwt>
<totfact> 0.72218930E+03</totfact>
</mgrwt>
</event>
<event>
 7    1  0.6095443E-006  0.1237580E+03  0.7546771E-02  0.1251583E+00
         -1   -1    0    0    0  501 -0.00000000000E+00  0.00000000000E+00  0.26744285238E+02  0.26744285238E+02  0.00000000000E+00 0.  1.
          1   -1    0    0  501    0  0.00000000000E+00 -0.00000000000E+00 -0.55273686036E+03  0.55273686036E+03  0.00000000000E+00 0. -1.
         23    2    1    2    0    0 -0.12215503634E+02  0.24710267231E+02 -0.16135356141E+03  0.20334951375E+03  0.12064923178E+03 0.  0.
          5    1    3    3  502    0  0.21553457203E+01  0.35689110979E+02  0.45941049330E+01  0.36353183599E+02  0.47000000000E+01 0. -1.
         -5    1    3    3    0  502 -0.14370849354E+02 -0.10978843747E+02 -0.16594766634E+03  0.16699633015E+03  0.47000000000E+01 0.  1.
        -11    1    1    2    0    0 -0.20570299403E+02 -0.46653570569E+02 -0.16769005744E+03  0.17527021489E+03  0.00000000000E+00 0.  1.
         11    1    1    2    0    0  0.32785803036E+02  0.21943303337E+02 -0.19694895628E+03  0.20086141695E+03  0.00000000000E+00 0. -1.
<mgrwt>
<rscale>  0 0.11499870E+03</rscale>
<asrwt>0</asrwt>
<pdfrwt beam="2">  1        1 0.85036445E-01 0.12375804E+03</pdfrwt>
<pdfrwt beam="1">  1       -1 0.41145052E-02 0.12375804E+03</pdfrwt>
<totfact> 0.88270888E+03</totfact>
</mgrwt>
</event>
<event>
 7    1  0.6095443E-006  0.1942910E+03  0.7546771E-02  0.1159243E+00
          1   -1    0    0  501    0  0.00000000000E+00  0.00000000000E+00  0.46116194662E+03  0.46116194662E+03  0.00000000000E+00 0. -1.
         -1   -1    0    0    0  501 -0.00000000000E+00 -0.00000000000E+00 -0.81747184507E+02  0.81747184507E+02  0.00000000000E+00 0.  1.
         23    2    1    2    0    0 -0.70697044280E+02 -0.13084770097E+03  0.28384317904E+03  0.34397083440E+03  0.12501916537E+03 0.  0.
          5    1    3    3  502    0 -0.74245760986E+02 -0.15366286796E+03  0.24872806013E+03  0.30168269409E+03  0.47000000000E+01 0. -1.
         -5    1    3    3    0  502  0.35487167067E+01  0.22815166992E+02  0.35115118910E+02  0.42288140314E+02  0.47000000000E+01 0. -1.
        -11    1    1    2    0    0  0.31091447558E+02  0.86132389985E+02  0.66460186539E+01  0.91813050705E+02  0.00000000000E+00 0.  1.
         11    1    1    2    0    0  0.39605596721E+02  0.44715310984E+02  0.88925564412E+02  0.10712524602E+03  0.00000000000E+00 0. -1.
<mgrwt>
<rscale>  0 0.18913615E+03</rscale>
<asrwt>0</asrwt>
<pdfrwt beam="1">  1        1 0.70947990E-01 0.19429098E+03</pdfrwt>
<pdfrwt beam="2">  1       -1 0.12576490E-01 0.19429098E+03</pdfrwt>
<totfact> 0.21188059E+03</totfact>
</mgrwt>
</event>
<event>
 7    1  0.6095443E-006  0.2107000E+03  0.7546771E-02  0.1144797E+00
         -2   -1    0    0    0  501 -0.00000000000E+00  0.00000000000E+00  0.80756135216E+03  0.80756135216E+03  0.00000000000E+00 0. -1.
          2   -1    0    0  501    0  0.00000000000E+00 -0.00000000000E+00 -0.60966454085E+02  0.60966454085E+02  0.00000000000E+00 0.  1.
         23    2    1    2    0    0  0.64464781133E+02 -0.15688527228E+03  0.56871642572E+03  0.60649224631E+03  0.12500310112E+03 0.  0.
          5    1    3    3  502    0  0.66699545499E+02 -0.17652355356E+03  0.53249463024E+03  0.56496195940E+03  0.47000000000E+01 0.  1.
         -5    1    3    3    0  502 -0.22347643662E+01  0.19638281282E+02  0.36221795478E+02  0.41530286914E+02  0.47000000000E+01 0.  1.
        -11    1    1    2    0    0 -0.36183003768E+02  0.15845236513E+03  0.13856302929E+03  0.21357920045E+03  0.00000000000E+00 0.  1.
         11    1    1    2    0    0 -0.28281777365E+02 -0.15670928520E+01  0.39315443064E+02  0.48456359482E+02  0.00000000000E+00 0. -1.
<mgrwt>
<rscale>  0 0.20597080E+03</rscale>
<asrwt>0</asrwt>
<pdfrwt beam="2">  1        2 0.93794550E-02 0.21069996E+03</pdfrwt>
<pdfrwt beam="1">  1       -2 0.12424020E+00 0.21069996E+03</pdfrwt>
<totfact> 0.35333991E+02</totfact>
</mgrwt>
</event>
<event>
 7    1  0.6095443E-006  0.1833152E+03  0.7546771E-02  0.1168575E+00
          1   -1    0    0  501    0  0.00000000000E+00  0.00000000000E+00  0.15123116818E+04  0.15123116818E+04  0.00000000000E+00 0. -1.
         -1   -1    0    0    0  501 -0.00000000000E+00 -0.00000000000E+00 -0.21009566041E+02  0.21009566041E+02  0.00000000000E+00 0.  1.
         23    2    1    2    0    0  0.49394367660E+02 -0.12465943851E+03  0.64117723167E+03  0.66686781799E+03  0.12499866036E+03 0.  0.
          5    1    3    3  502    0  0.59743338148E+02 -0.65532744957E+02  0.55306513859E+03  0.56014903788E+03  0.47000000000E+01 0.  1.
         -5    1    3    3    0  502 -0.10348970487E+02 -0.59126693558E+02  0.88112093078E+02  0.10671878011E+03  0.47000000000E+01 0.  1.
        -11    1    1    2    0    0 -0.71885541524E+02  0.49737297725E+02  0.38524511897E+03  0.39503813937E+03  0.00000000000E+00 0. -1.
         11    1    1    2    0    0  0.22491173863E+02  0.74922140790E+02  0.46487976509E+03  0.47141529045E+03  0.00000000000E+00 0.  1.
<mgrwt>
<rscale>  0 0.17920502E+03</rscale>
<asrwt>0</asrwt>
<pdfrwt beam="1">  1        1 0.23266325E+00 0.18331515E+03</pdfrwt>
<pdfrwt beam="2">  1       -1 0.32322421E-02 0.18331515E+03</pdfrwt>
<totfact> 0.23685296E+03</totfact>
</mgrwt>
</event>
<event>
 7    1  0.6095443E-006  0.1330722E+03  0.7546771E-02  0.1235634E+00
          2   -1    0    0  501    0  0.00000000000E+00  0.00000000000E+00  0.32263421963E+03  0.32263421963E+03  0.00000000000E+00 0. -1.
         -2   -1    0    0    0  501 -0.00000000000E+00 -0.00000000000E+00 -0.43076158907E+02  0.43076158907E+02  0.00000000000E+00 0.  1.
         23    2    1    2    0    0  0.44583926245E+02 -0.97855959361E+01  0.16694699173E+03  0.21349359542E+03  0.12499893149E+03 0.  0.
          5    1    3    3  502    0  0.63604449070E+02 -0.20244543250E+02  0.27591148582E+02  0.72379064328E+02  0.47000000000E+01 0.  1.
         -5    1    3    3    0  502 -0.19020522825E+02  0.10458947314E+02  0.13935584315E+03  0.14111453110E+03  0.47000000000E+01 0.  1.
        -11    1    1    2    0    0  0.88562229177E+01  0.34355420310E+02  0.15575670824E+02  0.38746988407E+02  0.00000000000E+00 0.  1.
         11    1    1    2    0    0 -0.53440149163E+02 -0.24569824374E+02  0.97035398168E+02  0.11346979470E+03  0.00000000000E+00 0. -1.
<mgrwt>
<rscale>  0 0.12463952E+03</rscale>
<asrwt>0</asrwt>
<pdfrwt beam="1">  1        2 0.49636032E-01 0.13307223E+03</pdfrwt>
<pdfrwt beam="2">  1       -2 0.66271016E-02 0.13307223E+03</pdfrwt>
<totfact> 0.12076539E+04</totfact>
</mgrwt>
</event>
<event>
 7    1  0.6095443E-006  0.1284247E+03  0.7546771E-02  0.1244706E+00
          3   -1    0    0  501    0  0.00000000000E+00  0.00000000000E+00  0.14475085580E+03  0.14475085580E+03  0.00000000000E+00 0. -1.
         -3   -1    0    0    0  501 -0.00000000000E+00 -0.00000000000E+00 -0.88153843818E+02  0.88153843818E+02  0.00000000000E+00 0.  1.
         23    2    1    2    0    0 -0.28661796193E+02  0.68299924197E+01  0.14622882673E+02  0.12925451465E+03  0.12499901400E+03 0.  0.
          5    1    3    3  502    0  0.33330210023E+02  0.34922523982E+02 -0.20339269050E+02  0.52595260689E+02  0.47000000000E+01 0. -1.
         -5    1    3    3    0  502 -0.61992006216E+02 -0.28092531562E+02  0.34962151723E+02  0.76659253958E+02  0.47000000000E+01 0. -1.
        -11    1    1    2    0    0  0.22247689151E+02  0.36771438826E+02  0.41254304246E+02  0.59573618362E+02  0.00000000000E+00 0. -1.
         11    1    1    2    0    0  0.64141070422E+01 -0.43601431246E+02  0.71982506269E+00  0.44076566608E+02  0.00000000000E+00 0.  1.
<mgrwt>
<rscale>  0 0.11902966E+03</rscale>
<asrwt>0</asrwt>
<pdfrwt beam="1">  1        3 0.22269362E-01 0.12842469E+03</pdfrwt>
<pdfrwt beam="2">  1       -3 0.13562130E-01 0.12842469E+03</pdfrwt>
<totfact> 0.18568081E+03</totfact>
</mgrwt>
</event>
<event>
 7    1  0.6095443E-006  0.1322563E+03  0.7546771E-02  0.1237348E+00
         -2   -1    0    0    0  501 -0.00000000000E+00  0.00000000000E+00  0.11418650894E+03  0.11418650894E+03  0.00000000000E+00 0.  1.
          2   -1    0    0  501    0  0.00000000000E+00 -0.00000000000E+00 -0.12228050787E+03  0.12228050787E+03  0.00000000000E+00 0. -1.
         23    2    1    2    0    0  0.15620910853E+01 -0.43203555665E+02  0.15054683256E+02  0.13311037665E+03  0.12499096580E+03 0.  0.
          5    1    3    3  502    0  0.43058453791E+02  0.43863874115E+01  0.45398112944E+02  0.62899519046E+02  0.47000000000E+01 0. -1.
         -5    1    3    3    0  502 -0.41496362705E+02 -0.47589943076E+02 -0.30343429688E+02  0.70210857600E+02  0.47000000000E+01 0. -1.
        -11    1    1    2    0    0 -0.17938013464E+02 -0.18848850151E+02 -0.28941732445E+02  0.38918830352E+02  0.00000000000E+00 0. -1.
         11    1    1    2    0    0  0.16375922379E+02  0.62052405815E+02  0.57930502614E+01  0.64437809806E+02  0.00000000000E+00 0.  1.
<mgrwt>
<rscale>  0 0.12355293E+03</rscale>
<asrwt>0</asrwt>
<pdfrwt beam="2">  1        2 0.18812386E-01 0.13225630E+03</pdfrwt>
<pdfrwt beam="1">  1       -2 0.17567155E-01 0.13225630E+03</pdfrwt>
<totfact> 0.73895094E+03</totfact>
</mgrwt>
</event>
<event>
 7    1  0.6095443E-006  0.1397728E+03  0.7546771E-02  0.1222666E+00
         -1   -1    0    0    0  501 -0.00000000000E+00  0.00000000000E+00  0.18227213620E+03  0.18227213620E+03  0.00000000000E+00 0.  1.
          1   -1    0    0  501    0  0.00000000000E+00 -0.00000000000E+00 -0.28104898353E+03  0.28104898353E+03  0.00000000000E+00 0. -1.
         23    2    1    2    0    0  0.56077303593E+02  0.42496365074E+02  0.14013712836E+03  0.19792635495E+03  0.12077177739E+03 0.  0.
          5    1    3    3  502    0 -0.16203210583E+02 -0.26432962831E+02  0.82579108355E+01  0.32427282473E+02  0.47000000000E+01 0. -1.
         -5    1    3    3    0  502  0.72280514176E+02  0.68929327905E+02  0.13187921752E+03  0.16549907247E+03  0.47000000000E+01 0.  1.
        -11    1    1    2    0    0  0.80065451522E+01 -0.46992015922E+02 -0.13561747636E+03  0.14375136250E+03  0.00000000000E+00 0. -1.
         11    1    1    2    0    0 -0.64083848746E+02  0.44956508478E+01 -0.10329649932E+03  0.12164340228E+03  0.00000000000E+00 0.  1.
<mgrwt>
<rscale>  0 0.13328165E+03</rscale>
<asrwt>0</asrwt>
<pdfrwt beam="2">  1        1 0.43238305E-01 0.13977277E+03</pdfrwt>
<pdfrwt beam="1">  1       -1 0.28041867E-01 0.13977277E+03</pdfrwt>
<totfact> 0.10824985E+03</totfact>
</mgrwt>
</event>
<event>
 7    1  0.6095443E-006  0.1460882E+03  0.7546771E-02  0.1214773E+00
         -1   -1    0    0    0  501 -0.00000000000E+00  0.00000000000E+00  0.59289646630E+02  0.59289646630E+02  0.00000000000E+00 0.  1.
          1   -1    0    0  501    0  0.00000000000E+00 -0.00000000000E+00 -0.29901629128E+03  0.29901629128E+03  0.00000000000E+00 0. -1.
         23    2    1    2    0    0  0.74980583887E+02  0.97314075905E+01 -0.11879906749E+03  0.18829489426E+03  0.12499984206E+03 0.  0.
          5    1    3    3  502    0  0.10353014566E+03  0.16765994123E+02 -0.11877006514E+03  0.15851816297E+03  0.47000000000E+01 0.  1.
         -5    1    3    3    0  502 -0.28549561769E+02 -0.70345865329E+01 -0.29002342288E-01  0.29776731286E+02  0.47000000000E+01 0.  1.
        -11    1    1    2    0    0 -0.54954486972E+02 -0.48813285653E+02 -0.90483926637E+02  0.11657647050E+03  0.00000000000E+00 0. -1.
         11    1    1    2    0    0 -0.20026096914E+02  0.39081878063E+02 -0.30443650532E+02  0.53434573155E+02  0.00000000000E+00 0.  1.
<mgrwt>
<rscale>  0 0.13893233E+03</rscale>
<asrwt>0</asrwt>
<pdfrwt beam="2">  1        1 0.46002506E-01 0.14608815E+03</pdfrwt>
<pdfrwt beam="1">  1       -1 0.91214842E-02 0.14608815E+03</pdfrwt>
<totfact> 0.59384215E+03</totfact>
</mgrwt>
</event>
<event>
 7    1  0.6095443E-006  0.1389787E+03  0.7546771E-02  0.1227535E+00
          2   -1    0    0  501    0  0.00000000000E+00  0.00000000000E+00  0.80028487262E+02  0.80028487262E+02  0.00000000000E+00 0. -1.
         -2   -1    0    0    0  501 -0.00000000000E+00 -0.00000000000E+00 -0.20998775378E+03  0.20998775378E+03  0.00000000000E+00 0.  1.
         23    2    1    2    0    0  0.49720850214E+02 -0.34909613940E+02 -0.11948044805E+03  0.18327752090E+03  0.12499691239E+03 0.  0.
          5    1    3    3  502    0  0.66317520909E+01  0.42603823575E+02 -0.67916388520E+02  0.80584066345E+02  0.47000000000E+01 0.  1.
         -5    1    3    3    0  502  0.43089098123E+02 -0.77513437515E+02 -0.51564059528E+02  0.10269345455E+03  0.47000000000E+01 0.  1.
        -11    1    1    2    0    0 -0.67265191244E+01 -0.26670591302E+02  0.93666040921E+01  0.29056836926E+02  0.00000000000E+00 0. -1.
         11    1    1    2    0    0 -0.42994331089E+02  0.61580205242E+02 -0.19845422558E+02  0.77681883216E+02  0.00000000000E+00 0.  1.
<mgrwt>
<rscale>  0 0.12994689E+03</rscale>
<asrwt>0</asrwt>
<pdfrwt beam="1">  1        2 0.12312075E-01 0.13897868E+03</pdfrwt>
<pdfrwt beam="2">  1       -2 0.32305808E-01 0.13897868E+03</pdfrwt>
<totfact> 0.42241150E+03</totfact>
</mgrwt>
</event>
<event>
 7    1  0.6095443E-006  0.1469901E+03  0.7546771E-02  0.1213366E+00
          2   -1    0    0  501    0  0.00000000000E+00  0.00000000000E+00  0.81180208450E+03  0.81180208450E+03  0.00000000000E+00 0. -1.
         -2   -1    0    0    0  501 -0.00000000000E+00 -0.00000000000E+00 -0.22123763978E+02  0.22123763978E+02  0.00000000000E+00 0.  1.
         23    2    1    2    0    0 -0.37808935386E+02 -0.67461632210E+02  0.44826190940E+03  0.47174657846E+03  0.12500202982E+03 0.  0.
          5    1    3    3  502    0 -0.23720979576E+02 -0.22246209896E+02  0.15420914202E+02  0.36297015326E+02  0.47000000000E+01 0.  1.
         -5    1    3    3    0  502 -0.14087955810E+02 -0.45215422314E+02  0.43284099520E+03  0.43544956314E+03  0.47000000000E+01 0.  1.
        -11    1    1    2    0    0  0.38120641287E+02  0.72605466014E+01  0.43725730331E+02  0.58462281192E+02  0.00000000000E+00 0.  1.
         11    1    1    2    0    0 -0.31170590120E+00  0.60201085609E+02  0.29769068079E+03  0.30371698882E+03  0.00000000000E+00 0. -1.
<mgrwt>
<rscale>  0 0.13997240E+03</rscale>
<asrwt>0</asrwt>
<pdfrwt beam="1">  1        2 0.12489261E+00 0.14699012E+03</pdfrwt>
<pdfrwt beam="2">  1       -2 0.34036566E-02 0.14699012E+03</pdfrwt>
<totfact> 0.11745503E+04</totfact>
</mgrwt>
</event>
<event>
 7    1  0.6095443E-006  0.1329262E+03  0.7546771E-02  0.1236069E+00
          2   -1    0    0  501    0  0.00000000000E+00  0.00000000000E+00  0.61411450224E+03  0.61411450224E+03  0.00000000000E+00 0.  1.
         -2   -1    0    0    0  501 -0.00000000000E+00 -0.00000000000E+00 -0.23088430345E+02  0.23088430345E+02  0.00000000000E+00 0. -1.
         23    2    1    2    0    0  0.22397266074E+02 -0.39284198305E+02  0.28049005802E+03  0.31039336659E+03  0.12499793442E+03 0.  0.
          5    1    3    3  502    0  0.34145831835E+02 -0.43027956804E+02  0.28931333779E+03  0.29451933777E+03  0.47000000000E+01 0. -1.
         -5    1    3    3    0  502 -0.11748565761E+02  0.37437584993E+01 -0.88232797663E+01  0.15874028820E+02  0.47000000000E+01 0. -1.
        -11    1    1    2    0    0 -0.48315091187E+02  0.30708585293E+02  0.28024209729E+03  0.28602971584E+03  0.00000000000E+00 0.  1.
         11    1    1    2    0    0  0.25917825113E+02  0.85756130125E+01  0.30293916585E+02  0.40779850161E+02  0.00000000000E+00 0. -1.
<mgrwt>
<rscale>  0 0.12436268E+03</rscale>
<asrwt>0</asrwt>
<pdfrwt beam="1">  1        2 0.94479142E-01 0.13292618E+03</pdfrwt>
<pdfrwt beam="2">  1       -2 0.35520667E-02 0.13292618E+03</pdfrwt>
<totfact> 0.15282414E+04</totfact>
</mgrwt>
</event>
<event>
 6    1  0.6095443E-006  0.2982193E+03  0.7546771E-02  0.1089531E+00
          1   -1    0    0  501    0  0.00000000000E+00  0.00000000000E+00  0.11456794661E+04  0.11456794661E+04  0.00000000000E+00 0. -1.
         -1   -1    0    0    0  501 -0.00000000000E+00 -0.00000000000E+00 -0.76764066464E+02  0.76764066464E+02  0.00000000000E+00 0.  1.
          5    1    1    2  502    0 -0.32901799168E+02 -0.85714089624E+01  0.24971370096E+02  0.42445927538E+02  0.47000000000E+01 0. -1.
         -5    1    1    2    0  502  0.10816572827E+03 -0.23702555225E+03  0.36557418249E+03  0.44894043045E+03  0.47000000000E+01 0.  1.
        -11    1    1    2    0    0 -0.42688087920E+02  0.47883440581E+02  0.98548574566E+02  0.11758791724E+03  0.00000000000E+00 0.  1.
         11    1    1    2    0    0 -0.32575841178E+02  0.19771352063E+03  0.57982127246E+03  0.61346925731E+03  0.00000000000E+00 0. -1.
<mgrwt>
<rscale>  0 0.29157169E+03</rscale>
<asrwt>0</asrwt>
<pdfrwt beam="1">  1        1 0.17625837E+00 0.29821926E+03</pdfrwt>
<pdfrwt beam="2">  1       -1 0.11809857E-01 0.29821926E+03</pdfrwt>
<totfact> 0.58822616E+02</totfact>
</mgrwt>
</event>
<event>
 7    1  0.6095443E-006  0.2076482E+03  0.7546771E-02  0.1147290E+00
         -1   -1    0    0    0  501 -0.00000000000E+00  0.00000000000E+00  0.18925826558E+03  0.18925826558E+03  0.00000000000E+00 0.  1.
          1   -1    0    0  501    0  0.00000000000E+00 -0.00000000000E+00 -0.21701616309E+03  0.21701616309E+03  0.00000000000E+00 0. -1.
         23    2    1    2    0    0 -0.75160021915E+02 -0.14779217957E+03  0.26288691452E+02  0.20930573450E+03  0.12500495175E+03 0.  0.
          5    1    3    3  502    0  0.24592639315E+02 -0.48308203857E+02  0.40214747791E+02  0.67659414779E+02  0.47000000000E+01 0.  1.
         -5    1    3    3    0  502 -0.99752661229E+02 -0.99483975710E+02 -0.13926056339E+02  0.14164631972E+03  0.47000000000E+01 0.  1.
        -11    1    1    2    0    0  0.25506076297E+02  0.81510236364E+02 -0.72603691261E+02  0.11209716564E+03  0.00000000000E+00 0. -1.
         11    1    1    2    0    0  0.49653945618E+02  0.66281943203E+02  0.18557102299E+02  0.84871528535E+02  0.00000000000E+00 0.  1.
<mgrwt>
<rscale>  0 0.20292995E+03</rscale>
<asrwt>0</asrwt>
<pdfrwt beam="2">  1        1 0.33387102E-01 0.20764825E+03</pdfrwt>
<pdfrwt beam="1">  1       -1 0.29116656E-01 0.20764825E+03</pdfrwt>
<totfact> 0.14132583E+03</totfact>
</mgrwt>
</event>
<event>
 6    1  0.6095443E-006  0.2098090E+03  0.7546771E-02  0.1171481E+00
          2   -1    0    0  501    0  0.00000000000E+00  0.00000000000E+00  0.20039237655E+03  0.20039237655E+03  0.00000000000E+00 0. -1.
         -2   -1    0    0    0  501 -0.00000000000E+00 -0.00000000000E+00 -0.12719506627E+03  0.12719506627E+03  0.00000000000E+00 0.  1.
          5    1    1    2  502    0  0.56436142803E+02 -0.67420752849E+02  0.81820868037E+02  0.12019709055E+03  0.47000000000E+01 0. -1.
         -5    1    1    2    0  502 -0.64360830709E+02  0.19587934242E+02 -0.60620303385E+02  0.90680289368E+02  0.47000000000E+01 0.  1.
        -11    1    1    2    0    0 -0.17539818250E+02  0.23907654108E+02 -0.20625340681E+02  0.36119604474E+02  0.00000000000E+00 0.  1.
         11    1    1    2    0    0  0.25464506155E+02  0.23925164500E+02  0.72622086312E+02  0.80590458433E+02  0.00000000000E+00 0. -1.
<mgrwt>
<rscale>  0 0.17625191E+03</rscale>
<asrwt>0</asrwt>
<pdfrwt beam="1">  1        2 0.30829596E-01 0.20980897E+03</pdfrwt>
<pdfrwt beam="2">  1       -2 0.19568472E-01 0.20980897E+03</pdfrwt>
<totfact> 0.36514990E+03</totfact>
</mgrwt>
</event>
<event>
 7    1  0.6095443E-006  0.1319547E+03  0.7546771E-02  0.1238140E+00
         -2   -1    0    0    0  501 -0.00000000000E+00  0.00000000000E+00  0.38356201371E+02  0.38356201371E+02  0.00000000000E+00 0. -1.
          2   -1    0    0  501    0  0.00000000000E+00 -0.00000000000E+00 -0.38720322265E+03  0.38720322265E+03  0.00000000000E+00 0.  1.
         23    2    1    2    0    0  0.14879915726E+02  0.39565195945E+02 -0.13099121525E+03  0.18593205990E+03  0.12500086321E+03 0.  0.
          5    1    3    3  502    0  0.54668088249E+02  0.68500828851E+01 -0.12568809745E+02  0.56706159160E+02  0.47000000000E+01 0.  1.
         -5    1    3    3    0  502 -0.39788172523E+02  0.32715113060E+02 -0.11842240551E+03  0.12922590074E+03  0.47000000000E+01 0.  1.
        -11    1    1    2    0    0  0.16237465576E+02  0.23922695728E+02 -0.56795852869E+02  0.63731621369E+02  0.00000000000E+00 0. -1.
         11    1    1    2    0    0 -0.31117381302E+02 -0.63487891673E+02 -0.16105995316E+03  0.17589574276E+03  0.00000000000E+00 0.  1.
<mgrwt>
<rscale>  0 0.12305567E+03</rscale>
<asrwt>0</asrwt>
<pdfrwt beam="2">  1        2 0.59569725E-01 0.13195466E+03</pdfrwt>
<pdfrwt beam="1">  1       -2 0.59009543E-02 0.13195466E+03</pdfrwt>
<totfact> 0.11859881E+04</totfact>
</mgrwt>
</event>
<event>
 7    1  0.6095443E-006  0.2825346E+03  0.7546771E-02  0.1096178E+00
          2   -1    0    0  501    0  0.00000000000E+00  0.00000000000E+00  0.18811903566E+04  0.18811903566E+04  0.00000000000E+00 0. -1.
         -2   -1    0    0    0  501 -0.00000000000E+00 -0.00000000000E+00 -0.44621158861E+02  0.44621158861E+02  0.00000000000E+00 0.  1.
         23    2    1    2    0    0  0.24141913886E+03  0.76942975262E+02  0.64375211171E+03  0.70302386483E+03  0.12498940410E+03 0.  0.
          5    1    3    3  502    0  0.10046175649E+03  0.41607352748E+01  0.39759592870E+03  0.41013959667E+03  0.47000000000E+01 0.  1.
         -5    1    3    3    0  502  0.14095738237E+03  0.72782239987E+02  0.24615618301E+03  0.29288426816E+03  0.47000000000E+01 0.  1.
        -11    1    1    2    0    0 -0.17545705067E+03 -0.96108364578E+02  0.91333933576E+03  0.93499237249E+03  0.00000000000E+00 0. -1.
         11    1    1    2    0    0 -0.65962088188E+02  0.19165389316E+02  0.27947775025E+03  0.28779527813E+03  0.00000000000E+00 0.  1.
<mgrwt>
<rscale>  0 0.27910574E+03</rscale>
<asrwt>0</asrwt>
<pdfrwt beam="1">  1        2 0.28941384E+00 0.28253455E+03</pdfrwt>
<pdfrwt beam="2">  1       -2 0.68647952E-02 0.28253455E+03</pdfrwt>
<totfact> 0.10297568E+03</totfact>
</mgrwt>
</event>
<event>
 7    1  0.6095443E-006  0.1793426E+03  0.7546771E-02  0.1173847E+00
         -2   -1    0    0    0  501 -0.00000000000E+00  0.00000000000E+00  0.13688170014E+03  0.13688170014E+03  0.00000000000E+00 0.  1.
          2   -1    0    0  501    0  0.00000000000E+00 -0.00000000000E+00 -0.25231055373E+03  0.25231055373E+03  0.00000000000E+00 0. -1.
         23    2    1    2    0    0 -0.12709196001E+03  0.19717393246E+02  0.20318688514E+02  0.18048992843E+03  0.12499049271E+03 0.  0.
          5    1    3    3  502    0  0.26274241344E+00 -0.37829665570E+02  0.13675901956E+02  0.40500283024E+02  0.47000000000E+01 0. -1.
         -5    1    3    3    0  502 -0.12735470243E+03  0.57547058817E+02  0.66427865575E+01  0.13998964541E+03  0.47000000000E+01 0. -1.
        -11    1    1    2    0    0  0.52879630550E+02  0.31529254930E+02 -0.26469734033E+02  0.67014894339E+02  0.00000000000E+00 0.  1.
         11    1    1    2    0    0  0.74212329462E+02 -0.51246648176E+02 -0.10927780808E+03  0.14168743110E+03  0.00000000000E+00 0. -1.
<mgrwt>
<rscale>  0 0.17389418E+03</rscale>
<asrwt>0</asrwt>
<pdfrwt beam="2">  1        2 0.38817009E-01 0.17934259E+03</pdfrwt>
<pdfrwt beam="1">  1       -2 0.21058723E-01 0.17934259E+03</pdfrwt>
<totfact> 0.24930724E+03</totfact>
</mgrwt>
</event>
<event>
 7    1  0.6095443E-006  0.1342898E+03  0.7546771E-02  0.1233648E+00
         -1   -1    0    0    0  501 -0.00000000000E+00  0.00000000000E+00  0.66209639545E+02  0.66209639545E+02  0.00000000000E+00 0.  1.
          1   -1    0    0  501    0  0.00000000000E+00 -0.00000000000E+00 -0.22226814999E+03  0.22226814999E+03  0.00000000000E+00 0. -1.
         23    2    1    2    0    0  0.11517759013E+02 -0.47772245711E+02 -0.60102005981E+02  0.14712580562E+03  0.12497561892E+03 0.  0.
          5    1    3    3  502    0  0.18568736713E+02  0.39370241639E+02 -0.34977675823E+02  0.56038751911E+02  0.47000000000E+01 0.  1.
         -5    1    3    3    0  502 -0.70509776996E+01 -0.87142487350E+02 -0.25124330158E+02  0.91087053712E+02  0.47000000000E+01 0.  1.
        -11    1    1    2    0    0  0.27085538818E+02 -0.49311397179E+01 -0.29416642046E+01  0.27687469012E+02  0.00000000000E+00 0.  1.
         11    1    1    2    0    0 -0.38603297831E+02  0.52703385428E+02 -0.93014840260E+02  0.11366451490E+03  0.00000000000E+00 0. -1.
<mgrwt>
<rscale>  0 0.12591371E+03</rscale>
<asrwt>0</asrwt>
<pdfrwt beam="2">  1        1 0.34195100E-01 0.13428980E+03</pdfrwt>
<pdfrwt beam="1">  1       -1 0.10186098E-01 0.13428980E+03</pdfrwt>
<totfact> 0.72063549E+03</totfact>
</mgrwt>
</event>
<event>
 7    1  0.6095443E-006  0.1477538E+03  0.7546771E-02  0.1212176E+00
         -1   -1    0    0    0  501 -0.00000000000E+00  0.00000000000E+00  0.98737024651E+03  0.98737024651E+03  0.00000000000E+00 0.  1.
          1   -1    0    0  501    0  0.00000000000E+00 -0.00000000000E+00 -0.18995623693E+02  0.18995623693E+02  0.00000000000E+00 0. -1.
         23    2    1    2    0    0 -0.24621918750E+02  0.74832629878E+02  0.61528958016E+03  0.63278152402E+03  0.12500011328E+03 0.  0.
          5    1    3    3  502    0 -0.41371677968E+02 -0.44369065277E+01  0.70635706918E+02  0.82114523498E+02  0.47000000000E+01 0.  1.
         -5    1    3    3    0  502  0.16749759218E+02  0.79269536405E+02  0.54465387324E+03  0.55066700053E+03  0.47000000000E+01 0.  1.
        -11    1    1    2    0    0  0.30866048171E+02  0.76544800851E+01  0.48738055023E+02  0.58195377845E+02  0.00000000000E+00 0. -1.
         11    1    1    2    0    0 -0.62441294210E+01 -0.82487109963E+02  0.30434698764E+03  0.31538896834E+03  0.00000000000E+00 0.  1.
<mgrwt>
<rscale>  0 0.14086027E+03</rscale>
<asrwt>0</asrwt>
<pdfrwt beam="2">  1        1 0.29224044E-02 0.14775381E+03</pdfrwt>
<pdfrwt beam="1">  1       -1 0.15190307E+00 0.14775381E+03</pdfrwt>
<totfact> 0.12684755E+03</totfact>
</mgrwt>
</event>
<event>
 7    1  0.6095443E-006  0.1401040E+03  0.7546771E-02  0.1224019E+00
          2   -1    0    0  501    0  0.00000000000E+00  0.00000000000E+00  0.16745381314E+03  0.16745381314E+03  0.00000000000E+00 0. -1.
         -2   -1    0    0    0  501 -0.00000000000E+00 -0.00000000000E+00 -0.11134816521E+03  0.11134816521E+03  0.00000000000E+00 0.  1.
         23    2    1    2    0    0  0.21429610559E+02 -0.59568023059E+02 -0.23098224076E+02  0.14199526684E+03  0.12498620031E+03 0.  0.
          5    1    3    3  502    0  0.47328011679E+01  0.14203932324E+02 -0.56893277666E+02  0.59017676538E+02  0.47000000000E+01 0.  1.
         -5    1    3    3    0  502  0.16696809391E+02 -0.73771955383E+02  0.33795053589E+02  0.82977590300E+02  0.47000000000E+01 0.  1.
        -11    1    1    2    0    0 -0.47583272586E+02  0.65711106045E+02  0.43292913157E+02  0.91958651671E+02  0.00000000000E+00 0.  1.
         11    1    1    2    0    0  0.26153662027E+02 -0.61430829854E+01  0.35910958852E+02  0.44848059843E+02  0.00000000000E+00 0. -1.
<mgrwt>
<rscale>  0 0.13234354E+03</rscale>
<asrwt>0</asrwt>
<pdfrwt beam="1">  1        2 0.25762125E-01 0.14010399E+03</pdfrwt>
<pdfrwt beam="2">  1       -2 0.17130487E-01 0.14010399E+03</pdfrwt>
<totfact> 0.54416703E+03</totfact>
</mgrwt>
</event>
<event>
 7    1  0.6095443E-006  0.1306219E+03  0.7546771E-02  0.1234272E+00
          1   -1    0    0  501    0  0.00000000000E+00  0.00000000000E+00  0.17268012196E+03  0.17268012196E+03  0.00000000000E+00 0. -1.
         -1   -1    0    0    0  501 -0.00000000000E+00 -0.00000000000E+00 -0.12583084718E+03  0.12583084718E+03  0.00000000000E+00 0.  1.
         23    2    1    2    0    0  0.53884920068E+02  0.31561825594E+02 -0.60400471199E+02  0.14391074299E+03  0.11472729223E+03 0.  0.
          5    1    3    3  502    0  0.40291963841E+02 -0.20037649644E+02  0.18221104221E+02  0.48775489669E+02  0.47000000000E+01 0. -1.
         -5    1    3    3    0  502  0.13592956227E+02  0.51599475238E+02 -0.78621575420E+02  0.95135253326E+02  0.47000000000E+01 0.  1.
        -11    1    1    2    0    0 -0.11808979675E+02 -0.58666420054E+02  0.70690700308E+02  0.92619522526E+02  0.00000000000E+00 0. -1.
         11    1    1    2    0    0 -0.42075940393E+02  0.27104594460E+02  0.36559045667E+02  0.61980703617E+02  0.00000000000E+00 0.  1.
<mgrwt>
<rscale>  0 0.12551168E+03</rscale>
<asrwt>0</asrwt>
<pdfrwt beam="1">  1        1 0.26566173E-01 0.13062192E+03</pdfrwt>
<pdfrwt beam="2">  1       -1 0.19358592E-01 0.13062192E+03</pdfrwt>
<totfact> 0.36160158E+03</totfact>
</mgrwt>
</event>
<event>
 7    1  0.8558687E-006  0.1980674E+03  0.7546771E-02  0.1156043E+00
         -1   -1    0    0    0  501 -0.00000000000E+00  0.00000000000E+00  0.62873395094E+02  0.62873395094E+02  0.00000000000E+00 0.  1.
          1   -1    0    0  501    0  0.00000000000E+00 -0.00000000000E+00 -0.58120770258E+03  0.58120770258E+03  0.00000000000E+00 0. -1.
         23    2    1    2    0    0 -0.63879642544E+02 -0.13973017177E+03 -0.21259238368E+03  0.29056190704E+03  0.12500228234E+03 0.  0.
          5    1    3    3  502    0 -0.87828840582E+02 -0.14660499196E+03 -0.19680119687E+03  0.26069087056E+03  0.47000000000E+01 0. -1.
         -5    1    3    3    0  502  0.23949198038E+02  0.68748201908E+01 -0.15791186809E+02  0.29871036476E+02  0.47000000000E+01 0. -1.
        -11    1    1    2    0    0  0.27969447569E+02  0.67400133053E+02 -0.58819613152E+02  0.93727342991E+02  0.00000000000E+00 0.  1.
         11    1    1    2    0    0  0.35910194975E+02  0.72330038713E+02 -0.24692231065E+03  0.25979184764E+03  0.00000000000E+00 0. -1.
<mgrwt>
<rscale>  0 0.19270573E+03</rscale>
<asrwt>0</asrwt>
<pdfrwt beam="2">  1        1 0.89416569E-01 0.19806741E+03</pdfrwt>
<pdfrwt beam="1">  1       -1 0.96728301E-02 0.19806741E+03</pdfrwt>
<totfact> 0.23392796E+03</totfact>
</mgrwt>
</event>
<event>
 7    1  0.6095443E-006  0.1336723E+03  0.7546771E-02  0.1233921E+00
          2   -1    0    0  501    0  0.00000000000E+00  0.00000000000E+00  0.88847030898E+02  0.88847030898E+02  0.00000000000E+00 0. -1.
         -2   -1    0    0    0  501 -0.00000000000E+00 -0.00000000000E+00 -0.18844116289E+03  0.18844116289E+03  0.00000000000E+00 0.  1.
         23    2    1    2    0    0 -0.46555565031E+02  0.87570993269E+01 -0.10863603585E+03  0.17225004314E+03  0.12499672656E+03 0.  0.
          5    1    3    3  502    0 -0.27477267462E+02  0.36909212494E+02 -0.12568003328E+03  0.13392106242E+03  0.47000000000E+01 0.  1.
         -5    1    3    3    0  502 -0.19078297570E+02 -0.28152113167E+02  0.17043997434E+02  0.38328980713E+02  0.47000000000E+01 0.  1.
        -11    1    1    2    0    0  0.21877995557E+02  0.42253289830E+02 -0.44492215820E+00  0.47583454549E+02  0.00000000000E+00 0.  1.
         11    1    1    2    0    0  0.24677569474E+02 -0.51010389157E+02  0.94868260102E+01  0.57454696108E+02  0.00000000000E+00 0. -1.
<mgrwt>
<rscale>  0 0.12573729E+03</rscale>
<asrwt>0</asrwt>
<pdfrwt beam="1">  1        2 0.13668774E-01 0.13367232E+03</pdfrwt>
<pdfrwt beam="2">  1       -2 0.28990948E-01 0.13367232E+03</pdfrwt>
<totfact> 0.45229498E+03</totfact>
</mgrwt>
</event>
<event>
 7    1  0.6095443E-006  0.1643160E+03  0.7546771E-02  0.1191017E+00
          2   -1    0    0  501    0  0.00000000000E+00  0.00000000000E+00  0.13762441744E+03  0.13762441744E+03  0.00000000000E+00 0. -1.
         -2   -1    0    0    0  501 -0.00000000000E+00 -0.00000000000E+00 -0.16860629752E+03  0.16860629752E+03  0.00000000000E+00 0.  1.
         23    2    1    2    0    0 -0.98108798475E+02 -0.41812313380E+02 -0.17735931932E+02  0.16527041715E+03  0.12500456637E+03 0.  0.
          5    1    3    3  502    0 -0.67843771900E+02 -0.29521072489E+02  0.50342653566E+02  0.89614417783E+02  0.47000000000E+01 0. -1.
         -5    1    3    3    0  502 -0.30265026575E+02 -0.12291240891E+02 -0.68078585498E+02  0.75655999363E+02  0.47000000000E+01 0. -1.
        -11    1    1    2    0    0  0.74378360134E+02 -0.12522426321E+02 -0.26969759839E+02  0.80101932330E+02  0.00000000000E+00 0. -1.
         11    1    1    2    0    0  0.23730438341E+02  0.54334739701E+02  0.13723811690E+02  0.60858365485E+02  0.00000000000E+00 0.  1.
<mgrwt>
<rscale>  0 0.15796199E+03</rscale>
<asrwt>0</asrwt>
<pdfrwt beam="1">  1        2 0.21172987E-01 0.16431600E+03</pdfrwt>
<pdfrwt beam="2">  1       -2 0.25939430E-01 0.16431600E+03</pdfrwt>
<totfact> 0.33624120E+03</totfact>
</mgrwt>
</event>
<event>
 7    1  0.6095443E-006  0.1306944E+03  0.7546771E-02  0.1240958E+00
         -3   -1    0    0    0  501 -0.00000000000E+00  0.00000000000E+00  0.17609456025E+03  0.17609456025E+03  0.00000000000E+00 0.  1.
          3   -1    0    0  501    0  0.00000000000E+00 -0.00000000000E+00 -0.80362355005E+02  0.80362355005E+02  0.00000000000E+00 0. -1.
         23    2    1    2    0    0  0.29893738584E+02  0.23698451434E+02  0.91172166880E+02  0.15935306043E+03  0.12500312656E+03 0.  0.
          5    1    3    3  502    0  0.39262228204E+02 -0.42229082771E+02  0.66601111587E+02  0.88219136585E+02  0.47000000000E+01 0.  1.
         -5    1    3    3    0  502 -0.93684896193E+01  0.65927534205E+02  0.24571055293E+02  0.71133923850E+02  0.47000000000E+01 0.  1.
        -11    1    1    2    0    0 -0.23780021899E+02 -0.77858810240E+01  0.45960941729E+02  0.52330847016E+02  0.00000000000E+00 0.  1.
         11    1    1    2    0    0 -0.61137166850E+01 -0.15912570410E+02 -0.41400903362E+02  0.44773007805E+02  0.00000000000E+00 0. -1.
<mgrwt>
<rscale>  0 0.12130594E+03</rscale>
<asrwt>0</asrwt>
<pdfrwt beam="2">  1        3 0.12363439E-01 0.13069443E+03</pdfrwt>
<pdfrwt beam="1">  1       -3 0.27091471E-01 0.13069443E+03</pdfrwt>
<totfact> 0.15294010E+03</totfact>
</mgrwt>
</event>
<event>
 7    1  0.6095443E-006  0.3005137E+03  0.7546771E-02  0.1086676E+00
         -2   -1    0    0    0  501 -0.00000000000E+00  0.00000000000E+00  0.35298775829E+03  0.35298775829E+03  0.00000000000E+00 0.  1.
          2   -1    0    0  501    0  0.00000000000E+00 -0.00000000000E+00 -0.53989922290E+03  0.53989922290E+03  0.00000000000E+00 0. -1.
         23    2    1    2    0    0 -0.13007535343E+03  0.24035531623E+03  0.23567456222E+03  0.38190438572E+03  0.12497273682E+03 0.  0.
          5    1    3    3  502    0 -0.19266080235E+02  0.15340472553E+03  0.88825950363E+02  0.17837132931E+03  0.47000000000E+01 0.  1.
         -5    1    3    3    0  502 -0.11080927319E+03  0.86950590699E+02  0.14684861186E+03  0.20353305641E+03  0.47000000000E+01 0.  1.
        -11    1    1    2    0    0  0.29830159031E+02 -0.32333123053E+02 -0.23422603665E+02  0.49838615517E+02  0.00000000000E+00 0.  1.
         11    1    1    2    0    0  0.10024519439E+03 -0.20802219317E+03 -0.39916342317E+03  0.46114397995E+03  0.00000000000E+00 0. -1.
<mgrwt>
<rscale>  0 0.29714667E+03</rscale>
<asrwt>0</asrwt>
<pdfrwt beam="2">  1        2 0.83061419E-01 0.30051366E+03</pdfrwt>
<pdfrwt beam="1">  1       -2 0.54305809E-01 0.30051366E+03</pdfrwt>
<totfact> 0.18654339E+02</totfact>
</mgrwt>
</event>
<event>
 7    1  0.8588696E-006  0.1936733E+03  0.7546771E-02  0.1159863E+00
          1   -1    0    0  501    0  0.00000000000E+00  0.00000000000E+00  0.90331342896E+03  0.90331342896E+03  0.00000000000E+00 0. -1.
         -1   -1    0    0    0  501 -0.00000000000E+00 -0.00000000000E+00 -0.37895062862E+02  0.37895062862E+02  0.00000000000E+00 0.  1.
         23    2    1    2    0    0  0.80615942589E+02  0.12403749065E+03  0.39894836078E+03  0.44347393749E+03  0.12500043753E+03 0.  0.
          5    1    3    3  502    0  0.94832056458E+02  0.10673770342E+03  0.21516194271E+03  0.25826886737E+03  0.47000000000E+01 0. -1.
         -5    1    3    3    0  502 -0.14216113869E+02  0.17299787231E+02  0.18378641807E+03  0.18520507013E+03  0.47000000000E+01 0. -1.
        -11    1    1    2    0    0 -0.14202387481E+02 -0.31683527789E+02  0.27578771006E+02  0.44341203790E+02  0.00000000000E+00 0.  1.
         11    1    1    2    0    0 -0.66413555108E+02 -0.92353962858E+02  0.43889123431E+03  0.45339335054E+03  0.00000000000E+00 0. -1.
<mgrwt>
<rscale>  0 0.18845382E+03</rscale>
<asrwt>0</asrwt>
<pdfrwt beam="1">  1        1 0.13897128E+00 0.19367328E+03</pdfrwt>
<pdfrwt beam="2">  1       -1 0.58300104E-02 0.19367328E+03</pdfrwt>
<totfact> 0.26311131E+03</totfact>
</mgrwt>
</event>
<event>
 7    1  0.6095443E-006  0.1258217E+03  0.7546771E-02  0.1249291E+00
          1   -1    0    0  501    0  0.00000000000E+00  0.00000000000E+00  0.88474858537E+03  0.88474858537E+03  0.00000000000E+00 0. -1.
         -1   -1    0    0    0  501 -0.00000000000E+00 -0.00000000000E+00 -0.13491167615E+02  0.13491167615E+02  0.00000000000E+00 0.  1.
         23    2    1    2    0    0  0.37829213836E+01 -0.14131995360E+02  0.46574025543E+03  0.48243662097E+03  0.12496833172E+03 0.  0.
          5    1    3    3  502    0  0.18067454398E+02 -0.36338675160E+02  0.44752457193E+02  0.60595417695E+02  0.47000000000E+01 0. -1.
         -5    1    3    3    0  502 -0.14284533014E+02  0.22206679800E+02  0.42098779824E+03  0.42184120327E+03  0.47000000000E+01 0. -1.
        -11    1    1    2    0    0 -0.71754474665E+01  0.51722058922E+02  0.27611030525E+03  0.28100455350E+03  0.00000000000E+00 0.  1.
         11    1    1    2    0    0  0.33925260828E+01 -0.37590063563E+02  0.12940685707E+03  0.13479857851E+03  0.00000000000E+00 0. -1.
<mgrwt>
<rscale>  0 0.11632189E+03</rscale>
<asrwt>0</asrwt>
<pdfrwt beam="1">  1        1 0.13611512E+00 0.12582173E+03</pdfrwt>
<pdfrwt beam="2">  1       -1 0.20755649E-02 0.12582173E+03</pdfrwt>
<totfact> 0.12166641E+04</totfact>
</mgrwt>
</event>
<event>
 7    1  0.6095443E-006  0.1452463E+03  0.7546771E-02  0.1218506E+00
          2   -1    0    0  501    0  0.00000000000E+00  0.00000000000E+00  0.20855673757E+02  0.20855673757E+02  0.00000000000E+00 0. -1.
         -2   -1    0    0    0  501 -0.00000000000E+00 -0.00000000000E+00 -0.80944464480E+03  0.80944464480E+03  0.00000000000E+00 0.  1.
         23    2    1    2    0    0 -0.64702108158E+02 -0.35756260394E+02 -0.49766420091E+03  0.51842659467E+03  0.12502641419E+03 0.  0.
          5    1    3    3  502    0  0.85351727695E+01  0.38694429032E+02 -0.16309160978E+03  0.16790196900E+03  0.47000000000E+01 0. -1.
         -5    1    3    3    0  502 -0.73237280928E+02 -0.74450689426E+02 -0.33457259112E+03  0.35052462568E+03  0.47000000000E+01 0. -1.
        -11    1    1    2    0    0 -0.81106632348E+01  0.29923151822E+02 -0.14969693473E+03  0.15287364109E+03  0.00000000000E+00 0.  1.
         11    1    1    2    0    0  0.72812771393E+02  0.58331085722E+01 -0.14122783540E+03  0.15900008279E+03  0.00000000000E+00 0. -1.
<mgrwt>
<rscale>  0 0.13622146E+03</rscale>
<asrwt>0</asrwt>
<pdfrwt beam="1">  1        2 0.32085655E-02 0.14524626E+03</pdfrwt>
<pdfrwt beam="2">  1       -2 0.12452993E+00 0.14524626E+03</pdfrwt>
<totfact> 0.14023434E+03</totfact>
</mgrwt>
</event>
<event>
 7    1  0.6095443E-006  0.1352050E+03  0.7546771E-02  0.1231822E+00
         -1   -1    0    0    0  501 -0.00000000000E+00  0.00000000000E+00  0.55036302278E+02  0.55036302278E+02  0.00000000000E+00 0.  1.
          1   -1    0    0  501    0  0.00000000000E+00 -0.00000000000E+00 -0.29947264963E+03  0.29947264963E+03  0.00000000000E+00 0. -1.
         23    2    1    2    0    0 -0.78666871755E+01 -0.50930832672E+02 -0.74312130213E+02  0.15428121408E+03  0.12499826334E+03 0.  0.
          5    1    3    3  502    0 -0.23954237204E+02 -0.85249890572E+01  0.30496947596E+02  0.39982930497E+02  0.47000000000E+01 0. -1.
         -5    1    3    3    0  502  0.16087550029E+02 -0.42405843615E+02 -0.10480907781E+03  0.11429828358E+03  0.47000000000E+01 0. -1.
        -11    1    1    2    0    0  0.10544456431E+02 -0.24151509046E+02 -0.71813002129E+02  0.76495674553E+02  0.00000000000E+00 0. -1.
         11    1    1    2    0    0 -0.26777692559E+01  0.75082341718E+02 -0.98311215010E+02  0.12373206328E+03  0.00000000000E+00 0.  1.
<mgrwt>
<rscale>  0 0.12710090E+03</rscale>
<asrwt>0</asrwt>
<pdfrwt beam="2">  1        1 0.46072715E-01 0.13520503E+03</pdfrwt>
<pdfrwt beam="1">  1       -1 0.84671234E-02 0.13520503E+03</pdfrwt>
<totfact> 0.66041471E+03</totfact>
</mgrwt>
</event>
<event>
 7    1  0.6095443E-006  0.1425148E+03  0.7546771E-02  0.1220922E+00
          1   -1    0    0  501    0  0.00000000000E+00  0.00000000000E+00  0.78856043317E+02  0.78856043317E+02  0.00000000000E+00 0. -1.
         -1   -1    0    0    0  501 -0.00000000000E+00 -0.00000000000E+00 -0.28856927704E+03  0.28856927704E+03  0.00000000000E+00 0.  1.
         23    2    1    2    0    0 -0.63132430374E+02 -0.26335441222E+02 -0.21067293760E+03  0.25434929459E+03  0.12502486869E+03 0.  0.
          5    1    3    3  502    0 -0.81918316727E+02 -0.53547628556E+02 -0.19327211779E+03  0.21668908753E+03  0.47000000000E+01 0. -1.
         -5    1    3    3    0  502  0.18785886353E+02  0.27212187333E+02 -0.17400819810E+02  0.37660207057E+02  0.47000000000E+01 0. -1.
        -11    1    1    2    0    0  0.45482292427E+02 -0.24184367822E+02 -0.20469914450E+02  0.55430496741E+02  0.00000000000E+00 0.  1.
         11    1    1    2    0    0  0.17650137947E+02  0.50519809044E+02  0.21429618327E+02  0.57645529030E+02  0.00000000000E+00 0. -1.
<mgrwt>
<rscale>  0 0.13450356E+03</rscale>
<asrwt>0</asrwt>
<pdfrwt beam="1">  1        1 0.12131699E-01 0.14251483E+03</pdfrwt>
<pdfrwt beam="2">  1       -1 0.44395274E-01 0.14251483E+03</pdfrwt>
<totfact> 0.24551702E+03</totfact>
</mgrwt>
</event>
<event>
 7    1  0.6095443E-006  0.1306832E+03  0.7546771E-02  0.1241110E+00
         -1   -1    0    0    0  501 -0.00000000000E+00  0.00000000000E+00  0.33805273858E+03  0.33805273858E+03  0.00000000000E+00 0.  1.
          1   -1    0    0  501    0  0.00000000000E+00 -0.00000000000E+00 -0.50659500688E+02  0.50659500688E+02  0.00000000000E+00 0. -1.
         23    2    1    2    0    0 -0.38052247465E+02  0.19915445397E+01  0.25530088436E+03  0.28680420711E+03  0.12500468741E+03 0.  0.
          5    1    3    3  502    0 -0.64093488332E+02 -0.39798298816E+02  0.19286584488E+03  0.20715019661E+03  0.47000000000E+01 0.  1.
         -5    1    3    3    0  502  0.26041240867E+02  0.41789843356E+02  0.62435039486E+02  0.79654010503E+02  0.47000000000E+01 0.  1.
        -11    1    1    2    0    0  0.44380613487E+02  0.29623201872E+02  0.42297054900E+02  0.68089748096E+02  0.00000000000E+00 0.  1.
         11    1    1    2    0    0 -0.63283660214E+01 -0.31614746411E+02 -0.10204701364E+02  0.33818284065E+02  0.00000000000E+00 0. -1.
<mgrwt>
<rscale>  0 0.12121248E+03</rscale>
<asrwt>0</asrwt>
<pdfrwt beam="2">  1        1 0.77937695E-02 0.13068325E+03</pdfrwt>
<pdfrwt beam="1">  1       -1 0.52008112E-01 0.13068325E+03</pdfrwt>
<totfact> 0.33019869E+03</totfact>
</mgrwt>
</event>
<event>
 7    1  0.6095443E-006  0.1545376E+03  0.7546771E-02  0.1203335E+00
         -1   -1    0    0    0  501 -0.00000000000E+00  0.00000000000E+00  0.48856258275E+02  0.48856258275E+02  0.00000000000E+00 0.  1.
          1   -1    0    0  501    0  0.00000000000E+00 -0.00000000000E+00 -0.44554014087E+03  0.44554014087E+03  0.00000000000E+00 0. -1.
         23    2    1    2    0    0 -0.86505551512E+02  0.27814976265E+02 -0.14648104287E+03  0.21292856902E+03  0.12499998494E+03 0.  0.
          5    1    3    3  502    0 -0.43777186547E+02 -0.49315738314E+02 -0.58462419988E+02  0.88252074526E+02  0.47000000000E+01 0.  1.
         -5    1    3    3    0  502 -0.42728364965E+02  0.77130714578E+02 -0.88018622883E+02  0.12467649449E+03  0.47000000000E+01 0.  1.
        -11    1    1    2    0    0  0.29293029994E+02  0.20412538746E+02 -0.16159117033E+03  0.16548854846E+03  0.00000000000E+00 0. -1.
         11    1    1    2    0    0  0.57212521518E+02 -0.48227515011E+02 -0.88611669393E+02  0.11597928166E+03  0.00000000000E+00 0.  1.
<mgrwt>
<rscale>  0 0.14769416E+03</rscale>
<asrwt>0</asrwt>
<pdfrwt beam="2">  1        1 0.68544637E-01 0.15453763E+03</pdfrwt>
<pdfrwt beam="1">  1       -1 0.75163474E-02 0.15453763E+03</pdfrwt>
<totfact> 0.48374026E+03</totfact>
</mgrwt>
</event>
<event>
 7    1  0.6095443E-006  0.1414312E+03  0.7546771E-02  0.1222211E+00
          2   -1    0    0  501    0  0.00000000000E+00  0.00000000000E+00  0.77447824351E+02  0.77447824351E+02  0.00000000000E+00 0. -1.
         -2   -1    0    0    0  501 -0.00000000000E+00 -0.00000000000E+00 -0.26863428025E+03  0.26863428025E+03  0.00000000000E+00 0.  1.
         23    2    1    2    0    0 -0.15978966639E+02 -0.64213090222E+02 -0.18558274714E+03  0.23333182414E+03  0.12499654311E+03 0.  0.
          5    1    3    3  502    0  0.11567886291E+02 -0.88401732284E+02 -0.74558807880E+02  0.11631761731E+03  0.47000000000E+01 0. -1.
         -5    1    3    3    0  502 -0.27546852929E+02  0.24188642062E+02 -0.11102393926E+03  0.11701420683E+03  0.47000000000E+01 0. -1.
        -11    1    1    2    0    0  0.49231216692E+02  0.11946085993E+02 -0.21046659768E+01  0.50703562857E+02  0.00000000000E+00 0.  1.
         11    1    1    2    0    0 -0.33252250054E+02  0.52267004229E+02 -0.34990427786E+01  0.62046717601E+02  0.00000000000E+00 0. -1.
<mgrwt>
<rscale>  0 0.13359926E+03</rscale>
<asrwt>0</asrwt>
<pdfrwt beam="1">  1        2 0.11915050E-01 0.14143120E+03</pdfrwt>
<pdfrwt beam="2">  1       -2 0.41328350E-01 0.14143120E+03</pdfrwt>
<totfact> 0.27801194E+03</totfact>
</mgrwt>
</event>
<event>
 7    1  0.6095443E-006  0.1784569E+03  0.7546771E-02  0.1174942E+00
          2   -1    0    0  501    0  0.00000000000E+00  0.00000000000E+00  0.59659848036E+03  0.59659848036E+03  0.00000000000E+00 0. -1.
         -2   -1    0    0    0  501 -0.00000000000E+00 -0.00000000000E+00 -0.51041183401E+02  0.51041183401E+02  0.00000000000E+00 0.  1.
         23    2    1    2    0    0  0.40940281831E+01 -0.12729246987E+03  0.19957542920E+03  0.26772603759E+03  0.12500698104E+03 0.  0.
          5    1    3    3  502    0  0.51442458352E+02 -0.11487945103E+03  0.16513861762E+03  0.20769320600E+03  0.47000000000E+01 0. -1.
         -5    1    3    3    0  502 -0.47348430168E+02 -0.12413018836E+02  0.34436811576E+02  0.60032831581E+02  0.47000000000E+01 0. -1.
        -11    1    1    2    0    0 -0.47775870175E+02  0.66954930671E+02  0.17196167796E+03  0.19062086769E+03  0.00000000000E+00 0.  1.
         11    1    1    2    0    0  0.43681841992E+02  0.60337539197E+02  0.17402018980E+03  0.18929275849E+03  0.00000000000E+00 0. -1.
<mgrwt>
<rscale>  0 0.17281647E+03</rscale>
<asrwt>0</asrwt>
<pdfrwt beam="1">  1        2 0.91784377E-01 0.17845694E+03</pdfrwt>
<pdfrwt beam="2">  1       -2 0.78524902E-02 0.17845694E+03</pdfrwt>
<totfact> 0.48442327E+03</totfact>
</mgrwt>
</event>
<event>
 7    1  0.6095443E-006  0.1311682E+03  0.7546771E-02  0.1238844E+00
          1   -1    0    0  501    0  0.00000000000E+00  0.00000000000E+00  0.27575536154E+03  0.27575536154E+03  0.00000000000E+00 0. -1.
         -1   -1    0    0    0  501 -0.00000000000E+00 -0.00000000000E+00 -0.65977119629E+02  0.65977119629E+02  0.00000000000E+00 0.  1.
         23    2    1    2    0    0  0.39521924940E+02  0.42431116691E+01  0.27906002406E+02  0.13410383130E+03  0.12500042420E+03 0.  0.
          5    1    3    3  502    0  0.46963110127E+02 -0.68085123013E+01 -0.41535911649E+02  0.63239319328E+02  0.47000000000E+01 0. -1.
         -5    1    3    3    0  502 -0.74411851868E+01  0.11051623970E+02  0.69441914055E+02  0.70864511971E+02  0.47000000000E+01 0. -1.
        -11    1    1    2    0    0 -0.49370074017E+02 -0.79721281512E+01  0.18860981241E+03  0.19512719024E+03  0.00000000000E+00 0. -1.
         11    1    1    2    0    0  0.98481490773E+01  0.37290164821E+01 -0.67375729033E+01  0.12501459627E+02  0.00000000000E+00 0.  1.
<mgrwt>
<rscale>  0 0.12261557E+03</rscale>
<asrwt>0</asrwt>
<pdfrwt beam="1">  1        1 0.42423901E-01 0.13116818E+03</pdfrwt>
<pdfrwt beam="2">  1       -1 0.10150326E-01 0.13116818E+03</pdfrwt>
<totfact> 0.55416980E+03</totfact>
</mgrwt>
</event>
<event>
 7    1  0.6095443E-006  0.1481312E+03  0.7546771E-02  0.1212467E+00
         -3   -1    0    0    0  501 -0.00000000000E+00  0.00000000000E+00  0.22639905909E+03  0.22639905909E+03  0.00000000000E+00 0.  1.
          3   -1    0    0  501    0  0.00000000000E+00 -0.00000000000E+00 -0.83250574863E+02  0.83250574863E+02  0.00000000000E+00 0. -1.
         23    2    1    2    0    0  0.74630215489E+02  0.27347445526E+02  0.11086474037E+03  0.18502386687E+03  0.12500115525E+03 0.  0.
          5    1    3    3  502    0  0.67220260703E+01 -0.13536218583E+02 -0.23864721734E+02  0.28636162303E+02  0.47000000000E+01 0. -1.
         -5    1    3    3    0  502  0.67908189419E+02  0.40883664110E+02  0.13472946210E+03  0.15638770456E+03  0.47000000000E+01 0. -1.
        -11    1    1    2    0    0 -0.16945511613E+02 -0.45606700914E+02  0.40835318201E+02  0.63518853459E+02  0.00000000000E+00 0.  1.
         11    1    1    2    0    0 -0.57684703876E+02  0.18259255388E+02 -0.85515743453E+01  0.61106913622E+02  0.00000000000E+00 0. -1.
<mgrwt>
<rscale>  0 0.14064228E+03</rscale>
<asrwt>0</asrwt>
<pdfrwt beam="2">  1        3 0.12807781E-01 0.14813116E+03</pdfrwt>
<pdfrwt beam="1">  1       -3 0.34830624E-01 0.14813116E+03</pdfrwt>
<totfact> 0.92203006E+02</totfact>
</mgrwt>
</event>
<event>
 7    1  0.6095443E-006  0.1662860E+03  0.7546771E-02  0.1189444E+00
          1   -1    0    0  501    0  0.00000000000E+00  0.00000000000E+00  0.31810784729E+03  0.31810784729E+03  0.00000000000E+00 0. -1.
         -1   -1    0    0    0  501 -0.00000000000E+00 -0.00000000000E+00 -0.80179936549E+02  0.80179936549E+02  0.00000000000E+00 0.  1.
         23    2    1    2    0    0 -0.48830851711E+02 -0.98187874181E+02  0.72385688476E+02  0.18135795152E+03  0.12500283184E+03 0.  0.
          5    1    3    3  502    0  0.13257941886E+02 -0.81696704555E+02  0.81560991872E+02  0.11629449666E+03  0.47000000000E+01 0. -1.
         -5    1    3    3    0  502 -0.62088793596E+02 -0.16491169626E+02 -0.91753033964E+01  0.65063454860E+02  0.47000000000E+01 0. -1.
        -11    1    1    2    0    0  0.19137509206E+01  0.37795812739E+02  0.12452680928E+03  0.13015034434E+03  0.00000000000E+00 0. -1.
         11    1    1    2    0    0  0.46917100790E+02  0.60392061442E+02  0.41015412992E+02  0.86779487983E+02  0.00000000000E+00 0.  1.
<mgrwt>
<rscale>  0 0.15933968E+03</rscale>
<asrwt>0</asrwt>
<pdfrwt beam="1">  1        1 0.48939668E-01 0.16628595E+03</pdfrwt>
<pdfrwt beam="2">  1       -1 0.12335375E-01 0.16628595E+03</pdfrwt>
<totfact> 0.34806823E+03</totfact>
</mgrwt>
</event>
<event>
 7    1  0.6095443E-006  0.1502056E+03  0.7546771E-02  0.1208867E+00
          4   -1    0    0  501    0  0.00000000000E+00  0.00000000000E+00  0.16444164318E+03  0.16444164318E+03  0.00000000000E+00 0. -1.
         -4   -1    0    0    0  501 -0.00000000000E+00 -0.00000000000E+00 -0.12883903687E+03  0.12883903687E+03  0.00000000000E+00 0.  1.
         23    2    1    2    0    0 -0.35220047002E+02  0.75573823315E+02 -0.28828835892E+02  0.15294712354E+03  0.12493945070E+03 0.  0.
          5    1    3    3  502    0  0.73218387296E+01  0.64404193064E+02 -0.67855866388E+02  0.93957533013E+02  0.47000000000E+01 0. -1.
         -5    1    3    3    0  502 -0.42541885731E+02  0.11169630251E+02  0.39027030497E+02  0.58989590530E+02  0.47000000000E+01 0. -1.
        -11    1    1    2    0    0 -0.20833633530E+02 -0.55437652312E+02  0.10830468843E+02  0.60205254216E+02  0.00000000000E+00 0. -1.
         11    1    1    2    0    0  0.56053680532E+02 -0.20136171003E+02  0.53600973350E+02  0.80128302291E+02  0.00000000000E+00 0.  1.
<mgrwt>
<rscale>  0 0.14336835E+03</rscale>
<asrwt>0</asrwt>
<pdfrwt beam="1">  1        4 0.25298714E-01 0.15020560E+03</pdfrwt>
<pdfrwt beam="2">  1       -4 0.19821390E-01 0.15020560E+03</pdfrwt>
<totfact> 0.56795572E+02</totfact>
</mgrwt>
</event>
<event>
 7    1  0.6095443E-006  0.1259354E+03  0.7546771E-02  0.1245611E+00
          2   -1    0    0  501    0  0.00000000000E+00  0.00000000000E+00  0.11979983747E+03  0.11979983747E+03  0.00000000000E+00 0. -1.
         -2   -1    0    0    0  501 -0.00000000000E+00 -0.00000000000E+00 -0.10934413242E+03  0.10934413242E+03  0.00000000000E+00 0.  1.
         23    2    1    2    0    0  0.14270568676E+02  0.67038855588E+01 -0.16061801329E+02  0.12695551317E+03  0.12494450628E+03 0.  0.
          5    1    3    3  502    0  0.37558198455E+02 -0.41673898600E+01  0.45942074069E+02  0.59672016718E+02  0.47000000000E+01 0.  1.
         -5    1    3    3    0  502 -0.23287629780E+02  0.10871275419E+02 -0.62003875399E+02  0.67283496449E+02  0.47000000000E+01 0.  1.
        -11    1    1    2    0    0 -0.42108808418E+02 -0.33938910483E+02  0.32028275911E+02  0.62855483842E+02  0.00000000000E+00 0. -1.
         11    1    1    2    0    0  0.27838239743E+02  0.27235024924E+02 -0.55107695338E+01  0.39332972878E+02  0.00000000000E+00 0.  1.
<mgrwt>
<rscale>  0 0.11848867E+03</rscale>
<asrwt>0</asrwt>
<pdfrwt beam="1">  1        2 0.18430744E-01 0.12593538E+03</pdfrwt>
<pdfrwt beam="2">  1       -2 0.16822174E-01 0.12593538E+03</pdfrwt>
<totfact> 0.80964501E+03</totfact>
</mgrwt>
</event>
<event>
 7    1  0.6095443E-006  0.1359935E+03  0.7546771E-02  0.1228480E+00
         -1   -1    0    0    0  501 -0.00000000000E+00  0.00000000000E+00  0.55849048839E+02  0.55849048839E+02  0.00000000000E+00 0.  1.
          1   -1    0    0  501    0  0.00000000000E+00 -0.00000000000E+00 -0.46622146762E+03  0.46622146762E+03  0.00000000000E+00 0. -1.
         23    2    1    2    0    0 -0.28126226773E+02  0.53966017163E+02 -0.49925724180E+02  0.14486829004E+03  0.12161754759E+03 0.  0.
          5    1    3    3  502    0  0.39814641989E+02  0.16354216373E+02 -0.51206511561E+02  0.67058652955E+02  0.47000000000E+01 0. -1.
         -5    1    3    3    0  502 -0.67940868762E+02  0.37611800790E+02  0.12807873809E+01  0.77809637084E+02  0.47000000000E+01 0.  1.
        -11    1    1    2    0    0  0.26374359568E+02  0.67803082286E+01 -0.27307020138E+02  0.38564916324E+02  0.00000000000E+00 0.  1.
         11    1    1    2    0    0  0.17518672050E+01 -0.60746325392E+02 -0.33313967446E+03  0.33863731009E+03  0.00000000000E+00 0. -1.
<mgrwt>
<rscale>  0 0.12931226E+03</rscale>
<asrwt>0</asrwt>
<pdfrwt beam="2">  1        1 0.71726375E-01 0.13599354E+03</pdfrwt>
<pdfrwt beam="1">  1       -1 0.85921619E-02 0.13599354E+03</pdfrwt>
<totfact> 0.37054043E+03</totfact>
</mgrwt>
</event>
<event>
 7    1  0.6095443E-006  0.1512012E+03  0.7546771E-02  0.1207730E+00
          1   -1    0    0  501    0  0.00000000000E+00  0.00000000000E+00  0.76962144603E+03  0.76962144603E+03  0.00000000000E+00 0. -1.
         -1   -1    0    0    0  501 -0.00000000000E+00 -0.00000000000E+00 -0.24887935066E+02  0.24887935066E+02  0.00000000000E+00 0.  1.
         23    2    1    2    0    0  0.22648879658E+02  0.81995520488E+02  0.42749778391E+03  0.45344919474E+03  0.12500231930E+03 0.  0.
          5    1    3    3  502    0  0.25811147436E+02 -0.10821640909E+02  0.26267951348E+03  0.26420813774E+03  0.47000000000E+01 0. -1.
         -5    1    3    3    0  502 -0.31622677782E+01  0.92817161398E+02  0.16481827043E+03  0.18924105701E+03  0.47000000000E+01 0. -1.
        -11    1    1    2    0    0  0.33227088856E+02 -0.32366366043E+02  0.16611875750E+03  0.17247336803E+03  0.00000000000E+00 0.  1.
         11    1    1    2    0    0 -0.55875968514E+02 -0.49629154446E+02  0.15111696955E+03  0.16858681833E+03  0.00000000000E+00 0. -1.
<mgrwt>
<rscale>  0 0.14424377E+03</rscale>
<asrwt>0</asrwt>
<pdfrwt beam="1">  1        1 0.11840328E+00 0.15120125E+03</pdfrwt>
<pdfrwt beam="2">  1       -1 0.38289137E-02 0.15120125E+03</pdfrwt>
<totfact> 0.62445280E+03</totfact>
</mgrwt>
</event>
<event>
 7    1  0.6095443E-006  0.2095069E+03  0.7546771E-02  0.1144048E+00
         -1   -1    0    0    0  501 -0.00000000000E+00  0.00000000000E+00  0.86574626303E+02  0.86574626303E+02  0.00000000000E+00 0.  1.
          1   -1    0    0  501    0  0.00000000000E+00 -0.00000000000E+00 -0.52515699330E+03  0.52515699330E+03  0.00000000000E+00 0. -1.
         23    2    1    2    0    0 -0.17590679242E+03  0.16772281907E+02 -0.31150302071E+03  0.37540283238E+03  0.11255507804E+03 0.  0.
          5    1    3    3  502    0 -0.96550434296E+02 -0.38034815829E+02 -0.21555871061E+03  0.23928284789E+03  0.47000000000E+01 0. -1.
         -5    1    3    3    0  502 -0.79356358120E+02  0.54807097736E+02 -0.95944310103E+02  0.13611998449E+03  0.47000000000E+01 0.  1.
        -11    1    1    2    0    0  0.88093466189E+00 -0.20162945359E+02 -0.30064084712E+00  0.20184419644E+02  0.00000000000E+00 0. -1.
         11    1    1    2    0    0  0.17502585775E+03  0.33906634519E+01 -0.12677870544E+03  0.21614436758E+03  0.00000000000E+00 0.  1.
<mgrwt>
<rscale>  0 0.20689526E+03</rscale>
<asrwt>0</asrwt>
<pdfrwt beam="2">  1        1 0.80793382E-01 0.20950693E+03</pdfrwt>
<pdfrwt beam="1">  1       -1 0.13319173E-01 0.20950693E+03</pdfrwt>
<totfact> 0.16342599E+03</totfact>
</mgrwt>
</event>
<event>
 7    1  0.6095443E-006  0.1352691E+03  0.7546771E-02  0.1231714E+00
          1   -1    0    0  501    0  0.00000000000E+00  0.00000000000E+00  0.37663528263E+03  0.37663528263E+03  0.00000000000E+00 0. -1.
         -1   -1    0    0    0  501 -0.00000000000E+00 -0.00000000000E+00 -0.41292330108E+02  0.41292330108E+02  0.00000000000E+00 0.  1.
         23    2    1    2    0    0 -0.48557586567E+02  0.19202504595E+02  0.13326399992E+03  0.18988684800E+03  0.12478439796E+03 0.  0.
          5    1    3    3  502    0  0.36922961215E+02 -0.11708617366E+02  0.66145587011E+02  0.76796650100E+02  0.47000000000E+01 0.  1.
         -5    1    3    3    0  502 -0.85480547782E+02  0.30911121961E+02  0.67118412913E+02  0.11309019790E+03  0.47000000000E+01 0.  1.
        -11    1    1    2    0    0 -0.22590571812E+02 -0.25576800439E+02  0.60439860519E+02  0.69408093152E+02  0.00000000000E+00 0. -1.
         11    1    1    2    0    0  0.71148158379E+02  0.63742958437E+01  0.14163909208E+03  0.15863267158E+03  0.00000000000E+00 0.  1.
<mgrwt>
<rscale>  0 0.12717139E+03</rscale>
<asrwt>0</asrwt>
<pdfrwt beam="1">  1        1 0.57943887E-01 0.13526907E+03</pdfrwt>
<pdfrwt beam="2">  1       -1 0.63526664E-02 0.13526907E+03</pdfrwt>
<totfact> 0.76451942E+03</totfact>
</mgrwt>
</event>
<event>
 6    1  0.6095443E-006  0.1677999E+03  0.7546771E-02  0.1196978E+00
         -1   -1    0    0    0  501 -0.00000000000E+00  0.00000000000E+00  0.36318995172E+02  0.36318995172E+02  0.00000000000E+00 0.  1.
          1   -1    0    0  501    0  0.00000000000E+00 -0.00000000000E+00 -0.66387620769E+03  0.66387620769E+03  0.00000000000E+00 0. -1.
          5    1    1    2  502    0  0.26638668371E+02  0.33053186533E+02 -0.13729416057E+03  0.14378424225E+03  0.47000000000E+01 0. -1.
         -5    1    1    2    0  502 -0.93878420704E+02 -0.44999108983E+02 -0.83508514368E+02  0.13354339989E+03  0.47000000000E+01 0.  1.
        -11    1    1    2    0    0  0.20103751408E+02 -0.38140510304E+02 -0.10777259837E+03  0.11607666564E+03  0.00000000000E+00 0.  1.
         11    1    1    2    0    0  0.47136000925E+02  0.50086432753E+02 -0.29898193921E+03  0.30679089508E+03  0.00000000000E+00 0. -1.
<mgrwt>
<rscale>  0 0.15288008E+03</rscale>
<asrwt>0</asrwt>
<pdfrwt beam="2">  1        1 0.10213481E+00 0.16779988E+03</pdfrwt>
<pdfrwt beam="1">  1       -1 0.55875373E-02 0.16779988E+03</pdfrwt>
<totfact> 0.44399348E+03</totfact>
</mgrwt>
</event>
<event>
 7    1  0.6095443E-006  0.1573819E+03  0.7546771E-02  0.1197189E+00
         -2   -1    0    0    0  501 -0.00000000000E+00  0.00000000000E+00  0.22244706823E+03  0.22244706823E+03  0.00000000000E+00 0.  1.
          2   -1    0    0  501    0  0.00000000000E+00 -0.00000000000E+00 -0.23508051688E+03  0.23508051688E+03  0.00000000000E+00 0. -1.
         23    2    1    2    0    0  0.86006324973E+02  0.41795557935E+02  0.16740987828E+03  0.22977190266E+03  0.12500041323E+03 0.  0.
          5    1    3    3  502    0  0.96882059654E+00 -0.37993814001E+02  0.25367733875E+02  0.45935611867E+02  0.47000000000E+01 0. -1.
         -5    1    3    3    0  502  0.85037504377E+02  0.79789371936E+02  0.14204214441E+03  0.18383629079E+03  0.47000000000E+01 0. -1.
        -11    1    1    2    0    0  0.78991794594E+01 -0.42051479274E+02 -0.78799363667E+02  0.89666402067E+02  0.00000000000E+00 0.  1.
         11    1    1    2    0    0 -0.93905504433E+02  0.25592133902E+00 -0.10124396326E+03  0.13808928038E+03  0.00000000000E+00 0. -1.
<mgrwt>
<rscale>  0 0.15270410E+03</rscale>
<asrwt>0</asrwt>
<pdfrwt beam="2">  1        2 0.36166233E-01 0.15738189E+03</pdfrwt>
<pdfrwt beam="1">  1       -2 0.34222626E-01 0.15738189E+03</pdfrwt>
<totfact> 0.11311482E+03</totfact>
</mgrwt>
</event>
<event>
 7    1  0.6095443E-006  0.1329859E+03  0.7546771E-02  0.1235774E+00
         -1   -1    0    0    0  501 -0.00000000000E+00  0.00000000000E+00  0.73172853940E+02  0.73172853940E+02  0.00000000000E+00 0.  1.
          1   -1    0    0  501    0  0.00000000000E+00 -0.00000000000E+00 -0.22615524651E+03  0.22615524651E+03  0.00000000000E+00 0. -1.
         23    2    1    2    0    0  0.30454143894E+02  0.33652217897E+02 -0.24737159717E+02  0.13526708494E+03  0.12500132218E+03 0.  0.
          5    1    3    3  502    0 -0.16605573968E+02 -0.28473519603E+02 -0.43680311024E+02  0.54923091469E+02  0.47000000000E+01 0. -1.
         -5    1    3    3    0  502  0.47059717862E+02  0.62125737500E+02  0.18943151307E+02  0.80343993469E+02  0.47000000000E+01 0. -1.
        -11    1    1    2    0    0  0.15582583057E+02  0.22218026721E+02 -0.53589048705E+02  0.60068658610E+02  0.00000000000E+00 0.  1.
         11    1    1    2    0    0 -0.46036726952E+02 -0.55870244618E+02 -0.74656184143E+02  0.10399235690E+03  0.00000000000E+00 0. -1.
<mgrwt>
<rscale>  0 0.12454989E+03</rscale>
<asrwt>0</asrwt>
<pdfrwt beam="2">  1        1 0.34793114E-01 0.13298593E+03</pdfrwt>
<pdfrwt beam="1">  1       -1 0.11257362E-01 0.13298593E+03</pdfrwt>
<totfact> 0.60478536E+03</totfact>
</mgrwt>
</event>
<event>
 7    1  0.6095443E-006  0.1358645E+03  0.7546771E-02  0.1231336E+00
         -1   -1    0    0    0  501 -0.00000000000E+00  0.00000000000E+00  0.15125992032E+03  0.15125992032E+03  0.00000000000E+00 0.  1.
          1   -1    0    0  501    0  0.00000000000E+00 -0.00000000000E+00 -0.10547685973E+03  0.10547685973E+03  0.00000000000E+00 0. -1.
         23    2    1    2    0    0 -0.52217325945E+02  0.10371672865E+02  0.63799471870E+02  0.15009838471E+03  0.12499972701E+03 0.  0.
          5    1    3    3  502    0  0.30340348008E+02  0.37752385749E+02  0.25600199766E+02  0.54983993807E+02  0.47000000000E+01 0.  1.
         -5    1    3    3    0  502 -0.82557673953E+02 -0.27380712885E+02  0.38199272104E+02  0.95114390898E+02  0.47000000000E+01 0.  1.
        -11    1    1    2    0    0  0.11225139460E+02  0.36384038068E+02 -0.22618180777E+02  0.44287516116E+02  0.00000000000E+00 0.  1.
         11    1    1    2    0    0  0.40992186485E+02 -0.46755710933E+02  0.46017694974E+01  0.62350879225E+02  0.00000000000E+00 0. -1.
<mgrwt>
<rscale>  0 0.12741945E+03</rscale>
<asrwt>0</asrwt>
<pdfrwt beam="2">  1        1 0.16227209E-01 0.13586446E+03</pdfrwt>
<pdfrwt beam="1">  1       -1 0.23270757E-01 0.13586446E+03</pdfrwt>
<totfact> 0.50311135E+03</totfact>
</mgrwt>
</event>
<event>
 7    1  0.6095443E-006  0.1701576E+03  0.7546771E-02  0.1185020E+00
          2   -1    0    0  501    0  0.00000000000E+00  0.00000000000E+00  0.67044642156E+02  0.67044642156E+02  0.00000000000E+00 0. -1.
         -2   -1    0    0    0  501 -0.00000000000E+00 -0.00000000000E+00 -0.65680049480E+03  0.65680049480E+03  0.00000000000E+00 0.  1.
         23    2    1    2    0    0  0.84978235069E+01  0.11513443859E+03 -0.54766559274E+03  0.57349036583E+03  0.12500178507E+03 0.  0.
          5    1    3    3  502    0  0.38174926795E+02  0.24394499062E+02 -0.53942049884E+02  0.70599230633E+02  0.47000000000E+01 0.  1.
         -5    1    3    3    0  502 -0.29677103288E+02  0.90739939524E+02 -0.49372354286E+03  0.50289113520E+03  0.47000000000E+01 0.  1.
        -11    1    1    2    0    0  0.30589190632E+02 -0.38817421829E+02 -0.41615559828E+02  0.64609176135E+02  0.00000000000E+00 0.  1.
         11    1    1    2    0    0 -0.39087014139E+02 -0.76317016756E+02 -0.47470007456E+00  0.85745594994E+02  0.00000000000E+00 0. -1.
<mgrwt>
<rscale>  0 0.16330052E+03</rscale>
<asrwt>0</asrwt>
<pdfrwt beam="1">  1        2 0.10314560E-01 0.17015757E+03</pdfrwt>
<pdfrwt beam="2">  1       -2 0.10104623E+00 0.17015757E+03</pdfrwt>
<totfact> 0.51149182E+02</totfact>
</mgrwt>
</event>
<event>
 7    1  0.6095443E-006  0.1366142E+03  0.7546771E-02  0.1229819E+00
         -2   -1    0    0    0  501 -0.00000000000E+00  0.00000000000E+00  0.14748357708E+03  0.14748357708E+03  0.00000000000E+00 0.  1.
          2   -1    0    0  501    0  0.00000000000E+00 -0.00000000000E+00 -0.12819263271E+03  0.12819263271E+03  0.00000000000E+00 0. -1.
         23    2    1    2    0    0 -0.54199324362E+02  0.10018978237E+02  0.74454123259E+02  0.15558553938E+03  0.12500198761E+03 0.  0.
          5    1    3    3  502    0  0.20794594915E+02  0.44328859510E+02  0.85800105121E+01  0.49931648716E+02  0.47000000000E+01 0. -1.
         -5    1    3    3    0  502 -0.74993919278E+02 -0.34309881273E+02  0.65874112747E+02  0.10565389066E+03  0.47000000000E+01 0. -1.
        -11    1    1    2    0    0  0.10379897549E+02 -0.44565848859E+02 -0.43394990054E+02  0.63063319921E+02  0.00000000000E+00 0. -1.
         11    1    1    2    0    0  0.43819426814E+02  0.34546870622E+02 -0.11768188838E+02  0.57027350496E+02  0.00000000000E+00 0.  1.
<mgrwt>
<rscale>  0 0.12842038E+03</rscale>
<asrwt>0</asrwt>
<pdfrwt beam="2">  1        2 0.19721943E-01 0.13661421E+03</pdfrwt>
<pdfrwt beam="1">  1       -2 0.22689781E-01 0.13661421E+03</pdfrwt>
<totfact> 0.45528084E+03</totfact>
</mgrwt>
</event>
<event>
 7    1  0.6095443E-006  0.2036626E+03  0.7546771E-02  0.1150726E+00
          1   -1    0    0  501    0  0.00000000000E+00  0.00000000000E+00  0.74439174851E+02  0.74439174851E+02  0.00000000000E+00 0. -1.
         -1   -1    0    0    0  501 -0.00000000000E+00 -0.00000000000E+00 -0.52209415877E+03  0.52209415877E+03  0.00000000000E+00 0.  1.
         23    2    1    2    0    0 -0.15933824477E+02 -0.15999957400E+03 -0.18425904627E+03  0.27464498179E+03  0.12499887778E+03 0.  0.
          5    1    3    3  502    0 -0.35844381762E+01 -0.17634912332E+02 -0.11368997893E+03  0.11520130051E+03  0.47000000000E+01 0.  1.
         -5    1    3    3    0  502 -0.12349386301E+02 -0.14236466167E+03 -0.70569067341E+02  0.15944368127E+03  0.47000000000E+01 0.  1.
        -11    1    1    2    0    0  0.15252235763E+02 -0.63519313167E+01 -0.11933345468E+02  0.20380933768E+02  0.00000000000E+00 0. -1.
         11    1    1    2    0    0  0.68158871407E+00  0.16635150531E+03 -0.25146259217E+03  0.30150741806E+03  0.00000000000E+00 0.  1.
<mgrwt>
<rscale>  0 0.19883454E+03</rscale>
<asrwt>0</asrwt>
<pdfrwt beam="1">  1        1 0.11452181E-01 0.20366264E+03</pdfrwt>
<pdfrwt beam="2">  1       -1 0.80322176E-01 0.20366264E+03</pdfrwt>
<totfact> 0.86091524E+02</totfact>
</mgrwt>
</event>
<event>
 7    1  0.6095443E-006  0.2046441E+03  0.7546771E-02  0.1149126E+00
         -1   -1    0    0    0  501 -0.00000000000E+00  0.00000000000E+00  0.56530906674E+02  0.56530906674E+02  0.00000000000E+00 0.  1.
          1   -1    0    0  501    0  0.00000000000E+00 -0.00000000000E+00 -0.68745867623E+03  0.68745867623E+03  0.00000000000E+00 0. -1.
         23    2    1    2    0    0  0.15921437447E+03 -0.30122072912E+02 -0.33957245811E+03  0.39647025390E+03  0.12499060607E+03 0.  0.
          5    1    3    3  502    0  0.16842119233E+03 -0.14734433996E+02 -0.23083357674E+03  0.28616259665E+03  0.47000000000E+01 0.  1.
         -5    1    3    3    0  502 -0.92068178590E+01 -0.15387638916E+02 -0.10873888137E+03  0.11030765725E+03  0.47000000000E+01 0.  1.
        -11    1    1    2    0    0 -0.96290440309E+02  0.18844474470E+02 -0.25668048215E+03  0.27479416484E+03  0.00000000000E+00 0. -1.
         11    1    1    2    0    0 -0.62923934158E+02  0.11277598442E+02 -0.34674829296E+02  0.72725164168E+02  0.00000000000E+00 0.  1.
<mgrwt>
<rscale>  0 0.20072832E+03</rscale>
<asrwt>0</asrwt>
<pdfrwt beam="2">  1        1 0.10576288E+00 0.20464410E+03</pdfrwt>
<pdfrwt beam="1">  1       -1 0.86970618E-02 0.20464410E+03</pdfrwt>
<totfact> 0.21773039E+03</totfact>
</mgrwt>
</event>
<event>
 7    1  0.6095443E-006  0.1268765E+03  0.7546771E-02  0.1247263E+00
         -3   -1    0    0    0  501 -0.00000000000E+00  0.00000000000E+00  0.47981682761E+02  0.47981682761E+02  0.00000000000E+00 0.  1.
          3   -1    0    0  501    0  0.00000000000E+00 -0.00000000000E+00 -0.25366179348E+03  0.25366179348E+03  0.00000000000E+00 0. -1.
         23    2    1    2    0    0 -0.17306951693E+02  0.13172718438E+02 -0.10933474004E+03  0.16748651018E+03  0.12499837848E+03 0.  0.
          5    1    3    3  502    0 -0.58146907532E+02 -0.18405512527E+02 -0.20283782128E+02  0.64446470535E+02  0.47000000000E+01 0.  1.
         -5    1    3    3    0  502  0.40839955839E+02  0.31578230965E+02 -0.89050957915E+02  0.10304003964E+03  0.47000000000E+01 0.  1.
        -11    1    1    2    0    0  0.28959816729E+02  0.64408644057E+01  0.51657155665E+01  0.30113789807E+02  0.00000000000E+00 0.  1.
         11    1    1    2    0    0 -0.11652865036E+02 -0.19613582844E+02 -0.10151108624E+03  0.10404317626E+03  0.00000000000E+00 0. -1.
<mgrwt>
<rscale>  0 0.11750962E+03</rscale>
<asrwt>0</asrwt>
<pdfrwt beam="2">  1        3 0.39024891E-01 0.12687650E+03</pdfrwt>
<pdfrwt beam="1">  1       -3 0.73817973E-02 0.12687650E+03</pdfrwt>
<totfact> 0.17983464E+03</totfact>
</mgrwt>
</event>
<event>
 7    1  0.6095443E-006  0.1590571E+03  0.7546771E-02  0.1197666E+00
         -1   -1    0    0    0  501 -0.00000000000E+00  0.00000000000E+00  0.10340110456E+03  0.10340110456E+03  0.00000000000E+00 0.  1.
          1   -1    0    0  501    0  0.00000000000E+00 -0.00000000000E+00 -0.23482562405E+03  0.23482562405E+03  0.00000000000E+00 0. -1.
         23    2    1    2    0    0  0.25484707790E+02 -0.95008135046E+02 -0.12847908981E+03  0.20446525873E+03  0.12499259758E+03 0.  0.
          5    1    3    3  502    0  0.20184216321E+02  0.28289855296E+02 -0.35278532369E+02  0.49743173876E+02  0.47000000000E+01 0.  1.
         -5    1    3    3    0  502  0.53004914687E+01 -0.12329799034E+03 -0.93200557445E+02  0.15472208485E+03  0.47000000000E+01 0.  1.
        -11    1    1    2    0    0 -0.52578987931E+02  0.66521776958E+02  0.21489501347E+02  0.87472826921E+02  0.00000000000E+00 0.  1.
         11    1    1    2    0    0  0.27094280141E+02  0.28486358088E+02 -0.24434931019E+02  0.46288642963E+02  0.00000000000E+00 0. -1.
<mgrwt>
<rscale>  0 0.15230749E+03</rscale>
<asrwt>0</asrwt>
<pdfrwt beam="2">  1        1 0.36127019E-01 0.15905711E+03</pdfrwt>
<pdfrwt beam="1">  1       -1 0.15907862E-01 0.15905711E+03</pdfrwt>
<totfact> 0.34022050E+03</totfact>
</mgrwt>
</event>
<event>
 7    1  0.6095443E-006  0.1485511E+03  0.7546771E-02  0.1210033E+00
         -4   -1    0    0    0  501 -0.00000000000E+00  0.00000000000E+00  0.16354141022E+03  0.16354141022E+03  0.00000000000E+00 0.  1.
          4   -1    0    0  501    0  0.00000000000E+00 -0.00000000000E+00 -0.12037680089E+03  0.12037680089E+03  0.00000000000E+00 0. -1.
         23    2    1    2    0    0  0.80146424797E+02  0.44621626443E+01  0.53248061835E+02  0.15780619937E+03  0.12499632062E+03 0.  0.
          5    1    3    3  502    0  0.25882717447E+02 -0.40089089654E+02  0.70589067039E+02  0.85334380862E+02  0.47000000000E+01 0. -1.
         -5    1    3    3    0  502  0.54263707350E+02  0.44551252298E+02 -0.17341005204E+02  0.72471818510E+02  0.47000000000E+01 0. -1.
        -11    1    1    2    0    0 -0.61437799479E+02 -0.12477409150E+02 -0.50735303032E+02  0.80649612011E+02  0.00000000000E+00 0. -1.
         11    1    1    2    0    0 -0.18708625319E+02  0.80152465053E+01  0.40651850523E+02  0.45462399725E+02  0.00000000000E+00 0.  1.
<mgrwt>
<rscale>  0 0.14247804E+03</rscale>
<asrwt>0</asrwt>
<pdfrwt beam="2">  1        4 0.18519508E-01 0.14855114E+03</pdfrwt>
<pdfrwt beam="1">  1       -4 0.25160217E-01 0.14855114E+03</pdfrwt>
<totfact> 0.64675314E+02</totfact>
</mgrwt>
</event>
<event>
 7    1  0.6095443E-006  0.1286285E+03  0.7546771E-02  0.1242797E+00
          2   -1    0    0  501    0  0.00000000000E+00  0.00000000000E+00  0.13800729100E+03  0.13800729100E+03  0.00000000000E+00 0. -1.
         -2   -1    0    0    0  501 -0.00000000000E+00 -0.00000000000E+00 -0.93721217921E+02  0.93721217921E+02  0.00000000000E+00 0.  1.
         23    2    1    2    0    0 -0.22009982383E+02 -0.20897550321E+02  0.15481245849E+02  0.12955675348E+03  0.12499654581E+03 0.  0.
          5    1    3    3  502    0  0.46727945871E+00 -0.65161315764E+02 -0.20035657515E+02  0.68335444641E+02  0.47000000000E+01 0.  1.
         -5    1    3    3    0  502 -0.22477261842E+02  0.44263765443E+02  0.35516903364E+02  0.61221308837E+02  0.47000000000E+01 0.  1.
        -11    1    1    2    0    0  0.54096326892E+02  0.19098660556E+02 -0.23440780807E+01  0.57416601434E+02  0.00000000000E+00 0.  1.
         11    1    1    2    0    0 -0.32086344508E+02  0.17988897646E+01  0.31148905306E+02  0.44755154006E+02  0.00000000000E+00 0. -1.
<mgrwt>
<rscale>  0 0.12018204E+03</rscale>
<asrwt>0</asrwt>
<pdfrwt beam="1">  1        2 0.21231891E-01 0.12862847E+03</pdfrwt>
<pdfrwt beam="2">  1       -2 0.14418649E-01 0.12862847E+03</pdfrwt>
<totfact> 0.88980284E+03</totfact>
</mgrwt>
</event>
<event>
 7    1  0.6095443E-006  0.1289099E+03  0.7546771E-02  0.1243437E+00
         -2   -1    0    0    0  501 -0.00000000000E+00  0.00000000000E+00  0.23073699892E+02  0.23073699892E+02  0.00000000000E+00 0. -1.
          2   -1    0    0  501    0  0.00000000000E+00 -0.00000000000E+00 -0.57474355809E+03  0.57474355809E+03  0.00000000000E+00 0.  1.
         23    2    1    2    0    0 -0.17959629635E+02 -0.25872149925E+02 -0.25125142159E+03  0.28239162530E+03  0.12500334694E+03 0.  0.
          5    1    3    3  502    0  0.84266127197E+01 -0.19656085854E+02  0.67608728631E+01  0.22916564204E+02  0.47000000000E+01 0.  1.
         -5    1    3    3    0  502 -0.26386242355E+02 -0.62160640707E+01 -0.25801229446E+03  0.25947506109E+03  0.47000000000E+01 0.  1.
        -11    1    1    2    0    0  0.51840065706E+02  0.25306728877E+02 -0.13911507861E+03  0.15060155389E+03  0.00000000000E+00 0. -1.
         11    1    1    2    0    0 -0.33880436070E+02  0.56542104759E+00 -0.16130335800E+03  0.16482407879E+03  0.00000000000E+00 0.  1.
<mgrwt>
<rscale>  0 0.11979423E+03</rscale>
<asrwt>0</asrwt>
<pdfrwt beam="2">  1        2 0.88422087E-01 0.12890986E+03</pdfrwt>
<pdfrwt beam="1">  1       -2 0.35498000E-02 0.12890986E+03</pdfrwt>
<totfact> 0.16449714E+04</totfact>
</mgrwt>
</event>
<event>
 7    1  0.6095443E-006  0.1483314E+03  0.7546771E-02  0.1211937E+00
         -4   -1    0    0    0  501 -0.00000000000E+00  0.00000000000E+00  0.15333954299E+03  0.15333954299E+03  0.00000000000E+00 0.  1.
          4   -1    0    0  501    0  0.00000000000E+00 -0.00000000000E+00 -0.12422486638E+03  0.12422486638E+03  0.00000000000E+00 0. -1.
         23    2    1    2    0    0  0.15541606769E+02  0.78332619928E+02  0.45648998813E+02  0.15519672916E+03  0.12499861105E+03 0.  0.
          5    1    3    3  502    0 -0.18336800487E+02  0.41187278728E+02  0.81508640966E+02  0.93265099224E+02  0.47000000000E+01 0. -1.
         -5    1    3    3    0  502  0.33878407256E+02  0.37145341200E+02 -0.35859642153E+02  0.61931629935E+02  0.47000000000E+01 0. -1.
        -11    1    1    2    0    0 -0.50952701134E+02 -0.44333523474E+02  0.70478893507E+01  0.67906640329E+02  0.00000000000E+00 0.  1.
         11    1    1    2    0    0  0.35411094365E+02 -0.33999096454E+02 -0.23582211548E+02  0.54461039885E+02  0.00000000000E+00 0. -1.
<mgrwt>
<rscale>  0 0.14103962E+03</rscale>
<asrwt>0</asrwt>
<pdfrwt beam="2">  1        4 0.19111518E-01 0.14833136E+03</pdfrwt>
<pdfrwt beam="1">  1       -4 0.23590699E-01 0.14833136E+03</pdfrwt>
<totfact> 0.68821909E+02</totfact>
</mgrwt>
</event>
<event>
 7    1  0.6095443E-006  0.2499121E+03  0.7546771E-02  0.1115780E+00
         -1   -1    0    0    0  501 -0.00000000000E+00  0.00000000000E+00  0.16790993885E+03  0.16790993885E+03  0.00000000000E+00 0.  1.
          1   -1    0    0  501    0  0.00000000000E+00 -0.00000000000E+00 -0.53954700471E+03  0.53954700471E+03  0.00000000000E+00 0. -1.
         23    2    1    2    0    0 -0.19912817067E+03  0.84721594500E+02  0.19961926644E+02  0.25070805591E+03  0.12500509531E+03 0.  0.
          5    1    3    3  502    0 -0.20312988505E+03  0.45709752444E+02  0.28771360580E+02  0.21024036924E+03  0.47000000000E+01 0.  1.
         -5    1    3    3    0  502  0.40017143728E+01  0.39011842057E+02 -0.88094339358E+01  0.40467686675E+02  0.47000000000E+01 0.  1.
        -11    1    1    2    0    0  0.24213436840E+02 -0.25927134976E+02 -0.17376239460E+02  0.39502411945E+02  0.00000000000E+00 0.  1.
         11    1    1    2    0    0  0.17491473383E+03 -0.58794459524E+02 -0.37422275305E+03  0.41724647569E+03  0.00000000000E+00 0. -1.
<mgrwt>
<rscale>  0 0.24612255E+03</rscale>
<asrwt>0</asrwt>
<pdfrwt beam="2">  1        1 0.83007233E-01 0.24991209E+03</pdfrwt>
<pdfrwt beam="1">  1       -1 0.25832298E-01 0.24991209E+03</pdfrwt>
<totfact> 0.54007793E+02</totfact>
</mgrwt>
</event>
<event>
 7    1  0.6095443E-006  0.1296291E+03  0.7546771E-02  0.1242927E+00
          1   -1    0    0  501    0  0.00000000000E+00  0.00000000000E+00  0.92065603758E+01  0.92065603758E+01  0.00000000000E+00 0. -1.
         -1   -1    0    0    0  501 -0.00000000000E+00 -0.00000000000E+00 -0.18302524401E+04  0.18302524401E+04  0.00000000000E+00 0.  1.
         23    2    1    2    0    0 -0.23849650723E+02 -0.24601073523E+02 -0.14682054374E+04  0.14739168583E+04  0.12501871902E+03 0.  0.
          5    1    3    3  502    0 -0.62079645371E+02 -0.41944800763E+02 -0.12056636317E+04  0.12079983988E+04  0.47000000000E+01 0. -1.
         -5    1    3    3    0  502  0.38229994648E+02  0.17343727240E+02 -0.26254180570E+03  0.26591845950E+03  0.47000000000E+01 0. -1.
        -11    1    1    2    0    0  0.24141342892E+01  0.53816587844E+02 -0.26677269933E+03  0.27215753945E+03  0.00000000000E+00 0.  1.
         11    1    1    2    0    0  0.21435516434E+02 -0.29215514321E+02 -0.86067742937E+02  0.93384602671E+02  0.00000000000E+00 0. -1.
<mgrwt>
<rscale>  0 0.12010305E+03</rscale>
<asrwt>0</asrwt>
<pdfrwt beam="1">  1        1 0.14163949E-02 0.12962908E+03</pdfrwt>
<pdfrwt beam="2">  1       -1 0.28157710E+00 0.12962908E+03</pdfrwt>
<totfact> 0.49329020E+02</totfact>
</mgrwt>
</event>
<event>
 6    1  0.6095443E-006  0.1932851E+03  0.7546771E-02  0.1171996E+00
          2   -1    0    0  501    0  0.00000000000E+00  0.00000000000E+00  0.52917917909E+03  0.52917917909E+03  0.00000000000E+00 0. -1.
         -2   -1    0    0    0  501 -0.00000000000E+00 -0.00000000000E+00 -0.52456651815E+02  0.52456651815E+02  0.00000000000E+00 0.  1.
          5    1    1    2  502    0  0.22072023261E+02  0.24414898945E+02  0.13360168415E+03  0.13767629247E+03  0.47000000000E+01 0. -1.
         -5    1    1    2    0  502 -0.66421637433E+02 -0.11019498662E+03  0.85798195477E+02  0.15471971220E+03  0.47000000000E+01 0.  1.
        -11    1    1    2    0    0  0.12346496363E+02  0.83621726510E+02  0.23610876392E+03  0.25078352720E+03  0.00000000000E+00 0. -1.
         11    1    1    2    0    0  0.32003117809E+02  0.21583611639E+01  0.21213883732E+02  0.38456299035E+02  0.00000000000E+00 0.  1.
<mgrwt>
<rscale>  0 0.17573439E+03</rscale>
<asrwt>0</asrwt>
<pdfrwt beam="1">  1        2 0.81412178E-01 0.19328507E+03</pdfrwt>
<pdfrwt beam="2">  1       -2 0.80702545E-02 0.19328507E+03</pdfrwt>
<totfact> 0.53383362E+03</totfact>
</mgrwt>
</event>
<event>
 7    1  0.6095443E-006  0.2797568E+03  0.7546771E-02  0.1097721E+00
         -1   -1    0    0    0  501 -0.00000000000E+00  0.00000000000E+00  0.52907768959E+02  0.52907768959E+02  0.00000000000E+00 0.  1.
          1   -1    0    0  501    0  0.00000000000E+00 -0.00000000000E+00 -0.14101901601E+04  0.14101901601E+04  0.00000000000E+00 0. -1.
         23    2    1    2    0    0  0.24627333020E+03 -0.44591129522E+02 -0.72021273632E+03  0.77263849306E+03  0.12499973362E+03 0.  0.
          5    1    3    3  502    0  0.16719167968E+03  0.16303071373E+02 -0.55171955642E+03  0.57674553039E+03  0.47000000000E+01 0.  1.
         -5    1    3    3    0  502  0.79081650521E+02 -0.60894200895E+02 -0.16849317991E+03  0.19589296268E+03  0.47000000000E+01 0.  1.
        -11    1    1    2    0    0 -0.21916342229E+02 -0.22057910694E+02 -0.56549314780E+02  0.64534506142E+02  0.00000000000E+00 0. -1.
         11    1    1    2    0    0 -0.22435698797E+03  0.66649040216E+02 -0.58052034004E+03  0.62592492985E+03  0.00000000000E+00 0.  1.
<mgrwt>
<rscale>  0 0.27631104E+03</rscale>
<asrwt>0</asrwt>
<pdfrwt beam="2">  1        1 0.21695236E+00 0.27975678E+03</pdfrwt>
<pdfrwt beam="1">  1       -1 0.81396559E-02 0.27975678E+03</pdfrwt>
<totfact> 0.68932116E+02</totfact>
</mgrwt>
</event>
<event>
 7    1  0.6095443E-006  0.1272084E+03  0.7546771E-02  0.1244388E+00
         -2   -1    0    0    0  501 -0.00000000000E+00  0.00000000000E+00  0.81199292903E+02  0.81199292903E+02  0.00000000000E+00 0.  1.
          2   -1    0    0  501    0  0.00000000000E+00 -0.00000000000E+00 -0.18687356047E+03  0.18687356047E+03  0.00000000000E+00 0. -1.
         23    2    1    2    0    0 -0.17239827698E+02 -0.16095903190E+02 -0.47499654886E+01  0.12729707633E+03  0.12500277482E+03 0.  0.
          5    1    3    3  502    0 -0.61536846982E+02 -0.38437070810E+02 -0.19590938056E+02  0.75299978770E+02  0.47000000000E+01 0.  1.
         -5    1    3    3    0  502  0.44297019283E+02  0.22341167620E+02  0.14840972567E+02  0.51997097561E+02  0.47000000000E+01 0.  1.
        -11    1    1    2    0    0 -0.23773805720E+02  0.42767634589E+02 -0.55860741190E+02  0.74260937329E+02  0.00000000000E+00 0.  1.
         11    1    1    2    0    0  0.41013633418E+02 -0.26671731400E+02 -0.45063560888E+02  0.66514839712E+02  0.00000000000E+00 0. -1.
<mgrwt>
<rscale>  0 0.11922081E+03</rscale>
<asrwt>0</asrwt>
<pdfrwt beam="2">  1        2 0.28749778E-01 0.12720843E+03</pdfrwt>
<pdfrwt beam="1">  1       -2 0.12492199E-01 0.12720843E+03</pdfrwt>
<totfact> 0.80204395E+03</totfact>
</mgrwt>
</event>
<event>
 7    1  0.6095443E-006  0.1652830E+03  0.7546771E-02  0.1189819E+00
          2   -1    0    0  501    0  0.00000000000E+00  0.00000000000E+00  0.73887192570E+02  0.73887192570E+02  0.00000000000E+00 0. -1.
         -2   -1    0    0    0  501 -0.00000000000E+00 -0.00000000000E+00 -0.33448701660E+03  0.33448701660E+03  0.00000000000E+00 0.  1.
         23    2    1    2    0    0 -0.78937138512E+02 -0.73906045692E+02 -0.18422899166E+03  0.24750515960E+03  0.12500122892E+03 0.  0.
          5    1    3    3  502    0 -0.29565912339E+01 -0.86145567153E+02 -0.78734540889E+02  0.11683757144E+03  0.47000000000E+01 0.  1.
         -5    1    3    3    0  502 -0.75980547278E+02  0.12239521461E+02 -0.10549445077E+03  0.13066758815E+03  0.47000000000E+01 0.  1.
        -11    1    1    2    0    0  0.53294635404E+02 -0.82847600112E+00 -0.35513879860E+01  0.53419255816E+02  0.00000000000E+00 0. -1.
         11    1    1    2    0    0  0.25642503108E+02  0.74734521693E+02 -0.72819444385E+02  0.10744979376E+03  0.00000000000E+00 0.  1.
<mgrwt>
<rscale>  0 0.15901043E+03</rscale>
<asrwt>0</asrwt>
<pdfrwt beam="1">  1        2 0.11367260E-01 0.16528304E+03</pdfrwt>
<pdfrwt beam="2">  1       -2 0.51459541E-01 0.16528304E+03</pdfrwt>
<totfact> 0.19342997E+03</totfact>
</mgrwt>
</event>
<event>
 7    1  0.6095443E-006  0.1377112E+03  0.7546771E-02  0.1231865E+00
         -2   -1    0    0    0  501 -0.00000000000E+00  0.00000000000E+00  0.35226819526E+02  0.35226819526E+02  0.00000000000E+00 0.  1.
          2   -1    0    0  501    0  0.00000000000E+00 -0.00000000000E+00 -0.40873720200E+03  0.40873720200E+03  0.00000000000E+00 0. -1.
         23    2    1    2    0    0  0.31881420478E+02  0.48189127079E+02 -0.18476420279E+03  0.23043910767E+03  0.12500301905E+03 0.  0.
          5    1    3    3  502    0  0.66274997756E+02  0.57337590032E+02 -0.17059482986E+03  0.19184540790E+03  0.47000000000E+01 0.  1.
         -5    1    3    3    0  502 -0.34393577278E+02 -0.91484629527E+01 -0.14169372927E+02  0.38593699765E+02  0.47000000000E+01 0.  1.
        -11    1    1    2    0    0 -0.22730776353E+02  0.13251086562E+02 -0.18130397574E+02  0.31952946732E+02  0.00000000000E+00 0.  1.
         11    1    1    2    0    0 -0.91506441246E+01 -0.61440213641E+02 -0.17061578211E+03  0.18157196713E+03  0.00000000000E+00 0. -1.
<mgrwt>
<rscale>  0 0.12707253E+03</rscale>
<asrwt>0</asrwt>
<pdfrwt beam="2">  1        2 0.62882646E-01 0.13771119E+03</pdfrwt>
<pdfrwt beam="1">  1       -2 0.54195108E-02 0.13771119E+03</pdfrwt>
<totfact> 0.12771154E+04</totfact>
</mgrwt>
</event>
<event>
 7    1  0.6095443E-006  0.1257264E+03  0.7546771E-02  0.1247314E+00
          2   -1    0    0  501    0  0.00000000000E+00  0.00000000000E+00  0.16740787598E+03  0.16740787598E+03  0.00000000000E+00 0. -1.
         -2   -1    0    0    0  501 -0.00000000000E+00 -0.00000000000E+00 -0.73910893131E+02  0.73910893131E+02  0.00000000000E+00 0.  1.
         23    2    1    2    0    0  0.12147890343E+02 -0.59774849924E+01  0.42262280202E+02  0.13263943438E+03  0.12499527055E+03 0.  0.
          5    1    3    3  502    0 -0.29534865878E+01 -0.25297230030E+02  0.81842218720E+02  0.85842365387E+02  0.47000000000E+01 0.  1.
         -5    1    3    3    0  502  0.15101376931E+02  0.19319745038E+02 -0.39579938517E+02  0.46797068995E+02  0.47000000000E+01 0.  1.
        -11    1    1    2    0    0 -0.13288240537E+02  0.47899769558E+02  0.11749626174E+02  0.51078556905E+02  0.00000000000E+00 0. -1.
         11    1    1    2    0    0  0.11403501942E+01 -0.41922284566E+02  0.39485076469E+02  0.57600777821E+02  0.00000000000E+00 0.  1.
<mgrwt>
<rscale>  0 0.11747942E+03</rscale>
<asrwt>0</asrwt>
<pdfrwt beam="1">  1        2 0.25755058E-01 0.12572637E+03</pdfrwt>
<pdfrwt beam="2">  1       -2 0.11370907E-01 0.12572637E+03</pdfrwt>
<totfact> 0.10494689E+04</totfact>
</mgrwt>
</event>
<event>
 7    1  0.6095443E-006  0.1258506E+03  0.7546771E-02  0.1249425E+00
         -1   -1    0    0    0  501 -0.00000000000E+00  0.00000000000E+00  0.11849266740E+03  0.11849266740E+03  0.00000000000E+00 0.  1.
          1   -1    0    0  501    0  0.00000000000E+00 -0.00000000000E+00 -0.16847976112E+03  0.16847976112E+03  0.00000000000E+00 0. -1.
         23    2    1    2    0    0  0.11451603295E+02 -0.90794449213E+01  0.63633419862E+02  0.14102337217E+03  0.12499921534E+03 0.  0.
          5    1    3    3  502    0  0.89843843187E+01  0.47908017262E+02 -0.76961655140E+01  0.49570336323E+02  0.47000000000E+01 0.  1.
         -5    1    3    3    0  502  0.24672189763E+01 -0.56987462183E+02  0.71329585376E+02  0.91453035846E+02  0.47000000000E+01 0.  1.
        -11    1    1    2    0    0  0.16723163208E+02  0.13686795521E+02 -0.11534131310E+03  0.11734824697E+03  0.00000000000E+00 0. -1.
         11    1    1    2    0    0 -0.28174766503E+02 -0.46073505999E+01  0.17207995127E+01  0.28600809394E+02  0.00000000000E+00 0.  1.
<mgrwt>
<rscale>  0 0.11624426E+03</rscale>
<asrwt>0</asrwt>
<pdfrwt beam="2">  1        1 0.25919963E-01 0.12585062E+03</pdfrwt>
<pdfrwt beam="1">  1       -1 0.18229641E-01 0.12585062E+03</pdfrwt>
<totfact> 0.40951821E+03</totfact>
</mgrwt>
</event>
<event>
 7    1  0.6095443E-006  0.1276009E+03  0.7546771E-02  0.1244547E+00
          4   -1    0    0  501    0  0.00000000000E+00  0.00000000000E+00  0.25039157345E+03  0.25039157345E+03  0.00000000000E+00 0. -1.
         -4   -1    0    0    0  501 -0.00000000000E+00 -0.00000000000E+00 -0.50443428237E+02  0.50443428237E+02  0.00000000000E+00 0.  1.
         23    2    1    2    0    0  0.24969100937E+02 -0.57359189573E+01  0.10669415723E+03  0.16632987954E+03  0.12500251547E+03 0.  0.
          5    1    3    3  502    0 -0.34837549235E+02  0.19831597505E+02 -0.10644447730E+01  0.40375365496E+02  0.47000000000E+01 0. -1.
         -5    1    3    3    0  502  0.59806650171E+02 -0.25567516463E+02  0.10775860200E+03  0.12595451405E+03  0.47000000000E+01 0. -1.
        -11    1    1    2    0    0  0.99158365786E+01  0.41273009540E+02  0.63855937075E+02  0.76677022838E+02  0.00000000000E+00 0. -1.
         11    1    1    2    0    0 -0.34884937515E+02 -0.35537090583E+02  0.29398050912E+02  0.57828099311E+02  0.00000000000E+00 0.  1.
<mgrwt>
<rscale>  0 0.11912536E+03</rscale>
<asrwt>0</asrwt>
<pdfrwt beam="1">  1        4 0.38521780E-01 0.12760088E+03</pdfrwt>
<pdfrwt beam="2">  1       -4 0.77605276E-02 0.12760088E+03</pdfrwt>
<totfact> 0.12383433E+03</totfact>
</mgrwt>
</event>
<event>
 7    1  0.6095443E-006  0.3666739E+03  0.7546771E-02  0.1056853E+00
          2   -1    0    0  501    0  0.00000000000E+00  0.00000000000E+00  0.29039695972E+03  0.29039695972E+03  0.00000000000E+00 0. -1.
         -2   -1    0    0    0  501 -0.00000000000E+00 -0.00000000000E+00 -0.50062100091E+03  0.50062100091E+03  0.00000000000E+00 0.  1.
         23    2    1    2    0    0 -0.68911091125E+02 -0.33775138164E+03 -0.22991638763E+03  0.43279477552E+03  0.12500015256E+03 0.  0.
          5    1    3    3  502    0 -0.16838983297E+01 -0.32754152579E+02  0.14512126165E+02  0.36171284614E+02  0.47000000000E+01 0.  1.
         -5    1    3    3    0  502 -0.67227192795E+02 -0.30499722906E+03 -0.24442851379E+03  0.39662349091E+03  0.47000000000E+01 0.  1.
        -11    1    1    2    0    0 -0.20109428136E+02  0.99450668751E+02 -0.10712179715E+02  0.10202732678E+03  0.00000000000E+00 0. -1.
         11    1    1    2    0    0  0.89020519261E+02  0.23830071289E+03  0.30404526154E+02  0.25619585833E+03  0.00000000000E+00 0.  1.
<mgrwt>
<rscale>  0 0.36440485E+03</rscale>
<asrwt>0</asrwt>
<pdfrwt beam="1">  1        2 0.44676456E-01 0.36667393E+03</pdfrwt>
<pdfrwt beam="2">  1       -2 0.77018614E-01 0.36667393E+03</pdfrwt>
<totfact> 0.17576158E+02</totfact>
</mgrwt>
</event>
<event>
 7    1  0.6095443E-006  0.1391391E+03  0.7546771E-02  0.1225929E+00
          1   -1    0    0  501    0  0.00000000000E+00  0.00000000000E+00  0.15878459691E+03  0.15878459691E+03  0.00000000000E+00 0. -1.
         -1   -1    0    0    0  501 -0.00000000000E+00 -0.00000000000E+00 -0.11317346582E+03  0.11317346582E+03  0.00000000000E+00 0.  1.
         23    2    1    2    0    0  0.17649620697E+02 -0.58494595541E+02 -0.25476830503E+02  0.14145231938E+03  0.12500625163E+03 0.  0.
          5    1    3    3  502    0  0.37319356354E+02 -0.84467793241E+02 -0.45364496867E+02  0.10299305816E+03  0.47000000000E+01 0.  1.
         -5    1    3    3    0  502 -0.19669735657E+02  0.25973197700E+02  0.19887666364E+02  0.38459261213E+02  0.47000000000E+01 0.  1.
        -11    1    1    2    0    0 -0.39561288567E+02  0.50706424666E+02  0.99297819929E+01  0.65075630046E+02  0.00000000000E+00 0.  1.
         11    1    1    2    0    0  0.21911667870E+02  0.77881708745E+01  0.61158179601E+02  0.65430113301E+02  0.00000000000E+00 0. -1.
<mgrwt>
<rscale>  0 0.13103463E+03</rscale>
<asrwt>0</asrwt>
<pdfrwt beam="1">  1        1 0.24428400E-01 0.13913910E+03</pdfrwt>
<pdfrwt beam="2">  1       -1 0.17411302E-01 0.13913910E+03</pdfrwt>
<totfact> 0.47728677E+03</totfact>
</mgrwt>
</event>
<event>
 7    1  0.6095443E-006  0.1445368E+03  0.7546771E-02  0.1216574E+00
          1   -1    0    0  501    0  0.00000000000E+00  0.00000000000E+00  0.58391206322E+03  0.58391206322E+03  0.00000000000E+00 0. -1.
         -1   -1    0    0    0  501 -0.00000000000E+00 -0.00000000000E+00 -0.50355698943E+02  0.50355698943E+02  0.00000000000E+00 0.  1.
         23    2    1    2    0    0  0.65938422580E+02  0.30289607154E+02  0.79551444585E+02  0.16498282067E+03  0.12500225161E+03 0.  0.
          5    1    3    3  502    0 -0.71293549465E+01 -0.13710065051E+02  0.77887234793E+02  0.79544358250E+02  0.47000000000E+01 0.  1.
         -5    1    3    3    0  502  0.73067777527E+02  0.43999672205E+02  0.16642097916E+01  0.85438462422E+02  0.47000000000E+01 0.  1.
        -11    1    1    2    0    0 -0.73545417998E+02  0.12805991533E+02  0.30355377173E+03  0.31259848729E+03  0.00000000000E+00 0. -1.
         11    1    1    2    0    0  0.76069954174E+01 -0.43095598687E+02  0.15045114797E+03  0.15668645420E+03  0.00000000000E+00 0.  1.
<mgrwt>
<rscale>  0 0.13761529E+03</rscale>
<asrwt>0</asrwt>
<pdfrwt beam="1">  1        1 0.89832621E-01 0.14453684E+03</pdfrwt>
<pdfrwt beam="2">  1       -1 0.77470310E-02 0.14453684E+03</pdfrwt>
<totfact> 0.32284279E+03</totfact>
</mgrwt>
</event>
<event>
 7    1  0.6095443E-006  0.1345562E+03  0.7546771E-02  0.1233598E+00
          2   -1    0    0  501    0  0.00000000000E+00  0.00000000000E+00  0.36492925838E+02  0.36492925838E+02  0.00000000000E+00 0. -1.
         -2   -1    0    0    0  501 -0.00000000000E+00 -0.00000000000E+00 -0.43992519009E+03  0.43992519009E+03  0.00000000000E+00 0.  1.
         23    2    1    2    0    0  0.41131203400E+02 -0.28090640774E+02 -0.30666800495E+03  0.33488900444E+03  0.12499808016E+03 0.  0.
          5    1    3    3  502    0 -0.23257848012E+02  0.19020901752E+02 -0.17949627711E+02  0.35312906034E+02  0.47000000000E+01 0.  1.
         -5    1    3    3    0  502  0.64389051412E+02 -0.47111542526E+02 -0.28871837724E+03  0.29957609841E+03  0.47000000000E+01 0.  1.
        -11    1    1    2    0    0 -0.48760697017E+01 -0.14814570622E+02 -0.81971382083E+02  0.83441926147E+02  0.00000000000E+00 0.  1.
         11    1    1    2    0    0 -0.36255133698E+02  0.42905211396E+02 -0.14792877221E+02  0.58087185342E+02  0.00000000000E+00 0. -1.
<mgrwt>
<rscale>  0 0.12594589E+03</rscale>
<asrwt>0</asrwt>
<pdfrwt beam="1">  1        2 0.56142963E-02 0.13455623E+03</pdfrwt>
<pdfrwt beam="2">  1       -2 0.67680798E-01 0.13455623E+03</pdfrwt>
<totfact> 0.26473881E+03</totfact>
</mgrwt>
</event>
<event>
 7    1  0.6095443E-006  0.1821225E+03  0.7546771E-02  0.1171262E+00
         -2   -1    0    0    0  501 -0.00000000000E+00  0.00000000000E+00  0.26385000650E+03  0.26385000650E+03  0.00000000000E+00 0.  1.
          2   -1    0    0  501    0  0.00000000000E+00 -0.00000000000E+00 -0.21293465613E+03  0.21293465613E+03  0.00000000000E+00 0. -1.
         23    2    1    2    0    0  0.12758734592E+03  0.35573680858E+02  0.19085471045E+03  0.26380699134E+03  0.12499836228E+03 0.  0.
          5    1    3    3  502    0  0.82547532817E+02  0.31509291343E+02  0.19884600631E+03  0.21764364185E+03  0.47000000000E+01 0.  1.
         -5    1    3    3    0  502  0.45039813100E+02  0.40643895146E+01 -0.79912958597E+01  0.46163349486E+02  0.47000000000E+01 0.  1.
        -11    1    1    2    0    0 -0.87540973602E+02  0.19323441772E+02 -0.99387416993E+02  0.13384571759E+03  0.00000000000E+00 0.  1.
         11    1    1    2    0    0 -0.40046372315E+02 -0.54897122629E+02 -0.40551943083E+02  0.79131953700E+02  0.00000000000E+00 0. -1.
<mgrwt>
<rscale>  0 0.17647193E+03</rscale>
<asrwt>0</asrwt>
<pdfrwt beam="2">  1        2 0.32759178E-01 0.18212251E+03</pdfrwt>
<pdfrwt beam="1">  1       -2 0.40592309E-01 0.18212251E+03</pdfrwt>
<totfact> 0.91658109E+02</totfact>
</mgrwt>
</event>
<event>
 7    1  0.6095443E-006  0.4458697E+03  0.7546771E-02  0.1028961E+00
          2   -1    0    0  501    0  0.00000000000E+00  0.00000000000E+00  0.37647920024E+03  0.37647920024E+03  0.00000000000E+00 0. -1.
         -2   -1    0    0    0  501 -0.00000000000E+00 -0.00000000000E+00 -0.13201247169E+03  0.13201247169E+03  0.00000000000E+00 0.  1.
         23    2    1    2    0    0  0.45691183538E+02 -0.38835827565E+02  0.64833415243E+02  0.15095608854E+03  0.12242737920E+03 0.  0.
          5    1    3    3  502    0  0.29490749324E+01  0.38175185203E+02 -0.44007333988E+01  0.38826514944E+02  0.47000000000E+01 0. -1.
         -5    1    3    3    0  502  0.42742108605E+02 -0.77011012768E+02  0.69234148642E+02  0.11212957359E+03  0.47000000000E+01 0.  1.
        -11    1    1    2    0    0  0.11104180682E+03 -0.42481334991E+02  0.22147574114E+02  0.12093577520E+03  0.00000000000E+00 0.  1.
         11    1    1    2    0    0 -0.15673299035E+03  0.81317162556E+02  0.15748573919E+03  0.23659980820E+03  0.00000000000E+00 0. -1.
<mgrwt>
<rscale>  0 0.44586971E+03</rscale>
<asrwt>0</asrwt>
<pdfrwt beam="1">  1        2 0.57919877E-01 0.44586971E+03</pdfrwt>
<pdfrwt beam="2">  1       -2 0.20309611E-01 0.44586971E+03</pdfrwt>
<totfact> 0.17582527E+03</totfact>
</mgrwt>
</event>
<event>
 7    1  0.6095443E-006  0.1237569E+03  0.7546771E-02  0.1245281E+00
          1   -1    0    0  501    0  0.00000000000E+00  0.00000000000E+00  0.70052288485E+02  0.70052288485E+02  0.00000000000E+00 0. -1.
         -1   -1    0    0    0  501 -0.00000000000E+00 -0.00000000000E+00 -0.20413811077E+03  0.20413811077E+03  0.00000000000E+00 0.  1.
         23    2    1    2    0    0  0.32386961442E+02  0.29992718323E+02 -0.11261566217E+03  0.16732619738E+03  0.11561699935E+03 0.  0.
          5    1    3    3  502    0  0.11072393789E+02 -0.28963810952E+02  0.70561846249E+01  0.32146228247E+02  0.47000000000E+01 0. -1.
         -5    1    3    3    0  502  0.21314567653E+02  0.58956529275E+02 -0.11967184680E+03  0.13517996913E+03  0.47000000000E+01 0.  1.
        -11    1    1    2    0    0 -0.13480435594E+02 -0.24361132498E+02  0.36340602824E+02  0.45780195871E+02  0.00000000000E+00 0. -1.
         11    1    1    2    0    0 -0.18906525848E+02 -0.56315858246E+01 -0.57810762940E+02  0.61084006010E+02  0.00000000000E+00 0.  1.
<mgrwt>
<rscale>  0 0.11868569E+03</rscale>
<asrwt>0</asrwt>
<pdfrwt beam="1">  1        1 0.10777275E-01 0.12375689E+03</pdfrwt>
<pdfrwt beam="2">  1       -1 0.31405863E-01 0.12375689E+03</pdfrwt>
<totfact> 0.51854825E+03</totfact>
</mgrwt>
</event>
<event>
 7    1  0.6095443E-006  0.1305199E+03  0.7546771E-02  0.1240409E+00
         -1   -1    0    0    0  501 -0.00000000000E+00  0.00000000000E+00  0.19530312690E+02  0.19530312690E+02  0.00000000000E+00 0.  1.
          1   -1    0    0  501    0  0.00000000000E+00 -0.00000000000E+00 -0.68482828594E+03  0.68482828594E+03  0.00000000000E+00 0. -1.
         23    2    1    2    0    0 -0.62480501411E+01 -0.37037662266E+02 -0.32917360956E+03  0.35410550926E+03  0.12499847960E+03 0.  0.
          5    1    3    3  502    0 -0.41351561010E+02 -0.68545772401E+02 -0.16892440184E+03  0.18699202670E+03  0.47000000000E+01 0. -1.
         -5    1    3    3    0  502  0.35103510869E+02  0.31508110135E+02 -0.16024920772E+03  0.16711348256E+03  0.47000000000E+01 0. -1.
        -11    1    1    2    0    0  0.38816494255E+02 -0.69729714486E+01 -0.19356039170E+03  0.19753725672E+03  0.00000000000E+00 0. -1.
         11    1    1    2    0    0 -0.32568444114E+02  0.44010633715E+02 -0.14256397198E+03  0.15271583264E+03  0.00000000000E+00 0.  1.
<mgrwt>
<rscale>  0 0.12164404E+03</rscale>
<asrwt>0</asrwt>
<pdfrwt beam="2">  1        1 0.10535818E+00 0.13051991E+03</pdfrwt>
<pdfrwt beam="1">  1       -1 0.30046639E-02 0.13051991E+03</pdfrwt>
<totfact> 0.10454912E+04</totfact>
</mgrwt>
</event>
<event>
 6    1  0.6095443E-006  0.2381534E+03  0.7546771E-02  0.1132259E+00
          2   -1    0    0  501    0  0.00000000000E+00  0.00000000000E+00  0.99305556045E+03  0.99305556045E+03  0.00000000000E+00 0. -1.
         -2   -1    0    0    0  501 -0.00000000000E+00 -0.00000000000E+00 -0.44857254967E+02  0.44857254967E+02  0.00000000000E+00 0.  1.
          5    1    1    2  502    0  0.69756739345E+02  0.47534968222E+02  0.39349634213E+03  0.40247613241E+03  0.47000000000E+01 0. -1.
         -5    1    1    2    0  502 -0.14448178013E+02  0.97689493584E+02  0.78647672831E+02  0.12633104704E+03  0.47000000000E+01 0.  1.
        -11    1    1    2    0    0 -0.28646956095E+02 -0.15043746569E+03  0.39691708563E+03  0.42543536764E+03  0.00000000000E+00 0.  1.
         11    1    1    2    0    0 -0.26661605237E+02  0.52130038863E+01  0.79137204885E+02  0.83670268317E+02  0.00000000000E+00 0. -1.
<mgrwt>
<rscale>  0 0.22219262E+03</rscale>
<asrwt>0</asrwt>
<pdfrwt beam="1">  1        2 0.15277776E+00 0.23815344E+03</pdfrwt>
<pdfrwt beam="2">  1       -2 0.69011169E-02 0.23815344E+03</pdfrwt>
<totfact> 0.31471798E+03</totfact>
</mgrwt>
</event>
<event>
 7    1  0.6095443E-006  0.1260302E+03  0.7546771E-02  0.1249155E+00
          1   -1    0    0  501    0  0.00000000000E+00  0.00000000000E+00  0.21258894278E+03  0.21258894278E+03  0.00000000000E+00 0. -1.
         -1   -1    0    0    0  501 -0.00000000000E+00 -0.00000000000E+00 -0.79158487644E+02  0.79158487644E+02  0.00000000000E+00 0.  1.
         23    2    1    2    0    0  0.15024835126E+02 -0.44890906377E+01 -0.45021800132E+01  0.12611058520E+03  0.12505083954E+03 0.  0.
          5    1    3    3  502    0  0.11550604107E+02 -0.61079522267E+02 -0.22755131706E+02  0.66362719312E+02  0.47000000000E+01 0.  1.
         -5    1    3    3    0  502  0.34742310189E+01  0.56590431629E+02  0.18252951692E+02  0.59747865892E+02  0.47000000000E+01 0.  1.
        -11    1    1    2    0    0 -0.51055018211E+02  0.73589704104E+01  0.56283748566E+02  0.76345462751E+02  0.00000000000E+00 0.  1.
         11    1    1    2    0    0  0.36030183086E+02 -0.28698797727E+01  0.81648886587E+02  0.89291382473E+02  0.00000000000E+00 0. -1.
<mgrwt>
<rscale>  0 0.11640093E+03</rscale>
<asrwt>0</asrwt>
<pdfrwt beam="1">  1        1 0.32705991E-01 0.12603020E+03</pdfrwt>
<pdfrwt beam="2">  1       -1 0.12178229E-01 0.12603020E+03</pdfrwt>
<totfact> 0.57645146E+03</totfact>
</mgrwt>
</event>
<event>
 7    1  0.6095443E-006  0.1259736E+03  0.7546771E-02  0.1248765E+00
          3   -1    0    0  501    0  0.00000000000E+00  0.00000000000E+00  0.14984127869E+02  0.14984127869E+02  0.00000000000E+00 0. -1.
         -3   -1    0    0    0  501 -0.00000000000E+00 -0.00000000000E+00 -0.10510172984E+04  0.10510172984E+04  0.00000000000E+00 0.  1.
         23    2    1    2    0    0 -0.66004518078E+01  0.14177899200E+02 -0.83791510258E+03  0.84733172804E+03  0.12499903768E+03 0.  0.
          5    1    3    3  502    0 -0.24808852634E+02 -0.34610300323E+02 -0.11828416875E+03  0.12580376240E+03  0.47000000000E+01 0. -1.
         -5    1    3    3    0  502  0.18208400826E+02  0.48788199523E+02 -0.71963093382E+03  0.72152796563E+03  0.47000000000E+01 0. -1.
        -11    1    1    2    0    0  0.41574723361E+02  0.13759169816E+02 -0.12984416818E+03  0.13703021706E+03  0.00000000000E+00 0.  1.
         11    1    1    2    0    0 -0.34974271553E+02 -0.27937069017E+02 -0.68273899766E+02  0.81639481167E+02  0.00000000000E+00 0. -1.
<mgrwt>
<rscale>  0 0.11662851E+03</rscale>
<asrwt>0</asrwt>
<pdfrwt beam="1">  1        3 0.23052497E-02 0.12597356E+03</pdfrwt>
<pdfrwt beam="2">  1       -3 0.16169502E+00 0.12597356E+03</pdfrwt>
<totfact> 0.49921613E+02</totfact>
</mgrwt>
</event>
<event>
 7    1  0.6095443E-006  0.1267692E+03  0.7546771E-02  0.1251481E+00
          2   -1    0    0  501    0  0.00000000000E+00  0.00000000000E+00  0.77635965259E+03  0.77635965259E+03  0.00000000000E+00 0. -1.
         -2   -1    0    0    0  501 -0.00000000000E+00 -0.00000000000E+00 -0.15907720532E+02  0.15907720532E+02  0.00000000000E+00 0.  1.
         23    2    1    2    0    0  0.43152466554E+01 -0.20628116052E+02  0.33450313296E+03  0.35771885189E+03  0.12500516196E+03 0.  0.
          5    1    3    3  502    0  0.51845128192E+02 -0.45429160805E+02  0.23027014722E+03  0.24041247195E+03  0.47000000000E+01 0.  1.
         -5    1    3    3    0  502 -0.47529881536E+02  0.24801044753E+02  0.10423298574E+03  0.11730637994E+03  0.47000000000E+01 0.  1.
        -11    1    1    2    0    0 -0.14787152864E+02 -0.30434347731E+02  0.17577229975E+03  0.17899947143E+03  0.00000000000E+00 0. -1.
         11    1    1    2    0    0  0.10471906208E+02  0.51062463783E+02  0.25017649935E+03  0.25554904980E+03  0.00000000000E+00 0.  1.
<mgrwt>
<rscale>  0 0.11505740E+03</rscale>
<asrwt>0</asrwt>
<pdfrwt beam="1">  1        2 0.11943992E+00 0.12676920E+03</pdfrwt>
<pdfrwt beam="2">  1       -2 0.24473422E-02 0.12676920E+03</pdfrwt>
<totfact> 0.19936390E+04</totfact>
</mgrwt>
</event>
<event>
 7    1  0.6095443E-006  0.1667774E+03  0.7546771E-02  0.1188127E+00
         -1   -1    0    0    0  501 -0.00000000000E+00  0.00000000000E+00  0.46240370586E+02  0.46240370586E+02  0.00000000000E+00 0.  1.
          1   -1    0    0  501    0  0.00000000000E+00 -0.00000000000E+00 -0.54133716643E+03  0.54133716643E+03  0.00000000000E+00 0. -1.
         23    2    1    2    0    0 -0.10585760464E+03  0.31376145430E+02 -0.20627922850E+03  0.26526559310E+03  0.12499767924E+03 0.  0.
          5    1    3    3  502    0 -0.60369446009E+02  0.34784895494E+02 -0.20796607482E+03  0.21937738544E+03  0.47000000000E+01 0. -1.
         -5    1    3    3    0  502 -0.45488158627E+02 -0.34087500647E+01  0.16868463227E+01  0.45888207666E+02  0.47000000000E+01 0. -1.
        -11    1    1    2    0    0  0.26848782516E+02 -0.42070664268E+02 -0.18381589764E+03  0.19047068577E+03  0.00000000000E+00 0.  1.
         11    1    1    2    0    0  0.79008822120E+02  0.10694518838E+02 -0.10500166971E+03  0.13184125814E+03  0.00000000000E+00 0. -1.
<mgrwt>
<rscale>  0 0.16050595E+03</rscale>
<asrwt>0</asrwt>
<pdfrwt beam="2">  1        1 0.83282646E-01 0.16677744E+03</pdfrwt>
<pdfrwt beam="1">  1       -1 0.71139027E-02 0.16677744E+03</pdfrwt>
<totfact> 0.40881595E+03</totfact>
</mgrwt>
</event>
<event>
 7    1  0.6095443E-006  0.1534775E+03  0.7546771E-02  0.1213985E+00
          2   -1    0    0  501    0  0.00000000000E+00  0.00000000000E+00  0.17783349875E+02  0.17783349875E+02  0.00000000000E+00 0. -1.
         -2   -1    0    0    0  501 -0.00000000000E+00 -0.00000000000E+00 -0.96132672833E+03  0.96132672833E+03  0.00000000000E+00 0.  1.
         23    2    1    2    0    0 -0.81363165855E+02  0.36197655041E+02 -0.48314636120E+03  0.50693760943E+03  0.12500039412E+03 0.  0.
          5    1    3    3  502    0 -0.49086587778E+02 -0.13204180403E+02 -0.56266868005E+02  0.75972981480E+02  0.47000000000E+01 0. -1.
         -5    1    3    3    0  502 -0.32276578076E+02  0.49401835443E+02 -0.42687949319E+03  0.43096462795E+03  0.47000000000E+01 0. -1.
        -11    1    1    2    0    0  0.12983591261E+02  0.41662090118E+01 -0.17354227209E+02  0.22070345298E+02  0.00000000000E+00 0. -1.
         11    1    1    2    0    0  0.68379574593E+02 -0.40363864053E+02 -0.44304279005E+03  0.45010212347E+03  0.00000000000E+00 0.  1.
<mgrwt>
<rscale>  0 0.13951337E+03</rscale>
<asrwt>0</asrwt>
<pdfrwt beam="1">  1        2 0.27358985E-02 0.15347747E+03</pdfrwt>
<pdfrwt beam="2">  1       -2 0.14789650E+00 0.15347747E+03</pdfrwt>
<totfact> 0.11371245E+03</totfact>
</mgrwt>
</event>
<event>
 7    1  0.6095443E-006  0.1257063E+03  0.7546771E-02  0.1251350E+00
          1   -1    0    0  501    0  0.00000000000E+00  0.00000000000E+00  0.28522735368E+03  0.28522735368E+03  0.00000000000E+00 0. -1.
         -1   -1    0    0    0  501 -0.00000000000E+00 -0.00000000000E+00 -0.42479306631E+02  0.42479306631E+02  0.00000000000E+00 0.  1.
         23    2    1    2    0    0 -0.34764281812E+00  0.13289670599E+02  0.10394664221E+03  0.16311642948E+03  0.12500131574E+03 0.  0.
          5    1    3    3  502    0 -0.12179457555E+02  0.35121299277E+02 -0.15849564936E+02  0.40683455579E+02  0.47000000000E+01 0.  1.
         -5    1    3    3    0  502  0.11831814737E+02 -0.21831628678E+02  0.11979620714E+03  0.12243297390E+03  0.47000000000E+01 0.  1.
        -11    1    1    2    0    0 -0.98221146508E+01 -0.29633503809E+02  0.14172256162E+03  0.14512030511E+03  0.00000000000E+00 0. -1.
         11    1    1    2    0    0  0.10169757469E+02  0.16343833210E+02 -0.29211567734E+01  0.19469925728E+02  0.00000000000E+00 0.  1.
<mgrwt>
<rscale>  0 0.11513228E+03</rscale>
<asrwt>0</asrwt>
<pdfrwt beam="1">  1        1 0.43881130E-01 0.12570627E+03</pdfrwt>
<pdfrwt beam="2">  1       -1 0.65352781E-02 0.12570627E+03</pdfrwt>
<totfact> 0.10294569E+04</totfact>
</mgrwt>
</event>
<event>
 7    1  0.6095443E-006  0.1663924E+03  0.7546771E-02  0.1188558E+00
         -1   -1    0    0    0  501 -0.00000000000E+00  0.00000000000E+00  0.61291092266E+02  0.61291092266E+02  0.00000000000E+00 0.  1.
          1   -1    0    0  501    0  0.00000000000E+00 -0.00000000000E+00 -0.42146014519E+03  0.42146014519E+03  0.00000000000E+00 0. -1.
         23    2    1    2    0    0 -0.95450428627E+02  0.54330050042E+02 -0.12674762465E+03  0.20916833054E+03  0.12499556587E+03 0.  0.
          5    1    3    3  502    0 -0.94570620877E+01  0.48612584427E+02 -0.11071913496E+03  0.12138136691E+03  0.47000000000E+01 0.  1.
         -5    1    3    3    0  502 -0.85993366539E+02  0.57174656150E+01 -0.16028489691E+02  0.87786963631E+02  0.47000000000E+01 0.  1.
        -11    1    1    2    0    0  0.97214740641E+02 -0.73335982109E+02 -0.18443808485E+03  0.22101194360E+03  0.00000000000E+00 0.  1.
         11    1    1    2    0    0 -0.17643120141E+01  0.19005932067E+02 -0.48983343424E+02  0.52570963312E+02  0.00000000000E+00 0. -1.
<mgrwt>
<rscale>  0 0.16012265E+03</rscale>
<asrwt>0</asrwt>
<pdfrwt beam="2">  1        1 0.64840020E-01 0.16639240E+03</pdfrwt>
<pdfrwt beam="1">  1       -1 0.94293991E-02 0.16639240E+03</pdfrwt>
<totfact> 0.36933679E+03</totfact>
</mgrwt>
</event>
<event>
 7    1  0.6095443E-006  0.1712659E+03  0.7546771E-02  0.1183351E+00
          2   -1    0    0  501    0  0.00000000000E+00  0.00000000000E+00  0.60043967393E+03  0.60043967393E+03  0.00000000000E+00 0. -1.
         -2   -1    0    0    0  501 -0.00000000000E+00 -0.00000000000E+00 -0.42721126883E+02  0.42721126883E+02  0.00000000000E+00 0.  1.
         23    2    1    2    0    0 -0.49992197243E+02 -0.10587995430E+03  0.26304628554E+03  0.31388747231E+03  0.12498884921E+03 0.  0.
          5    1    3    3  502    0 -0.33880111292E+02 -0.11482462990E+03  0.11996296100E+03  0.16954574481E+03  0.47000000000E+01 0. -1.
         -5    1    3    3    0  502 -0.16112085951E+02  0.89446755932E+01  0.14308332454E+03  0.14434172750E+03  0.47000000000E+01 0. -1.
        -11    1    1    2    0    0 -0.23055204509E+02  0.24154712428E+02  0.40619734309E+02  0.52582843236E+02  0.00000000000E+00 0.  1.
         11    1    1    2    0    0  0.73047401751E+02  0.81725241875E+02  0.25405252719E+03  0.27669048526E+03  0.00000000000E+00 0. -1.
<mgrwt>
<rscale>  0 0.16482863E+03</rscale>
<asrwt>0</asrwt>
<pdfrwt beam="1">  1        2 0.92375328E-01 0.17126587E+03</pdfrwt>
<pdfrwt beam="2">  1       -2 0.65724815E-02 0.17126587E+03</pdfrwt>
<totfact> 0.63157068E+03</totfact>
</mgrwt>
</event>
<event>
 7    1  0.6095443E-006  0.2503987E+03  0.7546771E-02  0.1115565E+00
         -2   -1    0    0    0  501 -0.00000000000E+00  0.00000000000E+00  0.23780103285E+03  0.23780103285E+03  0.00000000000E+00 0.  1.
          2   -1    0    0  501    0  0.00000000000E+00 -0.00000000000E+00 -0.26399038827E+03  0.26399038827E+03  0.00000000000E+00 0. -1.
         23    2    1    2    0    0 -0.12929153044E+03 -0.17424149116E+03  0.48817353240E+02  0.25511299625E+03  0.12499243894E+03 0.  0.
          5    1    3    3  502    0 -0.27008571462E+02 -0.13648059940E+03  0.43526515088E+02  0.14585288636E+03  0.47000000000E+01 0.  1.
         -5    1    3    3    0  502 -0.10228295898E+03 -0.37760891768E+02  0.52908381525E+01  0.10926010989E+03  0.47000000000E+01 0.  1.
        -11    1    1    2    0    0  0.68807525864E+01  0.80546221254E+02 -0.26613823833E+02  0.85107779512E+02  0.00000000000E+00 0.  1.
         11    1    1    2    0    0  0.12241077785E+03  0.93695269910E+02 -0.48392884834E+02  0.16157064536E+03  0.00000000000E+00 0. -1.
<mgrwt>
<rscale>  0 0.24645649E+03</rscale>
<asrwt>0</asrwt>
<pdfrwt beam="2">  1        2 0.40613906E-01 0.25039870E+03</pdfrwt>
<pdfrwt beam="1">  1       -2 0.36584774E-01 0.25039870E+03</pdfrwt>
<totfact> 0.88860149E+02</totfact>
</mgrwt>
</event>
<event>
 7    1  0.6095443E-006  0.1554862E+03  0.7546771E-02  0.1201942E+00
         -3   -1    0    0    0  501 -0.00000000000E+00  0.00000000000E+00  0.10976836712E+03  0.10976836712E+03  0.00000000000E+00 0.  1.
          3   -1    0    0  501    0  0.00000000000E+00 -0.00000000000E+00 -0.20364991949E+03  0.20364991949E+03  0.00000000000E+00 0. -1.
         23    2    1    2    0    0  0.11013735078E+02  0.91810015698E+02 -0.50098528713E+01  0.15556693053E+03  0.12500235960E+03 0.  0.
          5    1    3    3  502    0  0.65033295484E+02  0.69966895303E+02 -0.13173230081E+02  0.96541804160E+02  0.47000000000E+01 0. -1.
         -5    1    3    3    0  502 -0.54019560406E+02  0.21843120395E+02  0.81633772099E+01  0.59025126366E+02  0.47000000000E+01 0. -1.
        -11    1    1    2    0    0  0.19446664978E+02 -0.95183425436E+02 -0.52984070118E+02  0.11065879514E+03  0.00000000000E+00 0. -1.
         11    1    1    2    0    0 -0.30460400056E+02  0.33734097385E+01 -0.35887629384E+02  0.47192560935E+02  0.00000000000E+00 0.  1.
<mgrwt>
<rscale>  0 0.14881110E+03</rscale>
<asrwt>0</asrwt>
<pdfrwt beam="2">  1        3 0.31330757E-01 0.15548624E+03</pdfrwt>
<pdfrwt beam="1">  1       -3 0.16887441E-01 0.15548624E+03</pdfrwt>
<totfact> 0.70594813E+02</totfact>
</mgrwt>
</event>
<event>
 6    1  0.6095443E-006  0.2580580E+03  0.7546771E-02  0.1126610E+00
          2   -1    0    0  501    0  0.00000000000E+00  0.00000000000E+00  0.90636589251E+03  0.90636589251E+03  0.00000000000E+00 0. -1.
         -2   -1    0    0    0  501 -0.00000000000E+00 -0.00000000000E+00 -0.59101741589E+02  0.59101741589E+02  0.00000000000E+00 0.  1.
          5    1    1    2  502    0 -0.27425432840E+02 -0.14033174538E+03  0.16950089928E+03  0.22180576634E+03  0.47000000000E+01 0. -1.
         -5    1    1    2    0  502 -0.87790312261E+02  0.74123760890E+02  0.13692630089E+03  0.17880820096E+03  0.47000000000E+01 0.  1.
        -11    1    1    2    0    0  0.30845952204E+02 -0.24146288934E+02  0.14123299825E+03  0.14656492020E+03  0.00000000000E+00 0.  1.
         11    1    1    2    0    0  0.84369792897E+02  0.90354273419E+02  0.39960395251E+03  0.41828874661E+03  0.00000000000E+00 0. -1.
<mgrwt>
<rscale>  0 0.23004160E+03</rscale>
<asrwt>0</asrwt>
<pdfrwt beam="1">  1        2 0.13944090E+00 0.25805798E+03</pdfrwt>
<pdfrwt beam="2">  1       -2 0.90925763E-02 0.25805798E+03</pdfrwt>
<totfact> 0.23196859E+03</totfact>
</mgrwt>
</event>
<event>
 7    1  0.6095443E-006  0.1262923E+03  0.7546771E-02  0.1275939E+00
         -1   -1    0    0    0  501 -0.00000000000E+00  0.00000000000E+00  0.44628706502E+03  0.44628706502E+03  0.00000000000E+00 0.  1.
          1   -1    0    0  501    0  0.00000000000E+00 -0.00000000000E+00 -0.19241422425E+02  0.19241422425E+02  0.00000000000E+00 0. -1.
         23    2    1    2    0    0 -0.13497812578E+02 -0.11898197661E+02  0.34447042305E+03  0.36689182143E+03  0.12500391283E+03 0.  0.
          5    1    3    3  502    0  0.44995184187E+02 -0.30440769139E+02  0.23563496172E+03  0.24186180395E+03  0.47000000000E+01 0. -1.
         -5    1    3    3    0  502 -0.58492996765E+02  0.18542571478E+02  0.10883546133E+03  0.12503001748E+03  0.47000000000E+01 0. -1.
        -11    1    1    2    0    0 -0.56435654321E+01 -0.17753800961E+02  0.27069328579E+02  0.32860246941E+02  0.00000000000E+00 0. -1.
         11    1    1    2    0    0  0.19141378010E+02  0.29651998623E+02  0.55505890966E+02  0.65776419075E+02  0.00000000000E+00 0.  1.
<mgrwt>
<rscale>  0 0.10210076E+03</rscale>
<asrwt>0</asrwt>
<pdfrwt beam="2">  1        1 0.29602192E-02 0.12629227E+03</pdfrwt>
<pdfrwt beam="1">  1       -1 0.68659541E-01 0.12629227E+03</pdfrwt>
<totfact> 0.72920156E+03</totfact>
</mgrwt>
</event>
<event>
 7    1  0.6095443E-006  0.1266440E+03  0.7546771E-02  0.1241425E+00
          4   -1    0    0  501    0  0.00000000000E+00  0.00000000000E+00  0.92715397879E+02  0.92715397879E+02  0.00000000000E+00 0. -1.
         -4   -1    0    0    0  501 -0.00000000000E+00 -0.00000000000E+00 -0.39333272435E+03  0.39333272435E+03  0.00000000000E+00 0.  1.
         23    2    1    2    0    0 -0.51576119652E+02  0.35166909155E+01 -0.34798320717E+03  0.37031203701E+03  0.11561240872E+03 0.  0.
          5    1    3    3  502    0 -0.39851442338E+02 -0.33594113506E+02 -0.59762979162E+02  0.79438061387E+02  0.47000000000E+01 0. -1.
         -5    1    3    3    0  502 -0.11724677314E+02  0.37110804421E+02 -0.28822022801E+03  0.29087397562E+03  0.47000000000E+01 0.  1.
        -11    1    1    2    0    0 -0.13366199242E+02  0.16138461344E+01 -0.18641947716E+02  0.22995260298E+02  0.00000000000E+00 0.  1.
         11    1    1    2    0    0  0.64942318894E+02 -0.51305370499E+01  0.66007828417E+02  0.92740824916E+02  0.00000000000E+00 0. -1.
<mgrwt>
<rscale>  0 0.12101916E+03</rscale>
<asrwt>0</asrwt>
<pdfrwt beam="1">  1        4 0.14263907E-01 0.12664396E+03</pdfrwt>
<pdfrwt beam="2">  1       -4 0.60512726E-01 0.12664396E+03</pdfrwt>
<totfact> 0.17711130E+02</totfact>
</mgrwt>
</event>
<event>
 7    1  0.6095443E-006  0.1289264E+03  0.7546771E-02  0.1243000E+00
          2   -1    0    0  501    0  0.00000000000E+00  0.00000000000E+00  0.93672798632E+02  0.93672798632E+02  0.00000000000E+00 0.  1.
         -2   -1    0    0    0  501 -0.00000000000E+00 -0.00000000000E+00 -0.14903091973E+03  0.14903091973E+03  0.00000000000E+00 0. -1.
         23    2    1    2    0    0 -0.21102266366E+02 -0.23383789662E+02 -0.66584139653E+02  0.14510503967E+03  0.12501966893E+03 0.  0.
          5    1    3    3  502    0 -0.41611393409E+02  0.42502812684E+02 -0.28060482467E+02  0.65935406450E+02  0.47000000000E+01 0. -1.
         -5    1    3    3    0  502  0.20509127043E+02 -0.65886602346E+02 -0.38523657186E+02  0.79169633217E+02  0.47000000000E+01 0. -1.
        -11    1    1    2    0    0 -0.29896594828E+02 -0.53411047967E+01 -0.14510373289E+02  0.33658352837E+02  0.00000000000E+00 0. -1.
         11    1    1    2    0    0  0.50998861194E+02  0.28724894459E+02  0.25736391848E+02  0.63940325852E+02  0.00000000000E+00 0.  1.
<mgrwt>
<rscale>  0 0.12005892E+03</rscale>
<asrwt>0</asrwt>
<pdfrwt beam="1">  1        2 0.14411200E-01 0.12892643E+03</pdfrwt>
<pdfrwt beam="2">  1       -2 0.22927834E-01 0.12892643E+03</pdfrwt>
<totfact> 0.63965335E+03</totfact>
</mgrwt>
</event>
<event>
 6    1  0.6095443E-006  0.1517677E+03  0.7546771E-02  0.1220243E+00
          2   -1    0    0  501    0  0.00000000000E+00  0.00000000000E+00  0.49979829387E+02  0.49979829387E+02  0.00000000000E+00 0. -1.
         -2   -1    0    0    0  501 -0.00000000000E+00 -0.00000000000E+00 -0.34098560370E+03  0.34098560370E+03  0.00000000000E+00 0.  1.
          5    1    1    2  502    0  0.82000284514E+02 -0.27827446157E+02 -0.98088782042E+02  0.13092712699E+03  0.47000000000E+01 0. -1.
         -5    1    1    2    0  502 -0.51926757164E+02  0.24824363709E+02 -0.13972255223E+03  0.15118570946E+03  0.47000000000E+01 0.  1.
        -11    1    1    2    0    0 -0.29051614767E+01 -0.28734265943E+02  0.12119078306E+02  0.31320441591E+02  0.00000000000E+00 0.  1.
         11    1    1    2    0    0 -0.27168365874E+02  0.31737348390E+02 -0.65313518352E+02  0.77532155050E+02  0.00000000000E+00 0. -1.
<mgrwt>
<rscale>  0 0.13498349E+03</rscale>
<asrwt>0</asrwt>
<pdfrwt beam="1">  1        2 0.76892043E-02 0.15176766E+03</pdfrwt>
<pdfrwt beam="2">  1       -2 0.52459325E-01 0.15176766E+03</pdfrwt>
<totfact> 0.30095487E+03</totfact>
</mgrwt>
</event>
<event>
 7    1  0.6095443E-006  0.1280535E+03  0.7546771E-02  0.1244790E+00
         -1   -1    0    0    0  501 -0.00000000000E+00  0.00000000000E+00  0.26815321778E+02  0.26815321778E+02  0.00000000000E+00 0.  1.
          1   -1    0    0  501    0  0.00000000000E+00 -0.00000000000E+00 -0.47318425956E+03  0.47318425956E+03  0.00000000000E+00 0. -1.
         23    2    1    2    0    0  0.18286147376E+02 -0.20894390419E+02 -0.22406248212E+03  0.25807302021E+03  0.12500691633E+03 0.  0.
          5    1    3    3  502    0 -0.38194777382E+02 -0.30997818017E+02 -0.35303160073E+02  0.60729802010E+02  0.47000000000E+01 0. -1.
         -5    1    3    3    0  502  0.56480924758E+02  0.10103427598E+02 -0.18875932204E+03  0.19734321820E+03  0.47000000000E+01 0. -1.
        -11    1    1    2    0    0  0.26475328460E+02 -0.19174471059E+02 -0.10737814582E+03  0.11224379518E+03  0.00000000000E+00 0.  1.
         11    1    1    2    0    0 -0.44761475836E+02  0.40068861478E+02 -0.11492830984E+03  0.12968276594E+03  0.00000000000E+00 0. -1.
<mgrwt>
<rscale>  0 0.11897978E+03</rscale>
<asrwt>0</asrwt>
<pdfrwt beam="2">  1        1 0.72797579E-01 0.12805346E+03</pdfrwt>
<pdfrwt beam="1">  1       -1 0.41254341E-02 0.12805346E+03</pdfrwt>
<totfact> 0.10799285E+04</totfact>
</mgrwt>
</event>
<event>
 7    1  0.6095443E-006  0.1334320E+03  0.7546771E-02  0.1235482E+00
         -2   -1    0    0    0  501 -0.00000000000E+00  0.00000000000E+00  0.19372937110E+02  0.19372937110E+02  0.00000000000E+00 0.  1.
          2   -1    0    0  501    0  0.00000000000E+00 -0.00000000000E+00 -0.71957582003E+03  0.71957582003E+03  0.00000000000E+00 0. -1.
         23    2    1    2    0    0 -0.32374429686E+02  0.33635282515E+02 -0.36653342253E+03  0.39006518011E+03  0.12499863591E+03 0.  0.
          5    1    3    3  502    0  0.38440580560E+02  0.25169858075E+02 -0.62329003391E+02  0.77577024002E+02  0.47000000000E+01 0. -1.
         -5    1    3    3    0  502 -0.70815010246E+02  0.84654244395E+01 -0.30420441914E+03  0.31248815611E+03  0.47000000000E+01 0. -1.
        -11    1    1    2    0    0 -0.31268201931E+02 -0.12558838344E+02 -0.87999820773E+02  0.94230532889E+02  0.00000000000E+00 0.  1.
         11    1    1    2    0    0  0.63642631617E+02 -0.21076444171E+02 -0.24566963963E+03  0.25465304414E+03  0.00000000000E+00 0. -1.
<mgrwt>
<rscale>  0 0.12473630E+03</rscale>
<asrwt>0</asrwt>
<pdfrwt beam="2">  1        2 0.11070398E+00 0.13343199E+03</pdfrwt>
<pdfrwt beam="1">  1       -2 0.29804516E-02 0.13343199E+03</pdfrwt>
<totfact> 0.16449012E+04</totfact>
</mgrwt>
</event>
<event>
 7    1  0.6095443E-006  0.1572979E+03  0.7546771E-02  0.1200248E+00
         -2   -1    0    0    0  501 -0.00000000000E+00  0.00000000000E+00  0.15229374990E+03  0.15229374990E+03  0.00000000000E+00 0.  1.
          2   -1    0    0  501    0  0.00000000000E+00 -0.00000000000E+00 -0.13789777776E+03  0.13789777776E+03  0.00000000000E+00 0. -1.
         23    2    1    2    0    0 -0.52842706564E+02  0.79536018888E+02  0.24038378601E+02  0.15912403455E+03  0.12499713912E+03 0.  0.
          5    1    3    3  502    0 -0.48893209955E+02 -0.21607654796E+02 -0.45072501557E+01  0.53850181332E+02  0.47000000000E+01 0.  1.
         -5    1    3    3    0  502 -0.39494966089E+01  0.10114367368E+03  0.28545628757E+02  0.10527385322E+03  0.47000000000E+01 0.  1.
        -11    1    1    2    0    0  0.77352776220E+02 -0.63097113786E+02 -0.15383923037E+02  0.10100179625E+03  0.00000000000E+00 0.  1.
         11    1    1    2    0    0 -0.24510069656E+02 -0.16438905102E+02  0.57415165771E+01  0.30065696867E+02  0.00000000000E+00 0. -1.
<mgrwt>
<rscale>  0 0.15018316E+03</rscale>
<asrwt>0</asrwt>
<pdfrwt beam="2">  1        2 0.21215043E-01 0.15729785E+03</pdfrwt>
<pdfrwt beam="1">  1       -2 0.23429808E-01 0.15729785E+03</pdfrwt>
<totfact> 0.39991860E+03</totfact>
</mgrwt>
</event>
<event>
 7    1  0.6095443E-006  0.1424000E+03  0.7546771E-02  0.1221336E+00
         -1   -1    0    0    0  501 -0.00000000000E+00  0.00000000000E+00  0.40412892373E+03  0.40412892373E+03  0.00000000000E+00 0.  1.
          1   -1    0    0  501    0  0.00000000000E+00 -0.00000000000E+00 -0.40153774771E+02  0.40153774771E+02  0.00000000000E+00 0. -1.
         23    2    1    2    0    0  0.36508285358E+02  0.57631883450E+02  0.20205610609E+03  0.24719312289E+03  0.12499392427E+03 0.  0.
          5    1    3    3  502    0  0.77400444686E+02  0.49314739122E+02  0.17373588939E+03  0.19654267118E+03  0.47000000000E+01 0. -1.
         -5    1    3    3    0  502 -0.40892159329E+02  0.83171443279E+01  0.28320216702E+02  0.50650451709E+02  0.47000000000E+01 0. -1.
        -11    1    1    2    0    0  0.53270593013E+01 -0.30914727491E+02  0.13885456982E+03  0.14235409898E+03  0.00000000000E+00 0.  1.
         11    1    1    2    0    0 -0.41835344659E+02 -0.26717155959E+02  0.23064473049E+02  0.54735476634E+02  0.00000000000E+00 0. -1.
<mgrwt>
<rscale>  0 0.13421253E+03</rscale>
<asrwt>0</asrwt>
<pdfrwt beam="2">  1        1 0.61775041E-02 0.14240004E+03</pdfrwt>
<pdfrwt beam="1">  1       -1 0.62173678E-01 0.14240004E+03</pdfrwt>
<totfact> 0.32479309E+03</totfact>
</mgrwt>
</event>
<event>
 7    1  0.6095443E-006  0.1111047E+03  0.7546771E-02  0.1265163E+00
          1   -1    0    0  501    0  0.00000000000E+00  0.00000000000E+00  0.89434688863E+02  0.89434688863E+02  0.00000000000E+00 0. -1.
         -1   -1    0    0    0  501 -0.00000000000E+00 -0.00000000000E+00 -0.12266690978E+03  0.12266690978E+03  0.00000000000E+00 0.  1.
         23    2    1    2    0    0  0.68820917595E+01  0.63134393217E+01 -0.26920838601E+02  0.11431964997E+03  0.11071146334E+03 0.  0.
          5    1    3    3  502    0  0.23290849708E+01 -0.32258382544E+02 -0.56501315571E+02  0.65272632415E+02  0.47000000000E+01 0. -1.
         -5    1    3    3    0  502  0.45530067886E+01  0.38571821865E+02  0.29580476971E+02  0.49047017551E+02  0.47000000000E+01 0.  1.
        -11    1    1    2    0    0  0.21323273197E+02 -0.11728131797E+02 -0.44069366713E+02  0.50342230163E+02  0.00000000000E+00 0.  1.
         11    1    1    2    0    0 -0.28205364956E+02  0.54146924752E+01  0.37757984397E+02  0.47439718513E+02  0.00000000000E+00 0. -1.
<mgrwt>
<rscale>  0 0.10755666E+03</rscale>
<asrwt>0</asrwt>
<pdfrwt beam="1">  1        1 0.13759183E-01 0.11110468E+03</pdfrwt>
<pdfrwt beam="2">  1       -1 0.18871832E-01 0.11110468E+03</pdfrwt>
<totfact> 0.85927297E+03</totfact>
</mgrwt>
</event>
<event>
 7    1  0.6095443E-006  0.1271122E+03  0.7546771E-02  0.1249780E+00
         -4   -1    0    0    0  501 -0.00000000000E+00  0.00000000000E+00  0.11354288807E+03  0.11354288807E+03  0.00000000000E+00 0. -1.
          4   -1    0    0  501    0  0.00000000000E+00 -0.00000000000E+00 -0.16493710849E+03  0.16493710849E+03  0.00000000000E+00 0.  1.
         23    2    1    2    0    0  0.22427421212E+02  0.53799412740E+01  0.56476563798E+02  0.13909394592E+03  0.12500236215E+03 0.  0.
          5    1    3    3  502    0 -0.18193083527E+02 -0.26386858712E+01  0.85972025667E+02  0.88041070806E+02  0.47000000000E+01 0.  1.
         -5    1    3    3    0  502  0.40620504738E+02  0.80186271452E+01 -0.29495461869E+02  0.51052875113E+02  0.47000000000E+01 0.  1.
        -11    1    1    2    0    0  0.26261401740E+02  0.18810677886E+02 -0.53504659188E+02  0.62500011030E+02  0.00000000000E+00 0.  1.
         11    1    1    2    0    0 -0.48688822952E+02 -0.24190619160E+02 -0.54366125035E+02  0.76886039611E+02  0.00000000000E+00 0. -1.
<mgrwt>
<rscale>  0 0.11603773E+03</rscale>
<asrwt>0</asrwt>
<pdfrwt beam="2">  1        4 0.25374940E-01 0.12711225E+03</pdfrwt>
<pdfrwt beam="1">  1       -4 0.17468137E-01 0.12711225E+03</pdfrwt>
<totfact> 0.68479036E+02</totfact>
</mgrwt>
</event>
<event>
 7    1  0.6095443E-006  0.1792584E+03  0.7546771E-02  0.1175036E+00
         -3   -1    0    0    0  501 -0.00000000000E+00  0.00000000000E+00  0.16997595026E+04  0.16997595026E+04  0.00000000000E+00 0.  1.
          3   -1    0    0  501    0  0.00000000000E+00 -0.00000000000E+00 -0.22051733039E+02  0.22051733039E+02  0.00000000000E+00 0. -1.
         23    2    1    2    0    0  0.12838663701E+03 -0.49731990219E+01  0.13205607911E+04  0.13326718879E+04  0.12500278585E+03 0.  0.
          5    1    3    3  502    0 -0.21379139548E+02  0.12418836507E+02  0.29574557902E+03  0.29681447508E+03  0.47000000000E+01 0. -1.
         -5    1    3    3    0  502  0.14976577656E+03 -0.17392035529E+02  0.10248152121E+04  0.10358574128E+04  0.47000000000E+01 0. -1.
        -11    1    1    2    0    0 -0.66878440260E+02  0.51045190760E+01  0.76096420901E+02  0.10143691222E+03  0.00000000000E+00 0.  1.
         11    1    1    2    0    0 -0.61508196753E+02 -0.13132005407E+00  0.28105055753E+03  0.28770243551E+03  0.00000000000E+00 0. -1.
<mgrwt>
<rscale>  0 0.17272434E+03</rscale>
<asrwt>0</asrwt>
<pdfrwt beam="2">  1        3 0.33925756E-02 0.17925835E+03</pdfrwt>
<pdfrwt beam="1">  1       -3 0.26150136E+00 0.17925835E+03</pdfrwt>
<totfact> 0.72981619E+01</totfact>
</mgrwt>
</event>
<event>
 7    1  0.6095443E-006  0.1428212E+03  0.7546771E-02  0.1220682E+00
         -1   -1    0    0    0  501 -0.00000000000E+00  0.00000000000E+00  0.72974597531E+02  0.72974597531E+02  0.00000000000E+00 0.  1.
          1   -1    0    0  501    0  0.00000000000E+00 -0.00000000000E+00 -0.23090767575E+03  0.23090767575E+03  0.00000000000E+00 0. -1.
         23    2    1    2    0    0 -0.63306046999E+02  0.27647238308E+02 -0.61916378875E+02  0.15566483152E+03  0.12500350566E+03 0.  0.
          5    1    3    3  502    0  0.56599149891E+01  0.29281649470E+02  0.28716551307E+02  0.41667492753E+02  0.47000000000E+01 0. -1.
         -5    1    3    3    0  502 -0.68965961988E+02 -0.16344111620E+01 -0.90632930182E+02  0.11399733877E+03  0.47000000000E+01 0. -1.
        -11    1    1    2    0    0  0.23367864536E+02 -0.49158936888E+02 -0.16856548389E+02  0.56980710706E+02  0.00000000000E+00 0.  1.
         11    1    1    2    0    0  0.39938182463E+02  0.21511698580E+02 -0.79160150954E+02  0.91236731053E+02  0.00000000000E+00 0. -1.
<mgrwt>
<rscale>  0 0.13467282E+03</rscale>
<asrwt>0</asrwt>
<pdfrwt beam="2">  1        1 0.35524258E-01 0.14282122E+03</pdfrwt>
<pdfrwt beam="1">  1       -1 0.11226861E-01 0.14282122E+03</pdfrwt>
<totfact> 0.59451690E+03</totfact>
</mgrwt>
</event>
<event>
 7    1  0.6095443E-006  0.1297352E+03  0.7546771E-02  0.1242247E+00
         -3   -1    0    0    0  501 -0.00000000000E+00  0.00000000000E+00  0.17698868211E+03  0.17698868211E+03  0.00000000000E+00 0.  1.
          3   -1    0    0  501    0  0.00000000000E+00 -0.00000000000E+00 -0.92157674707E+02  0.92157674707E+02  0.00000000000E+00 0. -1.
         23    2    1    2    0    0  0.30720544368E+02  0.16165415096E+02  0.10912754906E+03  0.16952888886E+03  0.12500459873E+03 0.  0.
          5    1    3    3  502    0  0.32847260025E+02 -0.49209611964E+02  0.29212310226E+02  0.66151171340E+02  0.47000000000E+01 0. -1.
         -5    1    3    3    0  502 -0.21267156572E+01  0.65375027061E+02  0.79915238832E+02  0.10337771752E+03  0.47000000000E+01 0. -1.
        -11    1    1    2    0    0 -0.32528651906E+02  0.13212484532E+02  0.24372798134E+02  0.42740100973E+02  0.00000000000E+00 0.  1.
         11    1    1    2    0    0  0.18081075378E+01 -0.29377899628E+02 -0.48669339788E+02  0.56877366983E+02  0.00000000000E+00 0. -1.
<mgrwt>
<rscale>  0 0.12051688E+03</rscale>
<asrwt>0</asrwt>
<pdfrwt beam="2">  1        3 0.14178104E-01 0.12973520E+03</pdfrwt>
<pdfrwt beam="1">  1       -3 0.27229028E-01 0.12973520E+03</pdfrwt>
<totfact> 0.12008311E+03</totfact>
</mgrwt>
</event>
<event>
 7    1  0.6095443E-006  0.1575933E+03  0.7546771E-02  0.1199247E+00
          4   -1    0    0  501    0  0.00000000000E+00  0.00000000000E+00  0.94687132358E+03  0.94687132358E+03  0.00000000000E+00 0.  1.
         -4   -1    0    0    0  501 -0.00000000000E+00 -0.00000000000E+00 -0.23063707642E+02  0.23063707642E+02  0.00000000000E+00 0. -1.
         23    2    1    2    0    0 -0.95971419320E+02  0.14834143428E+01  0.58954617950E+03  0.61024613182E+03  0.12499171891E+03 0.  0.
          5    1    3    3  502    0 -0.51595233681E+02 -0.27032446365E+02  0.51772080045E+03  0.52100838623E+03  0.47000000000E+01 0.  1.
         -5    1    3    3    0  502 -0.44376185639E+02  0.28515860707E+02  0.71825379045E+02  0.89237745594E+02  0.47000000000E+01 0.  1.
        -11    1    1    2    0    0  0.68943190858E+02 -0.39552659121E+02  0.15181347394E+03  0.17136191899E+03  0.00000000000E+00 0. -1.
         11    1    1    2    0    0  0.27028228462E+02  0.38069244779E+02  0.18244796250E+03  0.18832698042E+03  0.00000000000E+00 0.  1.
<mgrwt>
<rscale>  0 0.15100183E+03</rscale>
<asrwt>0</asrwt>
<pdfrwt beam="1">  1        4 0.14567248E+00 0.15759329E+03</pdfrwt>
<pdfrwt beam="2">  1       -4 0.35482635E-02 0.15759329E+03</pdfrwt>
<totfact> 0.24332282E+02</totfact>
</mgrwt>
</event>
<event>
 7    1  0.6095443E-006  0.1586284E+03  0.7546771E-02  0.1198109E+00
         -2   -1    0    0    0  501 -0.00000000000E+00  0.00000000000E+00  0.31924946323E+03  0.31924946323E+03  0.00000000000E+00 0.  1.
          2   -1    0    0  501    0  0.00000000000E+00 -0.00000000000E+00 -0.79979605937E+02  0.79979605937E+02  0.00000000000E+00 0. -1.
         23    2    1    2    0    0 -0.46673367144E+02  0.85800041225E+02  0.20889450020E+03  0.26229733388E+03  0.12499171521E+03 0.  0.
          5    1    3    3  502    0  0.15454438015E+02 -0.23432554766E+02  0.66438120309E+02  0.72277507617E+02  0.47000000000E+01 0. -1.
         -5    1    3    3    0  502 -0.62127805159E+02  0.10923259599E+03  0.14245637989E+03  0.19001982626E+03  0.47000000000E+01 0. -1.
        -11    1    1    2    0    0 -0.17326137667E+01 -0.68089351308E+02  0.47021956884E+02  0.82766092944E+02  0.00000000000E+00 0.  1.
         11    1    1    2    0    0  0.48405980911E+02 -0.17710689917E+02 -0.16646599796E+02  0.54165642339E+02  0.00000000000E+00 0. -1.
<mgrwt>
<rscale>  0 0.15194013E+03</rscale>
<asrwt>0</asrwt>
<pdfrwt beam="2">  1        2 0.12304555E-01 0.15862843E+03</pdfrwt>
<pdfrwt beam="1">  1       -2 0.49115301E-01 0.15862843E+03</pdfrwt>
<totfact> 0.19244312E+03</totfact>
</mgrwt>
</event>
<event>
 7    1  0.6095443E-006  0.2468432E+03  0.7546771E-02  0.1117932E+00
          2   -1    0    0  501    0  0.00000000000E+00  0.00000000000E+00  0.77039825364E+03  0.77039825364E+03  0.00000000000E+00 0. -1.
         -2   -1    0    0    0  501 -0.00000000000E+00 -0.00000000000E+00 -0.76892088016E+02  0.76892088016E+02  0.00000000000E+00 0.  1.
         23    2    1    2    0    0 -0.16256188118E+03 -0.13740495914E+03  0.27755205443E+03  0.37143871030E+03  0.12500033833E+03 0.  0.
          5    1    3    3  502    0 -0.62012298350E+02 -0.12786612628E+03  0.19246352484E+03  0.23928971936E+03  0.47000000000E+01 0.  1.
         -5    1    3    3    0  502 -0.10054958283E+03 -0.95388328600E+01  0.85088529590E+02  0.13214899094E+03  0.47000000000E+01 0.  1.
        -11    1    1    2    0    0  0.11258571816E+03  0.37816083694E+02  0.23585693934E+03  0.26407214157E+03  0.00000000000E+00 0. -1.
         11    1    1    2    0    0  0.49976163017E+02  0.99588875446E+02  0.18009717186E+03  0.21177948979E+03  0.00000000000E+00 0.  1.
<mgrwt>
<rscale>  0 0.24281515E+03</rscale>
<asrwt>0</asrwt>
<pdfrwt beam="1">  1        2 0.11852280E+00 0.24684321E+03</pdfrwt>
<pdfrwt beam="2">  1       -2 0.11829553E-01 0.24684321E+03</pdfrwt>
<totfact> 0.18800798E+03</totfact>
</mgrwt>
</event>
<event>
 7    1  0.6095443E-006  0.1992169E+03  0.7546771E-02  0.1154661E+00
          3   -1    0    0  501    0  0.00000000000E+00  0.00000000000E+00  0.12110736997E+03  0.12110736997E+03  0.00000000000E+00 0. -1.
         -3   -1    0    0    0  501 -0.00000000000E+00 -0.00000000000E+00 -0.30026500220E+03  0.30026500220E+03  0.00000000000E+00 0.  1.
         23    2    1    2    0    0 -0.15283189795E+03 -0.26569436281E+02 -0.11554194608E+03  0.23029827936E+03  0.12499532870E+03 0.  0.
          5    1    3    3  502    0 -0.15313417035E+03 -0.15679275541E+02 -0.47406913851E+02  0.16113788906E+03  0.47000000000E+01 0.  1.
         -5    1    3    3    0  502  0.30227239431E+00 -0.10890160740E+02 -0.68135032234E+02  0.69160390304E+02  0.47000000000E+01 0.  1.
        -11    1    1    2    0    0  0.12224848948E+03  0.18655055911E+02 -0.41444613662E+01  0.12373310330E+03  0.00000000000E+00 0. -1.
         11    1    1    2    0    0  0.30583408468E+02  0.79143803702E+01 -0.59471224780E+02  0.67340989501E+02  0.00000000000E+00 0.  1.
<mgrwt>
<rscale>  0 0.19427507E+03</rscale>
<asrwt>0</asrwt>
<pdfrwt beam="1">  1        3 0.18631903E-01 0.19921686E+03</pdfrwt>
<pdfrwt beam="2">  1       -3 0.46194615E-01 0.19921686E+03</pdfrwt>
<totfact> 0.29060914E+02</totfact>
</mgrwt>
</event>
<event>
 7    1  0.6095443E-006  0.1296735E+03  0.7546771E-02  0.1242024E+00
          1   -1    0    0  501    0  0.00000000000E+00  0.00000000000E+00  0.64867001754E+02  0.64867001754E+02  0.00000000000E+00 0. -1.
         -1   -1    0    0    0  501 -0.00000000000E+00 -0.00000000000E+00 -0.20758319234E+03  0.20758319234E+03  0.00000000000E+00 0.  1.
         23    2    1    2    0    0  0.12635714440E+02  0.32122111881E+02 -0.10957851557E+03  0.16977237231E+03  0.12499486379E+03 0.  0.
          5    1    3    3  502    0  0.21338317958E+02 -0.30057214836E+00 -0.12891055494E+03  0.13074951370E+03  0.47000000000E+01 0.  1.
         -5    1    3    3    0  502 -0.87026035171E+01  0.32422684029E+02  0.19332039374E+02  0.39022858608E+02  0.47000000000E+01 0.  1.
        -11    1    1    2    0    0  0.25111473352E+02 -0.24566650935E+02 -0.49624123277E+02  0.60800164828E+02  0.00000000000E+00 0.  1.
         11    1    1    2    0    0 -0.37747187793E+02 -0.75554609459E+01  0.16486448259E+02  0.41877656961E+02  0.00000000000E+00 0. -1.
<mgrwt>
<rscale>  0 0.12065253E+03</rscale>
<asrwt>0</asrwt>
<pdfrwt beam="1">  1        1 0.99795389E-02 0.12967346E+03</pdfrwt>
<pdfrwt beam="2">  1       -1 0.31935875E-01 0.12967346E+03</pdfrwt>
<totfact> 0.55981094E+03</totfact>
</mgrwt>
</event>
<event>
 7    1  0.6095443E-006  0.1446271E+03  0.7546771E-02  0.1216335E+00
          1   -1    0    0  501    0  0.00000000000E+00  0.00000000000E+00  0.15980669790E+03  0.15980669790E+03  0.00000000000E+00 0. -1.
         -1   -1    0    0    0  501 -0.00000000000E+00 -0.00000000000E+00 -0.11212423504E+03  0.11212423504E+03  0.00000000000E+00 0.  1.
         23    2    1    2    0    0 -0.68475714854E+02 -0.24555779681E+02  0.29531293107E+01  0.14465724257E+03  0.12500034806E+03 0.  0.
          5    1    3    3  502    0 -0.46665307186E+02 -0.30293347102E+02  0.60706681894E+02  0.82478657845E+02  0.47000000000E+01 0. -1.
         -5    1    3    3    0  502 -0.21810407669E+02  0.57375674211E+01 -0.57753552583E+02  0.62178584726E+02  0.47000000000E+01 0. -1.
        -11    1    1    2    0    0  0.31589385340E+02 -0.10624296412E+02  0.64499283909E+02  0.72601119586E+02  0.00000000000E+00 0. -1.
         11    1    1    2    0    0  0.36886329515E+02  0.35180076093E+02 -0.19769950357E+02  0.54672570783E+02  0.00000000000E+00 0.  1.
<mgrwt>
<rscale>  0 0.13778920E+03</rscale>
<asrwt>0</asrwt>
<pdfrwt beam="1">  1        1 0.24585646E-01 0.14462710E+03</pdfrwt>
<pdfrwt beam="2">  1       -1 0.17249882E-01 0.14462710E+03</pdfrwt>
<totfact> 0.48159376E+03</totfact>
</mgrwt>
</event>
<event>
 7    1  0.6095443E-006  0.1385171E+03  0.7546771E-02  0.1227015E+00
          2   -1    0    0  501    0  0.00000000000E+00  0.00000000000E+00  0.14901727796E+02  0.14901727796E+02  0.00000000000E+00 0. -1.
         -2   -1    0    0    0  501 -0.00000000000E+00 -0.00000000000E+00 -0.10625336530E+04  0.10625336530E+04  0.00000000000E+00 0.  1.
         23    2    1    2    0    0  0.36118096705E+02  0.47523276126E+02 -0.68805805392E+03  0.70186243748E+03  0.12499606753E+03 0.  0.
          5    1    3    3  502    0  0.78233562802E+02  0.18534122464E+02 -0.51797616989E+03  0.52419977739E+03  0.47000000000E+01 0.  1.
         -5    1    3    3    0  502 -0.42115466097E+02  0.28989153662E+02 -0.17008188404E+03  0.17766266009E+03  0.47000000000E+01 0.  1.
        -11    1    1    2    0    0 -0.49893996007E+02  0.77469124381E+01 -0.19453624691E+03  0.20098203117E+03  0.00000000000E+00 0. -1.
         11    1    1    2    0    0  0.13775899302E+02 -0.55270188564E+02 -0.16503762434E+03  0.17459091211E+03  0.00000000000E+00 0.  1.
<mgrwt>
<rscale>  0 0.13029754E+03</rscale>
<asrwt>0</asrwt>
<pdfrwt beam="1">  1        2 0.22925738E-02 0.13851713E+03</pdfrwt>
<pdfrwt beam="2">  1       -2 0.16346669E+00 0.13851713E+03</pdfrwt>
<totfact> 0.11088591E+03</totfact>
</mgrwt>
</event>
<event>
 7    1  0.6095443E-006  0.1777368E+03  0.7546771E-02  0.1175953E+00
         -1   -1    0    0    0  501 -0.00000000000E+00  0.00000000000E+00  0.66786239869E+02  0.66786239869E+02  0.00000000000E+00 0.  1.
          1   -1    0    0  501    0  0.00000000000E+00 -0.00000000000E+00 -0.48235600081E+03  0.48235600081E+03  0.00000000000E+00 0. -1.
         23    2    1    2    0    0  0.50005529905E+02 -0.11603938290E+03 -0.11751671560E+03  0.21307403654E+03  0.12499870078E+03 0.  0.
          5    1    3    3  502    0  0.64703703041E+02 -0.11284301186E+03 -0.13635930281E+03  0.18851011637E+03  0.47000000000E+01 0. -1.
         -5    1    3    3    0  502 -0.14698173136E+02 -0.31963710451E+01  0.18842587208E+02  0.24563920169E+02  0.47000000000E+01 0. -1.
        -11    1    1    2    0    0 -0.15517560324E+02  0.10720844472E+03 -0.26941970894E+03  0.29038151605E+03  0.00000000000E+00 0. -1.
         11    1    1    2    0    0 -0.34487969581E+02  0.88309381761E+01 -0.28633336399E+02  0.45686688086E+02  0.00000000000E+00 0.  1.
<mgrwt>
<rscale>  0 0.17183006E+03</rscale>
<asrwt>0</asrwt>
<pdfrwt beam="2">  1        1 0.74208615E-01 0.17773679E+03</pdfrwt>
<pdfrwt beam="1">  1       -1 0.10274806E-01 0.17773679E+03</pdfrwt>
<totfact> 0.27262852E+03</totfact>
</mgrwt>
</event>
<event>
 7    1  0.6095443E-006  0.1358361E+03  0.7546771E-02  0.1230954E+00
          1   -1    0    0  501    0  0.00000000000E+00  0.00000000000E+00  0.10070234131E+03  0.10070234131E+03  0.00000000000E+00 0. -1.
         -1   -1    0    0    0  501 -0.00000000000E+00 -0.00000000000E+00 -0.25767906856E+03  0.25767906856E+03  0.00000000000E+00 0.  1.
         23    2    1    2    0    0  0.79922989347E+01 -0.52540878688E+02 -0.20182798533E+03  0.24328170091E+03  0.12500811797E+03 0.  0.
          5    1    3    3  502    0 -0.28806658106E+01  0.22327188911E+02 -0.14929943627E+03  0.15106029680E+03  0.47000000000E+01 0.  1.
         -5    1    3    3    0  502  0.10872964745E+02 -0.74868067599E+02 -0.52528549064E+02  0.92221404105E+02  0.47000000000E+01 0.  1.
        -11    1    1    2    0    0 -0.45487919723E+02  0.91426053241E+01  0.31891444672E+02  0.56300997470E+02  0.00000000000E+00 0.  1.
         11    1    1    2    0    0  0.37495620789E+02  0.43398273364E+02  0.12959813404E+02  0.58798711489E+02  0.00000000000E+00 0. -1.
<mgrwt>
<rscale>  0 0.12767016E+03</rscale>
<asrwt>0</asrwt>
<pdfrwt beam="1">  1        1 0.15492668E-01 0.13583612E+03</pdfrwt>
<pdfrwt beam="2">  1       -1 0.39642933E-01 0.13583612E+03</pdfrwt>
<totfact> 0.21767641E+03</totfact>
</mgrwt>
</event>
<event>
 7    1  0.6095443E-006  0.1271672E+03  0.7546771E-02  0.1246571E+00
         -2   -1    0    0    0  501 -0.00000000000E+00  0.00000000000E+00  0.36961867656E+02  0.36961867656E+02  0.00000000000E+00 0.  1.
          2   -1    0    0  501    0  0.00000000000E+00 -0.00000000000E+00 -0.34956568264E+03  0.34956568264E+03  0.00000000000E+00 0. -1.
         23    2    1    2    0    0  0.22904682009E+02  0.50541495252E+01 -0.13428952966E+03  0.18494642016E+03  0.12498532582E+03 0.  0.
          5    1    3    3  502    0  0.64674954847E+02  0.18720560152E+02 -0.34486422533E+02  0.75793881652E+02  0.47000000000E+01 0.  1.
         -5    1    3    3    0  502 -0.41770272838E+02 -0.13666410626E+02 -0.99803107122E+02  0.10915253851E+03  0.47000000000E+01 0.  1.
        -11    1    1    2    0    0 -0.48432810854E+01 -0.45531699542E+02 -0.61752482791E+02  0.76876278303E+02  0.00000000000E+00 0.  1.
         11    1    1    2    0    0 -0.18061400923E+02  0.40477550017E+02 -0.11656180254E+03  0.12470485183E+03  0.00000000000E+00 0. -1.
<mgrwt>
<rscale>  0 0.11791840E+03</rscale>
<asrwt>0</asrwt>
<pdfrwt beam="2">  1        2 0.53779336E-01 0.12716721E+03</pdfrwt>
<pdfrwt beam="1">  1       -2 0.56864411E-02 0.12716721E+03</pdfrwt>
<totfact> 0.13939945E+04</totfact>
</mgrwt>
</event>
<event>
 7    1  0.6095443E-006  0.2331726E+03  0.7546771E-02  0.1127382E+00
         -1   -1    0    0    0  501 -0.00000000000E+00  0.00000000000E+00  0.57862441104E+02  0.57862441104E+02  0.00000000000E+00 0.  1.
          1   -1    0    0  501    0  0.00000000000E+00 -0.00000000000E+00 -0.10937971236E+04  0.10937971236E+04  0.00000000000E+00 0. -1.
         23    2    1    2    0    0 -0.18953738767E+03  0.53106283955E+02 -0.27543159846E+03  0.36087675603E+03  0.12499907556E+03 0.  0.
          5    1    3    3  502    0 -0.20188166940E+03  0.67653623760E+02 -0.24466176846E+03  0.32436814300E+03  0.47000000000E+01 0.  1.
         -5    1    3    3    0  502  0.12344281733E+02 -0.14547339805E+02 -0.30769830002E+02  0.36508613029E+02  0.47000000000E+01 0.  1.
        -11    1    1    2    0    0  0.11941174785E+03 -0.77057866814E+02 -0.47351320659E+03  0.49438025565E+03  0.00000000000E+00 0.  1.
         11    1    1    2    0    0  0.70125639821E+02  0.23951582859E+02 -0.28698987745E+03  0.29640255303E+03  0.00000000000E+00 0. -1.
<mgrwt>
<rscale>  0 0.22894893E+03</rscale>
<asrwt>0</asrwt>
<pdfrwt beam="2">  1        1 0.16827649E+00 0.23317261E+03</pdfrwt>
<pdfrwt beam="1">  1       -1 0.89019137E-02 0.23317261E+03</pdfrwt>
<totfact> 0.99840298E+02</totfact>
</mgrwt>
</event>
<event>
 7    1  0.6095443E-006  0.2779435E+03  0.7546771E-02  0.1098686E+00
         -1   -1    0    0    0  501 -0.00000000000E+00  0.00000000000E+00  0.36771019972E+03  0.36771019972E+03  0.00000000000E+00 0.  1.
          1   -1    0    0  501    0  0.00000000000E+00 -0.00000000000E+00 -0.35914646539E+03  0.35914646539E+03  0.00000000000E+00 0. -1.
         23    2    1    2    0    0 -0.20594485545E+03 -0.13862467149E+03  0.24605283435E+03  0.37120692319E+03  0.12498999760E+03 0.  0.
          5    1    3    3  502    0 -0.38431582916E+02 -0.67779938909E+02  0.14087096957E+03  0.16105224851E+03  0.47000000000E+01 0. -1.
         -5    1    3    3    0  502 -0.16751327253E+03 -0.70844732581E+02  0.10518186478E+03  0.21015467467E+03  0.47000000000E+01 0. -1.
        -11    1    1    2    0    0  0.49563542979E+02  0.67019274621E+02 -0.36173745912E+02  0.90866208552E+02  0.00000000000E+00 0.  1.
         11    1    1    2    0    0  0.15638131247E+03  0.71605396869E+02 -0.20131535410E+03  0.26478353338E+03  0.00000000000E+00 0. -1.
<mgrwt>
<rscale>  0 0.27458135E+03</rscale>
<asrwt>0</asrwt>
<pdfrwt beam="2">  1        1 0.55253302E-01 0.27794349E+03</pdfrwt>
<pdfrwt beam="1">  1       -1 0.56570800E-01 0.27794349E+03</pdfrwt>
<totfact> 0.22837671E+02</totfact>
</mgrwt>
</event>
<event>
 7    1  0.6095443E-006  0.3048784E+03  0.7546771E-02  0.1084347E+00
         -1   -1    0    0    0  501 -0.00000000000E+00  0.00000000000E+00  0.57312939900E+02  0.57312939900E+02  0.00000000000E+00 0.  1.
          1   -1    0    0  501    0  0.00000000000E+00 -0.00000000000E+00 -0.15621128628E+04  0.15621128628E+04  0.00000000000E+00 0. -1.
         23    2    1    2    0    0 -0.23242060226E+03  0.15266602278E+03 -0.80997437384E+03  0.86545323420E+03  0.12499825377E+03 0.  0.
          5    1    3    3  502    0 -0.97224853808E+02  0.12921818865E+02 -0.39711729112E+03  0.40907686137E+03  0.47000000000E+01 0. -1.
         -5    1    3    3    0  502 -0.13519574845E+03  0.13974420392E+03 -0.41285708272E+03  0.45637637283E+03  0.47000000000E+01 0. -1.
        -11    1    1    2    0    0  0.17603925896E+03 -0.14560735223E+03 -0.61440558760E+03  0.65550404102E+03  0.00000000000E+00 0. -1.
         11    1    1    2    0    0  0.56381343300E+02 -0.70586705487E+01 -0.80419961440E+02  0.98468527460E+02  0.00000000000E+00 0.  1.
<mgrwt>
<rscale>  0 0.30179535E+03</rscale>
<asrwt>0</asrwt>
<pdfrwt beam="2">  1        1 0.24032509E+00 0.30487836E+03</pdfrwt>
<pdfrwt beam="1">  1       -1 0.88173741E-02 0.30487836E+03</pdfrwt>
<totfact> 0.48131060E+02</totfact>
</mgrwt>
</event>
<event>
 7    1  0.6095443E-006  0.1496807E+03  0.7546771E-02  0.1209835E+00
          2   -1    0    0  501    0  0.00000000000E+00  0.00000000000E+00  0.62322619764E+03  0.62322619764E+03  0.00000000000E+00 0.  1.
         -2   -1    0    0    0  501 -0.00000000000E+00 -0.00000000000E+00 -0.30032054244E+02  0.30032054244E+02  0.00000000000E+00 0. -1.
         23    2    1    2    0    0 -0.81944314769E+02 -0.82411430898E+01  0.34529645449E+03  0.37634285046E+03  0.12498604901E+03 0.  0.
          5    1    3    3  502    0  0.16599376729E+02  0.10228110339E+02  0.19241976941E+03  0.19346216997E+03  0.47000000000E+01 0. -1.
         -5    1    3    3    0  502 -0.98543691498E+02 -0.18469253429E+02  0.15287668508E+03  0.18288068049E+03  0.47000000000E+01 0. -1.
        -11    1    1    2    0    0  0.10149594755E+03  0.45157082918E+01  0.22290123695E+03  0.24496281437E+03  0.00000000000E+00 0.  1.
         11    1    1    2    0    0 -0.19551632783E+02  0.37254347980E+01  0.24996451958E+02  0.31952587053E+02  0.00000000000E+00 0. -1.
<mgrwt>
<rscale>  0 0.14262897E+03</rscale>
<asrwt>0</asrwt>
<pdfrwt beam="1">  1        2 0.95880944E-01 0.14968066E+03</pdfrwt>
<pdfrwt beam="2">  1       -2 0.46203165E-02 0.14968066E+03</pdfrwt>
<totfact> 0.10244201E+04</totfact>
</mgrwt>
</event>
<event>
 7    1  0.6095443E-006  0.1567795E+03  0.7546771E-02  0.1199891E+00
         -1   -1    0    0    0  501 -0.00000000000E+00  0.00000000000E+00  0.16044829343E+03  0.16044829343E+03  0.00000000000E+00 0.  1.
          1   -1    0    0  501    0  0.00000000000E+00 -0.00000000000E+00 -0.19682911686E+03  0.19682911686E+03  0.00000000000E+00 0. -1.
         23    2    1    2    0    0 -0.63365979063E+02  0.70280912740E+02  0.83993292405E+02  0.17786142024E+03  0.12500063056E+03 0.  0.
          5    1    3    3  502    0 -0.88892880064E+02  0.86366070176E+02  0.78643831856E+02  0.14686042521E+03  0.47000000000E+01 0. -1.
         -5    1    3    3    0  502  0.25526901001E+02 -0.16085157436E+02  0.53494605496E+01  0.31000995026E+02  0.47000000000E+01 0. -1.
        -11    1    1    2    0    0  0.10144118345E+02 -0.25556683000E+02 -0.10456874946E+03  0.10812340425E+03  0.00000000000E+00 0. -1.
         11    1    1    2    0    0  0.53221860719E+02 -0.44724229741E+02 -0.15805366379E+02  0.71292585804E+02  0.00000000000E+00 0.  1.
<mgrwt>
<rscale>  0 0.15047492E+03</rscale>
<asrwt>0</asrwt>
<pdfrwt beam="2">  1        1 0.30281402E-01 0.15677950E+03</pdfrwt>
<pdfrwt beam="1">  1       -1 0.24684353E-01 0.15677950E+03</pdfrwt>
<totfact> 0.20871188E+03</totfact>
</mgrwt>
</event>
<event>
 7    1  0.6095443E-006  0.1342306E+03  0.7546771E-02  0.1234262E+00
         -1   -1    0    0    0  501 -0.00000000000E+00  0.00000000000E+00  0.51527218639E+03  0.51527218639E+03  0.00000000000E+00 0.  1.
          1   -1    0    0  501    0  0.00000000000E+00 -0.00000000000E+00 -0.27264841011E+02  0.27264841011E+02  0.00000000000E+00 0. -1.
         23    2    1    2    0    0  0.32630698550E+02 -0.36435122946E+02  0.28741063618E+03  0.31721085795E+03  0.12500229575E+03 0.  0.
          5    1    3    3  502    0  0.25626935210E+02 -0.40798635965E+02  0.29862080383E+03  0.30251899607E+03  0.47000000000E+01 0.  1.
         -5    1    3    3    0  502  0.70037633399E+01  0.43635130190E+01 -0.11210167649E+02  0.14691861880E+02  0.47000000000E+01 0.  1.
        -11    1    1    2    0    0 -0.91486674175E+01  0.38175753637E+02  0.19774925328E+03  0.20160816813E+03  0.00000000000E+00 0.  1.
         11    1    1    2    0    0 -0.23482031132E+02 -0.17406306903E+01  0.28474559110E+01  0.23718001317E+02  0.00000000000E+00 0. -1.
<mgrwt>
<rscale>  0 0.12551824E+03</rscale>
<asrwt>0</asrwt>
<pdfrwt beam="2">  1        1 0.41945913E-02 0.13423060E+03</pdfrwt>
<pdfrwt beam="1">  1       -1 0.79272637E-01 0.13423060E+03</pdfrwt>
<totfact> 0.33985680E+03</totfact>
</mgrwt>
</event>
<event>
 7    1  0.6095443E-006  0.1099358E+04  0.7546771E-02  0.9205817E-01
         -1   -1    0    0    0  501 -0.00000000000E+00  0.00000000000E+00  0.17391391420E+03  0.17391391420E+03  0.00000000000E+00 0.  1.
          1   -1    0    0  501    0  0.00000000000E+00 -0.00000000000E+00 -0.17373379507E+04  0.17373379507E+04  0.00000000000E+00 0. -1.
         23    2    1    2    0    0 -0.39288165820E+03 -0.30628391094E+03 -0.69897153332E+03  0.86737996998E+03  0.12498390491E+03 0.  0.
          5    1    3    3  502    0 -0.39190139100E+02 -0.29257923814E+02 -0.15084323742E+03  0.15864320151E+03  0.47000000000E+01 0.  1.
         -5    1    3    3    0  502 -0.35369151910E+03 -0.27702598712E+03 -0.54812829590E+03  0.70873676847E+03  0.47000000000E+01 0.  1.
        -11    1    1    2    0    0  0.24115450692E+03  0.26826493564E+03 -0.33676592779E+03  0.49349048828E+03  0.00000000000E+00 0.  1.
         11    1    1    2    0    0  0.15172715128E+03  0.38018975292E+02 -0.52768657542E+03  0.55038140666E+03  0.00000000000E+00 0. -1.
<mgrwt>
<rscale>  0 0.10993584E+04</rscale>
<asrwt>0</asrwt>
<pdfrwt beam="2">  1        1 0.26728276E+00 0.10993584E+04</pdfrwt>
<pdfrwt beam="1">  1       -1 0.26755987E-01 0.10993584E+04</pdfrwt>
<totfact> 0.55854247E+01</totfact>
</mgrwt>
</event>
<event>
 7    1  0.6095443E-006  0.2008398E+03  0.7546771E-02  0.1153509E+00
         -1   -1    0    0    0  501 -0.00000000000E+00  0.00000000000E+00  0.60843315771E+03  0.60843315771E+03  0.00000000000E+00 0.  1.
          1   -1    0    0  501    0  0.00000000000E+00 -0.00000000000E+00 -0.65848351102E+02  0.65848351102E+02  0.00000000000E+00 0. -1.
         23    2    1    2    0    0 -0.59733019972E+02 -0.14541052015E+03  0.38632452748E+03  0.43541160375E+03  0.12499748439E+03 0.  0.
          5    1    3    3  502    0  0.99088482370E+01 -0.48720104697E+02  0.26906348667E+02  0.56726320819E+02  0.47000000000E+01 0. -1.
         -5    1    3    3    0  502 -0.69641868209E+02 -0.96690415450E+02  0.35941817881E+03  0.37868528293E+03  0.47000000000E+01 0. -1.
        -11    1    1    2    0    0  0.49941916581E+02  0.10993019355E+03  0.58017070045E+02  0.13395828792E+03  0.00000000000E+00 0. -1.
         11    1    1    2    0    0  0.97911033912E+01  0.35480326601E+02  0.98243209088E+02  0.10491161715E+03  0.00000000000E+00 0.  1.
<mgrwt>
<rscale>  0 0.19559542E+03</rscale>
<asrwt>0</asrwt>
<pdfrwt beam="2">  1        1 0.10130516E-01 0.20083980E+03</pdfrwt>
<pdfrwt beam="1">  1       -1 0.93605098E-01 0.20083980E+03</pdfrwt>
<totfact> 0.73326472E+02</totfact>
</mgrwt>
</event>
<event>
 7    1  0.6095443E-006  0.1236625E+03  0.7546771E-02  0.1246426E+00
         -1   -1    0    0    0  501 -0.00000000000E+00  0.00000000000E+00  0.14925319126E+03  0.14925319126E+03  0.00000000000E+00 0.  1.
          1   -1    0    0  501    0  0.00000000000E+00 -0.00000000000E+00 -0.98886460094E+02  0.98886460094E+02  0.00000000000E+00 0. -1.
         23    2    1    2    0    0 -0.37647634465E+02  0.95252288497E+00  0.72350709119E+02  0.14327264066E+03  0.11778867844E+03 0.  0.
          5    1    3    3  502    0 -0.43249881886E+02  0.66821180182E+01 -0.21484748815E+02  0.48978438277E+02  0.47000000000E+01 0. -1.
         -5    1    3    3    0  502  0.56022474210E+01 -0.57295951332E+01  0.93835457934E+02  0.94294202378E+02  0.47000000000E+01 0.  1.
        -11    1    1    2    0    0  0.21250119678E+02  0.40276367152E+02 -0.36309144223E+02  0.58241800208E+02  0.00000000000E+00 0.  1.
         11    1    1    2    0    0  0.16397514788E+02 -0.41228890037E+02  0.14325166274E+02  0.46625210495E+02  0.00000000000E+00 0. -1.
<mgrwt>
<rscale>  0 0.11800450E+03</rscale>
<asrwt>0</asrwt>
<pdfrwt beam="2">  1        1 0.15213302E-01 0.12366254E+03</pdfrwt>
<pdfrwt beam="1">  1       -1 0.22962029E-01 0.12366254E+03</pdfrwt>
<totfact> 0.55524812E+03</totfact>
</mgrwt>
</event>
<event>
 7    1  0.6095443E-006  0.1364012E+03  0.7546771E-02  0.1230148E+00
         -2   -1    0    0    0  501 -0.00000000000E+00  0.00000000000E+00  0.35439217325E+02  0.35439217325E+02  0.00000000000E+00 0.  1.
          2   -1    0    0  501    0  0.00000000000E+00 -0.00000000000E+00 -0.41855392666E+03  0.41855392666E+03  0.00000000000E+00 0. -1.
         23    2    1    2    0    0 -0.29075849150E+01 -0.54508739127E+02 -0.19754257780E+03  0.24005909310E+03  0.12500256577E+03 0.  0.
          5    1    3    3  502    0  0.33564907886E+02 -0.64927429259E+02 -0.52627393182E+02  0.90188173420E+02  0.47000000000E+01 0. -1.
         -5    1    3    3    0  502 -0.36472492801E+02  0.10418690133E+02 -0.14491518461E+03  0.14987091968E+03  0.47000000000E+01 0. -1.
        -11    1    1    2    0    0 -0.27873616723E+02 -0.11675076279E+02 -0.32673167927E+02  0.44505975079E+02  0.00000000000E+00 0.  1.
         11    1    1    2    0    0  0.30781201638E+02  0.66183815406E+02 -0.15289896361E+03  0.16942807580E+03  0.00000000000E+00 0. -1.
<mgrwt>
<rscale>  0 0.12820239E+03</rscale>
<asrwt>0</asrwt>
<pdfrwt beam="2">  1        2 0.64392913E-01 0.13640124E+03</pdfrwt>
<pdfrwt beam="1">  1       -2 0.54521871E-02 0.13640124E+03</pdfrwt>
<totfact> 0.12328956E+04</totfact>
</mgrwt>
</event>
<event>
 7    1  0.6095443E-006  0.1176379E+03  0.7546771E-02  0.1255794E+00
         -1   -1    0    0    0  501 -0.00000000000E+00  0.00000000000E+00  0.83122062881E+02  0.83122062881E+02  0.00000000000E+00 0.  1.
          1   -1    0    0  501    0  0.00000000000E+00 -0.00000000000E+00 -0.14511963757E+03  0.14511963757E+03  0.00000000000E+00 0. -1.
         23    2    1    2    0    0 -0.38559672907E+02 -0.95638978501E+01 -0.14252097874E+02  0.11849809710E+03  0.11072651085E+03 0.  0.
          5    1    3    3  502    0  0.16961534604E+01 -0.16318036445E+02 -0.56824473821E+02  0.59331830201E+02  0.47000000000E+01 0. -1.
         -5    1    3    3    0  502 -0.40255826367E+02  0.67541385945E+01  0.42572375947E+02  0.59166266896E+02  0.47000000000E+01 0.  1.
        -11    1    1    2    0    0  0.44943524400E+02 -0.31918058329E+02 -0.16896860870E+02  0.57655760685E+02  0.00000000000E+00 0.  1.
         11    1    1    2    0    0 -0.63838514931E+01  0.41481956179E+02 -0.30848615950E+02  0.52087842673E+02  0.00000000000E+00 0. -1.
<mgrwt>
<rscale>  0 0.11261963E+03</rscale>
<asrwt>0</asrwt>
<pdfrwt beam="2">  1        1 0.22326098E-01 0.11763791E+03</pdfrwt>
<pdfrwt beam="1">  1       -1 0.12788010E-01 0.11763791E+03</pdfrwt>
<totfact> 0.85607454E+03</totfact>
</mgrwt>
</event>
<event>
 7    1  0.6095443E-006  0.1956424E+03  0.7546771E-02  0.1157648E+00
         -2   -1    0    0    0  501 -0.00000000000E+00  0.00000000000E+00  0.21845468339E+03  0.21845468339E+03  0.00000000000E+00 0.  1.
          2   -1    0    0  501    0  0.00000000000E+00 -0.00000000000E+00 -0.16945912575E+03  0.16945912575E+03  0.00000000000E+00 0. -1.
         23    2    1    2    0    0  0.14529233417E+03  0.39262301405E+02  0.73223627535E+02  0.20889627665E+03  0.12499825633E+03 0.  0.
          5    1    3    3  502    0  0.30529263708E+02  0.32661373713E+02 -0.30230864915E+02  0.54173761812E+02  0.47000000000E+01 0.  1.
         -5    1    3    3    0  502  0.11476307046E+03  0.66009276922E+01  0.10345449245E+03  0.15472251483E+03  0.47000000000E+01 0.  1.
        -11    1    1    2    0    0 -0.11537885581E+03  0.50345259708E+01  0.93957141553E+01  0.11587021302E+03  0.00000000000E+00 0.  1.
         11    1    1    2    0    0 -0.29913478358E+02 -0.44296827376E+02 -0.33623784056E+02  0.63147319478E+02  0.00000000000E+00 0. -1.
<mgrwt>
<rscale>  0 0.19090512E+03</rscale>
<asrwt>0</asrwt>
<pdfrwt beam="2">  1        2 0.26070635E-01 0.19564242E+03</pdfrwt>
<pdfrwt beam="1">  1       -2 0.33608413E-01 0.19564242E+03</pdfrwt>
<totfact> 0.16813164E+03</totfact>
</mgrwt>
</event>
<event>
 7    1  0.6095443E-006  0.1300068E+03  0.7546771E-02  0.1241427E+00
         -2   -1    0    0    0  501 -0.00000000000E+00  0.00000000000E+00  0.58976442734E+03  0.58976442734E+03  0.00000000000E+00 0.  1.
          2   -1    0    0  501    0  0.00000000000E+00 -0.00000000000E+00 -0.22011527617E+02  0.22011527617E+02  0.00000000000E+00 0. -1.
         23    2    1    2    0    0  0.23279379130E+02  0.27114402834E+02  0.33852421808E+03  0.36262987542E+03  0.12499863992E+03 0.  0.
          5    1    3    3  502    0  0.24842436349E+02  0.40770978147E+02  0.36561523139E+02  0.60317943243E+02  0.47000000000E+01 0. -1.
         -5    1    3    3    0  502 -0.15630572187E+01 -0.13656575313E+02  0.30196269494E+03  0.30231193217E+03  0.47000000000E+01 0. -1.
        -11    1    1    2    0    0 -0.23708770941E+02  0.20546689028E+02  0.17120617462E+03  0.17405696332E+03  0.00000000000E+00 0.  1.
         11    1    1    2    0    0  0.42939181114E+00 -0.47661091862E+02  0.58022507021E+02  0.75089116228E+02  0.00000000000E+00 0. -1.
<mgrwt>
<rscale>  0 0.12101795E+03</rscale>
<asrwt>0</asrwt>
<pdfrwt beam="2">  1        2 0.33863893E-02 0.13000685E+03</pdfrwt>
<pdfrwt beam="1">  1       -2 0.90732977E-01 0.13000685E+03</pdfrwt>
<totfact> 0.27136111E+03</totfact>
</mgrwt>
</event>
<event>
 7    1  0.6095443E-006  0.1313507E+03  0.7546771E-02  0.1237730E+00
          3   -1    0    0  501    0  0.00000000000E+00  0.00000000000E+00  0.86599454262E+03  0.86599454262E+03  0.00000000000E+00 0. -1.
         -3   -1    0    0    0  501 -0.00000000000E+00 -0.00000000000E+00 -0.16332693190E+02  0.16332693190E+02  0.00000000000E+00 0.  1.
         23    2    1    2    0    0  0.39943490963E+02  0.58122016183E+01  0.39168169746E+03  0.41311928841E+03  0.12499492060E+03 0.  0.
          5    1    3    3  502    0  0.75899110969E+02  0.21895442091E+02  0.33309813754E+03  0.34236901826E+03  0.47000000000E+01 0.  1.
         -5    1    3    3    0  502 -0.35955620006E+02 -0.16083240472E+02  0.58583559920E+02  0.70750270155E+02  0.47000000000E+01 0.  1.
        -11    1    1    2    0    0  0.12776146448E+02  0.33717051668E+02  0.17101941964E+03  0.17477903588E+03  0.00000000000E+00 0. -1.
         11    1    1    2    0    0 -0.52719637411E+02 -0.39529253287E+02  0.28696073234E+03  0.29442891152E+03  0.00000000000E+00 0.  1.
<mgrwt>
<rscale>  0 0.12331246E+03</rscale>
<asrwt>0</asrwt>
<pdfrwt beam="1">  1        3 0.13322989E+00 0.13135065E+03</pdfrwt>
<pdfrwt beam="2">  1       -3 0.25127227E-02 0.13135065E+03</pdfrwt>
<totfact> 0.71327149E+02</totfact>
</mgrwt>
</event>
<event>
 7    1  0.6095443E-006  0.1264913E+03  0.7546771E-02  0.1247663E+00
          1   -1    0    0  501    0  0.00000000000E+00  0.00000000000E+00  0.16482554300E+03  0.16482554300E+03  0.00000000000E+00 0. -1.
         -1   -1    0    0    0  501 -0.00000000000E+00 -0.00000000000E+00 -0.75559227894E+02  0.75559227894E+02  0.00000000000E+00 0.  1.
         23    2    1    2    0    0 -0.78141073854E+01  0.16385875806E+02  0.30945794746E+02  0.13022168097E+03  0.12518181490E+03 0.  0.
          5    1    3    3  502    0 -0.60192520280E+02  0.35603667353E+02  0.22393116212E+02  0.73581942624E+02  0.47000000000E+01 0. -1.
         -5    1    3    3    0  502  0.52378412894E+02 -0.19217791547E+02  0.85526785343E+01  0.56639738341E+02  0.47000000000E+01 0. -1.
        -11    1    1    2    0    0  0.46337150081E+02  0.90407914839E+01  0.31912447779E+02  0.56984837559E+02  0.00000000000E+00 0.  1.
         11    1    1    2    0    0 -0.38523042696E+02 -0.25426667290E+02  0.26408072584E+02  0.53178252375E+02  0.00000000000E+00 0. -1.
<mgrwt>
<rscale>  0 0.11727379E+03</rscale>
<asrwt>0</asrwt>
<pdfrwt beam="1">  1        1 0.25357776E-01 0.12649128E+03</pdfrwt>
<pdfrwt beam="2">  1       -1 0.11624497E-01 0.12649128E+03</pdfrwt>
<totfact> 0.85001131E+03</totfact>
</mgrwt>
</event>
<event>
 7    1  0.6095443E-006  0.2494525E+03  0.7546771E-02  0.1116128E+00
         -3   -1    0    0    0  501 -0.00000000000E+00  0.00000000000E+00  0.32649736568E+02  0.32649736568E+02  0.00000000000E+00 0.  1.
          3   -1    0    0  501    0  0.00000000000E+00 -0.00000000000E+00 -0.17928310710E+04  0.17928310710E+04  0.00000000000E+00 0. -1.
         23    2    1    2    0    0 -0.13188106634E+03  0.17093357121E+03 -0.88932600809E+03  0.92364890844E+03  0.12496261832E+03 0.  0.
          5    1    3    3  502    0 -0.15689330115E+02  0.10701512072E+03 -0.52151449174E+03  0.53263293762E+03  0.47000000000E+01 0.  1.
         -5    1    3    3    0  502 -0.11619173622E+03  0.63918450488E+02 -0.36781151635E+03  0.39101597083E+03  0.47000000000E+01 0.  1.
        -11    1    1    2    0    0  0.32743938481E+02 -0.10210645645E+03 -0.30647239130E+03  0.32468942173E+03  0.00000000000E+00 0.  1.
         11    1    1    2    0    0  0.99137127854E+02 -0.68827114766E+02 -0.56438293505E+03  0.57714247740E+03  0.00000000000E+00 0. -1.
<mgrwt>
<rscale>  0 0.24558345E+03</rscale>
<asrwt>0</asrwt>
<pdfrwt beam="2">  1        3 0.27582012E+00 0.24945252E+03</pdfrwt>
<pdfrwt beam="1">  1       -3 0.50230373E-02 0.24945252E+03</pdfrwt>
<totfact> 0.33801330E+01</totfact>
</mgrwt>
</event>
<event>
 7    1  0.6095443E-006  0.1266134E+03  0.7546771E-02  0.1239965E+00
         -2   -1    0    0    0  501 -0.00000000000E+00  0.00000000000E+00  0.20994056953E+03  0.20994056953E+03  0.00000000000E+00 0.  1.
          2   -1    0    0  501    0  0.00000000000E+00 -0.00000000000E+00 -0.81150004503E+02  0.81150004503E+02  0.00000000000E+00 0. -1.
         23    2    1    2    0    0 -0.14413559405E+02  0.13779938800E+02  0.13103956002E+03  0.18221501434E+03  0.12503322659E+03 0.  0.
          5    1    3    3  502    0 -0.22185828806E+02  0.25484264918E+02 -0.13668757353E+02  0.36750288241E+02  0.47000000000E+01 0.  1.
         -5    1    3    3    0  502  0.77722694012E+01 -0.11704326118E+02  0.14470831737E+03  0.14546472610E+03  0.47000000000E+01 0.  1.
        -11    1    1    2    0    0 -0.96348322697E+01 -0.10957348572E+02  0.49573070382E+02  0.51675746610E+02  0.00000000000E+00 0.  1.
         11    1    1    2    0    0  0.24048391674E+02 -0.28225902273E+01 -0.51822065373E+02  0.57199813088E+02  0.00000000000E+00 0. -1.
<mgrwt>
<rscale>  0 0.12191836E+03</rscale>
<asrwt>0</asrwt>
<pdfrwt beam="2">  1        2 0.12484616E-01 0.12661337E+03</pdfrwt>
<pdfrwt beam="1">  1       -2 0.32298549E-01 0.12661337E+03</pdfrwt>
<totfact> 0.41309552E+03</totfact>
</mgrwt>
</event>
<event>
 7    1  0.6095443E-006  0.1263024E+03  0.7546771E-02  0.1247649E+00
         -4   -1    0    0    0  501 -0.00000000000E+00  0.00000000000E+00  0.14973974207E+03  0.14973974207E+03  0.00000000000E+00 0.  1.
          4   -1    0    0  501    0  0.00000000000E+00 -0.00000000000E+00 -0.11250509256E+03  0.11250509256E+03  0.00000000000E+00 0. -1.
         23    2    1    2    0    0 -0.37598413279E+01 -0.17786892913E+02  0.89477355184E+02  0.15478530235E+03  0.12498713041E+03 0.  0.
          5    1    3    3  502    0  0.54761953173E+02 -0.40593966124E+01  0.74481131560E+02  0.92654623061E+02  0.47000000000E+01 0.  1.
         -5    1    3    3    0  502 -0.58521794500E+02 -0.13727496301E+02  0.14996223624E+02  0.62130679291E+02  0.47000000000E+01 0.  1.
        -11    1    1    2    0    0 -0.36583438964E+02 -0.45934628029E+01  0.11590981333E+01  0.36888906401E+02  0.00000000000E+00 0.  1.
         11    1    1    2    0    0  0.40343280292E+02  0.22380355716E+02 -0.53401803805E+02  0.70570625875E+02  0.00000000000E+00 0. -1.
<mgrwt>
<rscale>  0 0.11728203E+03</rscale>
<asrwt>0</asrwt>
<pdfrwt beam="2">  1        4 0.17308476E-01 0.12630239E+03</pdfrwt>
<pdfrwt beam="1">  1       -4 0.23036883E-01 0.12630239E+03</pdfrwt>
<totfact> 0.83005047E+02</totfact>
</mgrwt>
</event>
<event>
 7    1  0.6095443E-006  0.1255884E+03  0.7546771E-02  0.1248324E+00
         -4   -1    0    0    0  501 -0.00000000000E+00  0.00000000000E+00  0.98851621148E+02  0.98851621148E+02  0.00000000000E+00 0.  1.
          4   -1    0    0  501    0  0.00000000000E+00 -0.00000000000E+00 -0.12234057682E+03  0.12234057682E+03  0.00000000000E+00 0. -1.
         23    2    1    2    0    0  0.11847341845E+02  0.16753356647E+01 -0.97982818048E+01  0.12597008757E+03  0.12501716033E+03 0.  0.
          5    1    3    3  502    0  0.29543096877E+02 -0.50156877346E+02  0.22067857741E+02  0.62430659642E+02  0.47000000000E+01 0.  1.
         -5    1    3    3    0  502 -0.17695755032E+02  0.51832213010E+02 -0.31866139545E+02  0.63539427927E+02  0.47000000000E+01 0.  1.
        -11    1    1    2    0    0  0.16277757515E+02  0.24282072031E+02 -0.39440652392E+02  0.49093273194E+02  0.00000000000E+00 0. -1.
         11    1    1    2    0    0 -0.28125099360E+02 -0.25957407695E+02  0.25749978522E+02  0.46128837208E+02  0.00000000000E+00 0.  1.
<mgrwt>
<rscale>  0 0.11688607E+03</rscale>
<asrwt>0</asrwt>
<pdfrwt beam="2">  1        4 0.18821627E-01 0.12558844E+03</pdfrwt>
<pdfrwt beam="1">  1       -4 0.15207942E-01 0.12558844E+03</pdfrwt>
<totfact> 0.14984422E+03</totfact>
</mgrwt>
</event>
<event>
 7    1  0.6095443E-006  0.1616746E+03  0.7546771E-02  0.1194144E+00
          2   -1    0    0  501    0  0.00000000000E+00  0.00000000000E+00  0.11881231453E+04  0.11881231453E+04  0.00000000000E+00 0. -1.
         -2   -1    0    0    0  501 -0.00000000000E+00 -0.00000000000E+00 -0.18856363717E+02  0.18856363717E+02  0.00000000000E+00 0.  1.
         23    2    1    2    0    0 -0.10211766060E+03  0.92664315841E+01  0.61288366033E+03  0.63384938980E+03  0.12499913794E+03 0.  0.
          5    1    3    3  502    0 -0.27066993552E+01 -0.10763993165E+02 -0.55638270683E+00  0.12066040443E+02  0.47000000000E+01 0.  1.
         -5    1    3    3    0  502 -0.99410961248E+02  0.20030424750E+02  0.61344004304E+03  0.62178334936E+03  0.47000000000E+01 0.  1.
        -11    1    1    2    0    0  0.28219112461E+02 -0.42710488109E+02  0.14356724184E+03  0.15242065816E+03  0.00000000000E+00 0.  1.
         11    1    1    2    0    0  0.73898548142E+02  0.33444056525E+02  0.41281587939E+03  0.42070946105E+03  0.00000000000E+00 0. -1.
<mgrwt>
<rscale>  0 0.15526903E+03</rscale>
<asrwt>0</asrwt>
<pdfrwt beam="1">  1        2 0.18278812E+00 0.16167457E+03</pdfrwt>
<pdfrwt beam="2">  1       -2 0.29009800E-02 0.16167457E+03</pdfrwt>
<totfact> 0.88442384E+03</totfact>
</mgrwt>
</event>
<event>
 7    1  0.6095443E-006  0.1654886E+03  0.7546771E-02  0.1189872E+00
          2   -1    0    0  501    0  0.00000000000E+00  0.00000000000E+00  0.12401374784E+04  0.12401374784E+04  0.00000000000E+00 0. -1.
         -2   -1    0    0    0  501 -0.00000000000E+00 -0.00000000000E+00 -0.19074734002E+02  0.19074734002E+02  0.00000000000E+00 0.  1.
         23    2    1    2    0    0 -0.35890677166E+02 -0.10233781642E+03  0.60321414324E+03  0.62550282818E+03  0.12500126431E+03 0.  0.
          5    1    3    3  502    0  0.39244134088E+02 -0.21159764773E+02  0.28670791504E+03  0.29019193003E+03  0.47000000000E+01 0. -1.
         -5    1    3    3    0  502 -0.75134811255E+02 -0.81178051648E+02  0.31650622820E+03  0.33531089815E+03  0.47000000000E+01 0. -1.
        -11    1    1    2    0    0 -0.18609399347E+02  0.79506305193E+02  0.37268815428E+03  0.38152853451E+03  0.00000000000E+00 0.  1.
         11    1    1    2    0    0  0.54500076513E+02  0.22831511228E+02  0.24516044692E+03  0.25218084975E+03  0.00000000000E+00 0. -1.
<mgrwt>
<rscale>  0 0.15896374E+03</rscale>
<asrwt>0</asrwt>
<pdfrwt beam="1">  1        2 0.19079032E+00 0.16548863E+03</pdfrwt>
<pdfrwt beam="2">  1       -2 0.29345754E-02 0.16548863E+03</pdfrwt>
<totfact> 0.81430780E+03</totfact>
</mgrwt>
</event>
<event>
 7    1  0.6095443E-006  0.3277141E+03  0.7546771E-02  0.1073410E+00
          1   -1    0    0  501    0  0.00000000000E+00  0.00000000000E+00  0.15319023583E+04  0.15319023583E+04  0.00000000000E+00 0. -1.
         -1   -1    0    0    0  501 -0.00000000000E+00 -0.00000000000E+00 -0.68323189294E+02  0.68323189294E+02  0.00000000000E+00 0.  1.
         23    2    1    2    0    0  0.28176532628E+03  0.11126582323E+03  0.67169437868E+03  0.74737532942E+03  0.12499904870E+03 0.  0.
          5    1    3    3  502    0  0.13842862919E+03  0.11961688258E+03  0.40568171749E+03  0.44505104188E+03  0.47000000000E+01 0.  1.
         -5    1    3    3    0  502  0.14333669709E+03 -0.83510593510E+01  0.26601266119E+03  0.30232428754E+03  0.47000000000E+01 0.  1.
        -11    1    1    2    0    0 -0.13655326625E+03 -0.49690836142E+02  0.50469374622E+03  0.52519686899E+03  0.00000000000E+00 0.  1.
         11    1    1    2    0    0 -0.14521206003E+03 -0.61574987084E+02  0.28719104409E+03  0.32765334917E+03  0.00000000000E+00 0. -1.
<mgrwt>
<rscale>  0 0.32491429E+03</rscale>
<asrwt>0</asrwt>
<pdfrwt beam="1">  1        1 0.23567726E+00 0.32771412E+03</pdfrwt>
<pdfrwt beam="2">  1       -1 0.10511261E-01 0.32771412E+03</pdfrwt>
<totfact> 0.38253453E+02</totfact>
</mgrwt>
</event>
<event>
 7    1  0.6095443E-006  0.1258960E+03  0.7546771E-02  0.1240254E+00
         -1   -1    0    0    0  501 -0.00000000000E+00  0.00000000000E+00  0.78844855764E+03  0.78844855764E+03  0.00000000000E+00 0.  1.
          1   -1    0    0  501    0  0.00000000000E+00 -0.00000000000E+00 -0.18941225184E+02  0.18941225184E+02  0.00000000000E+00 0. -1.
         23    2    1    2    0    0 -0.49552378407E+02 -0.33736839111E+02  0.51373360545E+03  0.52893479608E+03  0.11070767192E+03 0.  0.
          5    1    3    3  502    0 -0.28171825895E+02 -0.35715217846E+02  0.50188543571E+03  0.50396459115E+03  0.47000000000E+01 0. -1.
         -5    1    3    3    0  502 -0.21380552512E+02  0.19783787349E+01  0.11848169743E+02  0.24970204933E+02  0.47000000000E+01 0.  1.
        -11    1    1    2    0    0 -0.25055502868E+02  0.22793936945E+02  0.64480308809E+02  0.72835787972E+02  0.00000000000E+00 0.  1.
         11    1    1    2    0    0  0.74607881275E+02  0.10942902166E+02  0.19129341819E+03  0.20561919876E+03  0.00000000000E+00 0. -1.
<mgrwt>
<rscale>  0 0.12173998E+03</rscale>
<asrwt>0</asrwt>
<pdfrwt beam="2">  1        1 0.29140353E-02 0.12589599E+03</pdfrwt>
<pdfrwt beam="1">  1       -1 0.12129975E+00 0.12589599E+03</pdfrwt>
<totfact> 0.22073586E+03</totfact>
</mgrwt>
</event>
<event>
 7    1  0.6095443E-006  0.1320669E+03  0.7546771E-02  0.1237760E+00
          2   -1    0    0  501    0  0.00000000000E+00  0.00000000000E+00  0.32514743724E+03  0.32514743724E+03  0.00000000000E+00 0. -1.
         -2   -1    0    0    0  501 -0.00000000000E+00 -0.00000000000E+00 -0.41780646563E+02  0.41780646563E+02  0.00000000000E+00 0.  1.
         23    2    1    2    0    0 -0.74601169487E+01 -0.41963301284E+02  0.14662357173E+03  0.19733258936E+03  0.12500042814E+03 0.  0.
          5    1    3    3  502    0 -0.59179319975E+02 -0.39381347456E+02  0.11837367793E+03  0.13815751904E+03  0.47000000000E+01 0.  1.
         -5    1    3    3    0  502  0.51719203026E+02 -0.25819538274E+01  0.28249893801E+02  0.59175070317E+02  0.47000000000E+01 0.  1.
        -11    1    1    2    0    0  0.22444461926E+02 -0.23739251105E+02  0.39047075177E+02  0.50911491768E+02  0.00000000000E+00 0. -1.
         11    1    1    2    0    0 -0.14984344978E+02  0.65702552388E+02  0.97696143769E+02  0.11868400268E+03  0.00000000000E+00 0.  1.
<mgrwt>
<rscale>  0 0.12329388E+03</rscale>
<asrwt>0</asrwt>
<pdfrwt beam="1">  1        2 0.50022681E-01 0.13206695E+03</pdfrwt>
<pdfrwt beam="2">  1       -2 0.64277920E-02 0.13206695E+03</pdfrwt>
<totfact> 0.12540319E+04</totfact>
</mgrwt>
</event>
<event>
 7    1  0.9348107E-006  0.2499948E+03  0.7546771E-02  0.1115789E+00
          3   -1    0    0  501    0  0.00000000000E+00  0.00000000000E+00  0.25115450582E+03  0.25115450582E+03  0.00000000000E+00 0. -1.
         -3   -1    0    0    0  501 -0.00000000000E+00 -0.00000000000E+00 -0.29945614474E+03  0.29945614474E+03  0.00000000000E+00 0.  1.
         23    2    1    2    0    0  0.54822580814E+02  0.20944207882E+03 -0.15344926841E+03  0.29333272314E+03  0.12500363492E+03 0.  0.
          5    1    3    3  502    0  0.40786226582E+02  0.16708145674E+03 -0.17335687760E+03  0.24424255665E+03  0.47000000000E+01 0. -1.
         -5    1    3    3    0  502  0.14036354232E+02  0.42360622079E+02  0.19907609190E+02  0.49090166497E+02  0.47000000000E+01 0. -1.
        -11    1    1    2    0    0 -0.18669908735E+02 -0.15471817444E+03  0.32110947484E+02  0.15911439891E+03  0.00000000000E+00 0.  1.
         11    1    1    2    0    0 -0.36152672079E+02 -0.54723904383E+02  0.73036682004E+02  0.98163528500E+02  0.00000000000E+00 0. -1.
<mgrwt>
<rscale>  0 0.24610904E+03</rscale>
<asrwt>0</asrwt>
<pdfrwt beam="1">  1        3 0.38639155E-01 0.24999482E+03</pdfrwt>
<pdfrwt beam="2">  1       -3 0.46070176E-01 0.24999482E+03</pdfrwt>
<totfact> 0.77706088E+01</totfact>
</mgrwt>
</event>
<event>
 7    1  0.6095443E-006  0.1370458E+03  0.7546771E-02  0.1225665E+00
         -1   -1    0    0    0  501 -0.00000000000E+00  0.00000000000E+00  0.12221833417E+04  0.12221833417E+04  0.00000000000E+00 0.  1.
          1   -1    0    0  501    0  0.00000000000E+00 -0.00000000000E+00 -0.51723171731E+02  0.51723171731E+02  0.00000000000E+00 0. -1.
         23    2    1    2    0    0  0.77774679836E+00  0.69240950038E+02  0.11485204610E+04  0.11566679780E+04  0.11826515955E+03 0.  0.
          5    1    3    3  502    0 -0.27814986733E+02 -0.19513769143E+02  0.15395565581E+03  0.15773044928E+03  0.47000000000E+01 0. -1.
         -5    1    3    3    0  502  0.28592733531E+02  0.88754719181E+02  0.99456480516E+03  0.99893752870E+03  0.47000000000E+01 0.  1.
        -11    1    1    2    0    0  0.41846063400E+02 -0.49077017312E+02  0.26788024597E+02  0.69837274518E+02  0.00000000000E+00 0.  1.
         11    1    1    2    0    0 -0.42623810198E+02 -0.20163932725E+02 -0.48483155513E+01  0.47401260979E+02  0.00000000000E+00 0. -1.
<mgrwt>
<rscale>  0 0.13121448E+03</rscale>
<asrwt>0</asrwt>
<pdfrwt beam="2">  1        1 0.79574120E-02 0.13704584E+03</pdfrwt>
<pdfrwt beam="1">  1       -1 0.18802818E+00 0.13704584E+03</pdfrwt>
<totfact> 0.17868696E+02</totfact>
</mgrwt>
</event>
<event>
 7    1  0.6095443E-006  0.1482342E+03  0.7546771E-02  0.1215492E+00
         -1   -1    0    0    0  501 -0.00000000000E+00  0.00000000000E+00  0.51663615869E+03  0.51663615869E+03  0.00000000000E+00 0.  1.
          1   -1    0    0  501    0  0.00000000000E+00 -0.00000000000E+00 -0.32936382332E+02  0.32936382332E+02  0.00000000000E+00 0. -1.
         23    2    1    2    0    0  0.77653148697E+02  0.17851156888E+02  0.27411554721E+03  0.31162912734E+03  0.12499881790E+03 0.  0.
          5    1    3    3  502    0  0.95103316111E+02 -0.19379121575E+02  0.23657734506E+03  0.25575597995E+03  0.47000000000E+01 0. -1.
         -5    1    3    3    0  502 -0.17450167414E+02  0.37230278463E+02  0.37538202156E+02  0.55873147382E+02  0.47000000000E+01 0. -1.
        -11    1    1    2    0    0 -0.81976399726E+02  0.10001243536E+02  0.17353152003E+03  0.19218049700E+03  0.00000000000E+00 0.  1.
         11    1    1    2    0    0  0.43232510292E+01 -0.27852400424E+02  0.36052709119E+02  0.45762916686E+02  0.00000000000E+00 0. -1.
<mgrwt>
<rscale>  0 0.13840460E+03</rscale>
<asrwt>0</asrwt>
<pdfrwt beam="2">  1        1 0.50671361E-02 0.14823421E+03</pdfrwt>
<pdfrwt beam="1">  1       -1 0.79482480E-01 0.14823421E+03</pdfrwt>
<totfact> 0.26226747E+03</totfact>
</mgrwt>
</event>
<event>
 7    1  0.6095443E-006  0.1898369E+03  0.7546771E-02  0.1163445E+00
          2   -1    0    0  501    0  0.00000000000E+00  0.00000000000E+00  0.30856279952E+03  0.30856279952E+03  0.00000000000E+00 0. -1.
         -2   -1    0    0    0  501 -0.00000000000E+00 -0.00000000000E+00 -0.12380489769E+03  0.12380489769E+03  0.00000000000E+00 0.  1.
         23    2    1    2    0    0 -0.23916517503E+02 -0.14085785405E+03  0.11974582079E+02  0.19021418437E+03  0.12500044185E+03 0.  0.
          5    1    3    3  502    0 -0.59799302413E+02 -0.10095711940E+03  0.46420751063E+02  0.12627459228E+03  0.47000000000E+01 0.  1.
         -5    1    3    3    0  502  0.35882784910E+02 -0.39900734646E+02 -0.34446168985E+02  0.63939592084E+02  0.47000000000E+01 0.  1.
        -11    1    1    2    0    0  0.54386612014E+02  0.68578452426E+02  0.65828905655E+02  0.10951873138E+03  0.00000000000E+00 0.  1.
         11    1    1    2    0    0 -0.30470094511E+02  0.72279401621E+02  0.10695441410E+03  0.13263478146E+03  0.00000000000E+00 0. -1.
<mgrwt>
<rscale>  0 0.18457795E+03</rscale>
<asrwt>0</asrwt>
<pdfrwt beam="1">  1        2 0.47471200E-01 0.18983689E+03</pdfrwt>
<pdfrwt beam="2">  1       -2 0.19046907E-01 0.18983689E+03</pdfrwt>
<totfact> 0.23896192E+03</totfact>
</mgrwt>
</event>
<event>
 7    1  0.6095443E-006  0.1410238E+03  0.7546771E-02  0.1216779E+00
         -4   -1    0    0    0  501 -0.00000000000E+00  0.00000000000E+00  0.13082874998E+03  0.13082874998E+03  0.00000000000E+00 0.  1.
          4   -1    0    0  501    0  0.00000000000E+00 -0.00000000000E+00 -0.18269940729E+03  0.18269940729E+03  0.00000000000E+00 0. -1.
         23    2    1    2    0    0 -0.84485844345E+02 -0.20467116968E+02  0.50874234121E+02  0.14991962869E+03  0.11104479545E+03 0.  0.
          5    1    3    3  502    0  0.26828973859E+02 -0.44734909308E+01  0.16825246532E+02  0.32326225890E+02  0.47000000000E+01 0. -1.
         -5    1    3    3    0  502 -0.11131481820E+03 -0.15993626037E+02  0.34048987588E+02  0.11759340280E+03  0.47000000000E+01 0.  1.
        -11    1    1    2    0    0  0.80287858908E+02  0.50847371299E+02 -0.88234815636E+02  0.12968029205E+03  0.00000000000E+00 0. -1.
         11    1    1    2    0    0  0.41979854373E+01 -0.30380254331E+02 -0.14510075793E+02  0.33928236537E+02  0.00000000000E+00 0.  1.
<mgrwt>
<rscale>  0 0.13746632E+03</rscale>
<asrwt>0</asrwt>
<pdfrwt beam="2">  1        4 0.28107601E-01 0.14102378E+03</pdfrwt>
<pdfrwt beam="1">  1       -4 0.20127500E-01 0.14102378E+03</pdfrwt>
<totfact> 0.44865287E+02</totfact>
</mgrwt>
</event>
<event>
 7    1  0.6095443E-006  0.2256683E+03  0.7546771E-02  0.1132903E+00
          2   -1    0    0  501    0  0.00000000000E+00  0.00000000000E+00  0.13412674837E+04  0.13412674837E+04  0.00000000000E+00 0. -1.
         -2   -1    0    0    0  501 -0.00000000000E+00 -0.00000000000E+00 -0.36122061799E+02  0.36122061799E+02  0.00000000000E+00 0.  1.
         23    2    1    2    0    0  0.18027100998E+03  0.52941991066E+02  0.78851962141E+03  0.82017643082E+03  0.12500277143E+03 0.  0.
          5    1    3    3  502    0  0.16302710804E+03  0.87787143012E+02  0.68131415577E+03  0.70604212997E+03  0.47000000000E+01 0.  1.
         -5    1    3    3    0  502  0.17243901947E+02 -0.34845151947E+02  0.10720546563E+03  0.11413430085E+03  0.47000000000E+01 0.  1.
        -11    1    1    2    0    0 -0.13435330281E+03 -0.32084407335E+02  0.46483152445E+03  0.48492119493E+03  0.00000000000E+00 0. -1.
         11    1    1    2    0    0 -0.45917707169E+02 -0.20857583731E+02  0.51794276053E+02  0.72291919760E+02  0.00000000000E+00 0.  1.
<mgrwt>
<rscale>  0 0.22131921E+03</rscale>
<asrwt>0</asrwt>
<pdfrwt beam="1">  1        2 0.20634881E+00 0.22566831E+03</pdfrwt>
<pdfrwt beam="2">  1       -2 0.55572413E-02 0.22566831E+03</pdfrwt>
<totfact> 0.27684857E+03</totfact>
</mgrwt>
</event>
<event>
 6    1  0.6095443E-006  0.3037210E+03  0.7546771E-02  0.1112887E+00
          2   -1    0    0  501    0  0.00000000000E+00  0.00000000000E+00  0.11044101152E+04  0.11044101152E+04  0.00000000000E+00 0. -1.
         -2   -1    0    0    0  501 -0.00000000000E+00 -0.00000000000E+00 -0.48016783029E+02  0.48016783029E+02  0.00000000000E+00 0.  1.
          5    1    1    2  502    0  0.13312331613E+03  0.19427061954E+02  0.51707478537E+03  0.53431044505E+03  0.47000000000E+01 0. -1.
         -5    1    1    2    0  502 -0.51595349097E+02 -0.82262704213E+02  0.50816243108E+02  0.10969782640E+03  0.47000000000E+01 0.  1.
        -11    1    1    2    0    0 -0.91023580174E+02  0.31533434001E+02  0.43635029057E+03  0.44685705286E+03  0.00000000000E+00 0.  1.
         11    1    1    2    0    0  0.94956131455E+01  0.31302208257E+02  0.52152013154E+02  0.61561573947E+02  0.00000000000E+00 0. -1.
<mgrwt>
<rscale>  0 0.25066277E+03</rscale>
<asrwt>0</asrwt>
<pdfrwt beam="1">  1        2 0.16990923E+00 0.30372098E+03</pdfrwt>
<pdfrwt beam="2">  1       -2 0.73871982E-02 0.30372098E+03</pdfrwt>
<totfact> 0.24324533E+03</totfact>
</mgrwt>
</event>
<event>
 7    1  0.6095443E-006  0.1519693E+03  0.7546771E-02  0.1207091E+00
          1   -1    0    0  501    0  0.00000000000E+00  0.00000000000E+00  0.16660036043E+03  0.16660036043E+03  0.00000000000E+00 0. -1.
         -1   -1    0    0    0  501 -0.00000000000E+00 -0.00000000000E+00 -0.12224242123E+03  0.12224242123E+03  0.00000000000E+00 0.  1.
         23    2    1    2    0    0 -0.75456208988E+02  0.42142311762E+02 -0.10417522581E+02  0.15232595159E+03  0.12500022735E+03 0.  0.
          5    1    3    3  502    0 -0.99456226255E+02  0.61456035419E+02  0.58896633085E+01  0.11715444236E+03  0.47000000000E+01 0. -1.
         -5    1    3    3    0  502  0.24000017267E+02 -0.19313723658E+02 -0.16307185890E+02  0.35171509237E+02  0.47000000000E+01 0. -1.
        -11    1    1    2    0    0  0.68817700109E+02 -0.57194595566E+02  0.11498071057E+02  0.90218087146E+02  0.00000000000E+00 0.  1.
         11    1    1    2    0    0  0.66385088791E+01  0.15052283804E+02  0.43277390723E+02  0.46298742916E+02  0.00000000000E+00 0. -1.
<mgrwt>
<rscale>  0 0.14473859E+03</rscale>
<asrwt>0</asrwt>
<pdfrwt beam="1">  1        1 0.25630825E-01 0.15196931E+03</pdfrwt>
<pdfrwt beam="2">  1       -1 0.18806526E-01 0.15196931E+03</pdfrwt>
<totfact> 0.39933769E+03</totfact>
</mgrwt>
</event>
<event>
 7    1  0.6095443E-006  0.1599189E+03  0.7546771E-02  0.1195096E+00
         -1   -1    0    0    0  501 -0.00000000000E+00  0.00000000000E+00  0.31112632801E+02  0.31112632801E+02  0.00000000000E+00 0.  1.
          1   -1    0    0  501    0  0.00000000000E+00 -0.00000000000E+00 -0.72194019627E+03  0.72194019627E+03  0.00000000000E+00 0. -1.
         23    2    1    2    0    0 -0.55609796247E+02 -0.82798844035E+02 -0.34463573991E+03  0.37993137570E+03  0.12500383597E+03 0.  0.
          5    1    3    3  502    0 -0.96340284633E+01  0.12930281867E+02 -0.19857197360E+03  0.19928102115E+03  0.47000000000E+01 0. -1.
         -5    1    3    3    0  502 -0.45975767784E+02 -0.95729125902E+02 -0.14606376631E+03  0.18065035455E+03  0.47000000000E+01 0. -1.
        -11    1    1    2    0    0 -0.22378740591E+02  0.37797304224E+02 -0.70167493744E+02  0.82782373821E+02  0.00000000000E+00 0. -1.
         11    1    1    2    0    0  0.77988536838E+02  0.45001539811E+02 -0.27602432982E+03  0.29033907955E+03  0.00000000000E+00 0.  1.
<mgrwt>
<rscale>  0 0.15446085E+03</rscale>
<asrwt>0</asrwt>
<pdfrwt beam="2">  1        1 0.11106772E+00 0.15991891E+03</pdfrwt>
<pdfrwt beam="1">  1       -1 0.47865591E-02 0.15991891E+03</pdfrwt>
<totfact> 0.49466106E+03</totfact>
</mgrwt>
</event>
<event>
 7    1  0.6095443E-006  0.1262501E+03  0.7546771E-02  0.1249830E+00
          1   -1    0    0  501    0  0.00000000000E+00  0.00000000000E+00  0.57373259822E+03  0.57373259822E+03  0.00000000000E+00 0. -1.
         -1   -1    0    0    0  501 -0.00000000000E+00 -0.00000000000E+00 -0.20880880493E+02  0.20880880493E+02  0.00000000000E+00 0.  1.
         23    2    1    2    0    0 -0.15943955955E+02 -0.70241739608E+01  0.27614436974E+03  0.30363598289E+03  0.12504218654E+03 0.  0.
          5    1    3    3  502    0 -0.12946922561E+02  0.26332603281E+02  0.26693648193E+03  0.26858556213E+03  0.47000000000E+01 0.  1.
         -5    1    3    3    0  502 -0.29970333940E+01 -0.33356777242E+02  0.92078878033E+01  0.35050420753E+02  0.47000000000E+01 0.  1.
        -11    1    1    2    0    0  0.40337690504E+02  0.32540421490E+02  0.12706887359E+03  0.13723158143E+03  0.00000000000E+00 0.  1.
         11    1    1    2    0    0 -0.24393734549E+02 -0.25516247529E+02  0.14963847440E+03  0.15374591440E+03  0.00000000000E+00 0. -1.
<mgrwt>
<rscale>  0 0.11600878E+03</rscale>
<asrwt>0</asrwt>
<pdfrwt beam="1">  1        1 0.88266542E-01 0.12625014E+03</pdfrwt>
<pdfrwt beam="2">  1       -1 0.32124436E-02 0.12625014E+03</pdfrwt>
<totfact> 0.12073841E+04</totfact>
</mgrwt>
</event>
<event>
 7    1  0.6095443E-006  0.1509478E+03  0.7546771E-02  0.1201295E+00
         -1   -1    0    0    0  501 -0.00000000000E+00  0.00000000000E+00  0.76490027692E+02  0.76490027692E+02  0.00000000000E+00 0.  1.
          1   -1    0    0  501    0  0.00000000000E+00 -0.00000000000E+00 -0.29376225833E+03  0.29376225833E+03  0.00000000000E+00 0. -1.
         23    2    1    2    0    0  0.71723002540E+02  0.11697664957E+02 -0.13745450368E+03  0.19950069920E+03  0.12500305572E+03 0.  0.
          5    1    3    3  502    0  0.57207107486E+02  0.49241106217E+02 -0.24500015798E+02  0.79496417922E+02  0.47000000000E+01 0. -1.
         -5    1    3    3    0  502  0.14515895054E+02 -0.37543441260E+02 -0.11295448788E+03  0.12000428127E+03  0.47000000000E+01 0. -1.
        -11    1    1    2    0    0 -0.69946437927E+01 -0.51250529216E+02  0.10524916804E+02  0.52785562992E+02  0.00000000000E+00 0.  1.
         11    1    1    2    0    0 -0.64728358748E+02  0.39552864259E+02 -0.90342643761E+02  0.11796602383E+03  0.00000000000E+00 0. -1.
<mgrwt>
<rscale>  0 0.14933307E+03</rscale>
<asrwt>0</asrwt>
<pdfrwt beam="2">  1        1 0.45194194E-01 0.15094779E+03</pdfrwt>
<pdfrwt beam="1">  1       -1 0.11767697E-01 0.15094779E+03</pdfrwt>
<totfact> 0.41155774E+03</totfact>
</mgrwt>
</event>
<event>
 7    1  0.6095443E-006  0.1313212E+03  0.7546771E-02  0.1238070E+00
         -1   -1    0    0    0  501 -0.00000000000E+00  0.00000000000E+00  0.62785986033E+02  0.62785986033E+02  0.00000000000E+00 0.  1.
          1   -1    0    0  501    0  0.00000000000E+00 -0.00000000000E+00 -0.23750862417E+03  0.23750862417E+03  0.00000000000E+00 0. -1.
         23    2    1    2    0    0 -0.27125068556E+02  0.29711632295E+02 -0.52345377269E+02  0.14136932739E+03  0.12500679089E+03 0.  0.
          5    1    3    3  502    0  0.69530689977E+01  0.73402765929E+02 -0.18114023985E+02  0.76069172990E+02  0.47000000000E+01 0. -1.
         -5    1    3    3    0  502 -0.34078137554E+02 -0.43691133634E+02 -0.34231353284E+02  0.65300154403E+02  0.47000000000E+01 0. -1.
        -11    1    1    2    0    0  0.60822351556E+02 -0.10141480108E+02 -0.65281320052E+02  0.89798991171E+02  0.00000000000E+00 0.  1.
         11    1    1    2    0    0 -0.33697283000E+02 -0.19570152187E+02 -0.57095940818E+02  0.69126291642E+02  0.00000000000E+00 0. -1.
<mgrwt>
<rscale>  0 0.12309934E+03</rscale>
<asrwt>0</asrwt>
<pdfrwt beam="2">  1        1 0.36539788E-01 0.13132116E+03</pdfrwt>
<pdfrwt beam="1">  1       -1 0.96593825E-02 0.13132116E+03</pdfrwt>
<totfact> 0.71872788E+03</totfact>
</mgrwt>
</event>
<event>
 7    1  0.6095443E-006  0.1521461E+03  0.7546771E-02  0.1207518E+00
         -1   -1    0    0    0  501 -0.00000000000E+00  0.00000000000E+00  0.52392743032E+02  0.52392743032E+02  0.00000000000E+00 0.  1.
          1   -1    0    0  501    0  0.00000000000E+00 -0.00000000000E+00 -0.37297449855E+03  0.37297449855E+03  0.00000000000E+00 0. -1.
         23    2    1    2    0    0 -0.79227305411E+02  0.35305420175E+02 -0.14102602431E+03  0.20745308717E+03  0.12500002091E+03 0.  0.
          5    1    3    3  502    0  0.32092249569E+02  0.16280890289E+02 -0.52782214012E+02  0.64054913840E+02  0.47000000000E+01 0.  1.
         -5    1    3    3    0  502 -0.11131955498E+03  0.19024529886E+02 -0.88243810293E+02  0.14339817333E+03  0.47000000000E+01 0.  1.
        -11    1    1    2    0    0  0.16579917078E+02 -0.46612400122E+02 -0.12369107701E+03  0.13321821207E+03  0.00000000000E+00 0. -1.
         11    1    1    2    0    0  0.62647388333E+02  0.11306979947E+02 -0.55864654199E+02  0.84695942342E+02  0.00000000000E+00 0.  1.
<mgrwt>
<rscale>  0 0.14440801E+03</rscale>
<asrwt>0</asrwt>
<pdfrwt beam="2">  1        1 0.57380693E-01 0.15214613E+03</pdfrwt>
<pdfrwt beam="1">  1       -1 0.80604219E-02 0.15214613E+03</pdfrwt>
<totfact> 0.54498450E+03</totfact>
</mgrwt>
</event>
<event>
 7    1  0.6095443E-006  0.1337117E+03  0.7546771E-02  0.1235525E+00
         -3   -1    0    0    0  501 -0.00000000000E+00  0.00000000000E+00  0.93432536112E+02  0.93432536112E+02  0.00000000000E+00 0.  1.
          3   -1    0    0  501    0  0.00000000000E+00 -0.00000000000E+00 -0.18491777581E+03  0.18491777581E+03  0.00000000000E+00 0. -1.
         23    2    1    2    0    0 -0.11798535907E+02  0.45991001974E+02  0.11217811411E+02  0.13418147558E+03  0.12499780552E+03 0.  0.
          5    1    3    3  502    0 -0.23208575149E+02  0.17097155091E+02 -0.54223271747E+02  0.61588991481E+02  0.47000000000E+01 0.  1.
         -5    1    3    3    0  502  0.11410039242E+02  0.28893846883E+02  0.65441083158E+02  0.72592484102E+02  0.47000000000E+01 0.  1.
        -11    1    1    2    0    0 -0.26314684585E+02  0.10275606190E+02 -0.11667999385E+02  0.30564569636E+02  0.00000000000E+00 0.  1.
         11    1    1    2    0    0  0.38113220492E+02 -0.56266608164E+02 -0.91035051720E+02  0.11360426670E+03  0.00000000000E+00 0. -1.
<mgrwt>
<rscale>  0 0.12470887E+03</rscale>
<asrwt>0</asrwt>
<pdfrwt beam="2">  1        3 0.28448889E-01 0.13371174E+03</pdfrwt>
<pdfrwt beam="1">  1       -3 0.14374236E-01 0.13371174E+03</pdfrwt>
<totfact> 0.10881866E+03</totfact>
</mgrwt>
</event>
<event>
 7    1  0.6095443E-006  0.1299725E+03  0.7546771E-02  0.1240801E+00
          1   -1    0    0  501    0  0.00000000000E+00  0.00000000000E+00  0.15259053627E+03  0.15259053627E+03  0.00000000000E+00 0. -1.
         -1   -1    0    0    0  501 -0.00000000000E+00 -0.00000000000E+00 -0.87121774185E+02  0.87121774185E+02  0.00000000000E+00 0.  1.
         23    2    1    2    0    0  0.25149934886E+02  0.25198758688E+02  0.22759125133E+02  0.13195013093E+03  0.12500145044E+03 0.  0.
          5    1    3    3  502    0 -0.42004809056E+01  0.70924241847E+02  0.29350089537E+02  0.77015646964E+02  0.47000000000E+01 0. -1.
         -5    1    3    3    0  502  0.29350415791E+02 -0.45725483159E+02 -0.65909644035E+01  0.54934483970E+02  0.47000000000E+01 0. -1.
        -11    1    1    2    0    0  0.16619295462E+02 -0.20640546148E+02  0.57423531881E+02  0.63243143032E+02  0.00000000000E+00 0. -1.
         11    1    1    2    0    0 -0.41769230347E+02 -0.45582125402E+01 -0.14713894933E+02  0.44519036484E+02  0.00000000000E+00 0.  1.
<mgrwt>
<rscale>  0 0.12140278E+03</rscale>
<asrwt>0</asrwt>
<pdfrwt beam="1">  1        1 0.23475467E-01 0.12997253E+03</pdfrwt>
<pdfrwt beam="2">  1       -1 0.13403350E-01 0.12997253E+03</pdfrwt>
<totfact> 0.75306980E+03</totfact>
</mgrwt>
</event>
<event>
 7    1  0.6095443E-006  0.1333007E+03  0.7546771E-02  0.1239460E+00
          1   -1    0    0  501    0  0.00000000000E+00  0.00000000000E+00  0.83615388238E+02  0.83615388238E+02  0.00000000000E+00 0. -1.
         -1   -1    0    0    0  501 -0.00000000000E+00 -0.00000000000E+00 -0.19882753631E+03  0.19882753631E+03  0.00000000000E+00 0.  1.
         23    2    1    2    0    0 -0.42400983104E+02 -0.18599465931E+02 -0.13099226193E+03  0.18689050826E+03  0.12500122355E+03 0.  0.
          5    1    3    3  502    0 -0.22616522656E+02  0.53137835591E+02 -0.67491103729E+02  0.88950973862E+02  0.47000000000E+01 0. -1.
         -5    1    3    3    0  502 -0.19784460448E+02 -0.71737301522E+02 -0.63501158205E+02  0.97939534398E+02  0.47000000000E+01 0. -1.
        -11    1    1    2    0    0  0.56110097500E+02  0.30472973762E+02 -0.93808472122E+01  0.64536388694E+02  0.00000000000E+00 0.  1.
         11    1    1    2    0    0 -0.13709114396E+02 -0.11873507831E+02  0.25160961072E+02  0.31016027596E+02  0.00000000000E+00 0. -1.
<mgrwt>
<rscale>  0 0.12223166E+03</rscale>
<asrwt>0</asrwt>
<pdfrwt beam="1">  1        1 0.12863906E-01 0.13330075E+03</pdfrwt>
<pdfrwt beam="2">  1       -1 0.30588851E-01 0.13330075E+03</pdfrwt>
<totfact> 0.43191704E+03</totfact>
</mgrwt>
</event>
<event>
 7    1  0.6095443E-006  0.1267642E+03  0.7546771E-02  0.1246749E+00
         -1   -1    0    0    0  501 -0.00000000000E+00  0.00000000000E+00  0.22711262916E+02  0.22711262916E+02  0.00000000000E+00 0.  1.
          1   -1    0    0  501    0  0.00000000000E+00 -0.00000000000E+00 -0.55430644420E+03  0.55430644420E+03  0.00000000000E+00 0. -1.
         23    2    1    2    0    0 -0.14697314754E+02 -0.15103927939E+02 -0.25641316128E+03  0.28603650212E+03  0.12500012628E+03 0.  0.
          5    1    3    3  502    0 -0.58998605371E+02 -0.28155999348E+02 -0.21158098597E+03  0.22149988569E+03  0.47000000000E+01 0. -1.
         -5    1    3    3    0  502  0.44301290617E+02  0.13052071409E+02 -0.44832175307E+02  0.64536616437E+02  0.47000000000E+01 0. -1.
        -11    1    1    2    0    0 -0.21167898778E+02  0.33860664361E+02 -0.60319922622E+02  0.72340290259E+02  0.00000000000E+00 0.  1.
         11    1    1    2    0    0  0.35865213532E+02 -0.18756736422E+02 -0.21486209739E+03  0.21864091474E+03  0.00000000000E+00 0. -1.
<mgrwt>
<rscale>  0 0.11781338E+03</rscale>
<asrwt>0</asrwt>
<pdfrwt beam="2">  1        1 0.85277921E-01 0.12676423E+03</pdfrwt>
<pdfrwt beam="1">  1       -1 0.34940402E-02 0.12676423E+03</pdfrwt>
<totfact> 0.11188163E+04</totfact>
</mgrwt>
</event>
<event>
 7    1  0.6095443E-006  0.1304367E+03  0.7546771E-02  0.1239439E+00
         -1   -1    0    0    0  501 -0.00000000000E+00  0.00000000000E+00  0.43238181318E+02  0.43238181318E+02  0.00000000000E+00 0.  1.
          1   -1    0    0  501    0  0.00000000000E+00 -0.00000000000E+00 -0.31460969552E+03  0.31460969552E+03  0.00000000000E+00 0. -1.
         23    2    1    2    0    0 -0.15057701569E+02 -0.34126730352E+02 -0.12855000434E+03  0.18313613082E+03  0.12498948235E+03 0.  0.
          5    1    3    3  502    0 -0.57825355789E+02  0.12546229284E+02 -0.93148738305E+02  0.11045341592E+03  0.47000000000E+01 0. -1.
         -5    1    3    3    0  502  0.42767654220E+02 -0.46672959635E+02 -0.35401266033E+02  0.72682714901E+02  0.47000000000E+01 0. -1.
        -11    1    1    2    0    0 -0.28159870435E+02  0.18224152259E+02 -0.11353675861E+02  0.35411918672E+02  0.00000000000E+00 0.  1.
         11    1    1    2    0    0  0.43217572004E+02  0.15902578093E+02 -0.13146783400E+03  0.13929982734E+03  0.00000000000E+00 0. -1.
<mgrwt>
<rscale>  0 0.12224491E+03</rscale>
<asrwt>0</asrwt>
<pdfrwt beam="2">  1        1 0.48401491E-01 0.13043672E+03</pdfrwt>
<pdfrwt beam="1">  1       -1 0.66520280E-02 0.13043672E+03</pdfrwt>
<totfact> 0.89073672E+03</totfact>
</mgrwt>
</event>
<event>
 7    1  0.6095443E-006  0.1486402E+03  0.7546771E-02  0.1209820E+00
         -1   -1    0    0    0  501 -0.00000000000E+00  0.00000000000E+00  0.61347322817E+03  0.61347322817E+03  0.00000000000E+00 0.  1.
          1   -1    0    0  501    0  0.00000000000E+00 -0.00000000000E+00 -0.32759646709E+02  0.32759646709E+02  0.00000000000E+00 0. -1.
         23    2    1    2    0    0 -0.75188251126E+02  0.28479773721E+02  0.39253446144E+03  0.41973468184E+03  0.12501811510E+03 0.  0.
          5    1    3    3  502    0 -0.59019924486E+02 -0.25281351856E+02  0.82617100910E+02  0.10473859652E+03  0.47000000000E+01 0.  1.
         -5    1    3    3    0  502 -0.16168326639E+02  0.53761125577E+02  0.30991736053E+03  0.31499608532E+03  0.47000000000E+01 0.  1.
        -11    1    1    2    0    0  0.50881788035E+02 -0.59253102165E+02  0.16051482894E+03  0.17850741380E+03  0.00000000000E+00 0.  1.
         11    1    1    2    0    0  0.24306463091E+02  0.30773328444E+02  0.27664291078E+02  0.47990779243E+02  0.00000000000E+00 0. -1.
<mgrwt>
<rscale>  0 0.14264048E+03</rscale>
<asrwt>0</asrwt>
<pdfrwt beam="2">  1        1 0.50399461E-02 0.14864017E+03</pdfrwt>
<pdfrwt beam="1">  1       -1 0.94380488E-01 0.14864017E+03</pdfrwt>
<totfact> 0.18416673E+03</totfact>
</mgrwt>
</event>
<event>
 7    1  0.6095443E-006  0.1255521E+03  0.7546771E-02  0.1249668E+00
          2   -1    0    0  501    0  0.00000000000E+00  0.00000000000E+00  0.36280853930E+03  0.36280853930E+03  0.00000000000E+00 0. -1.
         -2   -1    0    0    0  501 -0.00000000000E+00 -0.00000000000E+00 -0.32667209260E+02  0.32667209260E+02  0.00000000000E+00 0.  1.
         23    2    1    2    0    0 -0.11698260840E+02  0.18666600479E+01  0.17923318937E+03  0.21883298845E+03  0.12499202749E+03 0.  0.
          5    1    3    3  502    0 -0.54238813055E+02  0.22135257424E+02  0.15472557370E+03  0.16551106192E+03  0.47000000000E+01 0.  1.
         -5    1    3    3    0  502  0.42540552215E+02 -0.20268597376E+02  0.24507615668E+02  0.53321926523E+02  0.47000000000E+01 0.  1.
        -11    1    1    2    0    0 -0.26826386176E+02 -0.32163049186E+02  0.57225746703E+02  0.70914757377E+02  0.00000000000E+00 0.  1.
         11    1    1    2    0    0  0.38524647016E+02  0.30296389138E+02  0.93682393965E+02  0.10572800273E+03  0.00000000000E+00 0. -1.
<mgrwt>
<rscale>  0 0.11610279E+03</rscale>
<asrwt>0</asrwt>
<pdfrwt beam="1">  1        2 0.55816696E-01 0.12555214E+03</pdfrwt>
<pdfrwt beam="2">  1       -2 0.50257247E-02 0.12555214E+03</pdfrwt>
<totfact> 0.16118578E+04</totfact>
</mgrwt>
</event>
<event>
 7    1  0.6095443E-006  0.1425968E+03  0.7546771E-02  0.1220750E+00
         -1   -1    0    0    0  501 -0.00000000000E+00  0.00000000000E+00  0.22533380520E+02  0.22533380520E+02  0.00000000000E+00 0.  1.
          1   -1    0    0  501    0  0.00000000000E+00 -0.00000000000E+00 -0.83234610782E+03  0.83234610782E+03  0.00000000000E+00 0. -1.
         23    2    1    2    0    0  0.21799654062E+02  0.65086880273E+02 -0.29378500955E+03  0.32656315086E+03  0.12498933061E+03 0.  0.
          5    1    3    3  502    0  0.31146677793E+02 -0.30580265584E+02 -0.65831696335E+02  0.79127557925E+02  0.47000000000E+01 0. -1.
         -5    1    3    3    0  502 -0.93470237315E+01  0.95667145857E+02 -0.22795331321E+03  0.24743559294E+03  0.47000000000E+01 0. -1.
        -11    1    1    2    0    0  0.71577683842E+01 -0.75411765332E+02 -0.43704890321E+03  0.44356500290E+03  0.00000000000E+00 0. -1.
         11    1    1    2    0    0 -0.28957422446E+02  0.10324885060E+02 -0.78978814536E+02  0.84751334572E+02  0.00000000000E+00 0.  1.
<mgrwt>
<rscale>  0 0.13462502E+03</rscale>
<asrwt>0</asrwt>
<pdfrwt beam="2">  1        1 0.12805324E+00 0.14259684E+03</pdfrwt>
<pdfrwt beam="1">  1       -1 0.34666742E-02 0.14259684E+03</pdfrwt>
<totfact> 0.63992596E+03</totfact>
</mgrwt>
</event>
<event>
 7    1  0.6095443E-006  0.1360601E+03  0.7546771E-02  0.1257978E+00
          2   -1    0    0  501    0  0.00000000000E+00  0.00000000000E+00  0.64039609786E+02  0.64039609786E+02  0.00000000000E+00 0. -1.
         -2   -1    0    0    0  501 -0.00000000000E+00 -0.00000000000E+00 -0.15717423089E+03  0.15717423089E+03  0.00000000000E+00 0.  1.
         23    2    1    2    0    0  0.33022606531E+02 -0.42392213422E+02 -0.82527116248E+02  0.15913223193E+03  0.12499900008E+03 0.  0.
          5    1    3    3  502    0 -0.31804246987E+02 -0.58307080638E+02 -0.56525620522E+02  0.87341064536E+02  0.47000000000E+01 0. -1.
         -5    1    3    3    0  502  0.64826853518E+02  0.15914867216E+02 -0.26001495727E+02  0.71791167393E+02  0.47000000000E+01 0. -1.
        -11    1    1    2    0    0  0.64956584302E+00  0.20623977430E+02 -0.11028489655E+00  0.20634498869E+02  0.00000000000E+00 0. -1.
         11    1    1    2    0    0 -0.33672172374E+02  0.21768235993E+02 -0.10497219962E+02  0.41447109881E+02  0.00000000000E+00 0.  1.
<mgrwt>
<rscale>  0 0.11141157E+03</rscale>
<asrwt>0</asrwt>
<pdfrwt beam="1">  1        2 0.98522476E-02 0.13606007E+03</pdfrwt>
<pdfrwt beam="2">  1       -2 0.24180651E-01 0.13606007E+03</pdfrwt>
<totfact> 0.92542860E+03</totfact>
</mgrwt>
</event>
<event>
 7    1  0.6095443E-006  0.1293592E+03  0.7546771E-02  0.1243050E+00
         -1   -1    0    0    0  501 -0.00000000000E+00  0.00000000000E+00  0.16484504277E+03  0.16484504277E+03  0.00000000000E+00 0.  1.
          1   -1    0    0  501    0  0.00000000000E+00 -0.00000000000E+00 -0.76962069292E+02  0.76962069292E+02  0.00000000000E+00 0. -1.
         23    2    1    2    0    0  0.14867517403E+02 -0.29803104838E+02  0.52367872654E+02  0.13955711318E+03  0.12499810247E+03 0.  0.
          5    1    3    3  502    0 -0.16881152082E+01  0.94122210418E+01 -0.38048053484E+02  0.39511821166E+02  0.47000000000E+01 0.  1.
         -5    1    3    3    0  502  0.16555632611E+02 -0.39215325880E+02  0.90415926138E+02  0.10004529202E+03  0.47000000000E+01 0.  1.
        -11    1    1    2    0    0 -0.38635759471E+02  0.70473513188E+01 -0.14935203080E+02  0.42017226961E+02  0.00000000000E+00 0. -1.
         11    1    1    2    0    0  0.23768242068E+02  0.22755753520E+02  0.50450303908E+02  0.60232771924E+02  0.00000000000E+00 0.  1.
<mgrwt>
<rscale>  0 0.12002851E+03</rscale>
<asrwt>0</asrwt>
<pdfrwt beam="2">  1        1 0.11840318E-01 0.12935917E+03</pdfrwt>
<pdfrwt beam="1">  1       -1 0.25360776E-01 0.12935917E+03</pdfrwt>
<totfact> 0.65612978E+03</totfact>
</mgrwt>
</event>
<event>
 7    1  0.6095443E-006  0.1387564E+03  0.7546771E-02  0.1225256E+00
          1   -1    0    0  501    0  0.00000000000E+00  0.00000000000E+00  0.85126754703E+02  0.85126754703E+02  0.00000000000E+00 0. -1.
         -1   -1    0    0    0  501 -0.00000000000E+00 -0.00000000000E+00 -0.21923163194E+03  0.21923163194E+03  0.00000000000E+00 0.  1.
         23    2    1    2    0    0 -0.59576600167E+02  0.89257957942E+01 -0.13335316447E+03  0.19244842136E+03  0.12499714913E+03 0.  0.
          5    1    3    3  502    0 -0.96130399938E+02 -0.93216583938E+01 -0.10342424615E+03  0.14158605792E+03  0.47000000000E+01 0.  1.
         -5    1    3    3    0  502  0.36553799771E+02  0.18247454188E+02 -0.29928918321E+02  0.50862363432E+02  0.47000000000E+01 0.  1.
        -11    1    1    2    0    0  0.73681189432E+01 -0.37577835662E+02 -0.26972708577E+02  0.46839192113E+02  0.00000000000E+00 0.  1.
         11    1    1    2    0    0  0.52208481224E+02  0.28652039868E+02  0.26220995807E+02  0.65070773174E+02  0.00000000000E+00 0. -1.
<mgrwt>
<rscale>  0 0.13149354E+03</rscale>
<asrwt>0</asrwt>
<pdfrwt beam="1">  1        1 0.13096424E-01 0.13875636E+03</pdfrwt>
<pdfrwt beam="2">  1       -1 0.33727943E-01 0.13875636E+03</pdfrwt>
<totfact> 0.35834885E+03</totfact>
</mgrwt>
</event>
<event>
 7    1  0.6095443E-006  0.1334922E+03  0.7546771E-02  0.1235596E+00
          1   -1    0    0  501    0  0.00000000000E+00  0.00000000000E+00  0.83277267051E+02  0.83277267051E+02  0.00000000000E+00 0. -1.
         -1   -1    0    0    0  501 -0.00000000000E+00 -0.00000000000E+00 -0.18260026769E+03  0.18260026769E+03  0.00000000000E+00 0.  1.
         23    2    1    2    0    0  0.37056388737E+02 -0.28678369457E+02 -0.95756705962E+02  0.16428486381E+03  0.12499817966E+03 0.  0.
          5    1    3    3  502    0  0.31611000305E+02 -0.63489390391E+02 -0.10417515506E+02  0.71838517954E+02  0.47000000000E+01 0. -1.
         -5    1    3    3    0  502  0.54453884320E+01  0.34811020934E+02 -0.85339190456E+02  0.92446345852E+02  0.47000000000E+01 0. -1.
        -11    1    1    2    0    0  0.15895445973E+02  0.22339272264E+02 -0.31194726039E+02  0.41530942930E+02  0.00000000000E+00 0.  1.
         11    1    1    2    0    0 -0.52951834710E+02  0.63390971935E+01  0.27628431357E+02  0.60061728011E+02  0.00000000000E+00 0. -1.
<mgrwt>
<rscale>  0 0.12466387E+03</rscale>
<asrwt>0</asrwt>
<pdfrwt beam="1">  1        1 0.12811888E-01 0.13349221E+03</pdfrwt>
<pdfrwt beam="2">  1       -1 0.28092348E-01 0.13349221E+03</pdfrwt>
<totfact> 0.50077133E+03</totfact>
</mgrwt>
</event>
<event>
 7    1  0.6095443E-006  0.1294402E+03  0.7546771E-02  0.1240613E+00
          4   -1    0    0  501    0  0.00000000000E+00  0.00000000000E+00  0.36456491635E+02  0.36456491635E+02  0.00000000000E+00 0.  1.
         -4   -1    0    0    0  501 -0.00000000000E+00 -0.00000000000E+00 -0.37326677993E+03  0.37326677993E+03  0.00000000000E+00 0. -1.
         23    2    1    2    0    0  0.29443983656E+02  0.16276643203E+02 -0.22314041498E+03  0.25796591367E+03  0.12499156184E+03 0.  0.
          5    1    3    3  502    0  0.40354981734E+02 -0.82285179223E+01 -0.94097649538E+01  0.42507255080E+02  0.47000000000E+01 0.  1.
         -5    1    3    3    0  502 -0.10910998078E+02  0.24505161126E+02 -0.21373065003E+03  0.21545865859E+03  0.47000000000E+01 0.  1.
        -11    1    1    2    0    0 -0.31859130018E+02  0.10849483737E+02  0.12258963996E+01  0.33678157385E+02  0.00000000000E+00 0.  1.
         11    1    1    2    0    0  0.24151463620E+01 -0.27126126940E+02 -0.11489576972E+03  0.11807920051E+03  0.00000000000E+00 0. -1.
<mgrwt>
<rscale>  0 0.12151863E+03</rscale>
<asrwt>0</asrwt>
<pdfrwt beam="1">  1        4 0.56086907E-02 0.12944021E+03</pdfrwt>
<pdfrwt beam="2">  1       -4 0.57425661E-01 0.12944021E+03</pdfrwt>
<totfact> 0.94406123E+02</totfact>
</mgrwt>
</event>
<event>
 7    1  0.6095443E-006  0.1325564E+03  0.7546771E-02  0.1237201E+00
          1   -1    0    0  501    0  0.00000000000E+00  0.00000000000E+00  0.17519197214E+03  0.17519197214E+03  0.00000000000E+00 0. -1.
         -1   -1    0    0    0  501 -0.00000000000E+00 -0.00000000000E+00 -0.78678748085E+02  0.78678748085E+02  0.00000000000E+00 0.  1.
         23    2    1    2    0    0  0.39884234023E+02 -0.18843839351E+02  0.38844159845E+02  0.13813059160E+03  0.12500139670E+03 0.  0.
          5    1    3    3  502    0 -0.18366298487E+02 -0.39975143240E+02  0.58141252461E+02  0.73060442340E+02  0.47000000000E+01 0. -1.
         -5    1    3    3    0  502  0.58250532510E+02  0.21131303888E+02 -0.19297092616E+02  0.65070149264E+02  0.47000000000E+01 0. -1.
        -11    1    1    2    0    0 -0.30156661814E+02 -0.54426747076E+01 -0.18094042616E+02  0.35587095104E+02  0.00000000000E+00 0.  1.
         11    1    1    2    0    0 -0.97275722090E+01  0.24286514059E+02  0.75763106829E+02  0.80153033521E+02  0.00000000000E+00 0. -1.
<mgrwt>
<rscale>  0 0.12364582E+03</rscale>
<asrwt>0</asrwt>
<pdfrwt beam="1">  1        1 0.26952611E-01 0.13255637E+03</pdfrwt>
<pdfrwt beam="2">  1       -1 0.12104423E-01 0.13255637E+03</pdfrwt>
<totfact> 0.74265147E+03</totfact>
</mgrwt>
</event>
<event>
 6    1  0.6095443E-006  0.2978413E+03  0.7546771E-02  0.1094676E+00
          2   -1    0    0  501    0  0.00000000000E+00  0.00000000000E+00  0.17951078126E+04  0.17951078126E+04  0.00000000000E+00 0. -1.
         -2   -1    0    0    0  501 -0.00000000000E+00 -0.00000000000E+00 -0.47463074533E+02  0.47463074533E+02  0.00000000000E+00 0.  1.
          5    1    1    2  502    0 -0.38920777879E+02  0.30697693577E+01  0.57260066680E+02  0.69462620673E+02  0.47000000000E+01 0. -1.
         -5    1    1    2    0  502  0.25419483255E+03 -0.36402790537E+02  0.53717364399E+03  0.59541396511E+03  0.47000000000E+01 0.  1.
        -11    1    1    2    0    0 -0.72904210361E+02 -0.35100862028E+02  0.39627420963E+03  0.40445066896E+03  0.00000000000E+00 0.  1.
         11    1    1    2    0    0 -0.14236984431E+03  0.68433883207E+02  0.75693681776E+03  0.77324363238E+03  0.00000000000E+00 0. -1.
<mgrwt>
<rscale>  0 0.28186292E+03</rscale>
<asrwt>0</asrwt>
<pdfrwt beam="1">  1        2 0.27617038E+00 0.29784130E+03</pdfrwt>
<pdfrwt beam="2">  1       -2 0.73020129E-02 0.29784130E+03</pdfrwt>
<totfact> 0.10366297E+03</totfact>
</mgrwt>
</event>
<event>
 7    1  0.6095443E-006  0.1571788E+03  0.7546771E-02  0.1204955E+00
          1   -1    0    0  501    0  0.00000000000E+00  0.00000000000E+00  0.59274037847E+02  0.59274037847E+02  0.00000000000E+00 0. -1.
         -1   -1    0    0    0  501 -0.00000000000E+00 -0.00000000000E+00 -0.32805155367E+03  0.32805155367E+03  0.00000000000E+00 0.  1.
         23    2    1    2    0    0  0.88742784216E+02  0.34719204197E+02 -0.18264388577E+03  0.24096467339E+03  0.12499791968E+03 0.  0.
          5    1    3    3  502    0  0.52386822872E+02  0.37830163618E+02 -0.19230619409E+03  0.20292674238E+03  0.47000000000E+01 0.  1.
         -5    1    3    3    0  502  0.36355961344E+02 -0.31109594218E+01  0.96623083135E+01  0.38037931013E+02  0.47000000000E+01 0.  1.
        -11    1    1    2    0    0 -0.44873759913E+02 -0.17287165518E+02  0.58601920756E-01  0.48088500232E+02  0.00000000000E+00 0.  1.
         11    1    1    2    0    0 -0.43869024303E+02 -0.17432038679E+02 -0.86192231969E+02  0.98272417888E+02  0.00000000000E+00 0. -1.
<mgrwt>
<rscale>  0 0.14641019E+03</rscale>
<asrwt>0</asrwt>
<pdfrwt beam="1">  1        1 0.91190826E-02 0.15717883E+03</pdfrwt>
<pdfrwt beam="2">  1       -1 0.50469470E-01 0.15717883E+03</pdfrwt>
<totfact> 0.28550507E+03</totfact>
</mgrwt>
</event>
<event>
 7    1  0.6095443E-006  0.1398772E+03  0.7546771E-02  0.1225139E+00
          2   -1    0    0  501    0  0.00000000000E+00  0.00000000000E+00  0.26356681328E+03  0.26356681328E+03  0.00000000000E+00 0. -1.
         -2   -1    0    0    0  501 -0.00000000000E+00 -0.00000000000E+00 -0.69254551195E+02  0.69254551195E+02  0.00000000000E+00 0.  1.
         23    2    1    2    0    0 -0.61209386426E+02  0.13851946125E+02  0.43576888331E+02  0.14650792375E+03  0.12500864421E+03 0.  0.
          5    1    3    3  502    0 -0.29171079519E+02  0.50314177600E+02 -0.24068420512E+02  0.63117725037E+02  0.47000000000E+01 0. -1.
         -5    1    3    3    0  502 -0.32038306907E+02 -0.36462231475E+02  0.67645308843E+02  0.83390198717E+02  0.47000000000E+01 0. -1.
        -11    1    1    2    0    0  0.16353439284E+02  0.13318669097E+02 -0.52615518112E+01  0.21737199691E+02  0.00000000000E+00 0.  1.
         11    1    1    2    0    0  0.44855947142E+02 -0.27170615222E+02  0.15599692556E+03  0.16457624103E+03  0.00000000000E+00 0. -1.
<mgrwt>
<rscale>  0 0.13157384E+03</rscale>
<asrwt>0</asrwt>
<pdfrwt beam="1">  1        2 0.40548740E-01 0.13987718E+03</pdfrwt>
<pdfrwt beam="2">  1       -2 0.10654546E-01 0.13987718E+03</pdfrwt>
<totfact> 0.71907623E+03</totfact>
</mgrwt>
</event>
<event>
 7    1  0.6095443E-006  0.1429581E+03  0.7546771E-02  0.1220614E+00
         -1   -1    0    0    0  501 -0.00000000000E+00  0.00000000000E+00  0.83595271344E+02  0.83595271344E+02  0.00000000000E+00 0.  1.
          1   -1    0    0  501    0  0.00000000000E+00 -0.00000000000E+00 -0.20645956908E+03  0.20645956908E+03  0.00000000000E+00 0. -1.
         23    2    1    2    0    0  0.49405272228E+02  0.48724413588E+02 -0.35181319982E+02  0.14722341252E+03  0.12498823351E+03 0.  0.
          5    1    3    3  502    0 -0.37178015357E+01  0.79536187724E+02 -0.88913763591E+01  0.80255677553E+02  0.47000000000E+01 0. -1.
         -5    1    3    3    0  502  0.53123073764E+02 -0.30811774135E+02 -0.26289943623E+02  0.66967734971E+02  0.47000000000E+01 0. -1.
        -11    1    1    2    0    0 -0.60446878791E+02  0.23481133497E+01 -0.46385221625E+02  0.76229440357E+02  0.00000000000E+00 0. -1.
         11    1    1    2    0    0  0.11041606563E+02 -0.51072526938E+02 -0.41297756128E+02  0.66601987542E+02  0.00000000000E+00 0.  1.
<mgrwt>
<rscale>  0 0.13472104E+03</rscale>
<asrwt>0</asrwt>
<pdfrwt beam="2">  1        1 0.31763011E-01 0.14295806E+03</pdfrwt>
<pdfrwt beam="1">  1       -1 0.12860811E-01 0.14295806E+03</pdfrwt>
<totfact> 0.55380445E+03</totfact>
</mgrwt>
</event>
<event>
 7    1  0.6095443E-006  0.3986767E+03  0.7546771E-02  0.1045016E+00
         -2   -1    0    0    0  501 -0.00000000000E+00  0.00000000000E+00  0.18290419316E+03  0.18290419316E+03  0.00000000000E+00 0.  1.
          2   -1    0    0  501    0  0.00000000000E+00 -0.00000000000E+00 -0.92676485066E+03  0.92676485066E+03  0.00000000000E+00 0. -1.
         23    2    1    2    0    0 -0.76530656679E+02 -0.37075745464E+03 -0.21592788812E+03  0.45339604268E+03  0.12500034828E+03 0.  0.
          5    1    3    3  502    0 -0.67865160265E+02 -0.13884662673E+03 -0.14161942411E+03  0.20967168864E+03  0.47000000000E+01 0.  1.
         -5    1    3    3    0  502 -0.86654964148E+01 -0.23191082791E+03 -0.74308464011E+02  0.24372435404E+03  0.47000000000E+01 0.  1.
        -11    1    1    2    0    0  0.66988878099E+02  0.12498952671E+03 -0.22648995365E+03  0.26722198764E+03  0.00000000000E+00 0.  1.
         11    1    1    2    0    0  0.95417785808E+01  0.24576792793E+03 -0.30144281574E+03  0.38905101349E+03  0.00000000000E+00 0. -1.
<mgrwt>
<rscale>  0 0.39645089E+03</rscale>
<asrwt>0</asrwt>
<pdfrwt beam="2">  1        2 0.14257920E+00 0.39867671E+03</pdfrwt>
<pdfrwt beam="1">  1       -2 0.28139107E-01 0.39867671E+03</pdfrwt>
<totfact> 0.33404131E+02</totfact>
</mgrwt>
</event>
<event>
 6    1  0.6095443E-006  0.1842801E+03  0.7546771E-02  0.1178980E+00
         -1   -1    0    0    0  501 -0.00000000000E+00  0.00000000000E+00  0.21136172190E+02  0.21136172190E+02  0.00000000000E+00 0.  1.
          1   -1    0    0  501    0  0.00000000000E+00 -0.00000000000E+00 -0.11738700857E+04  0.11738700857E+04  0.00000000000E+00 0. -1.
          5    1    1    2  502    0  0.69880953741E+02  0.38839792681E+02 -0.22362439309E+03  0.23753281116E+03  0.47000000000E+01 0. -1.
         -5    1    1    2    0  502 -0.82180912780E+02  0.51306874750E+02 -0.48945857625E+03  0.49897683883E+03  0.47000000000E+01 0.  1.
        -11    1    1    2    0    0 -0.28822581023E+02 -0.82461955296E+02 -0.27081033638E+03  0.28455044112E+03  0.00000000000E+00 0.  1.
         11    1    1    2    0    0  0.41122540063E+02 -0.76847121353E+01 -0.16884060775E+03  0.17394616675E+03  0.00000000000E+00 0. -1.
<mgrwt>
<rscale>  0 0.16891906E+03</rscale>
<asrwt>0</asrwt>
<pdfrwt beam="2">  1        1 0.18059542E+00 0.18428007E+03</pdfrwt>
<pdfrwt beam="1">  1       -1 0.32517183E-02 0.18428007E+03</pdfrwt>
<totfact> 0.39640358E+03</totfact>
</mgrwt>
</event>
<event>
 6    1  0.6095443E-006  0.1579566E+03  0.7546771E-02  0.1208339E+00
         -1   -1    0    0    0  501 -0.00000000000E+00  0.00000000000E+00  0.58122950398E+03  0.58122950398E+03  0.00000000000E+00 0.  1.
          1   -1    0    0  501    0  0.00000000000E+00 -0.00000000000E+00 -0.30970055124E+02  0.30970055124E+02  0.00000000000E+00 0. -1.
          5    1    1    2  502    0 -0.68163424124E+02  0.64370332343E+02  0.23925196707E+03  0.25700853259E+03  0.47000000000E+01 0. -1.
         -5    1    1    2    0  502  0.10693110919E+02 -0.61855557962E+02  0.12257352992E+03  0.13779264461E+03  0.47000000000E+01 0.  1.
        -11    1    1    2    0    0  0.21883751769E+02 -0.31543283399E+02  0.15729528055E+03  0.16191257704E+03  0.00000000000E+00 0.  1.
         11    1    1    2    0    0  0.35586561436E+02  0.29028509018E+02  0.31138671307E+02  0.55485804864E+02  0.00000000000E+00 0. -1.
<mgrwt>
<rscale>  0 0.14377379E+03</rscale>
<asrwt>0</asrwt>
<pdfrwt beam="2">  1        1 0.47646243E-02 0.15795657E+03</pdfrwt>
<pdfrwt beam="1">  1       -1 0.89419916E-01 0.15795657E+03</pdfrwt>
<totfact> 0.22392498E+03</totfact>
</mgrwt>
</event>
<event>
 7    1  0.6095443E-006  0.3697277E+03  0.7546771E-02  0.1055803E+00
         -3   -1    0    0    0  501 -0.00000000000E+00  0.00000000000E+00  0.17047458939E+04  0.17047458939E+04  0.00000000000E+00 0.  1.
          3   -1    0    0  501    0  0.00000000000E+00 -0.00000000000E+00 -0.11626585537E+03  0.11626585537E+03  0.00000000000E+00 0. -1.
         23    2    1    2    0    0  0.34794115434E+03  0.33790324642E+01  0.13244138629E+04  0.13750529559E+04  0.12499634594E+03 0.  0.
          5    1    3    3  502    0  0.21819332774E+03  0.57591159813E+02  0.72369830649E+03  0.75808073368E+03  0.47000000000E+01 0. -1.
         -5    1    3    3    0  502  0.12974782660E+03 -0.54212127349E+02  0.60071555640E+03  0.61697222220E+03  0.47000000000E+01 0. -1.
        -11    1    1    2    0    0 -0.96328424625E+02  0.55790655488E+01  0.12636060919E+03  0.15898834837E+03  0.00000000000E+00 0.  1.
         11    1    1    2    0    0 -0.25161272971E+03 -0.89580980130E+01  0.13770556641E+03  0.28697044498E+03  0.00000000000E+00 0. -1.
<mgrwt>
<rscale>  0 0.36711113E+03</rscale>
<asrwt>0</asrwt>
<pdfrwt beam="2">  1        3 0.17887056E-01 0.36972767E+03</pdfrwt>
<pdfrwt beam="1">  1       -3 0.26226858E+00 0.36972767E+03</pdfrwt>
<totfact> 0.47171452E+00</totfact>
</mgrwt>
</event>
<event>
 7    1  0.6095443E-006  0.1497384E+03  0.7546771E-02  0.1210003E+00
          1   -1    0    0  501    0  0.00000000000E+00  0.00000000000E+00  0.54987209707E+03  0.54987209707E+03  0.00000000000E+00 0. -1.
         -1   -1    0    0    0  501 -0.00000000000E+00 -0.00000000000E+00 -0.34229469320E+02  0.34229469320E+02  0.00000000000E+00 0.  1.
         23    2    1    2    0    0  0.43231715383E+02 -0.70198454757E+02  0.31642684568E+03  0.35006788659E+03  0.12499908915E+03 0.  0.
          5    1    3    3  502    0 -0.17339313510E+02 -0.51397311642E+02  0.25808290989E+03  0.26376355665E+03  0.47000000000E+01 0. -1.
         -5    1    3    3    0  502  0.60571028893E+02 -0.18801143115E+02  0.58343935794E+02  0.86304329947E+02  0.47000000000E+01 0. -1.
        -11    1    1    2    0    0 -0.25130870429E+01  0.50564189404E+02  0.17615596730E+03  0.18328659981E+03  0.00000000000E+00 0. -1.
         11    1    1    2    0    0 -0.40718628340E+02  0.19634265353E+02  0.23059814769E+02  0.50747079985E+02  0.00000000000E+00 0.  1.
<mgrwt>
<rscale>  0 0.14250082E+03</rscale>
<asrwt>0</asrwt>
<pdfrwt beam="1">  1        1 0.84595701E-01 0.14973836E+03</pdfrwt>
<pdfrwt beam="2">  1       -1 0.52660726E-02 0.14973836E+03</pdfrwt>
<totfact> 0.62474805E+03</totfact>
</mgrwt>
</event>
<event>
 7    1  0.6095443E-006  0.1344584E+03  0.7546771E-02  0.1235037E+00
         -1   -1    0    0    0  501 -0.00000000000E+00  0.00000000000E+00  0.31933978457E+03  0.31933978457E+03  0.00000000000E+00 0.  1.
          1   -1    0    0  501    0  0.00000000000E+00 -0.00000000000E+00 -0.53795868879E+02  0.53795868879E+02  0.00000000000E+00 0. -1.
         23    2    1    2    0    0  0.45819028144E+02  0.18830409195E+02  0.23022046137E+03  0.26660929057E+03  0.12500034133E+03 0.  0.
          5    1    3    3  502    0  0.39649400296E+02 -0.39944574836E+02  0.45246060405E+02  0.72366704947E+02  0.47000000000E+01 0.  1.
         -5    1    3    3    0  502  0.61696278474E+01  0.58774984030E+02  0.18497440097E+03  0.19424258562E+03  0.47000000000E+01 0.  1.
        -11    1    1    2    0    0 -0.32085085856E+02 -0.31454023216E+02  0.60395721965E+02  0.75275836378E+02  0.00000000000E+00 0.  1.
         11    1    1    2    0    0 -0.13733942288E+02  0.12623614021E+02 -0.25072267647E+02  0.31250526502E+02  0.00000000000E+00 0. -1.
<mgrwt>
<rscale>  0 0.12502063E+03</rscale>
<asrwt>0</asrwt>
<pdfrwt beam="2">  1        1 0.82762878E-02 0.13445837E+03</pdfrwt>
<pdfrwt beam="1">  1       -1 0.49129196E-01 0.13445837E+03</pdfrwt>
<totfact> 0.33864551E+03</totfact>
</mgrwt>
</event>
<event>
 7    1  0.6095443E-006  0.1266087E+03  0.7546771E-02  0.1244949E+00
          1   -1    0    0  501    0  0.00000000000E+00  0.00000000000E+00  0.89876940455E+02  0.89876940455E+02  0.00000000000E+00 0. -1.
         -1   -1    0    0    0  501 -0.00000000000E+00 -0.00000000000E+00 -0.15216832275E+03  0.15216832275E+03  0.00000000000E+00 0.  1.
         23    2    1    2    0    0 -0.18281937270E+02  0.83886326512E+01 -0.67506684323E+02  0.14348138696E+03  0.12500063035E+03 0.  0.
          5    1    3    3  502    0 -0.23013291034E+02 -0.12225424446E+02 -0.10054457071E+03  0.10397294488E+03  0.47000000000E+01 0.  1.
         -5    1    3    3    0  502  0.47313537640E+01  0.20614057097E+02  0.33037886392E+02  0.39508442081E+02  0.47000000000E+01 0.  1.
        -11    1    1    2    0    0  0.17102262180E+00  0.35707911726E+02 -0.23654624876E+02  0.42832528370E+02  0.00000000000E+00 0.  1.
         11    1    1    2    0    0  0.18110914648E+02 -0.44096544378E+02  0.28869926908E+02  0.55731347867E+02  0.00000000000E+00 0. -1.
<mgrwt>
<rscale>  0 0.11888439E+03</rscale>
<asrwt>0</asrwt>
<pdfrwt beam="1">  1        1 0.13827222E-01 0.12660867E+03</pdfrwt>
<pdfrwt beam="2">  1       -1 0.23410511E-01 0.12660867E+03</pdfrwt>
<totfact> 0.60986748E+03</totfact>
</mgrwt>
</event>
<event>
 6    1  0.6095443E-006  0.3993142E+03  0.7546771E-02  0.1044017E+00
          1   -1    0    0  501    0  0.00000000000E+00  0.00000000000E+00  0.25054453331E+03  0.25054453331E+03  0.00000000000E+00 0. -1.
         -1   -1    0    0    0  501 -0.00000000000E+00 -0.00000000000E+00 -0.15910530037E+03  0.15910530037E+03  0.00000000000E+00 0.  1.
          5    1    1    2  502    0 -0.69042154911E+01  0.46701499601E+01  0.54512473371E+02  0.55345986713E+02  0.47000000000E+01 0. -1.
         -5    1    1    2    0  502 -0.65378903194E+02  0.13959529639E+03 -0.31039503710E+02  0.15731112023E+03  0.47000000000E+01 0.  1.
        -11    1    1    2    0    0  0.44722551527E+02 -0.42013256548E+02 -0.14165335959E+02  0.62975210072E+02  0.00000000000E+00 0.  1.
         11    1    1    2    0    0  0.27560567158E+02 -0.10225218980E+03  0.82131599241E+02  0.13401751667E+03  0.00000000000E+00 0. -1.
<mgrwt>
<rscale>  0 0.39931423E+03</rscale>
<asrwt>0</asrwt>
<pdfrwt beam="1">  1        1 0.38545313E-01 0.39931423E+03</pdfrwt>
<pdfrwt beam="2">  1       -1 0.24477738E-01 0.39931423E+03</pdfrwt>
<totfact> 0.15966711E+03</totfact>
</mgrwt>
</event>
<event>
 7    1  0.6095443E-006  0.1472967E+03  0.7546771E-02  0.1212910E+00
         -1   -1    0    0    0  501 -0.00000000000E+00  0.00000000000E+00  0.26428860194E+02  0.26428860194E+02  0.00000000000E+00 0.  1.
          1   -1    0    0  501    0  0.00000000000E+00 -0.00000000000E+00 -0.69487087025E+03  0.69487087025E+03  0.00000000000E+00 0. -1.
         23    2    1    2    0    0 -0.66503029875E+02  0.40615675676E+02 -0.31782391067E+03  0.35029751030E+03  0.12499608567E+03 0.  0.
          5    1    3    3  502    0 -0.71797355398E+01 -0.36960172362E+01  0.10290281277E+02  0.13899245828E+02  0.47000000000E+01 0.  1.
         -5    1    3    3    0  502 -0.59323294335E+02  0.44311692912E+02 -0.32811419195E+03  0.33639826447E+03  0.47000000000E+01 0.  1.
        -11    1    1    2    0    0 -0.32365698040E+01  0.24960553952E+02 -0.61622861487E+02  0.66564868328E+02  0.00000000000E+00 0.  1.
         11    1    1    2    0    0  0.69739599679E+02 -0.65576229627E+02 -0.28899523790E+03  0.30443735182E+03  0.00000000000E+00 0. -1.
<mgrwt>
<rscale>  0 0.14031199E+03</rscale>
<asrwt>0</asrwt>
<pdfrwt beam="2">  1        1 0.10690320E+00 0.14729667E+03</pdfrwt>
<pdfrwt beam="1">  1       -1 0.40659789E-02 0.14729667E+03</pdfrwt>
<totfact> 0.66256530E+03</totfact>
</mgrwt>
</event>
<event>
 6    1  0.6095443E-006  0.1450244E+03  0.7546771E-02  0.1219964E+00
         -1   -1    0    0    0  501 -0.00000000000E+00  0.00000000000E+00  0.11604978957E+03  0.11604978957E+03  0.00000000000E+00 0.  1.
          1   -1    0    0  501    0  0.00000000000E+00 -0.00000000000E+00 -0.14629497947E+03  0.14629497947E+03  0.00000000000E+00 0. -1.
          5    1    1    2  502    0 -0.58559844662E+01 -0.34878008425E+02  0.25810306239E+02  0.44034417606E+02  0.47000000000E+01 0. -1.
         -5    1    1    2    0  502  0.31078800103E+02  0.74940552235E+02 -0.70875512074E+02  0.10783045208E+03  0.47000000000E+01 0.  1.
        -11    1    1    2    0    0  0.37603915806E+02 -0.12004033388E+02 -0.24131309105E+01  0.39547117497E+02  0.00000000000E+00 0.  1.
         11    1    1    2    0    0 -0.62826731443E+02 -0.28058510423E+02  0.17233146846E+02  0.70932781852E+02  0.00000000000E+00 0. -1.
<mgrwt>
<rscale>  0 0.13518105E+03</rscale>
<asrwt>0</asrwt>
<pdfrwt beam="2">  1        1 0.22506920E-01 0.14502436E+03</pdfrwt>
<pdfrwt beam="1">  1       -1 0.17853814E-01 0.14502436E+03</pdfrwt>
<totfact> 0.50980394E+03</totfact>
</mgrwt>
</event>
<event>
 7    1  0.6095443E-006  0.1639769E+03  0.7546771E-02  0.1191446E+00
          1   -1    0    0  501    0  0.00000000000E+00  0.00000000000E+00  0.28109146426E+03  0.28109146426E+03  0.00000000000E+00 0. -1.
         -1   -1    0    0    0  501 -0.00000000000E+00 -0.00000000000E+00 -0.93658316369E+02  0.93658316369E+02  0.00000000000E+00 0.  1.
         23    2    1    2    0    0 -0.10011567809E+03  0.35206421177E+02  0.34635590812E+02  0.16759489493E+03  0.12500313421E+03 0.  0.
          5    1    3    3  502    0 -0.12393501122E+03  0.51966766846E+02  0.28840243573E+02  0.13752920240E+03  0.47000000000E+01 0.  1.
         -5    1    3    3    0  502  0.23819333127E+02 -0.16760345669E+02  0.57953472396E+01  0.30065692528E+02  0.47000000000E+01 0.  1.
        -11    1    1    2    0    0  0.10191797950E+03 -0.52976419914E+02  0.10311139702E+03  0.15435587390E+03  0.00000000000E+00 0.  1.
         11    1    1    2    0    0 -0.18023014076E+01  0.17769998737E+02  0.49686160064E+02  0.52799011803E+02  0.00000000000E+00 0. -1.
<mgrwt>
<rscale>  0 0.15758864E+03</rscale>
<asrwt>0</asrwt>
<pdfrwt beam="1">  1        1 0.43244840E-01 0.16397690E+03</pdfrwt>
<pdfrwt beam="2">  1       -1 0.14408972E-01 0.16397690E+03</pdfrwt>
<totfact> 0.31838894E+03</totfact>
</mgrwt>
</event>
<event>
 7    1  0.6095443E-006  0.2033462E+03  0.7546771E-02  0.1149477E+00
          1   -1    0    0  501    0  0.00000000000E+00  0.00000000000E+00  0.11415028341E+03  0.11415028341E+03  0.00000000000E+00 0. -1.
         -1   -1    0    0    0  501 -0.00000000000E+00 -0.00000000000E+00 -0.50562182046E+03  0.50562182046E+03  0.00000000000E+00 0.  1.
         23    2    1    2    0    0 -0.69337206983E+02 -0.14463258988E+03 -0.37625961899E+03  0.42769260019E+03  0.12499370003E+03 0.  0.
          5    1    3    3  502    0  0.31954700294E+02 -0.35405524054E+02 -0.51398238234E+02  0.70274624851E+02  0.47000000000E+01 0. -1.
         -5    1    3    3    0  502 -0.10129190728E+03 -0.10922706583E+03 -0.32486138076E+03  0.35741797534E+03  0.47000000000E+01 0. -1.
        -11    1    1    2    0    0  0.51422353050E+01  0.11187610158E+03  0.16751631998E+02  0.11324010714E+03  0.00000000000E+00 0. -1.
         11    1    1    2    0    0  0.64194971678E+02  0.32756488300E+02 -0.31963550050E+02  0.78839396537E+02  0.00000000000E+00 0.  1.
<mgrwt>
<rscale>  0 0.20031140E+03</rscale>
<asrwt>0</asrwt>
<pdfrwt beam="1">  1        1 0.17561582E-01 0.20334616E+03</pdfrwt>
<pdfrwt beam="2">  1       -1 0.77787971E-01 0.20334616E+03</pdfrwt>
<totfact> 0.52448119E+02</totfact>
</mgrwt>
</event>
<event>
 7    1  0.6095443E-006  0.1346774E+03  0.7546771E-02  0.1233623E+00
          1   -1    0    0  501    0  0.00000000000E+00  0.00000000000E+00  0.20741479246E+03  0.20741479246E+03  0.00000000000E+00 0. -1.
         -1   -1    0    0    0  501 -0.00000000000E+00 -0.00000000000E+00 -0.68212044225E+02  0.68212044225E+02  0.00000000000E+00 0.  1.
         23    2    1    2    0    0 -0.20619518458E+02  0.45691428487E+02  0.72443282198E+02  0.15292495556E+03  0.12500056687E+03 0.  0.
          5    1    3    3  502    0 -0.83737467173E+01  0.34086943907E+00 -0.34612855641E+02  0.35921798420E+02  0.47000000000E+01 0. -1.
         -5    1    3    3    0  502 -0.12245771741E+02  0.45350559047E+02  0.10705613784E+03  0.11700315714E+03  0.47000000000E+01 0. -1.
        -11    1    1    2    0    0 -0.34958670462E+02 -0.88309172834E+01  0.27149741878E+02  0.45135376642E+02  0.00000000000E+00 0.  1.
         11    1    1    2    0    0  0.55578188920E+02 -0.36860511203E+02  0.39609724155E+02  0.77566504481E+02  0.00000000000E+00 0. -1.
<mgrwt>
<rscale>  0 0.12592990E+03</rscale>
<asrwt>0</asrwt>
<pdfrwt beam="1">  1        1 0.31909968E-01 0.13467744E+03</pdfrwt>
<pdfrwt beam="2">  1       -1 0.10494161E-01 0.13467744E+03</pdfrwt>
<totfact> 0.75033581E+03</totfact>
</mgrwt>
</event>
<event>
 6    1  0.6095443E-006  0.3095067E+03  0.7546771E-02  0.1083950E+00
         -1   -1    0    0    0  501 -0.00000000000E+00  0.00000000000E+00  0.35558412929E+03  0.35558412929E+03  0.00000000000E+00 0.  1.
          1   -1    0    0  501    0  0.00000000000E+00 -0.00000000000E+00 -0.76795920206E+03  0.76795920206E+03  0.00000000000E+00 0. -1.
          5    1    1    2  502    0  0.13539168745E+03 -0.71185289908E+02  0.14046638290E+03  0.20772854704E+03  0.47000000000E+01 0. -1.
         -5    1    1    2    0  502  0.74698996117E+01 -0.15537539247E+03  0.11305986205E+03  0.19235886877E+03  0.47000000000E+01 0.  1.
        -11    1    1    2    0    0  0.86936567056E+01  0.47012154267E+02 -0.11472349146E+03  0.12428677246E+03  0.00000000000E+00 0.  1.
         11    1    1    2    0    0 -0.15155524376E+03  0.17954852811E+03 -0.55117782626E+03  0.59916914308E+03  0.00000000000E+00 0. -1.
<mgrwt>
<rscale>  0 0.30259675E+03</rscale>
<asrwt>0</asrwt>
<pdfrwt beam="2">  1        1 0.11814757E+00 0.30950668E+03</pdfrwt>
<pdfrwt beam="1">  1       -1 0.54705251E-01 0.30950668E+03</pdfrwt>
<totfact> 0.85646637E+01</totfact>
</mgrwt>
</event>
<event>
 7    1  0.6095443E-006  0.1186199E+03  0.7546771E-02  0.1256219E+00
         -1   -1    0    0    0  501 -0.00000000000E+00  0.00000000000E+00  0.47716833992E+02  0.47716833992E+02  0.00000000000E+00 0.  1.
          1   -1    0    0  501    0  0.00000000000E+00 -0.00000000000E+00 -0.24072279794E+03  0.24072279794E+03  0.00000000000E+00 0. -1.
         23    2    1    2    0    0  0.11154906128E+02  0.29459382824E+02 -0.10137799409E+03  0.15603903219E+03  0.11436080934E+03 0.  0.
          5    1    3    3  502    0  0.43951674984E+02  0.61953898380E+01 -0.10626799983E+03  0.11526105317E+03  0.47000000000E+01 0. -1.
         -5    1    3    3    0  502 -0.32796768857E+02  0.23263992986E+02  0.48900057366E+01  0.40777979023E+02  0.47000000000E+01 0.  1.
        -11    1    1    2    0    0  0.31591554505E+02 -0.37108898022E+02 -0.30762780062E+02  0.57631981274E+02  0.00000000000E+00 0. -1.
         11    1    1    2    0    0 -0.42746460632E+02  0.76495151978E+01 -0.60865189795E+02  0.74768618471E+02  0.00000000000E+00 0.  1.
<mgrwt>
<rscale>  0 0.11238341E+03</rscale>
<asrwt>0</asrwt>
<pdfrwt beam="2">  1        1 0.37034277E-01 0.11861991E+03</pdfrwt>
<pdfrwt beam="1">  1       -1 0.73410514E-02 0.11861991E+03</pdfrwt>
<totfact> 0.10613645E+04</totfact>
</mgrwt>
</event>
<event>
 7    1  0.6095443E-006  0.1559403E+03  0.7546771E-02  0.1201355E+00
         -2   -1    0    0    0  501 -0.00000000000E+00  0.00000000000E+00  0.19469361572E+03  0.19469361572E+03  0.00000000000E+00 0.  1.
          2   -1    0    0  501    0  0.00000000000E+00 -0.00000000000E+00 -0.20351013547E+03  0.20351013547E+03  0.00000000000E+00 0. -1.
         23    2    1    2    0    0  0.38851101165E+02 -0.84750225941E+02  0.13314855130E+03  0.20505101319E+03  0.12500148975E+03 0.  0.
          5    1    3    3  502    0  0.94593956224E+01 -0.95388501737E+02  0.35356152553E+02  0.10227704509E+03  0.47000000000E+01 0. -1.
         -5    1    3    3    0  502  0.29391705543E+02  0.10638275797E+02  0.97792398749E+02  0.10277396810E+03  0.47000000000E+01 0. -1.
        -11    1    1    2    0    0 -0.40574405727E+02  0.39060541329E+02 -0.15114206758E+02  0.58313356403E+02  0.00000000000E+00 0.  1.
         11    1    1    2    0    0  0.17233045614E+01  0.45689684611E+02 -0.12685086429E+03  0.13483938160E+03  0.00000000000E+00 0. -1.
<mgrwt>
<rscale>  0 0.14928431E+03</rscale>
<asrwt>0</asrwt>
<pdfrwt beam="2">  1        2 0.31309252E-01 0.15594031E+03</pdfrwt>
<pdfrwt beam="1">  1       -2 0.29952864E-01 0.15594031E+03</pdfrwt>
<totfact> 0.16845938E+03</totfact>
</mgrwt>
</event>
<event>
 7    1  0.6095443E-006  0.1591907E+03  0.7546771E-02  0.1197281E+00
         -1   -1    0    0    0  501 -0.00000000000E+00  0.00000000000E+00  0.43020872173E+03  0.43020872173E+03  0.00000000000E+00 0.  1.
          1   -1    0    0  501    0  0.00000000000E+00 -0.00000000000E+00 -0.51021135974E+02  0.51021135974E+02  0.00000000000E+00 0. -1.
         23    2    1    2    0    0  0.98380651427E+02  0.10163862338E+02  0.23694636837E+03  0.28545624282E+03  0.12473823956E+03 0.  0.
          5    1    3    3  502    0  0.73467957434E+02 -0.43096486181E+02  0.19568666616E+03  0.21347179955E+03  0.47000000000E+01 0.  1.
         -5    1    3    3    0  502  0.24912693993E+02  0.53260348519E+02  0.41259702206E+02  0.71984443267E+02  0.47000000000E+01 0.  1.
        -11    1    1    2    0    0 -0.79835051480E+02  0.15962623766E+02  0.14205714033E+03  0.16373353939E+03  0.00000000000E+00 0.  1.
         11    1    1    2    0    0 -0.18545599947E+02 -0.26126486105E+02  0.18407706229E+00  0.32040075498E+02  0.00000000000E+00 0. -1.
<mgrwt>
<rscale>  0 0.15262735E+03</rscale>
<asrwt>0</asrwt>
<pdfrwt beam="2">  1        1 0.78494058E-02 0.15919072E+03</pdfrwt>
<pdfrwt beam="1">  1       -1 0.66185955E-01 0.15919072E+03</pdfrwt>
<totfact> 0.20924391E+03</totfact>
</mgrwt>
</event>
<event>
 7    1  0.6095443E-006  0.1301069E+03  0.7546771E-02  0.1241557E+00
          4   -1    0    0  501    0  0.00000000000E+00  0.00000000000E+00  0.21358882919E+03  0.21358882919E+03  0.00000000000E+00 0. -1.
         -4   -1    0    0    0  501 -0.00000000000E+00 -0.00000000000E+00 -0.76260090479E+02  0.76260090479E+02  0.00000000000E+00 0.  1.
         23    2    1    2    0    0  0.14807163302E+02  0.32886191442E+02  0.11105120142E+02  0.13057993790E+03  0.12500817100E+03 0.  0.
          5    1    3    3  502    0 -0.16792044758E+02  0.64621002002E+02  0.39139780541E+02  0.77536179218E+02  0.47000000000E+01 0. -1.
         -5    1    3    3    0  502  0.31599208060E+02 -0.31734810561E+02 -0.28034660398E+02  0.53043758681E+02  0.47000000000E+01 0. -1.
        -11    1    1    2    0    0 -0.37679398365E+02 -0.36828621125E+02  0.30729799053E+02  0.60995122304E+02  0.00000000000E+00 0.  1.
         11    1    1    2    0    0  0.22872235063E+02  0.39424296829E+01  0.95493819519E+02  0.98273859468E+02  0.00000000000E+00 0. -1.
<mgrwt>
<rscale>  0 0.12093815E+03</rscale>
<asrwt>0</asrwt>
<pdfrwt beam="1">  1        4 0.32859819E-01 0.13010687E+03</pdfrwt>
<pdfrwt beam="2">  1       -4 0.11732322E-01 0.13010687E+03</pdfrwt>
<totfact> 0.84536048E+02</totfact>
</mgrwt>
</event>
<event>
 7    1  0.6095443E-006  0.1308062E+03  0.7546771E-02  0.1227359E+00
          2   -1    0    0  501    0  0.00000000000E+00  0.00000000000E+00  0.16729623933E+03  0.16729623933E+03  0.00000000000E+00 0. -1.
         -2   -1    0    0    0  501 -0.00000000000E+00 -0.00000000000E+00 -0.10530074448E+03  0.10530074448E+03  0.00000000000E+00 0.  1.
         23    2    1    2    0    0  0.38582559417E+02  0.55203941293E+00  0.72839101357E+00  0.13080819989E+03  0.12498534301E+03 0.  0.
          5    1    3    3  502    0  0.50687643204E+02 -0.43441727167E+02  0.33105420066E+02  0.74662438151E+02  0.47000000000E+01 0.  1.
         -5    1    3    3    0  502 -0.12105083787E+02  0.43993766580E+02 -0.32377029053E+02  0.56145761743E+02  0.47000000000E+01 0.  1.
        -11    1    1    2    0    0 -0.50311144140E+02 -0.45235237197E+02  0.33985642894E+01  0.67742070740E+02  0.00000000000E+00 0.  1.
         11    1    1    2    0    0  0.11728584722E+02  0.44683197784E+02  0.57868539542E+02  0.74046713178E+02  0.00000000000E+00 0. -1.
<mgrwt>
<rscale>  0 0.13006553E+03</rscale>
<asrwt>0</asrwt>
<pdfrwt beam="1">  1        2 0.25737883E-01 0.13080617E+03</pdfrwt>
<pdfrwt beam="2">  1       -2 0.16200114E-01 0.13080617E+03</pdfrwt>
<totfact> 0.59476593E+03</totfact>
</mgrwt>
</event>
<event>
 7    1  0.6095443E-006  0.1255570E+03  0.7546771E-02  0.1249650E+00
         -1   -1    0    0    0  501 -0.00000000000E+00  0.00000000000E+00  0.53317460945E+02  0.53317460945E+02  0.00000000000E+00 0.  1.
          1   -1    0    0  501    0  0.00000000000E+00 -0.00000000000E+00 -0.23244616520E+03  0.23244616520E+03  0.00000000000E+00 0. -1.
         23    2    1    2    0    0  0.10578931682E+02 -0.51509715269E+01 -0.72290654888E+02  0.14488094187E+03  0.12500440884E+03 0.  0.
          5    1    3    3  502    0 -0.46373581483E+02 -0.25989890909E+02 -0.64252207923E+02  0.83524964603E+02  0.47000000000E+01 0.  1.
         -5    1    3    3    0  502  0.56952513165E+02  0.20838919382E+02 -0.80384469652E+01  0.61355977267E+02  0.47000000000E+01 0.  1.
        -11    1    1    2    0    0 -0.30748922836E+02  0.35108552657E+02 -0.89243200691E+02  0.10070975918E+03  0.00000000000E+00 0. -1.
         11    1    1    2    0    0  0.20169991154E+02 -0.29957581130E+02 -0.17594848671E+02  0.40172925087E+02  0.00000000000E+00 0.  1.
<mgrwt>
<rscale>  0 0.11611330E+03</rscale>
<asrwt>0</asrwt>
<pdfrwt beam="2">  1        1 0.35760948E-01 0.12555695E+03</pdfrwt>
<pdfrwt beam="1">  1       -1 0.82026863E-02 0.12555695E+03</pdfrwt>
<totfact> 0.94229255E+03</totfact>
</mgrwt>
</event>
<event>
 7    1  0.6095443E-006  0.1433130E+03  0.7546771E-02  0.1219490E+00
          3   -1    0    0  501    0  0.00000000000E+00  0.00000000000E+00  0.13142079392E+03  0.13142079392E+03  0.00000000000E+00 0. -1.
         -3   -1    0    0    0  501 -0.00000000000E+00 -0.00000000000E+00 -0.13847519909E+03  0.13847519909E+03  0.00000000000E+00 0.  1.
         23    2    1    2    0    0 -0.62226891693E+02  0.32220780198E+02 -0.43305277028E+02  0.14971295720E+03  0.12501303055E+03 0.  0.
          5    1    3    3  502    0 -0.37250052065E+02  0.55536602244E+02 -0.76588158163E+02  0.10178269273E+03  0.47000000000E+01 0. -1.
         -5    1    3    3    0  502 -0.24976839629E+02 -0.23315822046E+02  0.33282881135E+02  0.47930264471E+02  0.47000000000E+01 0. -1.
        -11    1    1    2    0    0 -0.15831960383E+02 -0.28131165030E+01 -0.15241208503E+02  0.22155338649E+02  0.00000000000E+00 0.  1.
         11    1    1    2    0    0  0.78058852076E+02 -0.29407663695E+02  0.51492080356E+02  0.98027697162E+02  0.00000000000E+00 0. -1.
<mgrwt>
<rscale>  0 0.13551790E+03</rscale>
<asrwt>0</asrwt>
<pdfrwt beam="1">  1        3 0.20218584E-01 0.14331302E+03</pdfrwt>
<pdfrwt beam="2">  1       -3 0.21303877E-01 0.14331302E+03</pdfrwt>
<totfact> 0.10262752E+03</totfact>
</mgrwt>
</event>
<event>
 7    1  0.6095443E-006  0.1337802E+03  0.7546771E-02  0.1234776E+00
          2   -1    0    0  501    0  0.00000000000E+00  0.00000000000E+00  0.10105406945E+03  0.10105406945E+03  0.00000000000E+00 0. -1.
         -2   -1    0    0    0  501 -0.00000000000E+00 -0.00000000000E+00 -0.13850516507E+03  0.13850516507E+03  0.00000000000E+00 0.  1.
         23    2    1    2    0    0 -0.23206765463E+02 -0.41617756538E+02 -0.26650411327E+02  0.13640890761E+03  0.12500621596E+03 0.  0.
          5    1    3    3  502    0 -0.72224589643E+02 -0.20586975374E+02 -0.33609460987E+02  0.82412989098E+02  0.47000000000E+01 0. -1.
         -5    1    3    3    0  502  0.49017824180E+02 -0.21030781164E+02  0.69590496601E+01  0.53995918512E+02  0.47000000000E+01 0. -1.
        -11    1    1    2    0    0  0.53493500911E+02  0.61734755270E+01  0.46153353353E+01  0.54045978204E+02  0.00000000000E+00 0. -1.
         11    1    1    2    0    0 -0.30286735448E+02  0.35444281011E+02 -0.15416019635E+02  0.49104348706E+02  0.00000000000E+00 0.  1.
<mgrwt>
<rscale>  0 0.12518811E+03</rscale>
<asrwt>0</asrwt>
<pdfrwt beam="1">  1        2 0.15546780E-01 0.13378021E+03</pdfrwt>
<pdfrwt beam="2">  1       -2 0.21308487E-01 0.13378021E+03</pdfrwt>
<totfact> 0.66547409E+03</totfact>
</mgrwt>
</event>
<event>
 7    1  0.6095443E-006  0.1585109E+03  0.7546771E-02  0.1200093E+00
         -1   -1    0    0    0  501 -0.00000000000E+00  0.00000000000E+00  0.34030155999E+03  0.34030155999E+03  0.00000000000E+00 0.  1.
          1   -1    0    0  501    0  0.00000000000E+00 -0.00000000000E+00 -0.66580761542E+02  0.66580761542E+02  0.00000000000E+00 0. -1.
         23    2    1    2    0    0 -0.50890383396E+02 -0.83133510234E+02  0.21179093576E+03  0.26453939369E+03  0.12499871478E+03 0.  0.
          5    1    3    3  502    0 -0.82213811405E+01 -0.39730637832E+02 -0.32776811789E+01  0.40974966556E+02  0.47000000000E+01 0.  1.
         -5    1    3    3    0  502 -0.42669002255E+02 -0.43402872402E+02  0.21506861694E+03  0.22356442713E+03  0.47000000000E+01 0.  1.
        -11    1    1    2    0    0  0.26652894321E+02  0.96680347829E+02  0.46024391890E+02  0.11034360462E+03  0.00000000000E+00 0.  1.
         11    1    1    2    0    0  0.24237489075E+02 -0.13546837595E+02  0.15905470798E+02  0.31999323224E+02  0.00000000000E+00 0. -1.
<mgrwt>
<rscale>  0 0.15030949E+03</rscale>
<asrwt>0</asrwt>
<pdfrwt beam="2">  1        1 0.10243194E-01 0.15851085E+03</pdfrwt>
<pdfrwt beam="1">  1       -1 0.52354085E-01 0.15851085E+03</pdfrwt>
<totfact> 0.22861884E+03</totfact>
</mgrwt>
</event>
<event>
 7    1  0.6095443E-006  0.1251287E+03  0.7546771E-02  0.1250267E+00
         -3   -1    0    0    0  501 -0.00000000000E+00  0.00000000000E+00  0.32453336831E+03  0.32453336831E+03  0.00000000000E+00 0.  1.
          3   -1    0    0  501    0  0.00000000000E+00 -0.00000000000E+00 -0.44987671912E+02  0.44987671912E+02  0.00000000000E+00 0. -1.
         23    2    1    2    0    0  0.85953046751E+00  0.60437633863E+01  0.23802071450E+03  0.26890712449E+03  0.12497965915E+03 0.  0.
          5    1    3    3  502    0  0.51700735173E+02  0.37739805128E+02  0.10723079666E+03  0.12497116731E+03  0.47000000000E+01 0. -1.
         -5    1    3    3    0  502 -0.50841204705E+02 -0.31696041742E+02  0.13078991784E+03  0.14393595717E+03  0.47000000000E+01 0. -1.
        -11    1    1    2    0    0  0.37247687244E+02 -0.28439666765E+01 -0.78396022632E+01  0.38169853485E+02  0.00000000000E+00 0. -1.
         11    1    1    2    0    0 -0.38107217711E+02 -0.31997967098E+01  0.49364584167E+02  0.62444062253E+02  0.00000000000E+00 0.  1.
<mgrwt>
<rscale>  0 0.11575639E+03</rscale>
<asrwt>0</asrwt>
<pdfrwt beam="2">  1        3 0.69211805E-02 0.12512866E+03</pdfrwt>
<pdfrwt beam="1">  1       -3 0.49928209E-01 0.12512866E+03</pdfrwt>
<totfact> 0.12297080E+03</totfact>
</mgrwt>
</event>
<event>
 7    1  0.6593889E-006  0.1432162E+03  0.7546771E-02  0.1219477E+00
          1   -1    0    0  501    0  0.00000000000E+00  0.00000000000E+00  0.17737100831E+03  0.17737100831E+03  0.00000000000E+00 0. -1.
         -1   -1    0    0    0  501 -0.00000000000E+00 -0.00000000000E+00 -0.94306487223E+02  0.94306487223E+02  0.00000000000E+00 0.  1.
         23    2    1    2    0    0  0.65348329048E+02 -0.24808525354E+02  0.36884193043E+02  0.14788956369E+03  0.12500004925E+03 0.  0.
          5    1    3    3  502    0  0.29616198280E+02 -0.44977451633E+02 -0.35415585483E+02  0.64625413353E+02  0.47000000000E+01 0. -1.
         -5    1    3    3    0  502  0.35732130768E+02  0.20168926279E+02  0.72299778526E+02  0.83264150337E+02  0.47000000000E+01 0. -1.
        -11    1    1    2    0    0 -0.14668673433E+02 -0.26498338701E+02 -0.10507383123E+02  0.32058337984E+02  0.00000000000E+00 0.  1.
         11    1    1    2    0    0 -0.50679655615E+02  0.51306864055E+02  0.56687711170E+02  0.91729593862E+02  0.00000000000E+00 0. -1.
<mgrwt>
<rscale>  0 0.13552772E+03</rscale>
<asrwt>0</asrwt>
<pdfrwt beam="1">  1        1 0.27287847E-01 0.14321620E+03</pdfrwt>
<pdfrwt beam="2">  1       -1 0.14508690E-01 0.14321620E+03</pdfrwt>
<totfact> 0.55465528E+03</totfact>
</mgrwt>
</event>
<event>
 7    1  0.6095443E-006  0.1314656E+03  0.7546771E-02  0.1244589E+00
         -2   -1    0    0    0  501 -0.00000000000E+00  0.00000000000E+00  0.92916502869E+02  0.92916502869E+02  0.00000000000E+00 0.  1.
          2   -1    0    0  501    0  0.00000000000E+00 -0.00000000000E+00 -0.21080683447E+03  0.21080683447E+03  0.00000000000E+00 0. -1.
         23    2    1    2    0    0  0.40497306294E+02 -0.17696281551E+01  0.26719164068E+02  0.13415329072E+03  0.12506009868E+03 0.  0.
          5    1    3    3  502    0  0.69921472027E+02 -0.16027160338E+02 -0.22099840769E+02  0.75208876344E+02  0.47000000000E+01 0.  1.
         -5    1    3    3    0  502 -0.29424165734E+02  0.14257532183E+02  0.48819004836E+02  0.58944414377E+02  0.47000000000E+01 0.  1.
        -11    1    1    2    0    0 -0.64002468327E+01 -0.27913442348E+02 -0.10699319469E+03  0.11075950132E+03  0.00000000000E+00 0. -1.
         11    1    1    2    0    0 -0.34097059461E+02  0.29683070503E+02 -0.37616300975E+02  0.58810545291E+02  0.00000000000E+00 0.  1.
<mgrwt>
<rscale>  0 0.11910034E+03</rscale>
<asrwt>0</asrwt>
<pdfrwt beam="2">  1        2 0.32431821E-01 0.13146555E+03</pdfrwt>
<pdfrwt beam="1">  1       -2 0.14294847E-01 0.13146555E+03</pdfrwt>
<totfact> 0.56795274E+03</totfact>
</mgrwt>
</event>
<event>
 6    1  0.6095443E-006  0.3557167E+03  0.7546771E-02  0.1061477E+00
         -1   -1    0    0    0  501 -0.00000000000E+00  0.00000000000E+00  0.69408133734E+02  0.69408133734E+02  0.00000000000E+00 0.  1.
          1   -1    0    0  501    0  0.00000000000E+00 -0.00000000000E+00 -0.19791978204E+04  0.19791978204E+04  0.00000000000E+00 0. -1.
          5    1    1    2  502    0 -0.99423187564E+01 -0.95334825372E+02 -0.27611851269E+03  0.29232020402E+03  0.47000000000E+01 0. -1.
         -5    1    1    2    0  502 -0.15116878527E+03 -0.19457747299E+03 -0.35530503110E+03  0.43240738865E+03  0.47000000000E+01 0.  1.
        -11    1    1    2    0    0  0.81158813552E+02  0.72147703659E+02 -0.50120717531E+03  0.51283591600E+03  0.00000000000E+00 0.  1.
         11    1    1    2    0    0  0.79952290473E+02  0.21776459470E+03 -0.77715896753E+03  0.81104244542E+03  0.00000000000E+00 0. -1.
<mgrwt>
<rscale>  0 0.35278713E+03</rscale>
<asrwt>0</asrwt>
<pdfrwt beam="2">  1        1 0.30449189E+00 0.35571673E+03</pdfrwt>
<pdfrwt beam="1">  1       -1 0.10678177E-01 0.35571673E+03</pdfrwt>
<totfact> 0.18876932E+02</totfact>
</mgrwt>
</event>
<event>
 7    1  0.6095443E-006  0.2403359E+03  0.7546771E-02  0.1122109E+00
         -2   -1    0    0    0  501 -0.00000000000E+00  0.00000000000E+00  0.74140746086E+02  0.74140746086E+02  0.00000000000E+00 0.  1.
          2   -1    0    0  501    0  0.00000000000E+00 -0.00000000000E+00 -0.75396139811E+03  0.75396139811E+03  0.00000000000E+00 0. -1.
         23    2    1    2    0    0 -0.14503240287E+03  0.14525950494E+03 -0.27962965899E+03  0.36871950432E+03  0.12500641992E+03 0.  0.
          5    1    3    3  502    0 -0.36366907160E+02  0.77331559310E+01 -0.13896631873E+03  0.14393082150E+03  0.47000000000E+01 0.  1.
         -5    1    3    3    0  502 -0.10866549571E+03  0.13752634901E+03 -0.14066334026E+03  0.22478868282E+03  0.47000000000E+01 0.  1.
        -11    1    1    2    0    0  0.11670136313E+03 -0.93057345963E+02 -0.19380739064E+03  0.24462253057E+03  0.00000000000E+00 0. -1.
         11    1    1    2    0    0  0.28331039747E+02 -0.52202158974E+02 -0.20638360239E+03  0.21476010931E+03  0.00000000000E+00 0.  1.
<mgrwt>
<rscale>  0 0.23655486E+03</rscale>
<asrwt>0</asrwt>
<pdfrwt beam="2">  1        2 0.11599406E+00 0.24033586E+03</pdfrwt>
<pdfrwt beam="1">  1       -2 0.11406269E-01 0.24033586E+03</pdfrwt>
<totfact> 0.20477699E+03</totfact>
</mgrwt>
</event>
<event>
 7    1  0.6095443E-006  0.1555322E+03  0.7546771E-02  0.1199681E+00
         -2   -1    0    0    0  501 -0.00000000000E+00  0.00000000000E+00  0.42998504919E+03  0.42998504919E+03  0.00000000000E+00 0. -1.
          2   -1    0    0  501    0  0.00000000000E+00 -0.00000000000E+00 -0.56654615146E+02  0.56654615146E+02  0.00000000000E+00 0.  1.
         23    2    1    2    0    0 -0.91674866642E+02  0.12755052143E+02  0.28209876474E+03  0.32213347369E+03  0.12499315690E+03 0.  0.
          5    1    3    3  502    0 -0.22124622199E+02  0.60963622212E+02  0.16686884571E+03  0.17909037889E+03  0.47000000000E+01 0. -1.
         -5    1    3    3    0  502 -0.69550244443E+02 -0.48208570069E+02  0.11522991903E+03  0.14304309480E+03  0.47000000000E+01 0. -1.
        -11    1    1    2    0    0  0.60993497387E+01  0.32182784435E+02  0.49198508012E+02  0.59105218651E+02  0.00000000000E+00 0.  1.
         11    1    1    2    0    0  0.85575516903E+02 -0.44937836579E+02  0.42033161285E+02  0.10540097199E+03  0.00000000000E+00 0. -1.
<mgrwt>
<rscale>  0 0.15064639E+03</rscale>
<asrwt>0</asrwt>
<pdfrwt beam="2">  1        2 0.87160949E-02 0.15553219E+03</pdfrwt>
<pdfrwt beam="1">  1       -2 0.66151544E-01 0.15553219E+03</pdfrwt>
<totfact> 0.15998489E+03</totfact>
</mgrwt>
</event>
<event>
 7    1  0.6095443E-006  0.1329015E+03  0.7546771E-02  0.1236072E+00
         -3   -1    0    0    0  501 -0.00000000000E+00  0.00000000000E+00  0.14550187695E+03  0.14550187695E+03  0.00000000000E+00 0.  1.
          3   -1    0    0  501    0  0.00000000000E+00 -0.00000000000E+00 -0.12220623995E+03  0.12220623995E+03  0.00000000000E+00 0. -1.
         23    2    1    2    0    0  0.29500690503E+02  0.34174813961E+02  0.75890130927E+02  0.15304284803E+03  0.12499837084E+03 0.  0.
          5    1    3    3  502    0  0.37191019350E+02 -0.41290597586E+02  0.22372593115E+02  0.60089169507E+02  0.47000000000E+01 0.  1.
         -5    1    3    3    0  502 -0.76903288475E+01  0.75465411547E+02  0.53517537812E+02  0.92953678524E+02  0.47000000000E+01 0.  1.
        -11    1    1    2    0    0 -0.57940202326E+02 -0.33470158811E+02 -0.54289589775E+02  0.86166572024E+02  0.00000000000E+00 0. -1.
         11    1    1    2    0    0  0.28439511823E+02 -0.70465515018E+00  0.16950958527E+01  0.28498696840E+02  0.00000000000E+00 0.  1.
<mgrwt>
<rscale>  0 0.12436042E+03</rscale>
<asrwt>0</asrwt>
<pdfrwt beam="2">  1        3 0.18800960E-01 0.13290147E+03</pdfrwt>
<pdfrwt beam="1">  1       -3 0.22384904E-01 0.13290147E+03</pdfrwt>
<totfact> 0.10553634E+03</totfact>
</mgrwt>
</event>
<event>
 7    1  0.6095443E-006  0.1346987E+03  0.7546771E-02  0.1234273E+00
          3   -1    0    0  501    0  0.00000000000E+00  0.00000000000E+00  0.28651777110E+03  0.28651777110E+03  0.00000000000E+00 0. -1.
         -3   -1    0    0    0  501 -0.00000000000E+00 -0.00000000000E+00 -0.49228793280E+02  0.49228793280E+02  0.00000000000E+00 0.  1.
         23    2    1    2    0    0 -0.40664000964E+02  0.29430220151E+02  0.11781974597E+03  0.17895598228E+03  0.12499620882E+03 0.  0.
          5    1    3    3  502    0 -0.27417287774E+02  0.67332749477E+02  0.23845414989E+02  0.76655728012E+02  0.47000000000E+01 0.  1.
         -5    1    3    3    0  502 -0.13246713190E+02 -0.37902529326E+02  0.93974330984E+02  0.10230025427E+03  0.47000000000E+01 0.  1.
        -11    1    1    2    0    0  0.21036182863E+02  0.17542764805E+02  0.97621936632E+02  0.10139187393E+03  0.00000000000E+00 0. -1.
         11    1    1    2    0    0  0.19627818101E+02 -0.46972984957E+02  0.21847295219E+02  0.55398708176E+02  0.00000000000E+00 0.  1.
<mgrwt>
<rscale>  0 0.12551107E+03</rscale>
<asrwt>0</asrwt>
<pdfrwt beam="1">  1        3 0.44079656E-01 0.13469874E+03</pdfrwt>
<pdfrwt beam="2">  1       -3 0.75736607E-02 0.13469874E+03</pdfrwt>
<totfact> 0.13771153E+03</totfact>
</mgrwt>
</event>
<event>
 7    1  0.6095443E-006  0.1575914E+03  0.7546771E-02  0.1199627E+00
          2   -1    0    0  501    0  0.00000000000E+00  0.00000000000E+00  0.54933267012E+03  0.54933267012E+03  0.00000000000E+00 0. -1.
         -2   -1    0    0    0  501 -0.00000000000E+00 -0.00000000000E+00 -0.38268658366E+02  0.38268658366E+02  0.00000000000E+00 0.  1.
         23    2    1    2    0    0  0.94339786872E+02 -0.17744003756E+02  0.25883199878E+03  0.30303306851E+03  0.12498076638E+03 0.  0.
          5    1    3    3  502    0  0.26057433571E+02  0.29826588583E+02  0.10726869820E+02  0.41300980218E+02  0.47000000000E+01 0.  1.
         -5    1    3    3    0  502  0.68282353301E+02 -0.47570592339E+02  0.24810512896E+03  0.26173208829E+03  0.47000000000E+01 0.  1.
        -11    1    1    2    0    0 -0.60720610091E+02  0.53833457349E+02  0.13708884629E+03  0.15930594904E+03  0.00000000000E+00 0.  1.
         11    1    1    2    0    0 -0.33619176781E+02 -0.36089453594E+02  0.11514316668E+03  0.12526231094E+03  0.00000000000E+00 0. -1.
<mgrwt>
<rscale>  0 0.15069092E+03</rscale>
<asrwt>0</asrwt>
<pdfrwt beam="1">  1        2 0.84512713E-01 0.15759136E+03</pdfrwt>
<pdfrwt beam="2">  1       -2 0.58874863E-02 0.15759136E+03</pdfrwt>
<totfact> 0.82282298E+03</totfact>
</mgrwt>
</event>
<event>
 7    1  0.6095443E-006  0.1124785E+03  0.7546771E-02  0.1266451E+00
         -1   -1    0    0    0  501 -0.00000000000E+00  0.00000000000E+00  0.70694463693E+02  0.70694463693E+02  0.00000000000E+00 0.  1.
          1   -1    0    0  501    0  0.00000000000E+00 -0.00000000000E+00 -0.15362995454E+03  0.15362995454E+03  0.00000000000E+00 0. -1.
         23    2    1    2    0    0 -0.10656391547E+02  0.29765461906E+01 -0.23130372525E+02  0.11483215560E+03  0.11193297690E+03 0.  0.
          5    1    3    3  502    0 -0.51813975575E+02  0.36215060591E+01 -0.44189998669E+02  0.68356779864E+02  0.47000000000E+01 0. -1.
         -5    1    3    3    0  502  0.41157584028E+02 -0.64495986847E+00  0.21059626144E+02  0.46475375734E+02  0.47000000000E+01 0.  1.
        -11    1    1    2    0    0 -0.38593884213E+02  0.10133623154E+02 -0.33706365224E+02  0.52233105149E+02  0.00000000000E+00 0. -1.
         11    1    1    2    0    0  0.49250275760E+02 -0.13110169345E+02 -0.26098753096E+02  0.57259157485E+02  0.00000000000E+00 0.  1.
<mgrwt>
<rscale>  0 0.10688429E+03</rscale>
<asrwt>0</asrwt>
<pdfrwt beam="2">  1        1 0.23635377E-01 0.11247849E+03</pdfrwt>
<pdfrwt beam="1">  1       -1 0.10876072E-01 0.11247849E+03</pdfrwt>
<totfact> 0.10181275E+04</totfact>
</mgrwt>
</event>
<event>
 7    1  0.6095443E-006  0.1990783E+03  0.7546771E-02  0.1154658E+00
         -2   -1    0    0    0  501 -0.00000000000E+00  0.00000000000E+00  0.94014769366E+02  0.94014769366E+02  0.00000000000E+00 0.  1.
          2   -1    0    0  501    0  0.00000000000E+00 -0.00000000000E+00 -0.38708164955E+03  0.38708164955E+03  0.00000000000E+00 0. -1.
         23    2    1    2    0    0 -0.15492201362E+03  0.26398635561E+01 -0.17750624441E+03  0.26672203530E+03  0.12499751248E+03 0.  0.
          5    1    3    3  502    0 -0.17294385099E+03 -0.12340431893E+02 -0.16642267718E+03  0.24037566294E+03  0.47000000000E+01 0.  1.
         -5    1    3    3    0  502  0.18021837369E+02  0.14980295449E+02 -0.11083567228E+02  0.26346372357E+02  0.47000000000E+01 0.  1.
        -11    1    1    2    0    0  0.18978012528E+02 -0.28459741816E+02 -0.18012700066E+00  0.34207518318E+02  0.00000000000E+00 0. -1.
         11    1    1    2    0    0  0.13594400109E+03  0.25819878260E+02 -0.11538050877E+03  0.18016686530E+03  0.00000000000E+00 0.  1.
<mgrwt>
<rscale>  0 0.19427803E+03</rscale>
<asrwt>0</asrwt>
<pdfrwt beam="2">  1        2 0.59551023E-01 0.19907832E+03</pdfrwt>
<pdfrwt beam="1">  1       -2 0.14463811E-01 0.19907832E+03</pdfrwt>
<totfact> 0.29677911E+03</totfact>
</mgrwt>
</event>
<event>
 7    1  0.6095443E-006  0.1460741E+03  0.7546771E-02  0.1215209E+00
         -2   -1    0    0    0  501 -0.00000000000E+00  0.00000000000E+00  0.15354684182E+03  0.15354684182E+03  0.00000000000E+00 0.  1.
          2   -1    0    0  501    0  0.00000000000E+00 -0.00000000000E+00 -0.14102776676E+03  0.14102776676E+03  0.00000000000E+00 0. -1.
         23    2    1    2    0    0 -0.56804160455E+02  0.49869194665E+02  0.71082974098E+02  0.16245127914E+03  0.12499591859E+03 0.  0.
          5    1    3    3  502    0  0.17259663561E+02 -0.28691507648E+02  0.13549491095E+01  0.33838210420E+02  0.47000000000E+01 0.  1.
         -5    1    3    3    0  502 -0.74063824016E+02  0.78560702313E+02  0.69728024988E+02  0.12861306872E+03  0.47000000000E+01 0.  1.
        -11    1    1    2    0    0  0.33007320535E+02 -0.67540199773E+01  0.20162044159E+02  0.39263316460E+02  0.00000000000E+00 0.  1.
         11    1    1    2    0    0  0.23796839919E+02 -0.43115174688E+02 -0.78725943195E+02  0.92860012979E+02  0.00000000000E+00 0. -1.
<mgrwt>
<rscale>  0 0.13861167E+03</rscale>
<asrwt>0</asrwt>
<pdfrwt beam="2">  1        2 0.21696579E-01 0.14607405E+03</pdfrwt>
<pdfrwt beam="1">  1       -2 0.23622591E-01 0.14607405E+03</pdfrwt>
<totfact> 0.38283794E+03</totfact>
</mgrwt>
</event>
<event>
 7    1  0.6095443E-006  0.1435022E+03  0.7546771E-02  0.1218806E+00
         -2   -1    0    0    0  501 -0.00000000000E+00  0.00000000000E+00  0.56467936694E+03  0.56467936694E+03  0.00000000000E+00 0.  1.
          2   -1    0    0  501    0  0.00000000000E+00 -0.00000000000E+00 -0.29811555809E+02  0.29811555809E+02  0.00000000000E+00 0. -1.
         23    2    1    2    0    0 -0.30142253084E+02 -0.63710802093E+02  0.28433785590E+03  0.31849788702E+03  0.12500106406E+03 0.  0.
          5    1    3    3  502    0 -0.65311021979E+02 -0.59545071375E+02  0.26156175334E+03  0.27613001634E+03  0.47000000000E+01 0.  1.
         -5    1    3    3    0  502  0.35168768895E+02 -0.41657307180E+01  0.22776102559E+02  0.42367870678E+02  0.47000000000E+01 0.  1.
        -11    1    1    2    0    0  0.59817602250E+02  0.52868524137E+02  0.14137803949E+03  0.16236063696E+03  0.00000000000E+00 0.  1.
         11    1    1    2    0    0 -0.29675349166E+02  0.10842277956E+02  0.10915191574E+03  0.11363239876E+03  0.00000000000E+00 0. -1.
<mgrwt>
<rscale>  0 0.13600661E+03</rscale>
<asrwt>0</asrwt>
<pdfrwt beam="2">  1        2 0.45863936E-02 0.14350222E+03</pdfrwt>
<pdfrwt beam="1">  1       -2 0.86873741E-01 0.14350222E+03</pdfrwt>
<totfact> 0.20140781E+03</totfact>
</mgrwt>
</event>
<event>
 7    1  0.6095443E-006  0.1497810E+03  0.7546771E-02  0.1209990E+00
          2   -1    0    0  501    0  0.00000000000E+00  0.00000000000E+00  0.17227155140E+03  0.17227155140E+03  0.00000000000E+00 0. -1.
         -2   -1    0    0    0  501 -0.00000000000E+00 -0.00000000000E+00 -0.11138643067E+03  0.11138643067E+03  0.00000000000E+00 0.  1.
         23    2    1    2    0    0  0.61614412365E+02 -0.54889980937E+02  0.79792579485E+01  0.14999340251E+03  0.12500042568E+03 0.  0.
          5    1    3    3  502    0  0.41945396828E+02 -0.87359821571E+02  0.35019742286E+02  0.10314856805E+03  0.47000000000E+01 0.  1.
         -5    1    3    3    0  502  0.19669015537E+02  0.32469840634E+02 -0.27040484338E+02  0.46844834466E+02  0.47000000000E+01 0.  1.
        -11    1    1    2    0    0 -0.14605388472E+02 -0.23867384399E+02  0.41124860116E+00  0.27984612484E+02  0.00000000000E+00 0.  1.
         11    1    1    2    0    0 -0.47009023893E+02  0.78757365336E+02  0.52494614190E+02  0.10567996708E+03  0.00000000000E+00 0. -1.
<mgrwt>
<rscale>  0 0.14251042E+03</rscale>
<asrwt>0</asrwt>
<pdfrwt beam="1">  1        2 0.26503316E-01 0.14978101E+03</pdfrwt>
<pdfrwt beam="2">  1       -2 0.17136374E-01 0.14978101E+03</pdfrwt>
<totfact> 0.52934084E+03</totfact>
</mgrwt>
</event>
<event>
 7    1  0.6095443E-006  0.1294824E+03  0.7546771E-02  0.1240778E+00
          2   -1    0    0  501    0  0.00000000000E+00  0.00000000000E+00  0.66635431748E+02  0.66635431748E+02  0.00000000000E+00 0. -1.
         -2   -1    0    0    0  501 -0.00000000000E+00 -0.00000000000E+00 -0.27507289002E+03  0.27507289002E+03  0.00000000000E+00 0.  1.
         23    2    1    2    0    0  0.38232535755E+01  0.33570917845E+02 -0.20384415941E+03  0.24149150062E+03  0.12499631896E+03 0.  0.
          5    1    3    3  502    0 -0.35464342336E+02  0.67128612869E+02 -0.13894099533E+03  0.15840031700E+03  0.47000000000E+01 0.  1.
         -5    1    3    3    0  502  0.39287595912E+02 -0.33557695024E+02 -0.64903164084E+02  0.83091183624E+02  0.47000000000E+01 0.  1.
        -11    1    1    2    0    0  0.22293630774E+01 -0.62292795289E+02  0.16008797110E+02  0.64355605735E+02  0.00000000000E+00 0. -1.
         11    1    1    2    0    0 -0.60526166530E+01  0.28721877443E+02 -0.20602095968E+02  0.35861215407E+02  0.00000000000E+00 0.  1.
<mgrwt>
<rscale>  0 0.12141691E+03</rscale>
<asrwt>0</asrwt>
<pdfrwt beam="1">  1        2 0.10251605E-01 0.12948244E+03</pdfrwt>
<pdfrwt beam="2">  1       -2 0.42318906E-01 0.12948244E+03</pdfrwt>
<totfact> 0.31727209E+03</totfact>
</mgrwt>
</event>
<event>
 7    1  0.6095443E-006  0.1277012E+03  0.7546771E-02  0.1244346E+00
          2   -1    0    0  501    0  0.00000000000E+00  0.00000000000E+00  0.36768220069E+03  0.36768220069E+03  0.00000000000E+00 0.  1.
         -2   -1    0    0    0  501 -0.00000000000E+00 -0.00000000000E+00 -0.34506201747E+02  0.34506201747E+02  0.00000000000E+00 0. -1.
         23    2    1    2    0    0 -0.65976747358E+01  0.25272523924E+02  0.17617068162E+03  0.21758611148E+03  0.12500150827E+03 0.  0.
          5    1    3    3  502    0  0.40868015170E+01  0.70104952990E+02  0.59879783961E+02  0.92407169135E+02  0.47000000000E+01 0. -1.
         -5    1    3    3    0  502 -0.10684476253E+02 -0.44832429066E+02  0.11629089766E+03  0.12517894234E+03  0.47000000000E+01 0. -1.
        -11    1    1    2    0    0  0.35851679523E+02  0.17409791737E+02  0.99810756161E+02  0.10747386109E+03  0.00000000000E+00 0.  1.
         11    1    1    2    0    0 -0.29254004787E+02 -0.42682315661E+02  0.57194561164E+02  0.77128429862E+02  0.00000000000E+00 0. -1.
<mgrwt>
<rscale>  0 0.11924631E+03</rscale>
<asrwt>0</asrwt>
<pdfrwt beam="1">  1        2 0.56566490E-01 0.12770124E+03</pdfrwt>
<pdfrwt beam="2">  1       -2 0.53086467E-02 0.12770124E+03</pdfrwt>
<totfact> 0.14658916E+04</totfact>
</mgrwt>
</event>
<event>
 7    1  0.6095443E-006  0.1395115E+03  0.7546771E-02  0.1224680E+00
          1   -1    0    0  501    0  0.00000000000E+00  0.00000000000E+00  0.48806233790E+03  0.48806233790E+03  0.00000000000E+00 0. -1.
         -1   -1    0    0    0  501 -0.00000000000E+00 -0.00000000000E+00 -0.35816925280E+02  0.35816925280E+02  0.00000000000E+00 0.  1.
         23    2    1    2    0    0 -0.33376720780E+02  0.52213005728E+02  0.16678500306E+03  0.21744126484E+03  0.12499305162E+03 0.  0.
          5    1    3    3  502    0 -0.93025196362E+01  0.84307176341E+02  0.15255842672E+03  0.17461500627E+03  0.47000000000E+01 0. -1.
         -5    1    3    3    0  502 -0.24074201144E+02 -0.32094170613E+02  0.14226576339E+02  0.42826258561E+02  0.47000000000E+01 0. -1.
        -11    1    1    2    0    0 -0.21669349410E+02 -0.29435896874E+02  0.41465152917E+02  0.55275597103E+02  0.00000000000E+00 0.  1.
         11    1    1    2    0    0  0.55046070191E+02 -0.22777108854E+02  0.24399525665E+03  0.25116240124E+03  0.00000000000E+00 0. -1.
<mgrwt>
<rscale>  0 0.13188880E+03</rscale>
<asrwt>0</asrwt>
<pdfrwt beam="1">  1        1 0.75086509E-01 0.13951153E+03</pdfrwt>
<pdfrwt beam="2">  1       -1 0.55102966E-02 0.13951153E+03</pdfrwt>
<totfact> 0.68061374E+03</totfact>
</mgrwt>
</event>
<event>
 7    1  0.6095443E-006  0.1315028E+03  0.7546771E-02  0.1237889E+00
         -2   -1    0    0    0  501 -0.00000000000E+00  0.00000000000E+00  0.40816299959E+03  0.40816299959E+03  0.00000000000E+00 0. -1.
          2   -1    0    0  501    0  0.00000000000E+00 -0.00000000000E+00 -0.51533161805E+02  0.51533161805E+02  0.00000000000E+00 0.  1.
         23    2    1    2    0    0 -0.19728721177E+02 -0.35802351997E+02  0.32951022092E+03  0.35478157206E+03  0.12498778875E+03 0.  0.
          5    1    3    3  502    0 -0.51053509256E+02 -0.39427508978E+02  0.78306493468E+02  0.10156272048E+03  0.47000000000E+01 0.  1.
         -5    1    3    3    0  502  0.31324788079E+02  0.36251569814E+01  0.25120372745E+03  0.25321885158E+03  0.47000000000E+01 0.  1.
        -11    1    1    2    0    0  0.39927832106E+02  0.58044035607E+02  0.25148815541E+02  0.74805111921E+02  0.00000000000E+00 0.  1.
         11    1    1    2    0    0 -0.20199110929E+02 -0.22241683610E+02  0.19708013213E+01  0.30109477412E+02  0.00000000000E+00 0. -1.
<mgrwt>
<rscale>  0 0.12321283E+03</rscale>
<asrwt>0</asrwt>
<pdfrwt beam="2">  1        2 0.79281790E-02 0.13150277E+03</pdfrwt>
<pdfrwt beam="1">  1       -2 0.62794306E-01 0.13150277E+03</pdfrwt>
<totfact> 0.19912162E+03</totfact>
</mgrwt>
</event>
<event>
 7    1  0.6095443E-006  0.1312550E+03  0.7546771E-02  0.1237652E+00
          1   -1    0    0  501    0  0.00000000000E+00  0.00000000000E+00  0.17471627433E+03  0.17471627433E+03  0.00000000000E+00 0. -1.
         -1   -1    0    0    0  501 -0.00000000000E+00 -0.00000000000E+00 -0.79117794194E+02  0.79117794194E+02  0.00000000000E+00 0.  1.
         23    2    1    2    0    0  0.38129915315E+02  0.12220226232E+02  0.39560635905E+02  0.13708723270E+03  0.12499856433E+03 0.  0.
          5    1    3    3  502    0  0.51164230378E+02 -0.43105086258E+02  0.43465491611E+02  0.79919746574E+02  0.47000000000E+01 0. -1.
         -5    1    3    3    0  502 -0.13034315063E+02  0.55325312490E+02 -0.39048557062E+01  0.57167486121E+02  0.47000000000E+01 0. -1.
        -11    1    1    2    0    0 -0.47000964575E+01  0.95806706115E+01 -0.24576874527E+02  0.26793710411E+02  0.00000000000E+00 0.  1.
         11    1    1    2    0    0 -0.33429818857E+02 -0.21800896844E+02  0.80614718758E+02  0.89953125418E+02  0.00000000000E+00 0. -1.
<mgrwt>
<rscale>  0 0.12336205E+03</rscale>
<asrwt>0</asrwt>
<pdfrwt beam="1">  1        1 0.26879427E-01 0.13125496E+03</pdfrwt>
<pdfrwt beam="2">  1       -1 0.12171968E-01 0.13125496E+03</pdfrwt>
<totfact> 0.73827130E+03</totfact>
</mgrwt>
</event>
<event>
 7    1  0.6095443E-006  0.3442735E+03  0.7546771E-02  0.1064990E+00
          2   -1    0    0  501    0  0.00000000000E+00  0.00000000000E+00  0.11352214988E+03  0.11352214988E+03  0.00000000000E+00 0. -1.
         -2   -1    0    0    0  501 -0.00000000000E+00 -0.00000000000E+00 -0.26101572213E+03  0.26101572213E+03  0.00000000000E+00 0.  1.
         23    2    1    2    0    0  0.96052314186E+02 -0.27333502183E+02 -0.98286028159E+02  0.18371316013E+03  0.11881588476E+03 0.  0.
          5    1    3    3  502    0 -0.81451702093E+01 -0.47712000578E+02 -0.36273900385E+02  0.60668481488E+02  0.47000000000E+01 0. -1.
         -5    1    3    3    0  502  0.10419748440E+03  0.20378498395E+02 -0.62012127774E+02  0.12304467864E+03  0.47000000000E+01 0.  1.
        -11    1    1    2    0    0 -0.25843358040E+02  0.87350803927E+02 -0.14956581803E+02  0.92313278789E+02  0.00000000000E+00 0.  1.
         11    1    1    2    0    0 -0.70208956146E+02 -0.60017301745E+02 -0.34250962284E+02  0.98511433089E+02  0.00000000000E+00 0. -1.
<mgrwt>
<rscale>  0 0.34427353E+03</rscale>
<asrwt>0</asrwt>
<pdfrwt beam="1">  1        2 0.17464946E-01 0.34427353E+03</pdfrwt>
<pdfrwt beam="2">  1       -2 0.40156264E-01 0.34427353E+03</pdfrwt>
<totfact> 0.19322578E+03</totfact>
</mgrwt>
</event>
<event>
 7    1  0.6095443E-006  0.1914531E+03  0.7546771E-02  0.1161739E+00
          3   -1    0    0  501    0  0.00000000000E+00  0.00000000000E+00  0.71325384748E+02  0.71325384748E+02  0.00000000000E+00 0. -1.
         -3   -1    0    0    0  501 -0.00000000000E+00 -0.00000000000E+00 -0.49461411011E+03  0.49461411011E+03  0.00000000000E+00 0.  1.
         23    2    1    2    0    0  0.14419917559E+03 -0.15130527398E+02 -0.29344900166E+03  0.35038063451E+03  0.12502774638E+03 0.  0.
          5    1    3    3  502    0  0.70870603299E+02 -0.26898082084E+02 -0.39206804369E+02  0.85471707252E+02  0.47000000000E+01 0. -1.
         -5    1    3    3    0  502  0.73328572290E+02  0.11767554687E+02 -0.25424219729E+03  0.26490892726E+03  0.47000000000E+01 0. -1.
        -11    1    1    2    0    0 -0.47715412407E+01  0.21019549444E+02 -0.50786895554E+02  0.55171530925E+02  0.00000000000E+00 0.  1.
         11    1    1    2    0    0 -0.13942763435E+03 -0.58890220461E+01 -0.79052828143E+02  0.16038732942E+03  0.00000000000E+00 0. -1.
<mgrwt>
<rscale>  0 0.18641099E+03</rscale>
<asrwt>0</asrwt>
<pdfrwt beam="1">  1        3 0.10973136E-01 0.19145306E+03</pdfrwt>
<pdfrwt beam="2">  1       -3 0.76094477E-01 0.19145306E+03</pdfrwt>
<totfact> 0.25526766E+02</totfact>
</mgrwt>
</event>
<event>
 7    1  0.6095443E-006  0.2552124E+03  0.7546771E-02  0.1112522E+00
         -1   -1    0    0    0  501 -0.00000000000E+00  0.00000000000E+00  0.37556475066E+03  0.37556475066E+03  0.00000000000E+00 0.  1.
          1   -1    0    0  501    0  0.00000000000E+00 -0.00000000000E+00 -0.16341644059E+03  0.16341644059E+03  0.00000000000E+00 0. -1.
         23    2    1    2    0    0 -0.20371857620E+03 -0.88035369533E+02  0.96589594224E+02  0.27287893242E+03  0.12602332114E+03 0.  0.
          5    1    3    3  502    0 -0.88278229324E+02 -0.10343902929E+03  0.32635673393E+02  0.13992803769E+03  0.47000000000E+01 0. -1.
         -5    1    3    3    0  502 -0.11544034687E+03  0.15403659760E+02  0.63953920832E+02  0.13295089473E+03  0.47000000000E+01 0. -1.
        -11    1    1    2    0    0  0.11848481776E+03  0.97508228646E+02  0.82250751224E+02  0.17410253522E+03  0.00000000000E+00 0.  1.
         11    1    1    2    0    0  0.85233758442E+02 -0.94728591138E+01  0.33307964615E+02  0.91999723612E+02  0.00000000000E+00 0. -1.
<mgrwt>
<rscale>  0 0.25124290E+03</rscale>
<asrwt>0</asrwt>
<pdfrwt beam="2">  1        1 0.25140991E-01 0.25521239E+03</pdfrwt>
<pdfrwt beam="1">  1       -1 0.57779192E-01 0.25521239E+03</pdfrwt>
<totfact> 0.59526867E+02</totfact>
</mgrwt>
</event>
<event>
 7    1  0.6095443E-006  0.1390802E+03  0.7546771E-02  0.1226173E+00
         -1   -1    0    0    0  501 -0.00000000000E+00  0.00000000000E+00  0.34643236993E+02  0.34643236993E+02  0.00000000000E+00 0.  1.
          1   -1    0    0  501    0  0.00000000000E+00 -0.00000000000E+00 -0.46255773200E+03  0.46255773200E+03  0.00000000000E+00 0. -1.
         23    2    1    2    0    0 -0.50430499975E+02 -0.34292921879E+02 -0.18970478596E+03  0.23522584713E+03  0.12499621404E+03 0.  0.
          5    1    3    3  502    0 -0.40320870011E+02  0.38516667089E+00 -0.19431394650E+03  0.19850924592E+03  0.47000000000E+01 0. -1.
         -5    1    3    3    0  502 -0.10109629964E+02 -0.34678088550E+02  0.46091605397E+01  0.36716601209E+02  0.47000000000E+01 0. -1.
        -11    1    1    2    0    0 -0.11917955208E+01 -0.11721201933E+02  0.20523741836E+01  0.11959063137E+02  0.00000000000E+00 0.  1.
         11    1    1    2    0    0  0.51622295496E+02  0.46014123812E+02 -0.24026208323E+03  0.25001605873E+03  0.00000000000E+00 0. -1.
<mgrwt>
<rscale>  0 0.13086798E+03</rscale>
<asrwt>0</asrwt>
<pdfrwt beam="2">  1        1 0.71162731E-01 0.13908017E+03</pdfrwt>
<pdfrwt beam="1">  1       -1 0.53297286E-02 0.13908017E+03</pdfrwt>
<totfact> 0.76637575E+03</totfact>
</mgrwt>
</event>
<event>
 7    1  0.6095443E-006  0.1282954E+03  0.7546771E-02  0.1244246E+00
         -2   -1    0    0    0  501 -0.00000000000E+00  0.00000000000E+00  0.32205287394E+02  0.32205287394E+02  0.00000000000E+00 0.  1.
          2   -1    0    0  501    0  0.00000000000E+00 -0.00000000000E+00 -0.53008479989E+03  0.53008479989E+03  0.00000000000E+00 0. -1.
         23    2    1    2    0    0 -0.28760948866E+02  0.28330415728E+01 -0.13214043705E+03  0.18417603745E+03  0.12499799744E+03 0.  0.
          5    1    3    3  502    0  0.17149292168E+02  0.16039134433E+02  0.15768904502E+02  0.28672293323E+02  0.47000000000E+01 0.  1.
         -5    1    3    3    0  502 -0.45910241035E+02 -0.13206092860E+02 -0.14790934155E+03  0.15550374413E+03  0.47000000000E+01 0.  1.
        -11    1    1    2    0    0  0.33118320439E+02 -0.43181083055E+02 -0.18283325747E+03  0.19076013504E+03  0.00000000000E+00 0. -1.
         11    1    1    2    0    0 -0.43573715728E+01  0.40348041483E+02 -0.18290581798E+03  0.18735391479E+03  0.00000000000E+00 0.  1.
<mgrwt>
<rscale>  0 0.11930601E+03</rscale>
<asrwt>0</asrwt>
<pdfrwt beam="2">  1        2 0.81551504E-01 0.12829543E+03</pdfrwt>
<pdfrwt beam="1">  1       -2 0.49546598E-02 0.12829543E+03</pdfrwt>
<totfact> 0.10959552E+04</totfact>
</mgrwt>
</event>
<event>
 7    1  0.6095443E-006  0.1519039E+03  0.7546771E-02  0.1206995E+00
          1   -1    0    0  501    0  0.00000000000E+00  0.00000000000E+00  0.13352121316E+04  0.13352121316E+04  0.00000000000E+00 0. -1.
         -1   -1    0    0    0  501 -0.00000000000E+00 -0.00000000000E+00 -0.14616688000E+02  0.14616688000E+02  0.00000000000E+00 0.  1.
         23    2    1    2    0    0 -0.76763347750E+02  0.39436216611E+02  0.80318437724E+03  0.81742273995E+03  0.12500786058E+03 0.  0.
          5    1    3    3  502    0 -0.97067457062E+02  0.58693395346E+02  0.73265864373E+03  0.74140257897E+03  0.47000000000E+01 0.  1.
         -5    1    3    3    0  502  0.20304109311E+02 -0.19257178735E+02  0.70525733510E+02  0.76020160976E+02  0.47000000000E+01 0.  1.
        -11    1    1    2    0    0 -0.10824536833E+02  0.17761425623E+02  0.79979584372E+02  0.82640019084E+02  0.00000000000E+00 0.  1.
         11    1    1    2    0    0  0.87587884584E+02 -0.57197642235E+02  0.43743148200E+03  0.44976606057E+03  0.00000000000E+00 0. -1.
<mgrwt>
<rscale>  0 0.14481356E+03</rscale>
<asrwt>0</asrwt>
<pdfrwt beam="1">  1        1 0.20541716E+00 0.15190389E+03</pdfrwt>
<pdfrwt beam="2">  1       -1 0.22487223E-02 0.15190389E+03</pdfrwt>
<totfact> 0.52460607E+03</totfact>
</mgrwt>
</event>
<event>
 7    1  0.6095443E-006  0.1371140E+03  0.7546771E-02  0.1231051E+00
         -2   -1    0    0    0  501 -0.00000000000E+00  0.00000000000E+00  0.28823257655E+03  0.28823257655E+03  0.00000000000E+00 0.  1.
          2   -1    0    0  501    0  0.00000000000E+00 -0.00000000000E+00 -0.70941841664E+02  0.70941841664E+02  0.00000000000E+00 0. -1.
         23    2    1    2    0    0  0.33253032466E+02 -0.45498588753E+02  0.21655291580E+03  0.25631117894E+03  0.12499747742E+03 0.  0.
          5    1    3    3  502    0  0.46797495470E+02 -0.80722189528E+01  0.21042353712E+03  0.21576682153E+03  0.47000000000E+01 0.  1.
         -5    1    3    3    0  502 -0.13544463004E+02 -0.37426369800E+02  0.61293786815E+01  0.40544357406E+02  0.47000000000E+01 0.  1.
        -11    1    1    2    0    0 -0.35738574418E+02 -0.58891283682E+01 -0.26282503634E+02  0.44751508708E+02  0.00000000000E+00 0. -1.
         11    1    1    2    0    0  0.24855419521E+01  0.51387717121E+02  0.27020322721E+02  0.58111730568E+02  0.00000000000E+00 0.  1.
<mgrwt>
<rscale>  0 0.12760675E+03</rscale>
<asrwt>0</asrwt>
<pdfrwt beam="2">  1        2 0.10914130E-01 0.13711402E+03</pdfrwt>
<pdfrwt beam="1">  1       -2 0.44343473E-01 0.13711402E+03</pdfrwt>
<totfact> 0.26963047E+03</totfact>
</mgrwt>
</event>
<event>
 7    1  0.6095443E-006  0.1317398E+03  0.7546771E-02  0.1239756E+00
         -1   -1    0    0    0  501 -0.00000000000E+00  0.00000000000E+00  0.39159791110E+02  0.39159791110E+02  0.00000000000E+00 0.  1.
          1   -1    0    0  501    0  0.00000000000E+00 -0.00000000000E+00 -0.42892561724E+03  0.42892561724E+03  0.00000000000E+00 0. -1.
         23    2    1    2    0    0 -0.79122657670E+01  0.40838398352E+02 -0.10888750724E+03  0.17091480247E+03  0.12500000697E+03 0.  0.
          5    1    3    3  502    0  0.22312506031E+02 -0.37517582595E+02 -0.19088511901E+02  0.47873564895E+02  0.47000000000E+01 0.  1.
         -5    1    3    3    0  502 -0.30224771797E+02  0.78355980947E+02 -0.89798995343E+02  0.12304123758E+03  0.47000000000E+01 0.  1.
        -11    1    1    2    0    0 -0.16972253126E+00 -0.51125590252E+02 -0.27936091823E+03  0.28400066447E+03  0.00000000000E+00 0. -1.
         11    1    1    2    0    0  0.80819882982E+01  0.10287191901E+02 -0.15174006615E+01  0.13169941413E+02  0.00000000000E+00 0.  1.
<mgrwt>
<rscale>  0 0.12204813E+03</rscale>
<asrwt>0</asrwt>
<pdfrwt beam="2">  1        1 0.65988557E-01 0.13173982E+03</pdfrwt>
<pdfrwt beam="1">  1       -1 0.60245832E-02 0.13173982E+03</pdfrwt>
<totfact> 0.70111114E+03</totfact>
</mgrwt>
</event>
<event>
 7    1  0.6095443E-006  0.1804897E+03  0.7546771E-02  0.1173651E+00
          3   -1    0    0  501    0  0.00000000000E+00  0.00000000000E+00  0.71338476983E+03  0.71338476983E+03  0.00000000000E+00 0. -1.
         -3   -1    0    0    0  501 -0.00000000000E+00 -0.00000000000E+00 -0.44344749128E+02  0.44344749128E+02  0.00000000000E+00 0.  1.
         23    2    1    2    0    0  0.98649820878E+02  0.84971553933E+02  0.23418230276E+03  0.29566517091E+03  0.12499836088E+03 0.  0.
          5    1    3    3  502    0  0.25406742578E+02  0.66563676091E+01  0.16683398348E+03  0.16895407022E+03  0.47000000000E+01 0.  1.
         -5    1    3    3    0  502  0.73243078301E+02  0.78315186324E+02  0.67348319279E+02  0.12671110069E+03  0.47000000000E+01 0.  1.
        -11    1    1    2    0    0 -0.11121155920E+03 -0.59874081371E+02  0.38005511697E+03  0.40049320650E+03  0.00000000000E+00 0. -1.
         11    1    1    2    0    0  0.12561738320E+02 -0.25097472562E+02  0.54802600969E+02  0.61571141549E+02  0.00000000000E+00 0.  1.
<mgrwt>
<rscale>  0 0.17408769E+03</rscale>
<asrwt>0</asrwt>
<pdfrwt beam="1">  1        3 0.10975149E+00 0.18048973E+03</pdfrwt>
<pdfrwt beam="2">  1       -3 0.68222696E-02 0.18048973E+03</pdfrwt>
<totfact> 0.24431920E+02</totfact>
</mgrwt>
</event>
<event>
 7    1  0.6095443E-006  0.1788870E+03  0.7546771E-02  0.1174622E+00
          1   -1    0    0  501    0  0.00000000000E+00  0.00000000000E+00  0.44301064695E+02  0.44301064695E+02  0.00000000000E+00 0. -1.
         -1   -1    0    0    0  501 -0.00000000000E+00 -0.00000000000E+00 -0.64103150756E+03  0.64103150756E+03  0.00000000000E+00 0.  1.
         23    2    1    2    0    0 -0.95062582228E+02  0.85667348344E+02 -0.28886344929E+03  0.33976854300E+03  0.12499912546E+03 0.  0.
          5    1    3    3  502    0 -0.91772485677E+02  0.11434696265E+03 -0.26084894941E+03  0.29926857737E+03  0.47000000000E+01 0.  1.
         -5    1    3    3    0  502 -0.32900965509E+01 -0.28679614310E+02 -0.28014499883E+02  0.40499965630E+02  0.47000000000E+01 0.  1.
        -11    1    1    2    0    0 -0.45866926058E+01  0.14686390123E+02 -0.34721541578E+02  0.37977799481E+02  0.00000000000E+00 0.  1.
         11    1    1    2    0    0  0.99649274834E+02 -0.10035373847E+03 -0.27314545200E+03  0.30758622977E+03  0.00000000000E+00 0. -1.
<mgrwt>
<rscale>  0 0.17313007E+03</rscale>
<asrwt>0</asrwt>
<pdfrwt beam="1">  1        1 0.68155488E-02 0.17888703E+03</pdfrwt>
<pdfrwt beam="2">  1       -1 0.98620227E-01 0.17888703E+03</pdfrwt>
<totfact> 0.11150913E+03</totfact>
</mgrwt>
</event>
<event>
 7    1  0.6095443E-006  0.1354337E+03  0.7546771E-02  0.1232383E+00
          4   -1    0    0  501    0  0.00000000000E+00  0.00000000000E+00  0.12215291267E+03  0.12215291267E+03  0.00000000000E+00 0. -1.
         -4   -1    0    0    0  501 -0.00000000000E+00 -0.00000000000E+00 -0.11737212731E+03  0.11737212731E+03  0.00000000000E+00 0.  1.
         23    2    1    2    0    0  0.28005901400E+02 -0.42114991814E+02 -0.20729738157E+01  0.13544959756E+03  0.12563555711E+03 0.  0.
          5    1    3    3  502    0  0.74519707823E+02 -0.32732888549E+02 -0.20933842578E+02  0.84172113030E+02  0.47000000000E+01 0.  1.
         -5    1    3    3    0  502 -0.46513806423E+02 -0.93821032657E+01  0.18860868762E+02  0.51277484534E+02  0.47000000000E+01 0.  1.
        -11    1    1    2    0    0  0.24943094668E+02  0.33536563664E+02  0.23453437063E+02  0.47926222301E+02  0.00000000000E+00 0. -1.
         11    1    1    2    0    0 -0.52948996069E+02  0.85784281508E+01 -0.16599677884E+02  0.56149220120E+02  0.00000000000E+00 0.  1.
<mgrwt>
<rscale>  0 0.12673491E+03</rscale>
<asrwt>0</asrwt>
<pdfrwt beam="1">  1        4 0.18792756E-01 0.13543373E+03</pdfrwt>
<pdfrwt beam="2">  1       -4 0.18057250E-01 0.13543373E+03</pdfrwt>
<totfact> 0.11288481E+03</totfact>
</mgrwt>
</event>
<event>
 7    1  0.6095443E-006  0.1335974E+03  0.7546771E-02  0.1235731E+00
         -2   -1    0    0    0  501 -0.00000000000E+00  0.00000000000E+00  0.46243322587E+03  0.46243322587E+03  0.00000000000E+00 0.  1.
          2   -1    0    0  501    0  0.00000000000E+00 -0.00000000000E+00 -0.39564215971E+02  0.39564215971E+02  0.00000000000E+00 0. -1.
         23    2    1    2    0    0 -0.29401689945E+02  0.36893545061E+02  0.35758581241E+03  0.38172748338E+03  0.12499066082E+03 0.  0.
          5    1    3    3  502    0  0.32441288695E+02  0.55363070284E+02  0.22766930499E+03  0.23658594463E+03  0.47000000000E+01 0.  1.
         -5    1    3    3    0  502 -0.61842978641E+02 -0.18469525224E+02  0.12991650742E+03  0.14514153875E+03  0.47000000000E+01 0.  1.
        -11    1    1    2    0    0 -0.24540778155E+02 -0.25666040825E+02  0.89043869080E+00  0.35521659943E+02  0.00000000000E+00 0. -1.
         11    1    1    2    0    0  0.53942468100E+02 -0.11227504236E+02  0.64392758796E+02  0.84748298516E+02  0.00000000000E+00 0.  1.
<mgrwt>
<rscale>  0 0.12457740E+03</rscale>
<asrwt>0</asrwt>
<pdfrwt beam="2">  1        2 0.60868028E-02 0.13359737E+03</pdfrwt>
<pdfrwt beam="1">  1       -2 0.71143570E-01 0.13359737E+03</pdfrwt>
<totfact> 0.21450385E+03</totfact>
</mgrwt>
</event>
<event>
 7    1  0.6095443E-006  0.2087579E+03  0.7546771E-02  0.1146367E+00
          2   -1    0    0  501    0  0.00000000000E+00  0.00000000000E+00  0.29416654348E+03  0.29416654348E+03  0.00000000000E+00 0. -1.
         -2   -1    0    0    0  501 -0.00000000000E+00 -0.00000000000E+00 -0.19376903546E+03  0.19376903546E+03  0.00000000000E+00 0.  1.
         23    2    1    2    0    0 -0.63051612039E+02 -0.15485419137E+03 -0.81881261670E+02  0.22424183601E+03  0.12499813454E+03 0.  0.
          5    1    3    3  502    0 -0.52591783958E+02 -0.11662211358E+02 -0.56790682466E+02  0.78416672517E+02  0.47000000000E+01 0.  1.
         -5    1    3    3    0  502 -0.10459828082E+02 -0.14319198001E+03 -0.25090579204E+02  0.14582516349E+03  0.47000000000E+01 0.  1.
        -11    1    1    2    0    0  0.25067672338E+02  0.11596012387E+03  0.17107434091E+03  0.20818637958E+03  0.00000000000E+00 0. -1.
         11    1    1    2    0    0  0.37983939702E+02  0.38894067492E+02  0.11204428774E+02  0.55507363345E+02  0.00000000000E+00 0.  1.
<mgrwt>
<rscale>  0 0.20404865E+03</rscale>
<asrwt>0</asrwt>
<pdfrwt beam="1">  1        2 0.45256391E-01 0.20875790E+03</pdfrwt>
<pdfrwt beam="2">  1       -2 0.29810621E-01 0.20875790E+03</pdfrwt>
<totfact> 0.11512730E+03</totfact>
</mgrwt>
</event>
<event>
 7    1  0.6095443E-006  0.1442011E+03  0.7546771E-02  0.1218070E+00
          4   -1    0    0  501    0  0.00000000000E+00  0.00000000000E+00  0.32904755122E+03  0.32904755122E+03  0.00000000000E+00 0. -1.
         -4   -1    0    0    0  501 -0.00000000000E+00 -0.00000000000E+00 -0.69200596033E+02  0.69200596033E+02  0.00000000000E+00 0.  1.
         23    2    1    2    0    0 -0.71803562705E+02  0.32671815531E+01  0.39873981627E+02  0.14961248513E+03  0.12501014041E+03 0.  0.
          5    1    3    3  502    0 -0.71830863946E+02 -0.34306293882E+02  0.66079661224E+02  0.10356257260E+03  0.47000000000E+01 0. -1.
         -5    1    3    3    0  502  0.27301240840E-01  0.37573475435E+02 -0.26205679597E+02  0.46049912538E+02  0.47000000000E+01 0. -1.
        -11    1    1    2    0    0  0.21755745695E+02  0.30559846178E+02  0.26440124984E+02  0.45894410099E+02  0.00000000000E+00 0.  1.
         11    1    1    2    0    0  0.50047817010E+02 -0.33827027731E+02  0.19353284858E+03  0.20274125202E+03  0.00000000000E+00 0. -1.
<mgrwt>
<rscale>  0 0.13653449E+03</rscale>
<asrwt>0</asrwt>
<pdfrwt beam="1">  1        4 0.50622699E-01 0.14420111E+03</pdfrwt>
<pdfrwt beam="2">  1       -4 0.10646246E-01 0.14420111E+03</pdfrwt>
<totfact> 0.43340110E+02</totfact>
</mgrwt>
</event>
<event>
 7    1  0.6095443E-006  0.1265345E+03  0.7546771E-02  0.1237898E+00
         -1   -1    0    0    0  501 -0.00000000000E+00  0.00000000000E+00  0.17918131156E+03  0.17918131156E+03  0.00000000000E+00 0.  1.
          1   -1    0    0  501    0  0.00000000000E+00 -0.00000000000E+00 -0.10357943386E+03  0.10357943386E+03  0.00000000000E+00 0. -1.
         23    2    1    2    0    0 -0.19451538737E+02  0.24241302983E+01  0.10595760649E+03  0.16503937972E+03  0.12500697467E+03 0.  0.
          5    1    3    3  502    0  0.27403534037E+01 -0.39030592161E+02  0.11073979643E+03  0.11754271213E+03  0.47000000000E+01 0.  1.
         -5    1    3    3    0  502 -0.22191892141E+02  0.41454722459E+02 -0.47821899437E+01  0.47496667584E+02  0.47000000000E+01 0.  1.
        -11    1    1    2    0    0  0.11927711149E+02  0.19397612208E+02 -0.69026474798E+02  0.72685568551E+02  0.00000000000E+00 0. -1.
         11    1    1    2    0    0  0.75238275885E+01 -0.21821742506E+02  0.38670746006E+02  0.45035797142E+02  0.00000000000E+00 0.  1.
<mgrwt>
<rscale>  0 0.12320698E+03</rscale>
<asrwt>0</asrwt>
<pdfrwt beam="2">  1        1 0.15935298E-01 0.12653451E+03</pdfrwt>
<pdfrwt beam="1">  1       -1 0.27566356E-01 0.12653451E+03</pdfrwt>
<totfact> 0.38812663E+03</totfact>
</mgrwt>
</event>
<event>
 7    1  0.6095443E-006  0.1313554E+03  0.7546771E-02  0.1238121E+00
          1   -1    0    0  501    0  0.00000000000E+00  0.00000000000E+00  0.10085637724E+03  0.10085637724E+03  0.00000000000E+00 0. -1.
         -1   -1    0    0    0  501 -0.00000000000E+00 -0.00000000000E+00 -0.16590754542E+03  0.16590754542E+03  0.00000000000E+00 0.  1.
         23    2    1    2    0    0 -0.32183921400E+01 -0.40216656268E+02 -0.93964339486E+02  0.16150397185E+03  0.12500599321E+03 0.  0.
          5    1    3    3  502    0 -0.58258209458E+02 -0.28702253745E+02 -0.19298763137E+02  0.67914435858E+02  0.47000000000E+01 0. -1.
         -5    1    3    3    0  502  0.55039817318E+02 -0.11514402524E+02 -0.74665576349E+02  0.93589535993E+02  0.47000000000E+01 0. -1.
        -11    1    1    2    0    0  0.31051929792E+02  0.28468282428E+02 -0.20880659691E+02  0.47017734924E+02  0.00000000000E+00 0.  1.
         11    1    1    2    0    0 -0.27833537652E+02  0.11748373840E+02  0.49793830998E+02  0.58242215888E+02  0.00000000000E+00 0. -1.
<mgrwt>
<rscale>  0 0.12306737E+03</rscale>
<asrwt>0</asrwt>
<pdfrwt beam="1">  1        1 0.15516366E-01 0.13135538E+03</pdfrwt>
<pdfrwt beam="2">  1       -1 0.25524237E-01 0.13135538E+03</pdfrwt>
<totfact> 0.45719587E+03</totfact>
</mgrwt>
</event>
<event>
 7    1  0.6095443E-006  0.1320304E+03  0.7546771E-02  0.1235457E+00
          2   -1    0    0  501    0  0.00000000000E+00  0.00000000000E+00  0.20903887771E+03  0.20903887771E+03  0.00000000000E+00 0. -1.
         -2   -1    0    0    0  501 -0.00000000000E+00 -0.00000000000E+00 -0.70636895240E+02  0.70636895240E+02  0.00000000000E+00 0.  1.
         23    2    1    2    0    0  0.40199266824E+02  0.13786623963E+02  0.46564028417E+02  0.14000079661E+03  0.12500384896E+03 0.  0.
          5    1    3    3  502    0 -0.24205940058E+02  0.51592230178E+02  0.21358735841E+02  0.61040735133E+02  0.47000000000E+01 0. -1.
         -5    1    3    3    0  502  0.64405206883E+02 -0.37805606215E+02  0.25205292575E+02  0.78960061479E+02  0.47000000000E+01 0. -1.
        -11    1    1    2    0    0  0.19134463377E+01  0.14474267375E+02 -0.15294412620E+02  0.21144378693E+02  0.00000000000E+00 0.  1.
         11    1    1    2    0    0 -0.42112713162E+02 -0.28260891338E+02  0.10713236667E+03  0.11853059765E+03  0.00000000000E+00 0. -1.
<mgrwt>
<rscale>  0 0.12475207E+03</rscale>
<asrwt>0</asrwt>
<pdfrwt beam="1">  1        2 0.32159827E-01 0.13203035E+03</pdfrwt>
<pdfrwt beam="2">  1       -2 0.10867215E-01 0.13203035E+03</pdfrwt>
<totfact> 0.88941270E+03</totfact>
</mgrwt>
</event>
<event>
 7    1  0.6095443E-006  0.1334912E+03  0.7546771E-02  0.1235506E+00
          2   -1    0    0  501    0  0.00000000000E+00  0.00000000000E+00  0.68810264481E+03  0.68810264481E+03  0.00000000000E+00 0.  1.
         -2   -1    0    0    0  501 -0.00000000000E+00 -0.00000000000E+00 -0.20114878851E+02  0.20114878851E+02  0.00000000000E+00 0. -1.
         23    2    1    2    0    0 -0.14651035303E+02 -0.44498594910E+02  0.38862351157E+03  0.41091135052E+03  0.12500050584E+03 0.  0.
          5    1    3    3  502    0 -0.63404167571E+02  0.47210130659E+01  0.19982948767E+03  0.20975292745E+03  0.47000000000E+01 0.  1.
         -5    1    3    3    0  502  0.48753132268E+02 -0.49219607975E+02  0.18879402390E+03  0.20115842308E+03  0.47000000000E+01 0.  1.
        -11    1    1    2    0    0  0.41895506340E+01  0.67738796683E+02  0.24675848846E+03  0.25592156716E+03  0.00000000000E+00 0.  1.
         11    1    1    2    0    0  0.10461484669E+02 -0.23240201774E+02  0.32605765930E+02  0.41384605977E+02  0.00000000000E+00 0. -1.
<mgrwt>
<rscale>  0 0.12472086E+03</rscale>
<asrwt>0</asrwt>
<pdfrwt beam="1">  1        2 0.10586193E+00 0.13349121E+03</pdfrwt>
<pdfrwt beam="2">  1       -2 0.30945973E-02 0.13349121E+03</pdfrwt>
<totfact> 0.16415197E+04</totfact>
</mgrwt>
</event>
<event>
 7    1  0.6095443E-006  0.1278844E+03  0.7546771E-02  0.1246728E+00
          2   -1    0    0  501    0  0.00000000000E+00  0.00000000000E+00  0.31657971015E+03  0.31657971015E+03  0.00000000000E+00 0. -1.
         -2   -1    0    0    0  501 -0.00000000000E+00 -0.00000000000E+00 -0.42731979214E+02  0.42731979214E+02  0.00000000000E+00 0.  1.
         23    2    1    2    0    0 -0.26479224399E+02 -0.52890532467E+01  0.99219966153E+02  0.16186111693E+03  0.12500118432E+03 0.  0.
          5    1    3    3  502    0  0.32399203033E+02 -0.28869061037E+02  0.86663388859E+02  0.97034859771E+02  0.47000000000E+01 0.  1.
         -5    1    3    3    0  502 -0.58878427433E+02  0.23580007790E+02  0.12556577294E+02  0.64826257162E+02  0.47000000000E+01 0.  1.
        -11    1    1    2    0    0  0.55343110193E+02  0.20452274595E+02  0.10189901417E+03  0.11774788520E+03  0.00000000000E+00 0.  1.
         11    1    1    2    0    0 -0.28863885794E+02 -0.15163221348E+02  0.72728750615E+02  0.79702687225E+02  0.00000000000E+00 0. -1.
<mgrwt>
<rscale>  0 0.11782531E+03</rscale>
<asrwt>0</asrwt>
<pdfrwt beam="1">  1        2 0.48704569E-01 0.12788440E+03</pdfrwt>
<pdfrwt beam="2">  1       -2 0.65741509E-02 0.12788440E+03</pdfrwt>
<totfact> 0.12432347E+04</totfact>
</mgrwt>
</event>
<event>
 7    1  0.6095443E-006  0.1381726E+03  0.7546771E-02  0.1226858E+00
          1   -1    0    0  501    0  0.00000000000E+00  0.00000000000E+00  0.68563100772E+03  0.68563100772E+03  0.00000000000E+00 0. -1.
         -1   -1    0    0    0  501 -0.00000000000E+00 -0.00000000000E+00 -0.25691985537E+02  0.25691985537E+02  0.00000000000E+00 0.  1.
         23    2    1    2    0    0  0.15598415365E+02 -0.56777476214E+02  0.23631046120E+03  0.27374132901E+03  0.12499875507E+03 0.  0.
          5    1    3    3  502    0  0.26791044906E+02  0.11566808416E+02  0.22931424957E+01  0.29646241695E+02  0.47000000000E+01 0. -1.
         -5    1    3    3    0  502 -0.11192629542E+02 -0.68344284631E+02  0.23401731871E+03  0.24409508732E+03  0.47000000000E+01 0. -1.
        -11    1    1    2    0    0 -0.15969353059E+02  0.81762347682E+02  0.35185922111E+03  0.36158679901E+03  0.00000000000E+00 0. -1.
         11    1    1    2    0    0  0.37093769457E+00 -0.24984871467E+02  0.71769339865E+02  0.75994865232E+02  0.00000000000E+00 0.  1.
<mgrwt>
<rscale>  0 0.13040344E+03</rscale>
<asrwt>0</asrwt>
<pdfrwt beam="1">  1        1 0.10548168E+00 0.13817265E+03</pdfrwt>
<pdfrwt beam="2">  1       -1 0.39526137E-02 0.13817265E+03</pdfrwt>
<totfact> 0.70157774E+03</totfact>
</mgrwt>
</event>
<event>
 7    1  0.6095443E-006  0.1288809E+03  0.7546771E-02  0.1242858E+00
          2   -1    0    0  501    0  0.00000000000E+00  0.00000000000E+00  0.98459128142E+03  0.98459128142E+03  0.00000000000E+00 0. -1.
         -2   -1    0    0    0  501 -0.00000000000E+00 -0.00000000000E+00 -0.12993427040E+02  0.12993427040E+02  0.00000000000E+00 0.  1.
         23    2    1    2    0    0  0.85703519941E+01 -0.30263769570E+02  0.55194606754E+03  0.56679339974E+03  0.12498379828E+03 0.  0.
          5    1    3    3  502    0 -0.50593985470E+02 -0.41801495081E+01  0.12570732312E+03  0.13565266714E+03  0.47000000000E+01 0.  1.
         -5    1    3    3    0  502  0.59164337464E+02 -0.26083620062E+02  0.42623874442E+03  0.43114073260E+03  0.47000000000E+01 0.  1.
        -11    1    1    2    0    0 -0.42677713387E+02  0.42877496766E+02  0.24111187879E+03  0.24858560908E+03  0.00000000000E+00 0.  1.
         11    1    1    2    0    0  0.34107361392E+02 -0.12613727196E+02  0.17853990805E+03  0.18220569964E+03  0.00000000000E+00 0. -1.
<mgrwt>
<rscale>  0 0.12014494E+03</rscale>
<asrwt>0</asrwt>
<pdfrwt beam="1">  1        2 0.15147552E+00 0.12888094E+03</pdfrwt>
<pdfrwt beam="2">  1       -2 0.19989895E-02 0.12888094E+03</pdfrwt>
<totfact> 0.19722271E+04</totfact>
</mgrwt>
</event>
<event>
 7    1  0.6095443E-006  0.1362800E+03  0.7546771E-02  0.1230541E+00
          1   -1    0    0  501    0  0.00000000000E+00  0.00000000000E+00  0.13365288318E+03  0.13365288318E+03  0.00000000000E+00 0. -1.
         -1   -1    0    0    0  501 -0.00000000000E+00 -0.00000000000E+00 -0.11235612291E+03  0.11235612291E+03  0.00000000000E+00 0.  1.
         23    2    1    2    0    0 -0.29083994795E+02 -0.45848464832E+02 -0.68858103124E+01  0.13645388856E+03  0.12499715532E+03 0.  0.
          5    1    3    3  502    0 -0.30907533261E+01  0.39841089420E+02 -0.21471607328E+02  0.45606853471E+02  0.47000000000E+01 0.  1.
         -5    1    3    3    0  502 -0.25993241469E+02 -0.85689554251E+02  0.14585797015E+02  0.90847035089E+02  0.47000000000E+01 0.  1.
        -11    1    1    2    0    0 -0.18332717626E+02  0.81732903664E+01  0.42783356630E+02  0.47257875698E+02  0.00000000000E+00 0. -1.
         11    1    1    2    0    0  0.47416712421E+02  0.37675174465E+02 -0.14600786049E+02  0.62297241841E+02  0.00000000000E+00 0.  1.
<mgrwt>
<rscale>  0 0.12794270E+03</rscale>
<asrwt>0</asrwt>
<pdfrwt beam="1">  1        1 0.20561982E-01 0.13628004E+03</pdfrwt>
<pdfrwt beam="2">  1       -1 0.17285557E-01 0.13628004E+03</pdfrwt>
<totfact> 0.59942399E+03</totfact>
</mgrwt>
</event>
<event>
 7    1  0.6095443E-006  0.1281557E+03  0.7546771E-02  0.1244382E+00
          2   -1    0    0  501    0  0.00000000000E+00  0.00000000000E+00  0.19461712344E+03  0.19461712344E+03  0.00000000000E+00 0. -1.
         -2   -1    0    0    0  501 -0.00000000000E+00 -0.00000000000E+00 -0.74774448860E+02  0.74774448860E+02  0.00000000000E+00 0.  1.
         23    2    1    2    0    0 -0.28242373049E+02 -0.15557550554E+01  0.17957964136E+02  0.12940777097E+03  0.12499532273E+03 0.  0.
          5    1    3    3  502    0 -0.20021712277E+02 -0.10775404886E+02 -0.52666580020E+02  0.57557249447E+02  0.47000000000E+01 0. -1.
         -5    1    3    3    0  502 -0.82206607716E+01  0.92196498307E+01  0.70624544156E+02  0.71850521527E+02  0.47000000000E+01 0. -1.
        -11    1    1    2    0    0  0.55362810661E+02  0.22464634469E+02  0.77905649019E+02  0.98178361950E+02  0.00000000000E+00 0.  1.
         11    1    1    2    0    0 -0.27120437612E+02 -0.20908879414E+02  0.23979061428E+02  0.41805439378E+02  0.00000000000E+00 0. -1.
<mgrwt>
<rscale>  0 0.11922441E+03</rscale>
<asrwt>0</asrwt>
<pdfrwt beam="1">  1        2 0.29941096E-01 0.12815570E+03</pdfrwt>
<pdfrwt beam="2">  1       -2 0.11503761E-01 0.12815570E+03</pdfrwt>
<totfact> 0.87582183E+03</totfact>
</mgrwt>
</event>
<event>
 7    1  0.6095443E-006  0.1331713E+03  0.7546771E-02  0.1233753E+00
          2   -1    0    0  501    0  0.00000000000E+00  0.00000000000E+00  0.19242684834E+02  0.19242684834E+02  0.00000000000E+00 0. -1.
         -2   -1    0    0    0  501 -0.00000000000E+00 -0.00000000000E+00 -0.13892872509E+04  0.13892872509E+04  0.00000000000E+00 0.  1.
         23    2    1    2    0    0 -0.26775121569E+02  0.37326193617E+02 -0.12045626130E+04  0.12119016763E+04  0.12499773013E+03 0.  0.
          5    1    3    3  502    0 -0.38108987430E+02  0.72553848026E+02 -0.53106868257E+03  0.53737546594E+03  0.47000000000E+01 0.  1.
         -5    1    3    3    0  502  0.11333865861E+02 -0.35227654409E+02 -0.67349393039E+03  0.67452621033E+03  0.47000000000E+01 0.  1.
        -11    1    1    2    0    0 -0.27151640264E+01 -0.16679259887E+02  0.85313220241E+01  0.18930221381E+02  0.00000000000E+00 0. -1.
         11    1    1    2    0    0  0.29490285596E+02 -0.20646933730E+02 -0.17401327508E+03  0.17769803803E+03  0.00000000000E+00 0.  1.
<mgrwt>
<rscale>  0 0.12584582E+03</rscale>
<asrwt>0</asrwt>
<pdfrwt beam="1">  1        2 0.29604118E-02 0.13317126E+03</pdfrwt>
<pdfrwt beam="2">  1       -2 0.21373659E+00 0.13317126E+03</pdfrwt>
<totfact> 0.37145414E+02</totfact>
</mgrwt>
</event>
<event>
 7    1  0.6095443E-006  0.1320777E+03  0.7546771E-02  0.1238104E+00
         -2   -1    0    0    0  501 -0.00000000000E+00  0.00000000000E+00  0.92840602485E+02  0.92840602485E+02  0.00000000000E+00 0. -1.
          2   -1    0    0  501    0  0.00000000000E+00 -0.00000000000E+00 -0.14644719475E+03  0.14644719475E+03  0.00000000000E+00 0.  1.
         23    2    1    2    0    0 -0.41119576323E+02 -0.11339961683E+02 -0.16945677476E+02  0.13316038018E+03  0.12500046631E+03 0.  0.
          5    1    3    3  502    0 -0.20020193514E+02 -0.11752041711E+02  0.54014574532E+02  0.58979512499E+02  0.47000000000E+01 0.  1.
         -5    1    3    3    0  502 -0.21099382809E+02  0.41208002785E+00 -0.70960252008E+02  0.74180867681E+02  0.47000000000E+01 0.  1.
        -11    1    1    2    0    0  0.68529803617E+02  0.12573073979E+00 -0.17087434954E+02  0.70628112146E+02  0.00000000000E+00 0. -1.
         11    1    1    2    0    0 -0.27410227295E+02  0.11214230943E+02 -0.19573479833E+02  0.35499304905E+02  0.00000000000E+00 0.  1.
<mgrwt>
<rscale>  0 0.12307809E+03</rscale>
<asrwt>0</asrwt>
<pdfrwt beam="2">  1        2 0.22530338E-01 0.13207775E+03</pdfrwt>
<pdfrwt beam="1">  1       -2 0.14283170E-01 0.13207775E+03</pdfrwt>
<totfact> 0.84732926E+03</totfact>
</mgrwt>
</event>
<event>
 7    1  0.6095443E-006  0.1344612E+03  0.7546771E-02  0.1233215E+00
          4   -1    0    0  501    0  0.00000000000E+00  0.00000000000E+00  0.45790863230E+02  0.45790863230E+02  0.00000000000E+00 0. -1.
         -4   -1    0    0    0  501 -0.00000000000E+00 -0.00000000000E+00 -0.46377178883E+03  0.46377178883E+03  0.00000000000E+00 0.  1.
         23    2    1    2    0    0  0.19902957945E+02 -0.45400228972E+02 -0.37200917228E+03  0.39556369637E+03  0.12499002001E+03 0.  0.
          5    1    3    3  502    0  0.32849422006E+02  0.29453279944E+02 -0.61326190074E+02  0.75693935124E+02  0.47000000000E+01 0.  1.
         -5    1    3    3    0  502 -0.12946464062E+02 -0.74853508916E+02 -0.31068298221E+03  0.31986976125E+03  0.47000000000E+01 0.  1.
        -11    1    1    2    0    0  0.33529654368E+02  0.18293604484E+02 -0.37430133029E+02  0.53478112772E+02  0.00000000000E+00 0.  1.
         11    1    1    2    0    0 -0.53432612313E+02  0.27106624488E+02 -0.85416202883E+01  0.60520842913E+02  0.00000000000E+00 0. -1.
<mgrwt>
<rscale>  0 0.12619383E+03</rscale>
<asrwt>0</asrwt>
<pdfrwt beam="1">  1        4 0.70447478E-02 0.13446120E+03</pdfrwt>
<pdfrwt beam="2">  1       -4 0.71349510E-01 0.13446120E+03</pdfrwt>
<totfact> 0.41392856E+02</totfact>
</mgrwt>
</event>
<event>
 7    1  0.6095443E-006  0.1403295E+03  0.7546771E-02  0.1222286E+00
         -1   -1    0    0    0  501 -0.00000000000E+00  0.00000000000E+00  0.79413327657E+02  0.79413327657E+02  0.00000000000E+00 0.  1.
          1   -1    0    0  501    0  0.00000000000E+00 -0.00000000000E+00 -0.20846665345E+03  0.20846665345E+03  0.00000000000E+00 0. -1.
         23    2    1    2    0    0  0.54145439128E+02 -0.33731250481E+02 -0.53429356575E+02  0.15015680504E+03  0.12499137617E+03 0.  0.
          5    1    3    3  502    0  0.79258487642E+02  0.10645099230E+02 -0.57772552992E+02  0.98767321925E+02  0.47000000000E+01 0. -1.
         -5    1    3    3    0  502 -0.25113048514E+02 -0.44376349712E+02  0.43431964172E+01  0.51389483112E+02  0.47000000000E+01 0. -1.
        -11    1    1    2    0    0 -0.41421089690E+02 -0.37544547613E+01  0.10535650150E+02  0.42904574649E+02  0.00000000000E+00 0.  1.
         11    1    1    2    0    0 -0.12724349438E+02  0.37485705243E+02 -0.86159619371E+02  0.94818601426E+02  0.00000000000E+00 0. -1.
<mgrwt>
<rscale>  0 0.13354676E+03</rscale>
<asrwt>0</asrwt>
<pdfrwt beam="2">  1        1 0.32071792E-01 0.14032950E+03</pdfrwt>
<pdfrwt beam="1">  1       -1 0.12217435E-01 0.14032950E+03</pdfrwt>
<totfact> 0.59177574E+03</totfact>
</mgrwt>
</event>
<event>
 7    1  0.6095443E-006  0.1893189E+03  0.7546771E-02  0.1164021E+00
          4   -1    0    0  501    0  0.00000000000E+00  0.00000000000E+00  0.32503658483E+03  0.32503658483E+03  0.00000000000E+00 0. -1.
         -4   -1    0    0    0  501 -0.00000000000E+00 -0.00000000000E+00 -0.98637937324E+02  0.98637937324E+02  0.00000000000E+00 0.  1.
         23    2    1    2    0    0 -0.20802626296E+02 -0.14065408030E+03  0.12042893714E+03  0.22437639380E+03  0.12500127052E+03 0.  0.
          5    1    3    3  502    0 -0.31116261392E+02  0.59856376526E+01  0.54459283619E+02  0.63181905269E+02  0.47000000000E+01 0.  1.
         -5    1    3    3    0  502  0.10313635096E+02 -0.14663971795E+03  0.65969653518E+02  0.16119448854E+03  0.47000000000E+01 0.  1.
        -11    1    1    2    0    0  0.36597462764E+02  0.82065213168E+02  0.16757782387E+02  0.91405124383E+02  0.00000000000E+00 0.  1.
         11    1    1    2    0    0 -0.15794836468E+02  0.58588867129E+02  0.89211927980E+02  0.10789300396E+03  0.00000000000E+00 0. -1.
<mgrwt>
<rscale>  0 0.18396377E+03</rscale>
<asrwt>0</asrwt>
<pdfrwt beam="1">  1        4 0.50005628E-01 0.18931888E+03</pdfrwt>
<pdfrwt beam="2">  1       -4 0.15175067E-01 0.18931888E+03</pdfrwt>
<totfact> 0.25254849E+02</totfact>
</mgrwt>
</event>
<event>
 7    1  0.6095443E-006  0.1453313E+03  0.7546771E-02  0.1216722E+00
         -1   -1    0    0    0  501 -0.00000000000E+00  0.00000000000E+00  0.62040069682E+02  0.62040069682E+02  0.00000000000E+00 0.  1.
          1   -1    0    0  501    0  0.00000000000E+00 -0.00000000000E+00 -0.30593969793E+03  0.30593969793E+03  0.00000000000E+00 0. -1.
         23    2    1    2    0    0  0.59268066247E+02 -0.44525626041E+02 -0.77039649781E+02  0.16448795593E+03  0.12500377977E+03 0.  0.
          5    1    3    3  502    0  0.15017700512E+02 -0.80563801100E+02 -0.21816522155E+02  0.84935905336E+02  0.47000000000E+01 0.  1.
         -5    1    3    3    0  502  0.44250365734E+02  0.36038175059E+02 -0.55223127626E+02  0.79552050596E+02  0.47000000000E+01 0.  1.
        -11    1    1    2    0    0 -0.81197431881E+02  0.21673485430E+02 -0.11030401255E+03  0.13867133121E+03  0.00000000000E+00 0.  1.
         11    1    1    2    0    0  0.21929365634E+02  0.22852140611E+02 -0.56555965911E+02  0.64820480465E+02  0.00000000000E+00 0. -1.
<mgrwt>
<rscale>  0 0.13750815E+03</rscale>
<asrwt>0</asrwt>
<pdfrwt beam="2">  1        1 0.47067647E-01 0.14533128E+03</pdfrwt>
<pdfrwt beam="1">  1       -1 0.95446259E-02 0.14533128E+03</pdfrwt>
<totfact> 0.53852275E+03</totfact>
</mgrwt>
</event>
<event>
 7    1  0.6095443E-006  0.1412813E+03  0.7546771E-02  0.1222602E+00
          2   -1    0    0  501    0  0.00000000000E+00  0.00000000000E+00  0.21926151312E+03  0.21926151312E+03  0.00000000000E+00 0.  1.
         -2   -1    0    0    0  501 -0.00000000000E+00 -0.00000000000E+00 -0.81579662549E+02  0.81579662549E+02  0.00000000000E+00 0. -1.
         23    2    1    2    0    0  0.42201243580E+02 -0.50534254728E+02  0.27968998725E+02  0.14402318284E+03  0.12500302574E+03 0.  0.
          5    1    3    3  502    0  0.77452536273E+02 -0.65620023302E+02  0.27939562536E+02  0.10539256135E+03  0.47000000000E+01 0. -1.
         -5    1    3    3    0  502 -0.35251292693E+02  0.15085768574E+02  0.29436189510E-01  0.38630621487E+02  0.47000000000E+01 0. -1.
        -11    1    1    2    0    0  0.20903826032E+02 -0.59147049246E+01  0.52468659120E+01  0.22349122556E+02  0.00000000000E+00 0. -1.
         11    1    1    2    0    0 -0.63105069612E+02  0.56448959652E+02  0.10446598594E+03  0.13446887028E+03  0.00000000000E+00 0.  1.
<mgrwt>
<rscale>  0 0.13332621E+03</rscale>
<asrwt>0</asrwt>
<pdfrwt beam="1">  1        2 0.33732540E-01 0.14128132E+03</pdfrwt>
<pdfrwt beam="2">  1       -2 0.12550717E-01 0.14128132E+03</pdfrwt>
<totfact> 0.67485928E+03</totfact>
</mgrwt>
</event>
<event>
 7    1  0.6095443E-006  0.1491733E+03  0.7546771E-02  0.1209932E+00
          1   -1    0    0  501    0  0.00000000000E+00  0.00000000000E+00  0.59970207715E+02  0.59970207715E+02  0.00000000000E+00 0. -1.
         -1   -1    0    0    0  501 -0.00000000000E+00 -0.00000000000E+00 -0.43401756621E+03  0.43401756621E+03  0.00000000000E+00 0.  1.
         23    2    1    2    0    0  0.16364900882E+02 -0.79748833110E+02 -0.32975618159E+03  0.36192792389E+03  0.12499998573E+03 0.  0.
          5    1    3    3  502    0  0.48347059401E+02 -0.54889273291E+02 -0.30616512055E+03  0.31481652040E+03  0.47000000000E+01 0. -1.
         -5    1    3    3    0  502 -0.31982158520E+02 -0.24859559819E+02 -0.23591061038E+02  0.47111403491E+02  0.47000000000E+01 0. -1.
        -11    1    1    2    0    0 -0.19178869041E+02  0.10099234652E+03 -0.33887684505E+02  0.10823889428E+03  0.00000000000E+00 0.  1.
         11    1    1    2    0    0  0.28139681589E+01 -0.21243513412E+02 -0.10403492401E+02  0.23820955754E+02  0.00000000000E+00 0. -1.
<mgrwt>
<rscale>  0 0.14255521E+03</rscale>
<asrwt>0</asrwt>
<pdfrwt beam="1">  1        1 0.92261855E-02 0.14917333E+03</pdfrwt>
<pdfrwt beam="2">  1       -1 0.66771935E-01 0.14917333E+03</pdfrwt>
<totfact> 0.16514926E+03</totfact>
</mgrwt>
</event>
<event>
 6    1  0.6095443E-006  0.5816855E+03  0.7546771E-02  0.1002877E+00
          1   -1    0    0  501    0  0.00000000000E+00  0.00000000000E+00  0.38830102164E+03  0.38830102164E+03  0.00000000000E+00 0. -1.
         -1   -1    0    0    0  501 -0.00000000000E+00 -0.00000000000E+00 -0.74340090431E+03  0.74340090431E+03  0.00000000000E+00 0.  1.
          5    1    1    2  502    0 -0.62209628920E+02 -0.93282216259E+02 -0.12229113658E+03  0.16597837777E+03  0.47000000000E+01 0. -1.
         -5    1    1    2    0  502 -0.27407910934E+03  0.37024889409E+03 -0.24215820308E+03  0.52044815983E+03  0.47000000000E+01 0.  1.
        -11    1    1    2    0    0  0.17005058908E+03 -0.11117294597E+03  0.44205045923E+02  0.20791996741E+03  0.00000000000E+00 0.  1.
         11    1    1    2    0    0  0.16623814918E+03 -0.16579373187E+03 -0.34855588930E+02  0.23735542094E+03  0.00000000000E+00 0. -1.
<mgrwt>
<rscale>  0 0.54406331E+03</rscale>
<asrwt>0</asrwt>
<pdfrwt beam="1">  1        1 0.59738619E-01 0.58168554E+03</pdfrwt>
<pdfrwt beam="2">  1       -1 0.11436937E+00 0.58168554E+03</pdfrwt>
<totfact> 0.45050582E+01</totfact>
</mgrwt>
</event>
<event>
 7    1  0.6095443E-006  0.1894162E+03  0.7546771E-02  0.1164021E+00
          1   -1    0    0  501    0  0.00000000000E+00  0.00000000000E+00  0.36786600915E+02  0.36786600915E+02  0.00000000000E+00 0. -1.
         -1   -1    0    0    0  501 -0.00000000000E+00 -0.00000000000E+00 -0.87394388401E+03  0.87394388401E+03  0.00000000000E+00 0.  1.
         23    2    1    2    0    0  0.37184790125E+02  0.13737280613E+03 -0.47046127757E+03  0.50716101807E+03  0.12499795226E+03 0.  0.
          5    1    3    3  502    0  0.67292745269E+02  0.25125879196E+02 -0.15371170799E+03  0.16973214941E+03  0.47000000000E+01 0. -1.
         -5    1    3    3    0  502 -0.30107955144E+02  0.11224692693E+03 -0.31674956958E+03  0.33742886865E+03  0.47000000000E+01 0. -1.
        -11    1    1    2    0    0 -0.25035828722E+02 -0.10102443202E+03 -0.34315524519E+03  0.35859203963E+03  0.00000000000E+00 0.  1.
         11    1    1    2    0    0 -0.12148961403E+02 -0.36348374104E+02 -0.23540760333E+02  0.44977427230E+02  0.00000000000E+00 0. -1.
<mgrwt>
<rscale>  0 0.18396367E+03</rscale>
<asrwt>0</asrwt>
<pdfrwt beam="1">  1        1 0.56594777E-02 0.18941617E+03</pdfrwt>
<pdfrwt beam="2">  1       -1 0.13445289E+00 0.18941617E+03</pdfrwt>
<totfact> 0.69829289E+02</totfact>
</mgrwt>
</event>
<event>
 6    1  0.6095443E-006  0.1563700E+03  0.7546771E-02  0.1208602E+00
          2   -1    0    0  501    0  0.00000000000E+00  0.00000000000E+00  0.67313500196E+03  0.67313500196E+03  0.00000000000E+00 0. -1.
         -2   -1    0    0    0  501 -0.00000000000E+00 -0.00000000000E+00 -0.30682409607E+02  0.30682409607E+02  0.00000000000E+00 0.  1.
          5    1    1    2  502    0 -0.76673096409E+02  0.38282869663E+02  0.17488720579E+03  0.19481264479E+03  0.47000000000E+01 0. -1.
         -5    1    1    2    0  502  0.20221533045E+02 -0.61256145130E+02  0.66248490340E+02  0.92586058276E+02  0.47000000000E+01 0.  1.
        -11    1    1    2    0    0  0.81773159896E+02  0.12494439101E+02  0.32382714567E+03  0.33422594298E+03  0.00000000000E+00 0.  1.
         11    1    1    2    0    0 -0.25321596532E+02  0.10478836366E+02  0.77489750561E+02  0.82192765524E+02  0.00000000000E+00 0. -1.
<mgrwt>
<rscale>  0 0.14357222E+03</rscale>
<asrwt>0</asrwt>
<pdfrwt beam="1">  1        2 0.10355922E+00 0.15637004E+03</pdfrwt>
<pdfrwt beam="2">  1       -2 0.47203712E-02 0.15637004E+03</pdfrwt>
<totfact> 0.90920124E+03</totfact>
</mgrwt>
</event>
<event>
 7    1  0.6095443E-006  0.1598646E+03  0.7546771E-02  0.1196349E+00
          2   -1    0    0  501    0  0.00000000000E+00  0.00000000000E+00  0.66182679444E+03  0.66182679444E+03  0.00000000000E+00 0. -1.
         -2   -1    0    0    0  501 -0.00000000000E+00 -0.00000000000E+00 -0.33053610348E+02  0.33053610348E+02  0.00000000000E+00 0.  1.
         23    2    1    2    0    0 -0.26808888346E+02 -0.95986494214E+02  0.32241084364E+03  0.35986863560E+03  0.12499823690E+03 0.  0.
          5    1    3    3  502    0  0.38476949962E+02 -0.63406973169E+02  0.92754607733E+02  0.11885464728E+03  0.47000000000E+01 0.  1.
         -5    1    3    3    0  502 -0.65285838309E+02 -0.32579521045E+02  0.22965623591E+03  0.24101398832E+03  0.47000000000E+01 0.  1.
        -11    1    1    2    0    0 -0.26827258442E+02  0.34235000446E+02  0.17452395816E+03  0.17986202774E+03  0.00000000000E+00 0. -1.
         11    1    1    2    0    0  0.53636146789E+02  0.61751493768E+02  0.13183838229E+03  0.15514974144E+03  0.00000000000E+00 0.  1.
<mgrwt>
<rscale>  0 0.15340609E+03</rscale>
<asrwt>0</asrwt>
<pdfrwt beam="1">  1        2 0.10181950E+00 0.15986458E+03</pdfrwt>
<pdfrwt beam="2">  1       -2 0.50851713E-02 0.15986458E+03</pdfrwt>
<totfact> 0.83023997E+03</totfact>
</mgrwt>
</event>
<event>
 7    1  0.6095443E-006  0.1252106E+03  0.7546771E-02  0.1247594E+00
         -1   -1    0    0    0  501 -0.00000000000E+00  0.00000000000E+00  0.90489241751E+03  0.90489241751E+03  0.00000000000E+00 0.  1.
          1   -1    0    0  501    0  0.00000000000E+00 -0.00000000000E+00 -0.19007036465E+02  0.19007036465E+02  0.00000000000E+00 0. -1.
         23    2    1    2    0    0  0.56889472961E-01  0.57534990503E+01  0.72931187465E+03  0.73998209771E+03  0.12507832925E+03 0.  0.
          5    1    3    3  502    0 -0.53040363523E+02  0.12571111427E+02  0.18219964948E+03  0.19023699765E+03  0.47000000000E+01 0.  1.
         -5    1    3    3    0  502  0.53097252996E+02 -0.68176123771E+01  0.54711222516E+03  0.54974510006E+03  0.47000000000E+01 0.  1.
        -11    1    1    2    0    0  0.15333021963E+02 -0.27189779375E+02  0.69433278962E+01  0.31978046645E+02  0.00000000000E+00 0. -1.
         11    1    1    2    0    0 -0.15389911436E+02  0.21436280324E+02  0.14963017850E+03  0.15193930961E+03  0.00000000000E+00 0.  1.
<mgrwt>
<rscale>  0 0.11731444E+03</rscale>
<asrwt>0</asrwt>
<pdfrwt beam="2">  1        1 0.29241602E-02 0.12521060E+03</pdfrwt>
<pdfrwt beam="1">  1       -1 0.13921418E+00 0.12521060E+03</pdfrwt>
<totfact> 0.15726860E+03</totfact>
</mgrwt>
</event>
<event>
 7    1  0.6095443E-006  0.1256377E+03  0.7546771E-02  0.1249039E+00
          1   -1    0    0  501    0  0.00000000000E+00  0.00000000000E+00  0.11590827268E+03  0.11590827268E+03  0.00000000000E+00 0. -1.
         -1   -1    0    0    0  501 -0.00000000000E+00 -0.00000000000E+00 -0.10389030060E+03  0.10389030060E+03  0.00000000000E+00 0.  1.
         23    2    1    2    0    0  0.87260729109E+01 -0.91740517204E+01  0.17509028851E+02  0.12685187324E+03  0.12499809630E+03 0.  0.
          5    1    3    3  502    0 -0.16285964520E+02 -0.97747143847E+01  0.67755672345E+02  0.70524455450E+02  0.47000000000E+01 0. -1.
         -5    1    3    3    0  502  0.25012037431E+02  0.60066266433E+00 -0.50246643494E+02  0.56327417787E+02  0.47000000000E+01 0. -1.
        -11    1    1    2    0    0  0.29116849131E+02 -0.11987221908E+02 -0.29702955936E+02  0.43286833838E+02  0.00000000000E+00 0.  1.
         11    1    1    2    0    0 -0.37842922042E+02  0.21161273628E+02  0.24211899160E+02  0.49659866202E+02  0.00000000000E+00 0. -1.
<mgrwt>
<rscale>  0 0.11646855E+03</rscale>
<asrwt>0</asrwt>
<pdfrwt beam="1">  1        1 0.17832042E-01 0.12563770E+03</pdfrwt>
<pdfrwt beam="2">  1       -1 0.15983123E-01 0.12563770E+03</pdfrwt>
<totfact> 0.80839964E+03</totfact>
</mgrwt>
</event>
<event>
 7    1  0.6095443E-006  0.1317727E+03  0.7546771E-02  0.1240423E+00
         -1   -1    0    0    0  501 -0.00000000000E+00  0.00000000000E+00  0.37587025881E+02  0.37587025881E+02  0.00000000000E+00 0.  1.
          1   -1    0    0  501    0  0.00000000000E+00 -0.00000000000E+00 -0.34409344396E+03  0.34409344396E+03  0.00000000000E+00 0. -1.
         23    2    1    2    0    0  0.68854480742E+01  0.41111809604E+02 -0.17584927151E+03  0.21974306389E+03  0.12500583007E+03 0.  0.
          5    1    3    3  502    0  0.65686861997E+02  0.26260329591E+02 -0.97515578060E+02  0.12056428457E+03  0.47000000000E+01 0.  1.
         -5    1    3    3    0  502 -0.58801413922E+02  0.14851480013E+02 -0.78333693451E+02  0.99178779321E+02  0.47000000000E+01 0.  1.
        -11    1    1    2    0    0 -0.40505753924E+02 -0.13876751158E+02 -0.29728533396E+02  0.52125483418E+02  0.00000000000E+00 0.  1.
         11    1    1    2    0    0  0.33620305850E+02 -0.27235058446E+02 -0.10092861317E+03  0.10981192254E+03  0.00000000000E+00 0. -1.
<mgrwt>
<rscale>  0 0.12163574E+03</rscale>
<asrwt>0</asrwt>
<pdfrwt beam="2">  1        1 0.52937456E-01 0.13177271E+03</pdfrwt>
<pdfrwt beam="1">  1       -1 0.57826190E-02 0.13177271E+03</pdfrwt>
<totfact> 0.98274353E+03</totfact>
</mgrwt>
</event>
<event>
 7    1  0.6095443E-006  0.1380892E+03  0.7546771E-02  0.1227653E+00
          2   -1    0    0  501    0  0.00000000000E+00  0.00000000000E+00  0.12304695024E+03  0.12304695024E+03  0.00000000000E+00 0. -1.
         -2   -1    0    0    0  501 -0.00000000000E+00 -0.00000000000E+00 -0.12584812822E+03  0.12584812822E+03  0.00000000000E+00 0.  1.
         23    2    1    2    0    0 -0.15266062835E+02  0.56662403184E+02 -0.19933771990E+02  0.13952052256E+03  0.12499976136E+03 0.  0.
          5    1    3    3  502    0 -0.38828695637E+01 -0.29286127214E+02  0.27455530954E+02  0.40603572543E+02  0.47000000000E+01 0. -1.
         -5    1    3    3    0  502 -0.11383193271E+02  0.85948530398E+02 -0.47389302944E+02  0.98916950014E+02  0.47000000000E+01 0. -1.
        -11    1    1    2    0    0 -0.25306457484E+02 -0.34907535803E+02 -0.22495185183E+02  0.48631123806E+02  0.00000000000E+00 0.  1.
         11    1    1    2    0    0  0.40572520319E+02 -0.21754867381E+02  0.39627779186E+02  0.60743432097E+02  0.00000000000E+00 0. -1.
<mgrwt>
<rscale>  0 0.12986741E+03</rscale>
<asrwt>0</asrwt>
<pdfrwt beam="1">  1        2 0.18930300E-01 0.13808918E+03</pdfrwt>
<pdfrwt beam="2">  1       -2 0.19361250E-01 0.13808918E+03</pdfrwt>
<totfact> 0.62539055E+03</totfact>
</mgrwt>
</event>
<event>
 7    1  0.6095443E-006  0.1519398E+03  0.7546771E-02  0.1202787E+00
          2   -1    0    0  501    0  0.00000000000E+00  0.00000000000E+00  0.76375905657E+02  0.76375905657E+02  0.00000000000E+00 0. -1.
         -2   -1    0    0    0  501 -0.00000000000E+00 -0.00000000000E+00 -0.31375040227E+03  0.31375040227E+03  0.00000000000E+00 0.  1.
         23    2    1    2    0    0 -0.78574460378E+02 -0.35874896487E+02 -0.19347586221E+03  0.24600529534E+03  0.12499896821E+03 0.  0.
          5    1    3    3  502    0 -0.85027061931E+02 -0.71918698289E+02 -0.12002405317E+03  0.16379793577E+03  0.47000000000E+01 0. -1.
         -5    1    3    3    0  502  0.64526015531E+01  0.36043801802E+02 -0.73451809043E+02  0.82207359566E+02  0.47000000000E+01 0. -1.
        -11    1    1    2    0    0  0.99112233036E+02  0.50715722119E+02 -0.40883884587E+02  0.11860358859E+03  0.00000000000E+00 0. -1.
         11    1    1    2    0    0 -0.20537772659E+02 -0.14840825632E+02 -0.30147498188E+01  0.25517424002E+02  0.00000000000E+00 0.  1.
<mgrwt>
<rscale>  0 0.14813225E+03</rscale>
<asrwt>0</asrwt>
<pdfrwt beam="1">  1        2 0.11750139E-01 0.15193978E+03</pdfrwt>
<pdfrwt beam="2">  1       -2 0.48269294E-01 0.15193978E+03</pdfrwt>
<totfact> 0.21010616E+03</totfact>
</mgrwt>
</event>
<event>
 7    1  0.6095443E-006  0.1887053E+03  0.7546771E-02  0.1164548E+00
          1   -1    0    0  501    0  0.00000000000E+00  0.00000000000E+00  0.39347806731E+03  0.39347806731E+03  0.00000000000E+00 0. -1.
         -1   -1    0    0    0  501 -0.00000000000E+00 -0.00000000000E+00 -0.81794661304E+02  0.81794661304E+02  0.00000000000E+00 0.  1.
         23    2    1    2    0    0  0.20330750488E+02  0.13988588740E+03  0.18778767989E+03  0.26622152755E+03  0.12501315173E+03 0.  0.
          5    1    3    3  502    0 -0.12641648774E+02  0.14187357192E+03  0.10516057014E+03  0.17711227288E+03  0.47000000000E+01 0. -1.
         -5    1    3    3    0  502  0.32972399262E+02 -0.19876845185E+01  0.82627109744E+02  0.89109254668E+02  0.47000000000E+01 0. -1.
        -11    1    1    2    0    0 -0.56272215614E+02 -0.72957873326E+02  0.73832992920E+02  0.11807084472E+03  0.00000000000E+00 0.  1.
         11    1    1    2    0    0  0.35941465125E+02 -0.66928014077E+02  0.50062733195E+02  0.90980356334E+02  0.00000000000E+00 0. -1.
<mgrwt>
<rscale>  0 0.18340515E+03</rscale>
<asrwt>0</asrwt>
<pdfrwt beam="1">  1        1 0.60535086E-01 0.18870530E+03</pdfrwt>
<pdfrwt beam="2">  1       -1 0.12583794E-01 0.18870530E+03</pdfrwt>
<totfact> 0.25939226E+03</totfact>
</mgrwt>
</event>
<event>
 7    1  0.6095443E-006  0.1339905E+03  0.7546771E-02  0.1235317E+00
         -2   -1    0    0    0  501 -0.00000000000E+00  0.00000000000E+00  0.30392586226E+03  0.30392586226E+03  0.00000000000E+00 0.  1.
          2   -1    0    0  501    0  0.00000000000E+00 -0.00000000000E+00 -0.66545167830E+02  0.66545167830E+02  0.00000000000E+00 0. -1.
         23    2    1    2    0    0  0.20975317187E+02  0.37393336619E+02  0.23374940372E+03  0.26942945569E+03  0.12694574549E+03 0.  0.
          5    1    3    3  502    0  0.28084726257E+02  0.65794923234E+02  0.60935864834E+02  0.94090346983E+02  0.47000000000E+01 0. -1.
         -5    1    3    3    0  502 -0.71094090698E+01 -0.28401586615E+02  0.17281353888E+03  0.17533910870E+03  0.47000000000E+01 0.  1.
        -11    1    1    2    0    0  0.13914023653E+02 -0.47212855934E+02  0.28695602291E+02  0.56974480344E+02  0.00000000000E+00 0. -1.
         11    1    1    2    0    0 -0.34889340840E+02  0.98195193146E+01 -0.25064311580E+02  0.44067094058E+02  0.00000000000E+00 0.  1.
<mgrwt>
<rscale>  0 0.12484188E+03</rscale>
<asrwt>0</asrwt>
<pdfrwt beam="2">  1        2 0.10237718E-01 0.13399048E+03</pdfrwt>
<pdfrwt beam="1">  1       -2 0.46757824E-01 0.13399048E+03</pdfrwt>
<totfact> 0.26267178E+03</totfact>
</mgrwt>
</event>
<event>
 6    1  0.6095443E-006  0.1537335E+03  0.7546771E-02  0.1218399E+00
          1   -1    0    0  501    0  0.00000000000E+00  0.00000000000E+00  0.42220068334E+03  0.42220068334E+03  0.00000000000E+00 0. -1.
         -1   -1    0    0    0  501 -0.00000000000E+00 -0.00000000000E+00 -0.36987186506E+02  0.36987186506E+02  0.00000000000E+00 0.  1.
          5    1    1    2  502    0  0.19266424276E+02  0.72555562399E+02  0.19434901203E+03  0.20839657679E+03  0.47000000000E+01 0. -1.
         -5    1    1    2    0  502  0.54816280552E+01 -0.51806166311E+02  0.21385610472E+02  0.56509834978E+02  0.47000000000E+01 0.  1.
        -11    1    1    2    0    0 -0.89748311384E+01 -0.55691525155E+02  0.10756795195E+03  0.12146175470E+03  0.00000000000E+00 0. -1.
         11    1    1    2    0    0 -0.15773221193E+02  0.34942129066E+02  0.61910922378E+02  0.72819703379E+02  0.00000000000E+00 0.  1.
<mgrwt>
<rscale>  0 0.13629827E+03</rscale>
<asrwt>0</asrwt>
<pdfrwt beam="1">  1        1 0.64953948E-01 0.15373347E+03</pdfrwt>
<pdfrwt beam="2">  1       -1 0.56903367E-02 0.15373347E+03</pdfrwt>
<totfact> 0.78643465E+03</totfact>
</mgrwt>
</event>
<event>
 7    1  0.6095443E-006  0.1333720E+03  0.7546771E-02  0.1234985E+00
         -1   -1    0    0    0  501 -0.00000000000E+00  0.00000000000E+00  0.78493752747E+03  0.78493752747E+03  0.00000000000E+00 0.  1.
          1   -1    0    0  501    0  0.00000000000E+00 -0.00000000000E+00 -0.18612058700E+02  0.18612058700E+02  0.00000000000E+00 0. -1.
         23    2    1    2    0    0  0.15070103140E+01 -0.46476334788E+02  0.51297598939E+03  0.53003061285E+03  0.12500305632E+03 0.  0.
          5    1    3    3  502    0  0.32990863936E+02  0.26792910926E+01  0.41159665990E+03  0.41295214752E+03  0.47000000000E+01 0. -1.
         -5    1    3    3    0  502 -0.31483853622E+02 -0.49155625880E+02  0.10137932949E+03  0.11707846532E+03  0.47000000000E+01 0. -1.
        -11    1    1    2    0    0 -0.36204227472E+02 -0.91940354712E+01  0.85297659992E+02  0.93118028197E+02  0.00000000000E+00 0.  1.
         11    1    1    2    0    0  0.34697217158E+02  0.55670370259E+02  0.16805181939E+03  0.18040094513E+03  0.00000000000E+00 0. -1.
<mgrwt>
<rscale>  0 0.12505415E+03</rscale>
<asrwt>0</asrwt>
<pdfrwt beam="2">  1        1 0.28633943E-02 0.13337198E+03</pdfrwt>
<pdfrwt beam="1">  1       -1 0.12075959E+00 0.13337198E+03</pdfrwt>
<totfact> 0.22926962E+03</totfact>
</mgrwt>
</event>
<event>
 7    1  0.6095443E-006  0.1862009E+03  0.7546771E-02  0.1166966E+00
         -2   -1    0    0    0  501 -0.00000000000E+00  0.00000000000E+00  0.81259492576E+02  0.81259492576E+02  0.00000000000E+00 0.  1.
          2   -1    0    0  501    0  0.00000000000E+00 -0.00000000000E+00 -0.38125415350E+03  0.38125415350E+03  0.00000000000E+00 0. -1.
         23    2    1    2    0    0  0.12474715831E+03 -0.59023040708E+02 -0.16282172112E+03  0.24734932077E+03  0.12500080310E+03 0.  0.
          5    1    3    3  502    0  0.47293859003E+02  0.28224434679E+02 -0.10123124967E+03  0.11533942830E+03  0.47000000000E+01 0.  1.
         -5    1    3    3    0  502  0.77453299304E+02 -0.87247475387E+02 -0.61590471452E+02  0.13200989246E+03  0.47000000000E+01 0.  1.
        -11    1    1    2    0    0 -0.11117808423E+03  0.33417267655E+02 -0.55840133690E+02  0.12882313737E+03  0.00000000000E+00 0.  1.
         11    1    1    2    0    0 -0.13569074078E+02  0.25605773053E+02 -0.81332806121E+02  0.86341187949E+02  0.00000000000E+00 0. -1.
<mgrwt>
<rscale>  0 0.18086810E+03</rscale>
<asrwt>0</asrwt>
<pdfrwt beam="2">  1        2 0.58654486E-01 0.18620090E+03</pdfrwt>
<pdfrwt beam="1">  1       -2 0.12501460E-01 0.18620090E+03</pdfrwt>
<totfact> 0.38151886E+03</totfact>
</mgrwt>
</event>
<event>
 7    1  0.6095443E-006  0.1294415E+03  0.7546771E-02  0.1241762E+00
         -1   -1    0    0    0  501 -0.00000000000E+00  0.00000000000E+00  0.88004642466E+02  0.88004642466E+02  0.00000000000E+00 0.  1.
          1   -1    0    0  501    0  0.00000000000E+00 -0.00000000000E+00 -0.14803607775E+03  0.14803607775E+03  0.00000000000E+00 0. -1.
         23    2    1    2    0    0  0.27330104990E+02 -0.19571797829E+02 -0.25571368475E+02  0.13194311718E+03  0.12500040551E+03 0.  0.
          5    1    3    3  502    0  0.19694463922E+02 -0.50820002411E+02  0.33764033143E+02  0.64285647608E+02  0.47000000000E+01 0.  1.
         -5    1    3    3    0  502  0.76356410672E+01  0.31248204583E+02 -0.59335401618E+02  0.67657469576E+02  0.47000000000E+01 0.  1.
        -11    1    1    2    0    0 -0.59873758713E+02  0.24527836413E+01 -0.30128776445E+02  0.67071799589E+02  0.00000000000E+00 0.  1.
         11    1    1    2    0    0  0.32543653724E+02  0.17119014187E+02 -0.43312903635E+01  0.37025803444E+02  0.00000000000E+00 0. -1.
<mgrwt>
<rscale>  0 0.12081317E+03</rscale>
<asrwt>0</asrwt>
<pdfrwt beam="2">  1        1 0.22774781E-01 0.12944146E+03</pdfrwt>
<pdfrwt beam="1">  1       -1 0.13539176E-01 0.12944146E+03</pdfrwt>
<totfact> 0.76995345E+03</totfact>
</mgrwt>
</event>
<event>
 7    1  0.6095443E-006  0.1258436E+03  0.7546771E-02  0.1248547E+00
         -1   -1    0    0    0  501 -0.00000000000E+00  0.00000000000E+00  0.58423655604E+02  0.58423655604E+02  0.00000000000E+00 0. -1.
          1   -1    0    0  501    0  0.00000000000E+00 -0.00000000000E+00 -0.20582212668E+03  0.20582212668E+03  0.00000000000E+00 0.  1.
         23    2    1    2    0    0  0.63577992757E+01  0.13044872396E+02 -0.90604448630E+02  0.15506703813E+03  0.12500411951E+03 0.  0.
          5    1    3    3  502    0  0.11867656894E+02  0.55759039934E+02 -0.29345357396E+01  0.57276638471E+02  0.47000000000E+01 0. -1.
         -5    1    3    3    0  502 -0.55098576179E+01 -0.42714167538E+02 -0.87669912891E+02  0.97790399660E+02  0.47000000000E+01 0. -1.
        -11    1    1    2    0    0  0.21277053168E+02 -0.41185325475E+02 -0.90171782444E+01  0.47225560129E+02  0.00000000000E+00 0. -1.
         11    1    1    2    0    0 -0.27634852443E+02  0.28140453079E+02 -0.47776844204E+02  0.61953184028E+02  0.00000000000E+00 0.  1.
<mgrwt>
<rscale>  0 0.11675584E+03</rscale>
<asrwt>0</asrwt>
<pdfrwt beam="2">  1        1 0.31664942E-01 0.12584363E+03</pdfrwt>
<pdfrwt beam="1">  1       -1 0.89882548E-02 0.12584363E+03</pdfrwt>
<totfact> 0.95407926E+03</totfact>
</mgrwt>
</event>
<event>
 7    1  0.6095443E-006  0.2005695E+03  0.7546771E-02  0.1153408E+00
          1   -1    0    0  501    0  0.00000000000E+00  0.00000000000E+00  0.12414278849E+03  0.12414278849E+03  0.00000000000E+00 0. -1.
         -1   -1    0    0    0  501 -0.00000000000E+00 -0.00000000000E+00 -0.35705250193E+03  0.35705250193E+03  0.00000000000E+00 0.  1.
         23    2    1    2    0    0 -0.13036792518E+03  0.87230990920E+02 -0.22177574846E+03  0.29901939160E+03  0.12499228877E+03 0.  0.
          5    1    3    3  502    0 -0.78972825472E+01  0.64925765118E+02 -0.12542745267E+03  0.14153394621E+03  0.47000000000E+01 0.  1.
         -5    1    3    3    0  502 -0.12247064263E+03  0.22305225803E+02 -0.96348295795E+02  0.15748544538E+03  0.47000000000E+01 0.  1.
        -11    1    1    2    0    0  0.53860725726E+02 -0.76232720914E+02  0.25325188441E+02  0.96714893802E+02  0.00000000000E+00 0.  1.
         11    1    1    2    0    0  0.76507199456E+02 -0.10998270007E+02 -0.36459153411E+02  0.85461005021E+02  0.00000000000E+00 0. -1.
<mgrwt>
<rscale>  0 0.19571234E+03</rscale>
<asrwt>0</asrwt>
<pdfrwt beam="1">  1        1 0.19098891E-01 0.20056947E+03</pdfrwt>
<pdfrwt beam="2">  1       -1 0.54931153E-01 0.20056947E+03</pdfrwt>
<totfact> 0.93042848E+02</totfact>
</mgrwt>
</event>
<event>
 7    1  0.6095443E-006  0.1443561E+03  0.7546771E-02  0.1217796E+00
          2   -1    0    0  501    0  0.00000000000E+00  0.00000000000E+00  0.43698206217E+03  0.43698206217E+03  0.00000000000E+00 0. -1.
         -2   -1    0    0    0  501 -0.00000000000E+00 -0.00000000000E+00 -0.38847379667E+02  0.38847379667E+02  0.00000000000E+00 0.  1.
         23    2    1    2    0    0  0.36962055290E+02 -0.62028376326E+02  0.22447616890E+03  0.26688620532E+03  0.12499993273E+03 0.  0.
          5    1    3    3  502    0  0.75121877505E+02 -0.53225143748E+02  0.98633357722E+02  0.13500682080E+03  0.47000000000E+01 0.  1.
         -5    1    3    3    0  502 -0.38159822215E+02 -0.88032325779E+01  0.12584281118E+03  0.13187938452E+03  0.47000000000E+01 0.  1.
        -11    1    1    2    0    0 -0.10190223054E+02  0.12821341663E+02 -0.84390142917E+01  0.18424017210E+02  0.00000000000E+00 0.  1.
         11    1    1    2    0    0 -0.26771832236E+02  0.49207034662E+02  0.18209752790E+03  0.19051921931E+03  0.00000000000E+00 0. -1.
<mgrwt>
<rscale>  0 0.13673137E+03</rscale>
<asrwt>0</asrwt>
<pdfrwt beam="1">  1        2 0.67228006E-01 0.14435614E+03</pdfrwt>
<pdfrwt beam="2">  1       -2 0.59765203E-02 0.14435614E+03</pdfrwt>
<totfact> 0.10285314E+04</totfact>
</mgrwt>
</event>
<event>
 7    1  0.6095443E-006  0.1431175E+03  0.7546771E-02  0.1224256E+00
          1   -1    0    0  501    0  0.00000000000E+00  0.00000000000E+00  0.38921687827E+03  0.38921687827E+03  0.00000000000E+00 0. -1.
         -1   -1    0    0    0  501 -0.00000000000E+00 -0.00000000000E+00 -0.39902240844E+02  0.39902240844E+02  0.00000000000E+00 0.  1.
         23    2    1    2    0    0  0.50153231528E+02 -0.48397441309E+02  0.17500291810E+03  0.22607220037E+03  0.12499983792E+03 0.  0.
          5    1    3    3  502    0  0.28100480263E+02  0.39490485860E+02  0.38090321404E+02  0.61823119050E+02  0.47000000000E+01 0. -1.
         -5    1    3    3    0  502  0.22052751266E+02 -0.87887927169E+02  0.13691259670E+03  0.16424908132E+03  0.47000000000E+01 0. -1.
        -11    1    1    2    0    0 -0.73222233796E+01  0.43108978764E+02  0.14351626762E+03  0.15002972398E+03  0.00000000000E+00 0. -1.
         11    1    1    2    0    0 -0.42831008149E+02  0.52884625448E+01  0.30795451709E+02  0.53017194768E+02  0.00000000000E+00 0.  1.
<mgrwt>
<rscale>  0 0.13217996E+03</rscale>
<asrwt>0</asrwt>
<pdfrwt beam="1">  1        1 0.59879517E-01 0.14311750E+03</pdfrwt>
<pdfrwt beam="2">  1       -1 0.61388066E-02 0.14311750E+03</pdfrwt>
<totfact> 0.77492157E+03</totfact>
</mgrwt>
</event>
<event>
 7    1  0.6095443E-006  0.1430977E+03  0.7546771E-02  0.1220621E+00
         -4   -1    0    0    0  501 -0.00000000000E+00  0.00000000000E+00  0.14355201458E+04  0.14355201458E+04  0.00000000000E+00 0.  1.
          4   -1    0    0  501    0  0.00000000000E+00 -0.00000000000E+00 -0.18900042478E+02  0.18900042478E+02  0.00000000000E+00 0. -1.
         23    2    1    2    0    0  0.16375503771E+02  0.67695888720E+02  0.12165444807E+04  0.12249316010E+04  0.12500425262E+03 0.  0.
          5    1    3    3  502    0 -0.13453236249E+02  0.92932222387E+02  0.61974147413E+03  0.62683249141E+03  0.47000000000E+01 0. -1.
         -5    1    3    3    0  502  0.29828740020E+02 -0.25236333667E+02  0.59680300653E+03  0.59809910957E+03  0.47000000000E+01 0. -1.
        -11    1    1    2    0    0  0.34653178825E+02 -0.32372706370E+02  0.11311369054E+03  0.12265211742E+03  0.00000000000E+00 0. -1.
         11    1    1    2    0    0 -0.51028682596E+02 -0.35323182350E+02  0.86961932146E+02  0.10683646990E+03  0.00000000000E+00 0.  1.
<mgrwt>
<rscale>  0 0.13471637E+03</rscale>
<asrwt>0</asrwt>
<pdfrwt beam="2">  1        4 0.29077000E-02 0.14309771E+03</pdfrwt>
<pdfrwt beam="1">  1       -4 0.22084917E+00 0.14309771E+03</pdfrwt>
<totfact> 0.10463206E+02</totfact>
</mgrwt>
</event>
<event>
 7    1  0.6095443E-006  0.1279305E+03  0.7546771E-02  0.1247192E+00
         -3   -1    0    0    0  501 -0.00000000000E+00  0.00000000000E+00  0.11836631468E+04  0.11836631468E+04  0.00000000000E+00 0.  1.
          3   -1    0    0  501    0  0.00000000000E+00 -0.00000000000E+00 -0.13214914056E+02  0.13214914056E+02  0.00000000000E+00 0. -1.
         23    2    1    2    0    0 -0.10424088441E+01  0.27094093573E+02  0.94597053588E+03  0.95458183267E+03  0.12502417361E+03 0.  0.
          5    1    3    3  502    0  0.54002627046E+02 -0.17013369347E+02  0.46041399967E+03  0.46390611071E+03  0.47000000000E+01 0.  1.
         -5    1    3    3    0  502 -0.55045035890E+02  0.44107462920E+02  0.48555653621E+03  0.49067572196E+03  0.47000000000E+01 0.  1.
        -11    1    1    2    0    0  0.41194105657E+02 -0.36275112089E+01  0.13855871127E+03  0.14459816612E+03  0.00000000000E+00 0.  1.
         11    1    1    2    0    0 -0.40151696813E+02 -0.23466582364E+02  0.85918985599E+02  0.97698062064E+02  0.00000000000E+00 0. -1.
<mgrwt>
<rscale>  0 0.11755144E+03</rscale>
<asrwt>0</asrwt>
<pdfrwt beam="2">  1        3 0.20330646E-02 0.12793053E+03</pdfrwt>
<pdfrwt beam="1">  1       -3 0.18210194E+00 0.12793053E+03</pdfrwt>
<totfact> 0.44516844E+02</totfact>
</mgrwt>
</event>
<event>
 7    1  0.6095443E-006  0.1408056E+03  0.7546771E-02  0.1232558E+00
         -2   -1    0    0    0  501 -0.00000000000E+00  0.00000000000E+00  0.69848783374E+02  0.69848783374E+02  0.00000000000E+00 0.  1.
          2   -1    0    0  501    0  0.00000000000E+00 -0.00000000000E+00 -0.26638922113E+03  0.26638922113E+03  0.00000000000E+00 0. -1.
         23    2    1    2    0    0 -0.11684020990E+02  0.63755594553E+02 -0.27092693594E+02  0.14338834477E+03  0.12499964475E+03 0.  0.
          5    1    3    3  502    0 -0.38075270853E+02  0.26816607710E+02 -0.67694788444E+02  0.82301464641E+02  0.47000000000E+01 0.  1.
         -5    1    3    3    0  502  0.26391249863E+02  0.36938986842E+02  0.40602094850E+02  0.61086880134E+02  0.47000000000E+01 0.  1.
        -11    1    1    2    0    0  0.14797137545E+02 -0.75433188623E+02 -0.12462126949E+03  0.14642261449E+03  0.00000000000E+00 0.  1.
         11    1    1    2    0    0 -0.31131165551E+01  0.11677594070E+02 -0.44826474673E+02  0.46427045239E+02  0.00000000000E+00 0. -1.
<mgrwt>
<rscale>  0 0.12662061E+03</rscale>
<asrwt>0</asrwt>
<pdfrwt beam="2">  1        2 0.40982957E-01 0.14080555E+03</pdfrwt>
<pdfrwt beam="1">  1       -2 0.10745967E-01 0.14080555E+03</pdfrwt>
<totfact> 0.70174501E+03</totfact>
</mgrwt>
</event>
<event>
 7    1  0.6095443E-006  0.1520138E+03  0.7546771E-02  0.1205685E+00
          1   -1    0    0  501    0  0.00000000000E+00  0.00000000000E+00  0.96555936018E+02  0.96555936018E+02  0.00000000000E+00 0. -1.
         -1   -1    0    0    0  501 -0.00000000000E+00 -0.00000000000E+00 -0.28390470824E+03  0.28390470824E+03  0.00000000000E+00 0.  1.
         23    2    1    2    0    0  0.60809451107E+02 -0.61522965448E+02 -0.19984306945E+03  0.25108854642E+03  0.12500136444E+03 0.  0.
          5    1    3    3  502    0  0.98904602468E+02 -0.36182311455E+02 -0.12857648573E+03  0.16626870642E+03  0.47000000000E+01 0. -1.
         -5    1    3    3    0  502 -0.38095151362E+02 -0.25340653993E+02 -0.71266583715E+02  0.84819839993E+02  0.47000000000E+01 0. -1.
        -11    1    1    2    0    0 -0.22600667621E+02 -0.25115819518E+02 -0.52310483575E+00  0.33791540445E+02  0.00000000000E+00 0. -1.
         11    1    1    2    0    0 -0.38208783485E+02  0.86638784965E+02  0.13017402063E+02  0.95580557396E+02  0.00000000000E+00 0.  1.
<mgrwt>
<rscale>  0 0.14583568E+03</rscale>
<asrwt>0</asrwt>
<pdfrwt beam="1">  1        1 0.14854759E-01 0.15201383E+03</pdfrwt>
<pdfrwt beam="2">  1       -1 0.43677647E-01 0.15201383E+03</pdfrwt>
<totfact> 0.19454453E+03</totfact>
</mgrwt>
</event>
<event>
 7    1  0.6095443E-006  0.2479295E+03  0.7546771E-02  0.1117230E+00
          1   -1    0    0  501    0  0.00000000000E+00  0.00000000000E+00  0.43723390880E+03  0.43723390880E+03  0.00000000000E+00 0. -1.
         -1   -1    0    0    0  501 -0.00000000000E+00 -0.00000000000E+00 -0.13295616213E+03  0.13295616213E+03  0.00000000000E+00 0.  1.
         23    2    1    2    0    0 -0.29767698193E+02  0.21203475117E+03  0.18388238039E+03  0.30867746271E+03  0.12499677837E+03 0.  0.
          5    1    3    3  502    0  0.48187613876E+02  0.71728254742E+02  0.76493159721E+02  0.11550013915E+03  0.47000000000E+01 0.  1.
         -5    1    3    3    0  502 -0.77955312070E+02  0.14030649643E+03  0.10738922067E+03  0.19317732356E+03  0.47000000000E+01 0.  1.
        -11    1    1    2    0    0  0.40568593285E+02 -0.64180798188E+02  0.74375821932E+02  0.10628616328E+03  0.00000000000E+00 0. -1.
         11    1    1    2    0    0 -0.10800895092E+02 -0.14785395298E+03  0.46019544350E+02  0.15522644494E+03  0.00000000000E+00 0.  1.
<mgrwt>
<rscale>  0 0.24388693E+03</rscale>
<asrwt>0</asrwt>
<pdfrwt beam="1">  1        1 0.67266755E-01 0.24792952E+03</pdfrwt>
<pdfrwt beam="2">  1       -1 0.20454794E-01 0.24792952E+03</pdfrwt>
<totfact> 0.10493369E+03</totfact>
</mgrwt>
</event>
<event>
 7    1  0.6095443E-006  0.1354197E+03  0.7546771E-02  0.1230972E+00
         -3   -1    0    0    0  501 -0.00000000000E+00  0.00000000000E+00  0.98025169362E+02  0.98025169362E+02  0.00000000000E+00 0.  1.
          3   -1    0    0  501    0  0.00000000000E+00 -0.00000000000E+00 -0.15550882140E+03  0.15550882140E+03  0.00000000000E+00 0. -1.
         23    2    1    2    0    0  0.27407865108E+01  0.52022563902E+02 -0.78854321445E+01  0.13564904683E+03  0.12499849919E+03 0.  0.
          5    1    3    3  502    0 -0.51594150959E+02 -0.47525959941E+01  0.14116121501E+02  0.53906386153E+02  0.47000000000E+01 0. -1.
         -5    1    3    3    0  502  0.54334937470E+02  0.56775159896E+02 -0.22001553645E+02  0.81742660673E+02  0.47000000000E+01 0. -1.
        -11    1    1    2    0    0  0.38360058213E+02 -0.27945641478E+02  0.22041952245E+01  0.47511171532E+02  0.00000000000E+00 0.  1.
         11    1    1    2    0    0 -0.41100844724E+02 -0.24076922424E+02 -0.51802415120E+02  0.70373772407E+02  0.00000000000E+00 0. -1.
<mgrwt>
<rscale>  0 0.12765849E+03</rscale>
<asrwt>0</asrwt>
<pdfrwt beam="2">  1        3 0.23924434E-01 0.13541966E+03</pdfrwt>
<pdfrwt beam="1">  1       -3 0.15080795E-01 0.13541966E+03</pdfrwt>
<totfact> 0.13758986E+03</totfact>
</mgrwt>
</event>
<event>
 7    1  0.6095443E-006  0.1386859E+03  0.7546771E-02  0.1222738E+00
         -1   -1    0    0    0  501 -0.00000000000E+00  0.00000000000E+00  0.19001794551E+03  0.19001794551E+03  0.00000000000E+00 0.  1.
          1   -1    0    0  501    0  0.00000000000E+00 -0.00000000000E+00 -0.89524834891E+02  0.89524834891E+02  0.00000000000E+00 0. -1.
         23    2    1    2    0    0 -0.49551502795E+02  0.33959128713E+02  0.78596151094E+02  0.15940871254E+03  0.12500083525E+03 0.  0.
          5    1    3    3  502    0 -0.24884634756E+02  0.79511969001E+02  0.31358990095E+02  0.89145243963E+02  0.47000000000E+01 0.  1.
         -5    1    3    3    0  502 -0.24666868040E+02 -0.45552840288E+02  0.47237160999E+02  0.70263468576E+02  0.47000000000E+01 0.  1.
        -11    1    1    2    0    0  0.19889013049E+02 -0.65588534497E+02 -0.56361639498E+01  0.68769143092E+02  0.00000000000E+00 0.  1.
         11    1    1    2    0    0  0.29662489746E+02  0.31629405784E+02  0.27533123474E+02  0.51364924768E+02  0.00000000000E+00 0. -1.
<mgrwt>
<rscale>  0 0.13323141E+03</rscale>
<asrwt>0</asrwt>
<pdfrwt beam="2">  1        1 0.13773052E-01 0.13868591E+03</pdfrwt>
<pdfrwt beam="1">  1       -1 0.29233530E-01 0.13868591E+03</pdfrwt>
<totfact> 0.42736292E+03</totfact>
</mgrwt>
</event>
<event>
 7    1  0.6095443E-006  0.1326506E+03  0.7546771E-02  0.1236593E+00
          1   -1    0    0  501    0  0.00000000000E+00  0.00000000000E+00  0.82548051372E+02  0.82548051372E+02  0.00000000000E+00 0. -1.
         -1   -1    0    0    0  501 -0.00000000000E+00 -0.00000000000E+00 -0.24229884626E+03  0.24229884626E+03  0.00000000000E+00 0.  1.
         23    2    1    2    0    0 -0.33754620818E+02 -0.28847825653E+02 -0.17783669296E+03  0.22186050198E+03  0.12499848601E+03 0.  0.
          5    1    3    3  502    0 -0.25857593793E+02  0.44083518763E+02 -0.11191891174E+03  0.12312556432E+03  0.47000000000E+01 0.  1.
         -5    1    3    3    0  502 -0.78970270254E+01 -0.72931344416E+02 -0.65917781214E+02  0.98734937658E+02  0.47000000000E+01 0.  1.
        -11    1    1    2    0    0  0.24500672459E+02  0.57874018267E+02  0.30783252143E+02  0.69980665571E+02  0.00000000000E+00 0.  1.
         11    1    1    2    0    0  0.92539483594E+01 -0.29026192614E+02 -0.12697354077E+02  0.33005730085E+02  0.00000000000E+00 0. -1.
<mgrwt>
<rscale>  0 0.12402990E+03</rscale>
<asrwt>0</asrwt>
<pdfrwt beam="1">  1        1 0.12699700E-01 0.13265064E+03</pdfrwt>
<pdfrwt beam="2">  1       -1 0.37276745E-01 0.13265064E+03</pdfrwt>
<totfact> 0.31334331E+03</totfact>
</mgrwt>
</event>
<event>
 7    1  0.6095443E-006  0.1395312E+03  0.7546771E-02  0.1225622E+00
         -2   -1    0    0    0  501 -0.00000000000E+00  0.00000000000E+00  0.83104605544E+02  0.83104605544E+02  0.00000000000E+00 0.  1.
          2   -1    0    0  501    0  0.00000000000E+00 -0.00000000000E+00 -0.18624990008E+03  0.18624990008E+03  0.00000000000E+00 0. -1.
         23    2    1    2    0    0 -0.29333177605E+02  0.54633777527E+02 -0.54647108745E+02  0.14985078693E+03  0.12499466746E+03 0.  0.
          5    1    3    3  502    0 -0.77226645553E+02  0.25982622575E+02 -0.44410136375E+02  0.92916100177E+02  0.47000000000E+01 0. -1.
         -5    1    3    3    0  502  0.47893467948E+02  0.28651154952E+02 -0.10236972371E+02  0.56934686752E+02  0.47000000000E+01 0. -1.
        -11    1    1    2    0    0  0.48457003532E+01  0.18900404802E+02  0.10445636732E+02  0.22131819634E+02  0.00000000000E+00 0.  1.
         11    1    1    2    0    0  0.24487477252E+02 -0.73534182329E+02 -0.58943822524E+02  0.97371899061E+02  0.00000000000E+00 0. -1.
<mgrwt>
<rscale>  0 0.13124394E+03</rscale>
<asrwt>0</asrwt>
<pdfrwt beam="2">  1        2 0.28653831E-01 0.13953119E+03</pdfrwt>
<pdfrwt beam="1">  1       -2 0.12785324E-01 0.13953119E+03</pdfrwt>
<totfact> 0.78081268E+03</totfact>
</mgrwt>
</event>
<event>
 7    1  0.6095443E-006  0.1149284E+03  0.7546771E-02  0.1261394E+00
          2   -1    0    0  501    0  0.00000000000E+00  0.00000000000E+00  0.40853566498E+03  0.40853566498E+03  0.00000000000E+00 0. -1.
         -2   -1    0    0    0  501 -0.00000000000E+00 -0.00000000000E+00 -0.27542807821E+02  0.27542807821E+02  0.00000000000E+00 0.  1.
         23    2    1    2    0    0  0.43038787663E+01  0.51955753676E+01  0.24033567677E+03  0.26640153215E+03  0.11473021150E+03 0.  0.
          5    1    3    3  502    0 -0.19803419489E+02 -0.47197175403E+02  0.15498117146E+03  0.16328197175E+03  0.47000000000E+01 0. -1.
         -5    1    3    3    0  502  0.24107298256E+02  0.52392750770E+02  0.85354505302E+02  0.10311956040E+03  0.47000000000E+01 0.  1.
        -11    1    1    2    0    0  0.14384413171E+02 -0.31520597145E+02  0.11439397376E+02  0.36487247073E+02  0.00000000000E+00 0. -1.
         11    1    1    2    0    0 -0.18688291937E+02  0.26325021777E+02  0.12921778302E+03  0.13318969358E+03  0.00000000000E+00 0.  1.
<mgrwt>
<rscale>  0 0.10955595E+03</rscale>
<asrwt>0</asrwt>
<pdfrwt beam="1">  1        2 0.62851636E-01 0.11492841E+03</pdfrwt>
<pdfrwt beam="2">  1       -2 0.42373553E-02 0.11492841E+03</pdfrwt>
<totfact> 0.18182868E+04</totfact>
</mgrwt>
</event>
<event>
 7    1  0.6095443E-006  0.1408005E+03  0.7546771E-02  0.1222981E+00
          2   -1    0    0  501    0  0.00000000000E+00  0.00000000000E+00  0.43467959667E+02  0.43467959667E+02  0.00000000000E+00 0. -1.
         -2   -1    0    0    0  501 -0.00000000000E+00 -0.00000000000E+00 -0.37003928008E+03  0.37003928008E+03  0.00000000000E+00 0.  1.
         23    2    1    2    0    0  0.64765458463E+02  0.23611934713E+01 -0.19503718555E+03  0.24054996900E+03  0.12499857598E+03 0.  0.
          5    1    3    3  502    0 -0.32273043622E+02 -0.22927742501E+02 -0.46220604264E+02  0.61038225558E+02  0.47000000000E+01 0.  1.
         -5    1    3    3    0  502  0.97038502085E+02  0.25288935972E+02 -0.14881658128E+03  0.17951174345E+03  0.47000000000E+01 0.  1.
        -11    1    1    2    0    0 -0.19502151397E+02  0.28572383192E+02 -0.48663732042E+01  0.34934174937E+02  0.00000000000E+00 0. -1.
         11    1    1    2    0    0 -0.45263307067E+02 -0.30933576664E+02 -0.12666776166E+03  0.13802309581E+03  0.00000000000E+00 0.  1.
<mgrwt>
<rscale>  0 0.13306242E+03</rscale>
<asrwt>0</asrwt>
<pdfrwt beam="1">  1        2 0.66873781E-02 0.14080051E+03</pdfrwt>
<pdfrwt beam="2">  1       -2 0.56929122E-01 0.14080051E+03</pdfrwt>
<totfact> 0.30330517E+03</totfact>
</mgrwt>
</event>
<event>
 7    1  0.6095443E-006  0.1539382E+03  0.7546771E-02  0.1203308E+00
          1   -1    0    0  501    0  0.00000000000E+00  0.00000000000E+00  0.33130913275E+03  0.33130913275E+03  0.00000000000E+00 0. -1.
         -1   -1    0    0    0  501 -0.00000000000E+00 -0.00000000000E+00 -0.66892882788E+02  0.66892882788E+02  0.00000000000E+00 0.  1.
         23    2    1    2    0    0  0.47305391695E+01 -0.89720721610E+02  0.83518301951E+02  0.17513503139E+03  0.12499914628E+03 0.  0.
          5    1    3    3  502    0  0.37976075236E+02 -0.79081780481E+01  0.77138751694E+02  0.86470796129E+02  0.47000000000E+01 0. -1.
         -5    1    3    3    0  502 -0.33245536067E+02 -0.81812543562E+02  0.63795502576E+01  0.88664235258E+02  0.47000000000E+01 0. -1.
        -11    1    1    2    0    0  0.33934493518E+02  0.22678856432E+02  0.11288155467E+03  0.12003385257E+03  0.00000000000E+00 0. -1.
         11    1    1    2    0    0 -0.38665032687E+02  0.67041865178E+02  0.68016393342E+02  0.10303313158E+03  0.00000000000E+00 0.  1.
<mgrwt>
<rscale>  0 0.14771581E+03</rscale>
<asrwt>0</asrwt>
<pdfrwt beam="1">  1        1 0.50970635E-01 0.15393821E+03</pdfrwt>
<pdfrwt beam="2">  1       -1 0.10291213E-01 0.15393821E+03</pdfrwt>
<totfact> 0.43599692E+03</totfact>
</mgrwt>
</event>
<event>
 7    1  0.6095443E-006  0.1666487E+03  0.7546771E-02  0.1188081E+00
          2   -1    0    0  501    0  0.00000000000E+00  0.00000000000E+00  0.88035373966E+03  0.88035373966E+03  0.00000000000E+00 0. -1.
         -2   -1    0    0    0  501 -0.00000000000E+00 -0.00000000000E+00 -0.31263504594E+02  0.31263504594E+02  0.00000000000E+00 0.  1.
         23    2    1    2    0    0  0.37046890020E+02  0.10380169223E+03  0.29078546562E+03  0.33515366048E+03  0.12499810298E+03 0.  0.
          5    1    3    3  502    0 -0.23482273938E+02  0.55043442319E+02  0.38955017805E+02  0.71559633480E+02  0.47000000000E+01 0.  1.
         -5    1    3    3    0  502  0.60529163958E+02  0.48758249915E+02  0.25183044781E+03  0.26359402700E+03  0.47000000000E+01 0.  1.
        -11    1    1    2    0    0 -0.54253548266E+02 -0.31031378428E+02  0.34026948038E+03  0.34596201124E+03  0.00000000000E+00 0. -1.
         11    1    1    2    0    0  0.17206658246E+02 -0.72770313806E+02  0.21803528908E+03  0.23050157254E+03  0.00000000000E+00 0.  1.
<mgrwt>
<rscale>  0 0.16054648E+03</rscale>
<asrwt>0</asrwt>
<pdfrwt beam="1">  1        2 0.13543902E+00 0.16664870E+03</pdfrwt>
<pdfrwt beam="2">  1       -2 0.48097706E-02 0.16664870E+03</pdfrwt>
<totfact> 0.63615957E+03</totfact>
</mgrwt>
</event>
<event>
 7    1  0.1657695E-005  0.1645504E+03  0.7546771E-02  0.1190325E+00
          1   -1    0    0  501    0  0.00000000000E+00  0.00000000000E+00  0.12350241333E+04  0.12350241333E+04  0.00000000000E+00 0. -1.
         -1   -1    0    0    0  501 -0.00000000000E+00 -0.00000000000E+00 -0.19628824750E+02  0.19628824750E+02  0.00000000000E+00 0.  1.
         23    2    1    2    0    0 -0.10186075717E+03 -0.32797082677E+02  0.53999623704E+03  0.56451108418E+03  0.12500226263E+03 0.  0.
          5    1    3    3  502    0 -0.81624428634E+02  0.99096942029E+01  0.14570676688E+03  0.16737174584E+03  0.47000000000E+01 0. -1.
         -5    1    3    3    0  502 -0.20236328534E+02 -0.42706776880E+02  0.39428947016E+03  0.39713933835E+03  0.47000000000E+01 0. -1.
        -11    1    1    2    0    0  0.10145695382E+03 -0.37025746891E+01  0.55930444166E+03  0.56844408784E+03  0.00000000000E+00 0.  1.
         11    1    1    2    0    0  0.40380334738E+00  0.36499657366E+02  0.11609462988E+03  0.12169778606E+03  0.00000000000E+00 0. -1.
<mgrwt>
<rscale>  0 0.15856589E+03</rscale>
<asrwt>0</asrwt>
<pdfrwt beam="1">  1        1 0.19000365E+00 0.16455038E+03</pdfrwt>
<pdfrwt beam="2">  1       -1 0.30198202E-02 0.16455038E+03</pdfrwt>
<totfact> 0.39982885E+03</totfact>
</mgrwt>
</event>
<event>
 7    1  0.6095443E-006  0.1567292E+03  0.7546771E-02  0.1196868E+00
          2   -1    0    0  501    0  0.00000000000E+00  0.00000000000E+00  0.55010808283E+02  0.55010808283E+02  0.00000000000E+00 0. -1.
         -2   -1    0    0    0  501 -0.00000000000E+00 -0.00000000000E+00 -0.56974402411E+03  0.56974402411E+03  0.00000000000E+00 0.  1.
         23    2    1    2    0    0 -0.48578604763E+02  0.81116125807E+02 -0.43349356945E+03  0.46095629894E+03  0.12499731225E+03 0.  0.
          5    1    3    3  502    0  0.22578121968E+02  0.82098507686E+02 -0.24553956047E+03  0.25992634016E+03  0.47000000000E+01 0. -1.
         -5    1    3    3    0  502 -0.71156726730E+02 -0.98238187913E+00 -0.18795400898E+03  0.20102995878E+03  0.47000000000E+01 0. -1.
        -11    1    1    2    0    0 -0.79281657813E+01 -0.40717504577E+02 -0.84633649611E+02  0.94252987423E+02  0.00000000000E+00 0.  1.
         11    1    1    2    0    0  0.56506770544E+02 -0.40398621230E+02  0.33940032362E+01  0.69545546029E+02  0.00000000000E+00 0. -1.
<mgrwt>
<rscale>  0 0.15297205E+03</rscale>
<asrwt>0</asrwt>
<pdfrwt beam="1">  1        2 0.84632010E-02 0.15672918E+03</pdfrwt>
<pdfrwt beam="2">  1       -2 0.87652929E-01 0.15672918E+03</pdfrwt>
<totfact> 0.90170261E+02</totfact>
</mgrwt>
</event>
<event>
 7    1  0.6095443E-006  0.1489273E+03  0.7546771E-02  0.1210858E+00
         -2   -1    0    0    0  501 -0.00000000000E+00  0.00000000000E+00  0.22036108133E+03  0.22036108133E+03  0.00000000000E+00 0.  1.
          2   -1    0    0  501    0  0.00000000000E+00 -0.00000000000E+00 -0.84065278486E+02  0.84065278486E+02  0.00000000000E+00 0. -1.
         23    2    1    2    0    0  0.43305606707E+02 -0.68406627762E+02  0.85604587341E+02  0.17177745166E+03  0.12499802091E+03 0.  0.
          5    1    3    3  502    0  0.18049595242E+02 -0.10353149905E+03  0.56331038891E+02  0.11933078030E+03  0.47000000000E+01 0.  1.
         -5    1    3    3    0  502  0.25256011465E+02  0.35124871287E+02  0.29273548450E+02  0.52446671361E+02  0.47000000000E+01 0.  1.
        -11    1    1    2    0    0 -0.58112131295E+02  0.12529295548E+02  0.63308916644E+01  0.59783636890E+02  0.00000000000E+00 0. -1.
         11    1    1    2    0    0  0.14806524588E+02  0.55877332214E+02  0.44360323836E+02  0.72865271265E+02  0.00000000000E+00 0.  1.
<mgrwt>
<rscale>  0 0.14185240E+03</rscale>
<asrwt>0</asrwt>
<pdfrwt beam="2">  1        2 0.12933120E-01 0.14892732E+03</pdfrwt>
<pdfrwt beam="1">  1       -2 0.33901705E-01 0.14892732E+03</pdfrwt>
<totfact> 0.36614800E+03</totfact>
</mgrwt>
</event>
<event>
 7    1  0.6095443E-006  0.1371594E+03  0.7546771E-02  0.1225366E+00
          3   -1    0    0  501    0  0.00000000000E+00  0.00000000000E+00  0.42679975817E+02  0.42679975817E+02  0.00000000000E+00 0. -1.
         -3   -1    0    0    0  501 -0.00000000000E+00 -0.00000000000E+00 -0.48649209999E+03  0.48649209999E+03  0.00000000000E+00 0.  1.
         23    2    1    2    0    0 -0.18421793583E+02 -0.53374892868E+02 -0.36322128973E+03  0.38825558364E+03  0.12499780495E+03 0.  0.
          5    1    3    3  502    0  0.68937837225E+01 -0.81569266351E+02 -0.32110192216E+03  0.33140549767E+03  0.47000000000E+01 0.  1.
         -5    1    3    3    0  502 -0.25315577305E+02  0.28194373482E+02 -0.42119367569E+02  0.56850085969E+02  0.47000000000E+01 0.  1.
        -11    1    1    2    0    0 -0.40767166745E+02  0.94932439151E+01 -0.31342436149E+02  0.52291795420E+02  0.00000000000E+00 0. -1.
         11    1    1    2    0    0  0.59188960328E+02  0.43881648953E+02 -0.49248398291E+02  0.88624696749E+02  0.00000000000E+00 0.  1.
<mgrwt>
<rscale>  0 0.13141816E+03</rscale>
<asrwt>0</asrwt>
<pdfrwt beam="1">  1        3 0.65661499E-02 0.13715937E+03</pdfrwt>
<pdfrwt beam="2">  1       -3 0.74844941E-01 0.13715937E+03</pdfrwt>
<totfact> 0.58845006E+02</totfact>
</mgrwt>
</event>
<event>
 7    1  0.6095443E-006  0.1432165E+03  0.7546771E-02  0.1219488E+00
         -4   -1    0    0    0  501 -0.00000000000E+00  0.00000000000E+00  0.27092632340E+02  0.27092632340E+02  0.00000000000E+00 0.  1.
          4   -1    0    0  501    0  0.00000000000E+00 -0.00000000000E+00 -0.62288704427E+03  0.62288704427E+03  0.00000000000E+00 0. -1.
         23    2    1    2    0    0 -0.28706035493E+02  0.63734466388E+02 -0.29255368976E+03  0.32572784221E+03  0.12499938847E+03 0.  0.
          5    1    3    3  502    0 -0.26428671016E+02 -0.27179650000E+02 -0.32379548251E+02  0.50077271998E+02  0.47000000000E+01 0.  1.
         -5    1    3    3    0  502 -0.22773644769E+01  0.90914116388E+02 -0.26017414151E+03  0.27565057021E+03  0.47000000000E+01 0.  1.
        -11    1    1    2    0    0  0.33636818420E+02  0.10881867259E+02 -0.14476380792E+03  0.14901815551E+03  0.00000000000E+00 0. -1.
         11    1    1    2    0    0 -0.49307829264E+01 -0.74616333648E+02 -0.15847691424E+03  0.17523367888E+03  0.00000000000E+00 0.  1.
<mgrwt>
<rscale>  0 0.13551956E+03</rscale>
<asrwt>0</asrwt>
<pdfrwt beam="2">  1        4 0.95828768E-01 0.14321650E+03</pdfrwt>
<pdfrwt beam="1">  1       -4 0.41680976E-02 0.14321650E+03</pdfrwt>
<totfact> 0.50742164E+02</totfact>
</mgrwt>
</event>
<event>
 7    1  0.6095443E-006  0.1250351E+03  0.7546771E-02  0.1249163E+00
          4   -1    0    0  501    0  0.00000000000E+00  0.00000000000E+00  0.20869141416E+03  0.20869141416E+03  0.00000000000E+00 0. -1.
         -4   -1    0    0    0  501 -0.00000000000E+00 -0.00000000000E+00 -0.13970731668E+03  0.13970731668E+03  0.00000000000E+00 0.  1.
         23    2    1    2    0    0 -0.32008804455E+01  0.17050752520E+00 -0.96626675856E+02  0.15802057201E+03  0.12499404779E+03 0.  0.
          5    1    3    3  502    0  0.40080722398E+02 -0.45181253895E+02 -0.34886246474E+02  0.69906725030E+02  0.47000000000E+01 0.  1.
         -5    1    3    3    0  502 -0.43281602843E+02  0.45351761420E+02 -0.61740429382E+02  0.88113846976E+02  0.47000000000E+01 0.  1.
        -11    1    1    2    0    0  0.46758645519E+02 -0.78618374096E+01  0.64835671030E+02  0.80323369302E+02  0.00000000000E+00 0.  1.
         11    1    1    2    0    0 -0.43557765073E+02  0.76913298844E+01  0.10077510231E+03  0.11005478953E+03  0.00000000000E+00 0. -1.
<mgrwt>
<rscale>  0 0.11639616E+03</rscale>
<asrwt>0</asrwt>
<pdfrwt beam="1">  1        4 0.32106371E-01 0.12503514E+03</pdfrwt>
<pdfrwt beam="2">  1       -4 0.21493433E-01 0.12503514E+03</pdfrwt>
<totfact> 0.30291786E+02</totfact>
</mgrwt>
</event>
<event>
 7    1  0.6095443E-006  0.1415804E+03  0.7546771E-02  0.1222030E+00
          1   -1    0    0  501    0  0.00000000000E+00  0.00000000000E+00  0.16215039517E+03  0.16215039517E+03  0.00000000000E+00 0. -1.
         -1   -1    0    0    0  501 -0.00000000000E+00 -0.00000000000E+00 -0.10078406130E+03  0.10078406130E+03  0.00000000000E+00 0.  1.
         23    2    1    2    0    0  0.31458168392E+02  0.58578563688E+02  0.20419978244E+02  0.14304543492E+03  0.12499582576E+03 0.  0.
          5    1    3    3  502    0  0.21794383217E+02  0.40515239798E+02  0.73002855728E+02  0.86417514082E+02  0.47000000000E+01 0. -1.
         -5    1    3    3    0  502  0.96637851754E+01  0.18063323890E+02 -0.52582877483E+02  0.56627920837E+02  0.47000000000E+01 0. -1.
        -11    1    1    2    0    0 -0.59778263679E+02 -0.52625452812E+02  0.15043384068E+02  0.81050493498E+02  0.00000000000E+00 0.  1.
         11    1    1    2    0    0  0.28320095287E+02 -0.59531108762E+01  0.25902971554E+02  0.38838528055E+02  0.00000000000E+00 0. -1.
<mgrwt>
<rscale>  0 0.13372546E+03</rscale>
<asrwt>0</asrwt>
<pdfrwt beam="1">  1        1 0.24946215E-01 0.14158044E+03</pdfrwt>
<pdfrwt beam="2">  1       -1 0.15505240E-01 0.14158044E+03</pdfrwt>
<totfact> 0.55887951E+03</totfact>
</mgrwt>
</event>
<event>
 7    1  0.6095443E-006  0.1413370E+03  0.7546771E-02  0.1224651E+00
          3   -1    0    0  501    0  0.00000000000E+00  0.00000000000E+00  0.26837106611E+03  0.26837106611E+03  0.00000000000E+00 0. -1.
         -3   -1    0    0    0  501 -0.00000000000E+00 -0.00000000000E+00 -0.57622414562E+02  0.57622414562E+02  0.00000000000E+00 0.  1.
         23    2    1    2    0    0 -0.48519995440E+02 -0.44675460108E+02  0.11435731804E+03  0.18180688504E+03  0.12500424219E+03 0.  0.
          5    1    3    3  502    0 -0.20119058802E+02  0.39906457921E+02  0.13188341610E+02  0.46832939960E+02  0.47000000000E+01 0. -1.
         -5    1    3    3    0  502 -0.28400936637E+02 -0.84581918029E+02  0.10116897643E+03  0.13497394508E+03  0.47000000000E+01 0. -1.
        -11    1    1    2    0    0  0.20684601067E+02  0.44616480694E+02  0.10424640710E+03  0.11526402936E+03  0.00000000000E+00 0. -1.
         11    1    1    2    0    0  0.27835394373E+02  0.58979413630E-01 -0.78550735931E+01  0.28922566269E+02  0.00000000000E+00 0.  1.
<mgrwt>
<rscale>  0 0.13190826E+03</rscale>
<asrwt>0</asrwt>
<pdfrwt beam="1">  1        3 0.41287856E-01 0.14133700E+03</pdfrwt>
<pdfrwt beam="2">  1       -3 0.88649870E-02 0.14133700E+03</pdfrwt>
<totfact> 0.12195147E+03</totfact>
</mgrwt>
</event>
<event>
 7    1  0.6095443E-006  0.1277203E+03  0.7546771E-02  0.1242219E+00
         -1   -1    0    0    0  501 -0.00000000000E+00  0.00000000000E+00  0.34082131011E+02  0.34082131011E+02  0.00000000000E+00 0. -1.
          1   -1    0    0  501    0  0.00000000000E+00 -0.00000000000E+00 -0.39132722676E+03  0.39132722676E+03  0.00000000000E+00 0.  1.
         23    2    1    2    0    0  0.25619039864E+02 -0.55795878053E+01 -0.17152285778E+03  0.21385173884E+03  0.12500003384E+03 0.  0.
          5    1    3    3  502    0  0.58619073311E+01 -0.50900200225E+02 -0.21394992688E+02  0.55722778580E+02  0.47000000000E+01 0. -1.
         -5    1    3    3    0  502  0.19757132533E+02  0.45320612420E+02 -0.15012786509E+03  0.15812896026E+03  0.47000000000E+01 0. -1.
        -11    1    1    2    0    0 -0.34626200885E+02 -0.24828813929E+02 -0.28718597102E+02  0.51382892176E+02  0.00000000000E+00 0. -1.
         11    1    1    2    0    0  0.90071610211E+01  0.30408401735E+02 -0.15700364087E+03  0.16017472675E+03  0.00000000000E+00 0.  1.
<mgrwt>
<rscale>  0 0.12053381E+03</rscale>
<asrwt>0</asrwt>
<pdfrwt beam="2">  1        1 0.60204183E-01 0.12772030E+03</pdfrwt>
<pdfrwt beam="1">  1       -1 0.52434052E-02 0.12772030E+03</pdfrwt>
<totfact> 0.96526259E+03</totfact>
</mgrwt>
</event>
<event>
 7    1  0.6095443E-006  0.1300958E+03  0.7546771E-02  0.1241614E+00
          1   -1    0    0  501    0  0.00000000000E+00  0.00000000000E+00  0.22479386726E+03  0.22479386726E+03  0.00000000000E+00 0. -1.
         -1   -1    0    0    0  501 -0.00000000000E+00 -0.00000000000E+00 -0.68586085460E+02  0.68586085460E+02  0.00000000000E+00 0.  1.
         23    2    1    2    0    0 -0.22698375955E+00  0.36059040069E+02  0.28837217708E+02  0.13325348578E+03  0.12499840181E+03 0.  0.
          5    1    3    3  502    0  0.79873408352E+01 -0.76124946484E+01  0.70886928789E+02  0.71894327743E+02  0.47000000000E+01 0.  1.
         -5    1    3    3    0  502 -0.82143245947E+01  0.43671534717E+02 -0.42049711081E+02  0.61359158038E+02  0.47000000000E+01 0.  1.
        -11    1    1    2    0    0  0.42551240102E+02 -0.26768285805E+02  0.89150629192E+02  0.10234736853E+03  0.00000000000E+00 0.  1.
         11    1    1    2    0    0 -0.42324256343E+02 -0.92907542631E+01  0.38219934903E+02  0.57779098416E+02  0.00000000000E+00 0. -1.
<mgrwt>
<rscale>  0 0.12090318E+03</rscale>
<asrwt>0</asrwt>
<pdfrwt beam="1">  1        1 0.34583672E-01 0.13009576E+03</pdfrwt>
<pdfrwt beam="2">  1       -1 0.10551706E-01 0.13009576E+03</pdfrwt>
<totfact> 0.67186976E+03</totfact>
</mgrwt>
</event>
<event>
 7    1  0.6095443E-006  0.1254937E+03  0.7546771E-02  0.1242501E+00
          1   -1    0    0  501    0  0.00000000000E+00  0.00000000000E+00  0.19698271576E+03  0.19698271576E+03  0.00000000000E+00 0. -1.
         -1   -1    0    0    0  501 -0.00000000000E+00 -0.00000000000E+00 -0.73543843159E+02  0.73543843159E+02  0.00000000000E+00 0.  1.
         23    2    1    2    0    0  0.22585140485E+02 -0.47139966165E+02  0.29885207117E+02  0.12900310827E+03  0.11408948837E+03 0.  0.
          5    1    3    3  502    0 -0.27969407706E+02  0.20495939905E+02  0.27316175353E+02  0.44391832085E+02  0.47000000000E+01 0. -1.
         -5    1    3    3    0  502  0.50554548191E+02 -0.67635906070E+02  0.25690317646E+01  0.84611276181E+02  0.47000000000E+01 0.  1.
        -11    1    1    2    0    0  0.13687015909E+02  0.64346241933E+02  0.53248296946E+02  0.84635420381E+02  0.00000000000E+00 0.  1.
         11    1    1    2    0    0 -0.36272156394E+02 -0.17206275768E+02  0.40305368535E+02  0.56888030269E+02  0.00000000000E+00 0. -1.
<mgrwt>
<rscale>  0 0.12036183E+03</rscale>
<asrwt>0</asrwt>
<pdfrwt beam="1">  1        1 0.30305033E-01 0.12549373E+03</pdfrwt>
<pdfrwt beam="2">  1       -1 0.11314437E-01 0.12549373E+03</pdfrwt>
<totfact> 0.70922563E+03</totfact>
</mgrwt>
</event>
<event>
 7    1  0.6095443E-006  0.1289407E+03  0.7546771E-02  0.1244601E+00
         -1   -1    0    0    0  501 -0.00000000000E+00  0.00000000000E+00  0.53185076590E+02  0.53185076590E+02  0.00000000000E+00 0.  1.
          1   -1    0    0  501    0  0.00000000000E+00 -0.00000000000E+00 -0.33804510762E+03  0.33804510762E+03  0.00000000000E+00 0. -1.
         23    2    1    2    0    0  0.10900992422E+02 -0.29738387505E+02 -0.49960891633E+02  0.13828155219E+03  0.12498997422E+03 0.  0.
          5    1    3    3  502    0  0.34355986048E+01  0.39530958429E+02 -0.55326715917E+02  0.68246871769E+02  0.47000000000E+01 0.  1.
         -5    1    3    3    0  502  0.74653938173E+01 -0.69269345934E+02  0.53658242841E+01  0.70034680418E+02  0.47000000000E+01 0.  1.
        -11    1    1    2    0    0  0.26653101199E+02  0.21377012719E+02 -0.19325668238E+03  0.19625368725E+03  0.00000000000E+00 0. -1.
         11    1    1    2    0    0 -0.37554093621E+02  0.83613747858E+01 -0.41642457017E+02  0.56694944769E+02  0.00000000000E+00 0.  1.
<mgrwt>
<rscale>  0 0.11909297E+03</rscale>
<asrwt>0</asrwt>
<pdfrwt beam="2">  1        1 0.52006941E-01 0.12894067E+03</pdfrwt>
<pdfrwt beam="1">  1       -1 0.81823193E-02 0.12894067E+03</pdfrwt>
<totfact> 0.59664842E+03</totfact>
</mgrwt>
</event>
<event>
 7    1  0.6095443E-006  0.1312308E+03  0.7546771E-02  0.1239175E+00
         -2   -1    0    0    0  501 -0.00000000000E+00  0.00000000000E+00  0.86834842858E+03  0.86834842858E+03  0.00000000000E+00 0. -1.
          2   -1    0    0  501    0  0.00000000000E+00 -0.00000000000E+00 -0.15357355791E+02  0.15357355791E+02  0.00000000000E+00 0.  1.
         23    2    1    2    0    0  0.32578194692E+02 -0.23162546591E+02  0.51048568771E+03  0.52708363769E+03  0.12499472561E+03 0.  0.
          5    1    3    3  502    0 -0.11925765734E+02  0.57598292848E+01  0.43194775282E+03  0.43217629584E+03  0.47000000000E+01 0.  1.
         -5    1    3    3    0  502  0.44503960426E+02 -0.28922375876E+02  0.78537934884E+02  0.94907341843E+02  0.47000000000E+01 0.  1.
        -11    1    1    2    0    0 -0.55157022111E+02 -0.12063003244E+02  0.22168646025E+03  0.22876341446E+03  0.00000000000E+00 0. -1.
         11    1    1    2    0    0  0.22578827419E+02  0.35225549835E+02  0.12081892483E+03  0.12785873223E+03  0.00000000000E+00 0.  1.
<mgrwt>
<rscale>  0 0.12240898E+03</rscale>
<asrwt>0</asrwt>
<pdfrwt beam="2">  1        2 0.23626708E-02 0.13123080E+03</pdfrwt>
<pdfrwt beam="1">  1       -2 0.13359203E+00 0.13123080E+03</pdfrwt>
<totfact> 0.17730377E+03</totfact>
</mgrwt>
</event>
<event>
 7    1  0.6095443E-006  0.1522873E+03  0.7546771E-02  0.1207001E+00
         -2   -1    0    0    0  501 -0.00000000000E+00  0.00000000000E+00  0.11145022758E+02  0.11145022758E+02  0.00000000000E+00 0.  1.
          2   -1    0    0  501    0  0.00000000000E+00 -0.00000000000E+00 -0.17289681441E+04  0.17289681441E+04  0.00000000000E+00 0. -1.
         23    2    1    2    0    0  0.29339218544E+02  0.81899310171E+02 -0.10117214724E+04  0.10231186438E+04  0.12499253900E+03 0.  0.
          5    1    3    3  502    0  0.62713077093E+02  0.53000265373E+00 -0.35658061775E+03  0.36208429667E+03  0.47000000000E+01 0. -1.
         -5    1    3    3    0  502 -0.33373858549E+02  0.81369307518E+02 -0.65514085466E+03  0.66103434713E+03  0.47000000000E+01 0. -1.
        -11    1    1    2    0    0  0.12242547993E+02 -0.82012648621E+02 -0.46828238507E+03  0.47556739447E+03  0.00000000000E+00 0.  1.
         11    1    1    2    0    0 -0.41581766537E+02  0.11333845020E+00 -0.23781926386E+03  0.24142712859E+03  0.00000000000E+00 0. -1.
<mgrwt>
<rscale>  0 0.14480877E+03</rscale>
<asrwt>0</asrwt>
<pdfrwt beam="2">  1        2 0.26599512E+00 0.15228730E+03</pdfrwt>
<pdfrwt beam="1">  1       -2 0.17146188E-02 0.15228730E+03</pdfrwt>
<totfact> 0.98321143E+03</totfact>
</mgrwt>
</event>
<event>
 7    1  0.6095443E-006  0.1155391E+03  0.7546771E-02  0.1262001E+00
         -1   -1    0    0    0  501 -0.00000000000E+00  0.00000000000E+00  0.20149867265E+03  0.20149867265E+03  0.00000000000E+00 0.  1.
          1   -1    0    0  501    0  0.00000000000E+00 -0.00000000000E+00 -0.59572451657E+02  0.59572451657E+02  0.00000000000E+00 0. -1.
         23    2    1    2    0    0  0.86201762592E+01 -0.12418080119E+02  0.11922062442E+03  0.16602058513E+03  0.11454589145E+03 0.  0.
          5    1    3    3  502    0  0.52924256788E+02 -0.36806260332E+02  0.70380991793E+02  0.95557583488E+02  0.47000000000E+01 0. -1.
         -5    1    3    3    0  502 -0.44304080529E+02  0.24388180213E+02  0.48839632628E+02  0.70463001645E+02  0.47000000000E+01 0.  1.
        -11    1    1    2    0    0 -0.94403713070E+01 -0.37375724746E+02 -0.36215299168E+01  0.38719257349E+02  0.00000000000E+00 0. -1.
         11    1    1    2    0    0  0.82019504779E+00  0.49793804865E+02  0.26327126486E+02  0.56331281824E+02  0.00000000000E+00 0.  1.
<mgrwt>
<rscale>  0 0.10923093E+03</rscale>
<asrwt>0</asrwt>
<pdfrwt beam="2">  1        1 0.91649927E-02 0.11553907E+03</pdfrwt>
<pdfrwt beam="1">  1       -1 0.30999795E-01 0.11553907E+03</pdfrwt>
<totfact> 0.65329792E+03</totfact>
</mgrwt>
</event>
<event>
 7    1  0.6095443E-006  0.2167931E+03  0.7546771E-02  0.1139511E+00
         -1   -1    0    0    0  501 -0.00000000000E+00  0.00000000000E+00  0.15373677170E+03  0.15373677170E+03  0.00000000000E+00 0.  1.
          1   -1    0    0  501    0  0.00000000000E+00 -0.00000000000E+00 -0.30813398370E+03  0.30813398370E+03  0.00000000000E+00 0. -1.
         23    2    1    2    0    0  0.17712677561E+03 -0.93106497310E+00 -0.14381787365E+02  0.21726960566E+03  0.12499793685E+03 0.  0.
          5    1    3    3  502    0  0.70844137769E+02  0.11138697585E+02 -0.66745638847E+02  0.98081765610E+02  0.47000000000E+01 0. -1.
         -5    1    3    3    0  502  0.10628263784E+03 -0.12069762558E+02  0.52363851482E+02  0.11918784005E+03  0.47000000000E+01 0. -1.
        -11    1    1    2    0    0 -0.64076607746E+02  0.30396142010E+02 -0.96881692764E+02  0.12006581321E+03  0.00000000000E+00 0.  1.
         11    1    1    2    0    0 -0.11305016787E+03 -0.29465077037E+02 -0.43133731868E+02  0.12453533653E+03  0.00000000000E+00 0. -1.
<mgrwt>
<rscale>  0 0.21261634E+03</rscale>
<asrwt>0</asrwt>
<pdfrwt beam="2">  1        1 0.47405228E-01 0.21679309E+03</pdfrwt>
<pdfrwt beam="1">  1       -1 0.23651811E-01 0.21679309E+03</pdfrwt>
<totfact> 0.12896564E+03</totfact>
</mgrwt>
</event>
<event>
 7    1  0.6095443E-006  0.1568019E+03  0.7546771E-02  0.1200335E+00
          3   -1    0    0  501    0  0.00000000000E+00  0.00000000000E+00  0.10969112688E+03  0.10969112688E+03  0.00000000000E+00 0. -1.
         -3   -1    0    0    0  501 -0.00000000000E+00 -0.00000000000E+00 -0.22167312753E+03  0.22167312753E+03  0.00000000000E+00 0.  1.
         23    2    1    2    0    0 -0.34322178202E+02  0.88248413204E+02 -0.12286883254E+03  0.19920738316E+03  0.12498414758E+03 0.  0.
          5    1    3    3  502    0  0.37131303144E+02 -0.62774618365E+01 -0.34856288564E+02  0.51528545998E+02  0.47000000000E+01 0.  1.
         -5    1    3    3    0  502 -0.71453481346E+02  0.94525875041E+02 -0.88012543977E+02  0.14767883716E+03  0.47000000000E+01 0.  1.
        -11    1    1    2    0    0  0.36322355894E+02 -0.10155775089E+03  0.26976664547E+02  0.11118017239E+03  0.00000000000E+00 0.  1.
         11    1    1    2    0    0 -0.20001776917E+01  0.13309337681E+02 -0.16089832657E+02  0.20976698865E+02  0.00000000000E+00 0. -1.
<mgrwt>
<rscale>  0 0.15011229E+03</rscale>
<asrwt>0</asrwt>
<pdfrwt beam="1">  1        3 0.16875558E-01 0.15680189E+03</pdfrwt>
<pdfrwt beam="2">  1       -3 0.34103558E-01 0.15680189E+03</pdfrwt>
<totfact> 0.60345474E+02</totfact>
</mgrwt>
</event>
<event>
 7    1  0.6095443E-006  0.1834959E+03  0.7546771E-02  0.1170092E+00
          1   -1    0    0  501    0  0.00000000000E+00  0.00000000000E+00  0.78552537887E+02  0.78552537887E+02  0.00000000000E+00 0. -1.
         -1   -1    0    0    0  501 -0.00000000000E+00 -0.00000000000E+00 -0.38006977680E+03  0.38006977680E+03  0.00000000000E+00 0.  1.
         23    2    1    2    0    0 -0.99316198638E+02  0.90457681423E+02 -0.14438543844E+03  0.23349065280E+03  0.12499772267E+03 0.  0.
          5    1    3    3  502    0 -0.42592309496E+02 -0.25381165167E+02 -0.18303050032E+02  0.53060343138E+02  0.47000000000E+01 0. -1.
         -5    1    3    3    0  502 -0.56723889142E+02  0.11583884659E+03 -0.12608238840E+03  0.18043030966E+03  0.47000000000E+01 0. -1.
        -11    1    1    2    0    0  0.31793450002E+02 -0.37340369765E+02 -0.12348373231E+03  0.13286594305E+03  0.00000000000E+00 0.  1.
         11    1    1    2    0    0  0.67522748637E+02 -0.53117311658E+02 -0.33648068164E+02  0.92265718837E+02  0.00000000000E+00 0. -1.
<mgrwt>
<rscale>  0 0.17765546E+03</rscale>
<asrwt>0</asrwt>
<pdfrwt beam="1">  1        1 0.12085006E-01 0.18349586E+03</pdfrwt>
<pdfrwt beam="2">  1       -1 0.58472273E-01 0.18349586E+03</pdfrwt>
<totfact> 0.15001317E+03</totfact>
</mgrwt>
</event>
<event>
 7    1  0.6095443E-006  0.1323426E+03  0.7546771E-02  0.1238020E+00
         -1   -1    0    0    0  501 -0.00000000000E+00  0.00000000000E+00  0.66602542389E+02  0.66602542389E+02  0.00000000000E+00 0.  1.
          1   -1    0    0  501    0  0.00000000000E+00 -0.00000000000E+00 -0.20124622264E+03  0.20124622264E+03  0.00000000000E+00 0. -1.
         23    2    1    2    0    0  0.22218561877E+02  0.37349759550E+02 -0.74550829551E+02  0.15189599017E+03  0.12500358640E+03 0.  0.
          5    1    3    3  502    0  0.37508149611E+02 -0.38985124624E+02 -0.28613250802E+02  0.61380040327E+02  0.47000000000E+01 0.  1.
         -5    1    3    3    0  502 -0.15289587734E+02  0.76334884174E+02 -0.45937578750E+02  0.90515949845E+02  0.47000000000E+01 0.  1.
        -11    1    1    2    0    0  0.11204846494E+02  0.24349463403E+02 -0.62963312615E+01  0.27533411345E+02  0.00000000000E+00 0.  1.
         11    1    1    2    0    0 -0.33423408370E+02 -0.61699222953E+02 -0.53796519434E+02  0.88419363509E+02  0.00000000000E+00 0. -1.
<mgrwt>
<rscale>  0 0.12313045E+03</rscale>
<asrwt>0</asrwt>
<pdfrwt beam="2">  1        1 0.30960957E-01 0.13234261E+03</pdfrwt>
<pdfrwt beam="1">  1       -1 0.10246545E-01 0.13234261E+03</pdfrwt>
<totfact> 0.80695074E+03</totfact>
</mgrwt>
</event>
<event>
 7    1  0.6095443E-006  0.1939538E+03  0.7546771E-02  0.1159551E+00
          2   -1    0    0  501    0  0.00000000000E+00  0.00000000000E+00  0.69058778566E+02  0.69058778566E+02  0.00000000000E+00 0. -1.
         -2   -1    0    0    0  501 -0.00000000000E+00 -0.00000000000E+00 -0.51886984361E+03  0.51886984361E+03  0.00000000000E+00 0.  1.
         23    2    1    2    0    0 -0.14828307403E+03 -0.22538946760E+01 -0.30502201146E+03  0.36146439499E+03  0.12500052515E+03 0.  0.
          5    1    3    3  502    0 -0.14602202070E+02  0.26762360572E+02 -0.44132078701E+01  0.31161108009E+02  0.47000000000E+01 0. -1.
         -5    1    3    3    0  502 -0.13368087196E+03 -0.29016255248E+02 -0.30060880359E+03  0.33030328698E+03  0.47000000000E+01 0. -1.
        -11    1    1    2    0    0  0.38460098879E+02 -0.24546609136E+02 -0.89860550560E+02  0.10078012588E+03  0.00000000000E+00 0.  1.
         11    1    1    2    0    0  0.10982297515E+03  0.26800503812E+02 -0.54928503028E+02  0.12568410130E+03  0.00000000000E+00 0. -1.
<mgrwt>
<rscale>  0 0.18879643E+03</rscale>
<asrwt>0</asrwt>
<pdfrwt beam="1">  1        2 0.10624427E-01 0.19395381E+03</pdfrwt>
<pdfrwt beam="2">  1       -2 0.79826130E-01 0.19395381E+03</pdfrwt>
<totfact> 0.84236877E+02</totfact>
</mgrwt>
</event>
<event>
 7    1  0.6095443E-006  0.1600683E+03  0.7546771E-02  0.1196322E+00
         -1   -1    0    0    0  501 -0.00000000000E+00  0.00000000000E+00  0.52795491071E+02  0.52795491071E+02  0.00000000000E+00 0.  1.
          1   -1    0    0  501    0  0.00000000000E+00 -0.00000000000E+00 -0.46750697826E+03  0.46750697826E+03  0.00000000000E+00 0. -1.
         23    2    1    2    0    0 -0.76504930932E+02  0.64367815620E+02 -0.13395300192E+03  0.20872292420E+03  0.12500252885E+03 0.  0.
          5    1    3    3  502    0  0.21567409929E+02  0.19584389286E+02 -0.85461894477E+02  0.90413090216E+02  0.47000000000E+01 0.  1.
         -5    1    3    3    0  502 -0.98072340860E+02  0.44783426335E+02 -0.48491107447E+02  0.11830983398E+03  0.47000000000E+01 0.  1.
        -11    1    1    2    0    0  0.38744287421E+02 -0.80540147653E+02 -0.15092800989E+03  0.17540552830E+03  0.00000000000E+00 0.  1.
         11    1    1    2    0    0  0.37760643510E+02  0.16172332032E+02 -0.12983047538E+03  0.13617401683E+03  0.00000000000E+00 0. -1.
<mgrwt>
<rscale>  0 0.15342852E+03</rscale>
<asrwt>0</asrwt>
<pdfrwt beam="2">  1        1 0.71924150E-01 0.16006827E+03</pdfrwt>
<pdfrwt beam="1">  1       -1 0.81223833E-02 0.16006827E+03</pdfrwt>
<totfact> 0.40499601E+03</totfact>
</mgrwt>
</event>
<event>
 7    1  0.6095443E-006  0.1455277E+03  0.7546771E-02  0.1221605E+00
         -1   -1    0    0    0  501 -0.00000000000E+00  0.00000000000E+00  0.19694427743E+02  0.19694427743E+02  0.00000000000E+00 0.  1.
          1   -1    0    0  501    0  0.00000000000E+00 -0.00000000000E+00 -0.85341508751E+03  0.85341508751E+03  0.00000000000E+00 0. -1.
         23    2    1    2    0    0  0.70814957065E+02  0.23198783806E+02 -0.36717472811E+03  0.39496275722E+03  0.12500142766E+03 0.  0.
          5    1    3    3  502    0  0.22258923396E+02  0.13067908020E+02 -0.33417119862E+03  0.33519950758E+03  0.47000000000E+01 0. -1.
         -5    1    3    3    0  502  0.48556033669E+02  0.10130875786E+02 -0.33003529489E+02  0.59763249649E+02  0.47000000000E+01 0. -1.
        -11    1    1    2    0    0 -0.33132516006E+01 -0.29044767490E+02 -0.70075696939E+02  0.75928778841E+02  0.00000000000E+00 0.  1.
         11    1    1    2    0    0 -0.67501705464E+02  0.58459836840E+01 -0.39647023471E+03  0.40221797918E+03  0.00000000000E+00 0. -1.
<mgrwt>
<rscale>  0 0.13402369E+03</rscale>
<asrwt>0</asrwt>
<pdfrwt beam="2">  1        1 0.13129464E+00 0.14552766E+03</pdfrwt>
<pdfrwt beam="1">  1       -1 0.30299116E-02 0.14552766E+03</pdfrwt>
<totfact> 0.75035200E+03</totfact>
</mgrwt>
</event>
<event>
 7    1  0.6095443E-006  0.1385713E+03  0.7546771E-02  0.1226021E+00
          2   -1    0    0  501    0  0.00000000000E+00  0.00000000000E+00  0.10652750353E+03  0.10652750353E+03  0.00000000000E+00 0. -1.
         -2   -1    0    0    0  501 -0.00000000000E+00 -0.00000000000E+00 -0.16543837978E+03  0.16543837978E+03  0.00000000000E+00 0.  1.
         23    2    1    2    0    0 -0.33500093782E+02  0.49531500131E+02 -0.79093107787E+02  0.15955474330E+03  0.12500548236E+03 0.  0.
          5    1    3    3  502    0 -0.76459561402E+02  0.53444783587E+02 -0.65502378733E+02  0.11408357043E+03  0.47000000000E+01 0.  1.
         -5    1    3    3    0  502  0.42959467620E+02 -0.39132834562E+01 -0.13590729054E+02  0.45471172867E+02  0.47000000000E+01 0.  1.
        -11    1    1    2    0    0  0.53240274229E+02  0.36746018120E+00  0.24435360876E+02  0.58581129113E+02  0.00000000000E+00 0. -1.
         11    1    1    2    0    0 -0.19740180448E+02 -0.49898960312E+02 -0.42531293446E+01  0.53830010901E+02  0.00000000000E+00 0.  1.
<mgrwt>
<rscale>  0 0.13097201E+03</rscale>
<asrwt>0</asrwt>
<pdfrwt beam="1">  1        2 0.16388847E-01 0.13857127E+03</pdfrwt>
<pdfrwt beam="2">  1       -2 0.25452058E-01 0.13857127E+03</pdfrwt>
<totfact> 0.46147171E+03</totfact>
</mgrwt>
</event>
<event>
 7    1  0.6095443E-006  0.1471792E+03  0.7546771E-02  0.1208848E+00
          1   -1    0    0  501    0  0.00000000000E+00  0.00000000000E+00  0.46815856961E+02  0.46815856961E+02  0.00000000000E+00 0. -1.
         -1   -1    0    0    0  501 -0.00000000000E+00 -0.00000000000E+00 -0.75672252124E+03  0.75672252124E+03  0.00000000000E+00 0.  1.
         23    2    1    2    0    0 -0.30918307882E+01  0.96524642068E+02 -0.63382021251E+03  0.65068409082E+03  0.11106375793E+03 0.  0.
          5    1    3    3  502    0  0.30632527429E+02  0.22933190091E+02 -0.61062483851E+02  0.72214956059E+02  0.47000000000E+01 0. -1.
         -5    1    3    3    0  502 -0.33724358217E+02  0.73591451977E+02 -0.57275772866E+03  0.57846913477E+03  0.47000000000E+01 0.  1.
        -11    1    1    2    0    0 -0.43131702494E+01 -0.13942757286E+02  0.20751734302E+02  0.25370029462E+02  0.00000000000E+00 0.  1.
         11    1    1    2    0    0  0.74050010377E+01 -0.82581884782E+02 -0.96838186078E+02  0.12748425792E+03  0.00000000000E+00 0. -1.
<mgrwt>
<rscale>  0 0.14338301E+03</rscale>
<asrwt>0</asrwt>
<pdfrwt beam="1">  1        1 0.72024401E-02 0.14717922E+03</pdfrwt>
<pdfrwt beam="2">  1       -1 0.11641884E+00 0.14717922E+03</pdfrwt>
<totfact> 0.70774671E+02</totfact>
</mgrwt>
</event>
<event>
 7    1  0.6095443E-006  0.1267673E+03  0.7546771E-02  0.1247735E+00
          1   -1    0    0  501    0  0.00000000000E+00  0.00000000000E+00  0.63810549505E+02  0.63810549505E+02  0.00000000000E+00 0. -1.
         -1   -1    0    0    0  501 -0.00000000000E+00 -0.00000000000E+00 -0.34635608660E+03  0.34635608660E+03  0.00000000000E+00 0.  1.
         23    2    1    2    0    0 -0.20319123438E+02 -0.56000193692E+01 -0.29065486525E+03  0.31709652140E+03  0.12500290476E+03 0.  0.
          5    1    3    3  502    0 -0.29830222492E+02  0.27364245506E+02 -0.22179082180E+02  0.46396614018E+02  0.47000000000E+01 0.  1.
         -5    1    3    3    0  502  0.95110990539E+01 -0.32964264875E+02 -0.26847578307E+03  0.27069990738E+03  0.47000000000E+01 0.  1.
        -11    1    1    2    0    0  0.73570727292E+01  0.32291919846E+02  0.38371322887E+02  0.50687799583E+02  0.00000000000E+00 0. -1.
         11    1    1    2    0    0  0.12962050709E+02 -0.26691900477E+02 -0.30261994734E+02  0.42382315120E+02  0.00000000000E+00 0.  1.
<mgrwt>
<rscale>  0 0.11723150E+03</rscale>
<asrwt>0</asrwt>
<pdfrwt beam="1">  1        1 0.98170076E-02 0.12676732E+03</pdfrwt>
<pdfrwt beam="2">  1       -1 0.53285552E-01 0.12676732E+03</pdfrwt>
<totfact> 0.23176447E+03</totfact>
</mgrwt>
</event>
<event>
 7    1  0.6095443E-006  0.1478290E+03  0.7546771E-02  0.1213135E+00
          4   -1    0    0  501    0  0.00000000000E+00  0.00000000000E+00  0.49911724069E+02  0.49911724069E+02  0.00000000000E+00 0.  1.
         -4   -1    0    0    0  501 -0.00000000000E+00 -0.00000000000E+00 -0.42888020340E+03  0.42888020340E+03  0.00000000000E+00 0. -1.
         23    2    1    2    0    0 -0.47960817575E+02  0.62670933536E+02 -0.30335634373E+03  0.33745884330E+03  0.12500205482E+03 0.  0.
          5    1    3    3  502    0  0.13784906129E+02 -0.31321202356E+01 -0.19842782895E+03  0.19898624856E+03  0.47000000000E+01 0. -1.
         -5    1    3    3    0  502 -0.61745723704E+02  0.65803053772E+02 -0.10492851479E+03  0.13847259475E+03  0.47000000000E+01 0. -1.
        -11    1    1    2    0    0 -0.24754663918E+02 -0.23932566158E+01 -0.13619638039E+02  0.28355168898E+02  0.00000000000E+00 0.  1.
         11    1    1    2    0    0  0.72715481493E+02 -0.60277676920E+02 -0.61992497559E+02  0.11297791526E+03  0.00000000000E+00 0. -1.
<mgrwt>
<rscale>  0 0.14014460E+03</rscale>
<asrwt>0</asrwt>
<pdfrwt beam="1">  1        4 0.76787265E-02 0.14782895E+03</pdfrwt>
<pdfrwt beam="2">  1       -4 0.65981572E-01 0.14782895E+03</pdfrwt>
<totfact> 0.43251204E+02</totfact>
</mgrwt>
</event>
<event>
 7    1  0.6095443E-006  0.1483352E+03  0.7546771E-02  0.1212069E+00
          2   -1    0    0  501    0  0.00000000000E+00  0.00000000000E+00  0.17516199348E+03  0.17516199348E+03  0.00000000000E+00 0. -1.
         -2   -1    0    0    0  501 -0.00000000000E+00 -0.00000000000E+00 -0.10348053061E+03  0.10348053061E+03  0.00000000000E+00 0.  1.
         23    2    1    2    0    0  0.74252954090E+02 -0.29425592788E+02  0.41698417967E+02  0.15408467208E+03  0.12499584556E+03 0.  0.
          5    1    3    3  502    0  0.10834111773E+02  0.36099090708E+01  0.74326040457E+02  0.75344938194E+02  0.47000000000E+01 0. -1.
         -5    1    3    3    0  502  0.63418842317E+02 -0.33035501859E+02 -0.32627622490E+02  0.78739733891E+02  0.47000000000E+01 0. -1.
        -11    1    1    2    0    0 -0.70317267102E+02 -0.84704495906E+01  0.44658176416E+02  0.83729440998E+02  0.00000000000E+00 0.  1.
         11    1    1    2    0    0 -0.39356869886E+01  0.37896042378E+02 -0.14675131517E+02  0.40828411003E+02  0.00000000000E+00 0. -1.
<mgrwt>
<rscale>  0 0.14094040E+03</rscale>
<asrwt>0</asrwt>
<pdfrwt beam="1">  1        2 0.26947999E-01 0.14833519E+03</pdfrwt>
<pdfrwt beam="2">  1       -2 0.15920082E-01 0.14833519E+03</pdfrwt>
<totfact> 0.58675529E+03</totfact>
</mgrwt>
</event>
<event>
 7    1  0.6095443E-006  0.2495627E+03  0.7546771E-02  0.1116346E+00
         -2   -1    0    0    0  501 -0.00000000000E+00  0.00000000000E+00  0.88786103325E+02  0.88786103325E+02  0.00000000000E+00 0.  1.
          2   -1    0    0  501    0  0.00000000000E+00 -0.00000000000E+00 -0.65527913324E+03  0.65527913324E+03  0.00000000000E+00 0. -1.
         23    2    1    2    0    0  0.14655403970E+03  0.15867800072E+03 -0.30081451749E+03  0.39085923233E+03  0.12499908440E+03 0.  0.
          5    1    3    3  502    0  0.95268759853E+02  0.35568093013E+02 -0.19713701870E+03  0.22187005203E+03  0.47000000000E+01 0.  1.
         -5    1    3    3    0  502  0.51285279845E+02  0.12310990770E+03 -0.10367749879E+03  0.16898918030E+03  0.47000000000E+01 0.  1.
        -11    1    1    2    0    0 -0.89268032644E+02 -0.40473807748E+02 -0.84432873566E+02  0.12936700083E+03  0.00000000000E+00 0.  1.
         11    1    1    2    0    0 -0.57286007053E+02 -0.11820419297E+03 -0.18124563886E+03  0.22383900341E+03  0.00000000000E+00 0. -1.
<mgrwt>
<rscale>  0 0.24524721E+03</rscale>
<asrwt>0</asrwt>
<pdfrwt beam="2">  1        2 0.10081217E+00 0.24956275E+03</pdfrwt>
<pdfrwt beam="1">  1       -2 0.13659400E-01 0.24956275E+03</pdfrwt>
<totfact> 0.18132794E+03</totfact>
</mgrwt>
</event>
<event>
 7    1  0.6095443E-006  0.1347699E+03  0.7546771E-02  0.1230589E+00
         -1   -1    0    0    0  501 -0.00000000000E+00  0.00000000000E+00  0.47887602656E+02  0.47887602656E+02  0.00000000000E+00 0.  1.
          1   -1    0    0  501    0  0.00000000000E+00 -0.00000000000E+00 -0.31119759772E+03  0.31119759772E+03  0.00000000000E+00 0. -1.
         23    2    1    2    0    0 -0.46395623260E+02  0.19779480892E+02 -0.14284866774E+03  0.19638906528E+03  0.12497656326E+03 0.  0.
          5    1    3    3  502    0 -0.58370349719E+02 -0.17781877580E+02 -0.14421421044E+03  0.15666244409E+03  0.47000000000E+01 0.  1.
         -5    1    3    3    0  502  0.11974726459E+02  0.37561358471E+02  0.13655426993E+01  0.39726621186E+02  0.47000000000E+01 0.  1.
        -11    1    1    2    0    0  0.16335963631E+02  0.39405189313E+02 -0.41134591077E+02  0.59259490680E+02  0.00000000000E+00 0.  1.
         11    1    1    2    0    0  0.30059659628E+02 -0.59184670205E+02 -0.79326736242E+02  0.10343664441E+03  0.00000000000E+00 0. -1.
<mgrwt>
<rscale>  0 0.12791073E+03</rscale>
<asrwt>0</asrwt>
<pdfrwt beam="2">  1        1 0.47876554E-01 0.13476989E+03</pdfrwt>
<pdfrwt beam="1">  1       -1 0.73673235E-02 0.13476989E+03</pdfrwt>
<totfact> 0.77652819E+03</totfact>
</mgrwt>
</event>
<event>
 7    1  0.6095443E-006  0.1319621E+03  0.7546771E-02  0.1237753E+00
          4   -1    0    0  501    0  0.00000000000E+00  0.00000000000E+00  0.68216865210E+02  0.68216865210E+02  0.00000000000E+00 0. -1.
         -4   -1    0    0    0  501 -0.00000000000E+00 -0.00000000000E+00 -0.20247777604E+03  0.20247777604E+03  0.00000000000E+00 0.  1.
         23    2    1    2    0    0 -0.20956330824E+02 -0.36741968241E+02 -0.95581761219E+02  0.16294127673E+03  0.12499938621E+03 0.  0.
          5    1    3    3  502    0  0.19212340780E+02 -0.37232489017E+02 -0.11170813021E+03  0.11939919862E+03  0.47000000000E+01 0.  1.
         -5    1    3    3    0  502 -0.40168671604E+02  0.49052077659E+00  0.16126368992E+02  0.43542078108E+02  0.47000000000E+01 0.  1.
        -11    1    1    2    0    0  0.35211987917E+02 -0.20852675404E+02 -0.20005577013E+02  0.45551523314E+02  0.00000000000E+00 0.  1.
         11    1    1    2    0    0 -0.14255657093E+02  0.57594643645E+02 -0.18673572598E+02  0.62201841205E+02  0.00000000000E+00 0. -1.
<mgrwt>
<rscale>  0 0.12329799E+03</rscale>
<asrwt>0</asrwt>
<pdfrwt beam="1">  1        4 0.10494902E-01 0.13196206E+03</pdfrwt>
<pdfrwt beam="2">  1       -4 0.31150427E-01 0.13196206E+03</pdfrwt>
<totfact> 0.11343784E+03</totfact>
</mgrwt>
</event>
<event>
 6    1  0.6095443E-006  0.3973899E+03  0.7546771E-02  0.1050985E+00
          1   -1    0    0  501    0  0.00000000000E+00  0.00000000000E+00  0.32121001546E+04  0.32121001546E+04  0.00000000000E+00 0. -1.
         -1   -1    0    0    0  501 -0.00000000000E+00 -0.00000000000E+00 -0.42673324073E+02  0.42673324073E+02  0.00000000000E+00 0.  1.
          5    1    1    2  502    0 -0.35027165222E+02 -0.67096008491E+01  0.54374064134E+03  0.54492925788E+03  0.47000000000E+01 0. -1.
         -5    1    1    2    0  502 -0.10792854087E+03  0.29239167550E+03  0.89728250883E+03  0.94988391527E+03  0.47000000000E+01 0.  1.
        -11    1    1    2    0    0  0.15339813877E+03 -0.24106788228E+03  0.15112686844E+04  0.15380434809E+04  0.00000000000E+00 0. -1.
         11    1    1    2    0    0 -0.10442432682E+02 -0.44614192369E+02  0.21713499601E+03  0.22191682462E+03  0.00000000000E+00 0.  1.
<mgrwt>
<rscale>  0 0.37986268E+03</rscale>
<asrwt>0</asrwt>
<pdfrwt beam="1">  1        1 0.49416907E+00 0.39738986E+03</pdfrwt>
<pdfrwt beam="2">  1       -1 0.65651293E-02 0.39738986E+03</pdfrwt>
<totfact> 0.57467884E+01</totfact>
</mgrwt>
</event>
<event>
 7    1  0.6095443E-006  0.1605023E+03  0.7546771E-02  0.1195864E+00
         -2   -1    0    0    0  501 -0.00000000000E+00  0.00000000000E+00  0.18411208263E+03  0.18411208263E+03  0.00000000000E+00 0.  1.
          2   -1    0    0  501    0  0.00000000000E+00 -0.00000000000E+00 -0.12658940786E+03  0.12658940786E+03  0.00000000000E+00 0. -1.
         23    2    1    2    0    0  0.66232637733E+02 -0.75814899302E+02  0.69287732156E+02  0.17481922748E+03  0.12500524473E+03 0.  0.
          5    1    3    3  502    0  0.54070308867E+02 -0.10246697264E+02 -0.23858536295E+02  0.60165711663E+02  0.47000000000E+01 0. -1.
         -5    1    3    3    0  502  0.12162328866E+02 -0.65568202038E+02  0.93146268451E+02  0.11465351581E+03  0.47000000000E+01 0. -1.
        -11    1    1    2    0    0 -0.69410042101E+02  0.26225069110E+02  0.20072689443E+02  0.76866254337E+02  0.00000000000E+00 0.  1.
         11    1    1    2    0    0  0.31774043683E+01  0.49589830193E+02 -0.31837746826E+02  0.59016008676E+02  0.00000000000E+00 0. -1.
<mgrwt>
<rscale>  0 0.15381300E+03</rscale>
<asrwt>0</asrwt>
<pdfrwt beam="2">  1        2 0.19475294E-01 0.16050225E+03</pdfrwt>
<pdfrwt beam="1">  1       -2 0.28324936E-01 0.16050225E+03</pdfrwt>
<totfact> 0.31585821E+03</totfact>
</mgrwt>
</event>
<event>
 7    1  0.6095443E-006  0.1514998E+03  0.7546771E-02  0.1207486E+00
         -3   -1    0    0    0  501 -0.00000000000E+00  0.00000000000E+00  0.14889985515E+03  0.14889985515E+03  0.00000000000E+00 0.  1.
          3   -1    0    0  501    0  0.00000000000E+00 -0.00000000000E+00 -0.19513172693E+03  0.19513172693E+03  0.00000000000E+00 0. -1.
         23    2    1    2    0    0  0.85173967609E+02 -0.86123258958E+01  0.75651840536E+02  0.16933805734E+03  0.12499359892E+03 0.  0.
          5    1    3    3  502    0  0.16282303471E+02  0.30532912227E+01 -0.34644272041E+02  0.38687873796E+02  0.47000000000E+01 0. -1.
         -5    1    3    3    0  502  0.68891664138E+02 -0.11665617119E+02  0.11029611258E+03  0.13065018354E+03  0.47000000000E+01 0. -1.
        -11    1    1    2    0    0 -0.71505567071E+02 -0.11334740086E+02 -0.27800354579E+02  0.77552447864E+02  0.00000000000E+00 0.  1.
         11    1    1    2    0    0 -0.13668400538E+02  0.19947065982E+02 -0.94083357733E+02  0.97141076877E+02  0.00000000000E+00 0. -1.
<mgrwt>
<rscale>  0 0.14443269E+03</rscale>
<asrwt>0</asrwt>
<pdfrwt beam="2">  1        3 0.30020266E-01 0.15149976E+03</pdfrwt>
<pdfrwt beam="1">  1       -3 0.22907670E-01 0.15149976E+03</pdfrwt>
<totfact> 0.44490829E+02</totfact>
</mgrwt>
</event>
<event>
 7    1  0.6095443E-006  0.1596697E+03  0.7546771E-02  0.1196602E+00
         -4   -1    0    0    0  501 -0.00000000000E+00  0.00000000000E+00  0.67806651805E+03  0.67806651805E+03  0.00000000000E+00 0.  1.
          4   -1    0    0  501    0  0.00000000000E+00 -0.00000000000E+00 -0.32377000174E+02  0.32377000174E+02  0.00000000000E+00 0. -1.
         23    2    1    2    0    0 -0.41234444875E+02  0.90361978894E+02  0.38322273866E+03  0.41515550147E+03  0.12501542424E+03 0.  0.
          5    1    3    3  502    0  0.85284736586E+00  0.84143464128E+02  0.35258405900E+03  0.36251683901E+03  0.47000000000E+01 0.  1.
         -5    1    3    3    0  502 -0.42087292241E+02  0.62185147657E+01  0.30638679661E+02  0.52638662459E+02  0.47000000000E+01 0.  1.
        -11    1    1    2    0    0  0.19698378384E+02  0.12163668067E+02  0.18019837163E+02  0.29337611750E+02  0.00000000000E+00 0.  1.
         11    1    1    2    0    0  0.21536066492E+02 -0.10252564696E+03  0.24444694205E+03  0.26595040500E+03  0.00000000000E+00 0. -1.
<mgrwt>
<rscale>  0 0.15319399E+03</rscale>
<asrwt>0</asrwt>
<pdfrwt beam="2">  1        4 0.49810774E-02 0.15966973E+03</pdfrwt>
<pdfrwt beam="1">  1       -4 0.10431792E+00 0.15966973E+03</pdfrwt>
<totfact> 0.31945260E+02</totfact>
</mgrwt>
</event>
<event>
 7    1  0.6095443E-006  0.1418424E+03  0.7546771E-02  0.1221883E+00
          1   -1    0    0  501    0  0.00000000000E+00  0.00000000000E+00  0.62697453197E+02  0.62697453197E+02  0.00000000000E+00 0. -1.
         -1   -1    0    0    0  501 -0.00000000000E+00 -0.00000000000E+00 -0.25788373727E+03  0.25788373727E+03  0.00000000000E+00 0.  1.
         23    2    1    2    0    0 -0.65105608329E+02  0.15992799298E+02 -0.11252019068E+03  0.18105260939E+03  0.12499897677E+03 0.  0.
          5    1    3    3  502    0 -0.76649340529E+02  0.80135021955E+01 -0.10448975924E+02  0.77914111166E+02  0.47000000000E+01 0.  1.
         -5    1    3    3    0  502  0.11543732200E+02  0.79792971030E+01 -0.10207121475E+03  0.10313849823E+03  0.47000000000E+01 0.  1.
        -11    1    1    2    0    0  0.49393149180E+02 -0.39578597145E+02 -0.13411209870E+02  0.64699374711E+02  0.00000000000E+00 0. -1.
         11    1    1    2    0    0  0.15712459149E+02  0.23585797846E+02 -0.69254883523E+02  0.74829206359E+02  0.00000000000E+00 0.  1.
<mgrwt>
<rscale>  0 0.13382874E+03</rscale>
<asrwt>0</asrwt>
<pdfrwt beam="1">  1        1 0.96457621E-02 0.14184236E+03</pdfrwt>
<pdfrwt beam="2">  1       -1 0.39674421E-01 0.14184236E+03</pdfrwt>
<totfact> 0.40550926E+03</totfact>
</mgrwt>
</event>
<event>
 7    1  0.6095443E-006  0.1209632E+03  0.7546771E-02  0.1252529E+00
          2   -1    0    0  501    0  0.00000000000E+00  0.00000000000E+00  0.29725527144E+03  0.29725527144E+03  0.00000000000E+00 0. -1.
         -2   -1    0    0    0  501 -0.00000000000E+00 -0.00000000000E+00 -0.61093042045E+02  0.61093042045E+02  0.00000000000E+00 0.  1.
         23    2    1    2    0    0 -0.31211088621E+02 -0.12538404608E+02  0.21579824895E+02  0.12287308854E+03  0.11619278549E+03 0.  0.
          5    1    3    3  502    0  0.41084816418E+01  0.42945932668E+02  0.34792675293E+02  0.55622414621E+02  0.47000000000E+01 0. -1.
         -5    1    3    3    0  502 -0.35319570263E+02 -0.55484337276E+02 -0.13212850398E+02  0.67250673916E+02  0.47000000000E+01 0.  1.
        -11    1    1    2    0    0  0.37519395094E+02 -0.30752883207E+02  0.14850354451E+03  0.15622659046E+03  0.00000000000E+00 0.  1.
         11    1    1    2    0    0 -0.63083064730E+01  0.43291287815E+02  0.66078859986E+02  0.79248634488E+02  0.00000000000E+00 0. -1.
<mgrwt>
<rscale>  0 0.11445855E+03</rscale>
<asrwt>0</asrwt>
<pdfrwt beam="1">  1        2 0.45731579E-01 0.12096325E+03</pdfrwt>
<pdfrwt beam="2">  1       -2 0.93989297E-02 0.12096325E+03</pdfrwt>
<totfact> 0.76313600E+03</totfact>
</mgrwt>
</event>
<event>
 7    1  0.6095443E-006  0.1399589E+03  0.7546771E-02  0.1224646E+00
         -2   -1    0    0    0  501 -0.00000000000E+00  0.00000000000E+00  0.11251337992E+03  0.11251337992E+03  0.00000000000E+00 0.  1.
          2   -1    0    0  501    0  0.00000000000E+00 -0.00000000000E+00 -0.24522072862E+03  0.24522072862E+03  0.00000000000E+00 0. -1.
         23    2    1    2    0    0  0.15030057855E+02  0.61146159203E+02  0.46282667634E+02  0.14741295636E+03  0.12499495571E+03 0.  0.
          5    1    3    3  502    0 -0.27310739075E+02 -0.20047418878E+02  0.43951983225E+02  0.55692389982E+02  0.47000000000E+01 0.  1.
         -5    1    3    3    0  502  0.42340796930E+02  0.81193578081E+02  0.23306844088E+01  0.91720566374E+02  0.47000000000E+01 0.  1.
        -11    1    1    2    0    0 -0.99348799727E+00  0.17017851354E+02 -0.87619848768E+02  0.89262714396E+02  0.00000000000E+00 0. -1.
         11    1    1    2    0    0 -0.14036569858E+02 -0.78164010557E+02 -0.91370167565E+02  0.12105843779E+03  0.00000000000E+00 0.  1.
<mgrwt>
<rscale>  0 0.13191207E+03</rscale>
<asrwt>0</asrwt>
<pdfrwt beam="2">  1        2 0.37726265E-01 0.13995890E+03</pdfrwt>
<pdfrwt beam="1">  1       -2 0.17309751E-01 0.13995890E+03</pdfrwt>
<totfact> 0.35397083E+03</totfact>
</mgrwt>
</event>
<event>
 7    1  0.6095443E-006  0.1664592E+03  0.7546771E-02  0.1189556E+00
          4   -1    0    0  501    0  0.00000000000E+00  0.00000000000E+00  0.95568980727E+02  0.95568980727E+02  0.00000000000E+00 0. -1.
         -4   -1    0    0    0  501 -0.00000000000E+00 -0.00000000000E+00 -0.24644890267E+03  0.24644890267E+03  0.00000000000E+00 0.  1.
         23    2    1    2    0    0 -0.25369821198E+02  0.10700491361E+03 -0.96259566385E+02  0.19228773080E+03  0.12495994531E+03 0.  0.
          5    1    3    3  502    0 -0.74566657909E+02  0.55161527376E+02 -0.39599687606E+02  0.10096140764E+03  0.47000000000E+01 0. -1.
         -5    1    3    3    0  502  0.49196836711E+02  0.51843386238E+02 -0.56659878779E+02  0.91326323162E+02  0.47000000000E+01 0. -1.
        -11    1    1    2    0    0 -0.19663106472E+02 -0.83796254689E+02 -0.19989075484E+02  0.88362962799E+02  0.00000000000E+00 0. -1.
         11    1    1    2    0    0  0.45032927670E+02 -0.23208658926E+02 -0.34631280073E+02  0.61367189794E+02  0.00000000000E+00 0.  1.
<mgrwt>
<rscale>  0 0.15924140E+03</rscale>
<asrwt>0</asrwt>
<pdfrwt beam="1">  1        4 0.14702920E-01 0.16645921E+03</pdfrwt>
<pdfrwt beam="2">  1       -4 0.37915215E-01 0.16645921E+03</pdfrwt>
<totfact> 0.45504157E+02</totfact>
</mgrwt>
</event>
<event>
 7    1  0.6095443E-006  0.1449151E+03  0.7546771E-02  0.1216655E+00
         -2   -1    0    0    0  501 -0.00000000000E+00  0.00000000000E+00  0.10659048539E+03  0.10659048539E+03  0.00000000000E+00 0.  1.
          2   -1    0    0  501    0  0.00000000000E+00 -0.00000000000E+00 -0.17499408940E+03  0.17499408940E+03  0.00000000000E+00 0. -1.
         23    2    1    2    0    0  0.69203875613E+02 -0.24221739331E+02  0.11380785103E+01  0.14491959169E+03  0.12499809509E+03 0.  0.
          5    1    3    3  502    0  0.81349770934E+02 -0.35437111424E+02  0.43697417242E+02  0.99020848162E+02  0.47000000000E+01 0.  1.
         -5    1    3    3    0  502 -0.12145895321E+02  0.11215372093E+02 -0.42559338732E+02  0.45898743530E+02  0.47000000000E+01 0.  1.
        -11    1    1    2    0    0 -0.33490632153E+02  0.45195266174E+02 -0.76203179890E+02  0.94716203217E+02  0.00000000000E+00 0. -1.
         11    1    1    2    0    0 -0.35713243459E+02 -0.20973526842E+02  0.66614973640E+01  0.41948779884E+02  0.00000000000E+00 0.  1.
<mgrwt>
<rscale>  0 0.13755687E+03</rscale>
<asrwt>0</asrwt>
<pdfrwt beam="2">  1        2 0.26922167E-01 0.14491512E+03</pdfrwt>
<pdfrwt beam="1">  1       -2 0.16398536E-01 0.14491512E+03</pdfrwt>
<totfact> 0.55852936E+03</totfact>
</mgrwt>
</event>
<event>
 7    1  0.6095443E-006  0.1285454E+03  0.7546771E-02  0.1244799E+00
         -1   -1    0    0    0  501 -0.00000000000E+00  0.00000000000E+00  0.60577748391E+02  0.60577748391E+02  0.00000000000E+00 0.  1.
          1   -1    0    0  501    0  0.00000000000E+00 -0.00000000000E+00 -0.20506527956E+03  0.20506527956E+03  0.00000000000E+00 0. -1.
         23    2    1    2    0    0 -0.29148377097E+02  0.74569672691E+01 -0.80892991059E+02  0.15188021773E+03  0.12497475860E+03 0.  0.
          5    1    3    3  502    0 -0.35868547586E+02 -0.48429180336E+02 -0.10054779127E+02  0.61279089396E+02  0.47000000000E+01 0.  1.
         -5    1    3    3    0  502  0.67201704888E+01  0.55886147605E+02 -0.70838211932E+02  0.90601128333E+02  0.47000000000E+01 0.  1.
        -11    1    1    2    0    0  0.26104554387E+02  0.10925756498E+02  0.15663157866E+02  0.32344310614E+02  0.00000000000E+00 0.  1.
         11    1    1    2    0    0  0.30438227108E+01 -0.18382723767E+02 -0.79257697974E+02  0.81418499605E+02  0.00000000000E+00 0. -1.
<mgrwt>
<rscale>  0 0.11897405E+03</rscale>
<asrwt>0</asrwt>
<pdfrwt beam="2">  1        1 0.31548505E-01 0.12854542E+03</pdfrwt>
<pdfrwt beam="1">  1       -1 0.93196536E-02 0.12854542E+03</pdfrwt>
<totfact> 0.90876519E+03</totfact>
</mgrwt>
</event>
<event>
 7    1  0.6095443E-006  0.1387763E+03  0.7546771E-02  0.1225998E+00
          2   -1    0    0  501    0  0.00000000000E+00  0.00000000000E+00  0.12818808782E+04  0.12818808782E+04  0.00000000000E+00 0. -1.
         -2   -1    0    0    0  501 -0.00000000000E+00 -0.00000000000E+00 -0.12195422706E+02  0.12195422706E+02  0.00000000000E+00 0.  1.
         23    2    1    2    0    0  0.48005196676E+02  0.36473040666E+02  0.76853913130E+03  0.78096816207E+03  0.12499636885E+03 0.  0.
          5    1    3    3  502    0  0.52324770453E+02  0.74157722404E+02  0.38739288362E+03  0.39791027339E+03  0.47000000000E+01 0. -1.
         -5    1    3    3    0  502 -0.43195737773E+01 -0.37684681737E+02  0.38114624768E+03  0.38305788868E+03  0.47000000000E+01 0. -1.
        -11    1    1    2    0    0 -0.70109172632E+02 -0.54014183681E+01  0.36557977652E+03  0.37228086764E+03  0.00000000000E+00 0. -1.
         11    1    1    2    0    0  0.22103975956E+02 -0.31071622298E+02  0.13556654769E+03  0.14082727121E+03  0.00000000000E+00 0.  1.
<mgrwt>
<rscale>  0 0.13098742E+03</rscale>
<asrwt>0</asrwt>
<pdfrwt beam="1">  1        2 0.19721234E+00 0.13877634E+03</pdfrwt>
<pdfrwt beam="2">  1       -2 0.18762199E-02 0.13877634E+03</pdfrwt>
<totfact> 0.14736073E+04</totfact>
</mgrwt>
</event>
<event>
 7    1  0.6095443E-006  0.1285336E+03  0.7546771E-02  0.1245228E+00
          2   -1    0    0  501    0  0.00000000000E+00  0.00000000000E+00  0.15058528049E+03  0.15058528049E+03  0.00000000000E+00 0. -1.
         -2   -1    0    0    0  501 -0.00000000000E+00 -0.00000000000E+00 -0.89015721872E+02  0.89015721872E+02  0.00000000000E+00 0.  1.
         23    2    1    2    0    0  0.11368498858E+02  0.27693225532E+02  0.17091550271E+01  0.12854499275E+03  0.12499894577E+03 0.  0.
          5    1    3    3  502    0  0.17785346038E+02  0.62707697024E+02 -0.37527171907E+02  0.75358824507E+02  0.47000000000E+01 0. -1.
         -5    1    3    3    0  502 -0.64168471796E+01 -0.35014471493E+02  0.39236326934E+02  0.53186168248E+02  0.47000000000E+01 0. -1.
        -11    1    1    2    0    0  0.23459424243E+02  0.15260882613E+02  0.46327528708E+02  0.54124662033E+02  0.00000000000E+00 0. -1.
         11    1    1    2    0    0 -0.34827923102E+02 -0.42954108145E+02  0.13532874884E+02  0.56931347575E+02  0.00000000000E+00 0.  1.
<mgrwt>
<rscale>  0 0.11871747E+03</rscale>
<asrwt>0</asrwt>
<pdfrwt beam="1">  1        2 0.23166966E-01 0.12853363E+03</pdfrwt>
<pdfrwt beam="2">  1       -2 0.13694726E-01 0.12853363E+03</pdfrwt>
<totfact> 0.87752922E+03</totfact>
</mgrwt>
</event>
<event>
 7    1  0.6095443E-006  0.1300137E+03  0.7546771E-02  0.1239118E+00
         -2   -1    0    0    0  501 -0.00000000000E+00  0.00000000000E+00  0.29269164841E+03  0.29269164841E+03  0.00000000000E+00 0.  1.
          2   -1    0    0  501    0  0.00000000000E+00 -0.00000000000E+00 -0.47249991313E+02  0.47249991313E+02  0.00000000000E+00 0. -1.
         23    2    1    2    0    0 -0.42556575848E+02 -0.15878567552E+02  0.16345991883E+03  0.20886046948E+03  0.12182101457E+03 0.  0.
          5    1    3    3  502    0 -0.38263613805E+02  0.24047501381E+02  0.54525238095E+01  0.45762500805E+02  0.47000000000E+01 0. -1.
         -5    1    3    3    0  502 -0.42929620435E+01 -0.39926068933E+02  0.15800739502E+03  0.16309796867E+03  0.47000000000E+01 0.  1.
        -11    1    1    2    0    0  0.69884906275E+02  0.70270249163E+01  0.41956879266E+02  0.81814784250E+02  0.00000000000E+00 0.  1.
         11    1    1    2    0    0 -0.27328330426E+02  0.88515426361E+01  0.40024858996E+02  0.49266385991E+02  0.00000000000E+00 0. -1.
<mgrwt>
<rscale>  0 0.12244464E+03</rscale>
<asrwt>0</asrwt>
<pdfrwt beam="2">  1        2 0.72692296E-02 0.13001366E+03</pdfrwt>
<pdfrwt beam="1">  1       -2 0.45029483E-01 0.13001366E+03</pdfrwt>
<totfact> 0.43194501E+03</totfact>
</mgrwt>
</event>
<event>
 7    1  0.6095443E-006  0.1464632E+03  0.7546771E-02  0.1214457E+00
         -1   -1    0    0    0  501 -0.00000000000E+00  0.00000000000E+00  0.25447467826E+03  0.25447467826E+03  0.00000000000E+00 0.  1.
          1   -1    0    0  501    0  0.00000000000E+00 -0.00000000000E+00 -0.80841569543E+02  0.80841569543E+02  0.00000000000E+00 0. -1.
         23    2    1    2    0    0 -0.72722076333E+02  0.23197546148E+02  0.15712132017E+03  0.21479894032E+03  0.12499939591E+03 0.  0.
          5    1    3    3  502    0 -0.46766015567E+02  0.69762625881E+02  0.58074938554E+02  0.10221874911E+03  0.47000000000E+01 0. -1.
         -5    1    3    3    0  502 -0.25956060766E+02 -0.46565079733E+02  0.99046381618E+02  0.11258019121E+03  0.47000000000E+01 0. -1.
        -11    1    1    2    0    0  0.41801098298E+02  0.16576369278E+02  0.44180703952E+02  0.63040006655E+02  0.00000000000E+00 0.  1.
         11    1    1    2    0    0  0.30920978035E+02 -0.39773915426E+02 -0.27668915404E+02  0.57477300829E+02  0.00000000000E+00 0. -1.
<mgrwt>
<rscale>  0 0.13916502E+03</rscale>
<asrwt>0</asrwt>
<pdfrwt beam="2">  1        1 0.12437165E-01 0.14646322E+03</pdfrwt>
<pdfrwt beam="1">  1       -1 0.39149950E-01 0.14646322E+03</pdfrwt>
<totfact> 0.29718638E+03</totfact>
</mgrwt>
</event>
<event>
 7    1  0.6095443E-006  0.1932201E+03  0.7546771E-02  0.1160327E+00
          1   -1    0    0  501    0  0.00000000000E+00  0.00000000000E+00  0.13988841570E+03  0.13988841570E+03  0.00000000000E+00 0. -1.
         -1   -1    0    0    0  501 -0.00000000000E+00 -0.00000000000E+00 -0.25086507692E+03  0.25086507692E+03  0.00000000000E+00 0.  1.
         23    2    1    2    0    0  0.12613033254E+03  0.76155859750E+02 -0.99674379932E+02  0.21741429256E+03  0.12500166733E+03 0.  0.
          5    1    3    3  502    0  0.11537416160E+03  0.11948247818E+02 -0.98321077141E+02  0.15212850489E+03  0.47000000000E+01 0.  1.
         -5    1    3    3    0  502  0.10756170941E+02  0.64207611932E+02 -0.13533027906E+01  0.65285787670E+02  0.47000000000E+01 0.  1.
        -11    1    1    2    0    0 -0.52852356369E+02  0.14946711273E+02  0.55913133073E+01  0.55209043971E+02  0.00000000000E+00 0. -1.
         11    1    1    2    0    0 -0.73277976170E+02 -0.91102571023E+02 -0.16893594602E+02  0.11813015609E+03  0.00000000000E+00 0.  1.
<mgrwt>
<rscale>  0 0.18794556E+03</rscale>
<asrwt>0</asrwt>
<pdfrwt beam="1">  1        1 0.21521295E-01 0.19322006E+03</pdfrwt>
<pdfrwt beam="2">  1       -1 0.38594627E-01 0.19322006E+03</pdfrwt>
<totfact> 0.15136014E+03</totfact>
</mgrwt>
</event>
<event>
 7    1  0.6095443E-006  0.1517999E+03  0.7546771E-02  0.1204234E+00
         -2   -1    0    0    0  501 -0.00000000000E+00  0.00000000000E+00  0.54380729282E+02  0.54380729282E+02  0.00000000000E+00 0.  1.
          2   -1    0    0  501    0  0.00000000000E+00 -0.00000000000E+00 -0.37958560046E+03  0.37958560046E+03  0.00000000000E+00 0. -1.
         23    2    1    2    0    0 -0.39134667176E+02  0.76727004375E+02 -0.14661694751E+03  0.21104441524E+03  0.12499864213E+03 0.  0.
          5    1    3    3  502    0  0.24436222141E+02  0.51452787378E+02 -0.97768037846E+01  0.57984430443E+02  0.47000000000E+01 0.  1.
         -5    1    3    3    0  502 -0.63570889317E+02  0.25274216997E+02 -0.13684014372E+03  0.15305998480E+03  0.47000000000E+01 0.  1.
        -11    1    1    2    0    0  0.12021470148E+01  0.17207425150E+02  0.40016229648E+00  0.17254007291E+02  0.00000000000E+00 0.  1.
         11    1    1    2    0    0  0.37932520161E+02 -0.93934429526E+02 -0.17898808596E+03  0.20566790720E+03  0.00000000000E+00 0. -1.
<mgrwt>
<rscale>  0 0.14697985E+03</rscale>
<asrwt>0</asrwt>
<pdfrwt beam="2">  1        2 0.58397785E-01 0.15179992E+03</pdfrwt>
<pdfrwt beam="1">  1       -2 0.83662660E-02 0.15179992E+03</pdfrwt>
<totfact> 0.71626191E+03</totfact>
</mgrwt>
</event>
<event>
 6    1  0.6095443E-006  0.1589453E+03  0.7546771E-02  0.1209037E+00
          3   -1    0    0  501    0  0.00000000000E+00  0.00000000000E+00  0.29845589548E+02  0.29845589548E+02  0.00000000000E+00 0. -1.
         -3   -1    0    0    0  501 -0.00000000000E+00 -0.00000000000E+00 -0.71510949568E+03  0.71510949568E+03  0.00000000000E+00 0.  1.
          5    1    1    2  502    0  0.38545131232E+02  0.50238114621E+02 -0.90027275679E+02  0.11016621836E+03  0.47000000000E+01 0. -1.
         -5    1    1    2    0  502  0.15019285847E+02 -0.41263833039E+02 -0.46732330562E+03  0.46940541629E+03  0.47000000000E+01 0.  1.
        -11    1    1    2    0    0 -0.45783664270E+02 -0.41174020582E+02 -0.11377001297E+03  0.12936405891E+03  0.00000000000E+00 0. -1.
         11    1    1    2    0    0 -0.77807528092E+01  0.32199739001E+02 -0.14143311861E+02  0.36019391672E+02  0.00000000000E+00 0.  1.
<mgrwt>
<rscale>  0 0.14323852E+03</rscale>
<asrwt>0</asrwt>
<pdfrwt beam="1">  1        3 0.45916295E-02 0.15894530E+03</pdfrwt>
<pdfrwt beam="2">  1       -3 0.11001684E+00 0.15894530E+03</pdfrwt>
<totfact> 0.44962727E+02</totfact>
</mgrwt>
</event>
<event>
 7    1  0.6095443E-006  0.1273246E+03  0.7546771E-02  0.1245251E+00
         -2   -1    0    0    0  501 -0.00000000000E+00  0.00000000000E+00  0.23687775237E+02  0.23687775237E+02  0.00000000000E+00 0.  1.
          2   -1    0    0  501    0  0.00000000000E+00 -0.00000000000E+00 -0.52838281481E+03  0.52838281481E+03  0.00000000000E+00 0. -1.
         23    2    1    2    0    0  0.23995409953E+02 -0.34489875544E+01 -0.30005112697E+03  0.32594821270E+03  0.12499553331E+03 0.  0.
          5    1    3    3  502    0 -0.69201983795E+01 -0.66614770255E+00 -0.29382196967E+03  0.29394178464E+03  0.47000000000E+01 0.  1.
         -5    1    3    3    0  502  0.30915608332E+02 -0.27828398519E+01 -0.62291573063E+01  0.32006428056E+02  0.47000000000E+01 0.  1.
        -11    1    1    2    0    0  0.44422710936E+01  0.30674690226E+02 -0.19010780491E+02  0.36360420347E+02  0.00000000000E+00 0.  1.
         11    1    1    2    0    0 -0.28437681046E+02 -0.27225702671E+02 -0.18563313211E+03  0.18976195700E+03  0.00000000000E+00 0. -1.
<mgrwt>
<rscale>  0 0.11870388E+03</rscale>
<asrwt>0</asrwt>
<pdfrwt beam="2">  1        2 0.81289667E-01 0.12732462E+03</pdfrwt>
<pdfrwt beam="1">  1       -2 0.36442730E-02 0.12732462E+03</pdfrwt>
<totfact> 0.17360599E+04</totfact>
</mgrwt>
</event>
<event>
 7    1  0.6095443E-006  0.1260315E+03  0.7546771E-02  0.1246047E+00
          2   -1    0    0  501    0  0.00000000000E+00  0.00000000000E+00  0.29860716508E+03  0.29860716508E+03  0.00000000000E+00 0. -1.
         -2   -1    0    0    0  501 -0.00000000000E+00 -0.00000000000E+00 -0.42497851464E+02  0.42497851464E+02  0.00000000000E+00 0.  1.
         23    2    1    2    0    0 -0.12422659718E+02  0.12089308478E+02  0.12355189374E+03  0.17649080336E+03  0.12483372689E+03 0.  0.
          5    1    3    3  502    0 -0.36432976911E+00  0.41137193902E+02  0.13613388088E+03  0.14229168979E+03  0.47000000000E+01 0.  1.
         -5    1    3    3    0  502 -0.12058329949E+02 -0.29047885424E+02 -0.12581987141E+02  0.34199113573E+02  0.47000000000E+01 0.  1.
        -11    1    1    2    0    0  0.31237750685E+02 -0.45871652738E+02  0.55979551923E+02  0.78827126208E+02  0.00000000000E+00 0.  1.
         11    1    1    2    0    0 -0.18815090967E+02  0.33782344260E+02  0.76577867949E+02  0.85787086973E+02  0.00000000000E+00 0. -1.
<mgrwt>
<rscale>  0 0.11822932E+03</rscale>
<asrwt>0</asrwt>
<pdfrwt beam="1">  1        2 0.45939562E-01 0.12603148E+03</pdfrwt>
<pdfrwt beam="2">  1       -2 0.65381312E-02 0.12603148E+03</pdfrwt>
<totfact> 0.13319421E+04</totfact>
</mgrwt>
</event>
<event>
 7    1  0.6095443E-006  0.1807092E+03  0.7546771E-02  0.1172417E+00
          2   -1    0    0  501    0  0.00000000000E+00  0.00000000000E+00  0.81335018261E+02  0.81335018261E+02  0.00000000000E+00 0. -1.
         -2   -1    0    0    0  501 -0.00000000000E+00 -0.00000000000E+00 -0.57948079072E+03  0.57948079072E+03  0.00000000000E+00 0.  1.
         23    2    1    2    0    0  0.44840241989E+02  0.12256245646E+03 -0.46287717412E+03  0.49690147512E+03  0.12499437836E+03 0.  0.
          5    1    3    3  502    0  0.30255662157E+01 -0.21517814506E+02 -0.22431521803E+02  0.31582171591E+02  0.47000000000E+01 0.  1.
         -5    1    3    3    0  502  0.41814675773E+02  0.14408027097E+03 -0.44044565232E+03  0.46531930353E+03  0.47000000000E+01 0.  1.
        -11    1    1    2    0    0 -0.47848386465E+02 -0.13197832393E+02 -0.19719672228E+02  0.53408953744E+02  0.00000000000E+00 0. -1.
         11    1    1    2    0    0  0.30081444761E+01 -0.10936462407E+03 -0.15548926105E+02  0.11050538011E+03  0.00000000000E+00 0.  1.
<mgrwt>
<rscale>  0 0.17531378E+03</rscale>
<asrwt>0</asrwt>
<pdfrwt beam="1">  1        2 0.12513080E-01 0.18070915E+03</pdfrwt>
<pdfrwt beam="2">  1       -2 0.89150891E-01 0.18070915E+03</pdfrwt>
<totfact> 0.53873384E+02</totfact>
</mgrwt>
</event>
<event>
 7    1  0.6095443E-006  0.1327197E+03  0.7546771E-02  0.1236342E+00
          3   -1    0    0  501    0  0.00000000000E+00  0.00000000000E+00  0.77708295352E+03  0.77708295352E+03  0.00000000000E+00 0. -1.
         -3   -1    0    0    0  501 -0.00000000000E+00 -0.00000000000E+00 -0.17819998223E+02  0.17819998223E+02  0.00000000000E+00 0.  1.
         23    2    1    2    0    0  0.39087794291E+02  0.21549884619E+02  0.39528939292E+03  0.41697507876E+03  0.12498903535E+03 0.  0.
          5    1    3    3  502    0  0.14785516229E+02  0.37284274590E+02  0.29497574189E+02  0.50009254192E+02  0.47000000000E+01 0. -1.
         -5    1    3    3    0  502  0.24302278062E+02 -0.15734389970E+02  0.36579181873E+03  0.36696582457E+03  0.47000000000E+01 0. -1.
        -11    1    1    2    0    0 -0.48412628300E+02 -0.50558077419E+02  0.27932026300E+03  0.28795782867E+03  0.00000000000E+00 0. -1.
         11    1    1    2    0    0  0.93248340093E+01  0.29008192800E+02  0.84653299378E+02  0.89970044317E+02  0.00000000000E+00 0.  1.
<mgrwt>
<rscale>  0 0.12418905E+03</rscale>
<asrwt>0</asrwt>
<pdfrwt beam="1">  1        3 0.11955120E+00 0.13271968E+03</pdfrwt>
<pdfrwt beam="2">  1       -3 0.27415388E-02 0.13271968E+03</pdfrwt>
<totfact> 0.80869672E+02</totfact>
</mgrwt>
</event>
<event>
 7    1  0.6095443E-006  0.1263600E+03  0.7546771E-02  0.1246272E+00
         -1   -1    0    0    0  501 -0.00000000000E+00  0.00000000000E+00  0.51956311695E+02  0.51956311695E+02  0.00000000000E+00 0.  1.
          1   -1    0    0  501    0  0.00000000000E+00 -0.00000000000E+00 -0.24066294823E+03  0.24066294823E+03  0.00000000000E+00 0. -1.
         23    2    1    2    0    0 -0.13433091462E+02  0.12701378908E+02 -0.94127306118E+02  0.15756520619E+03  0.12500028589E+03 0.  0.
          5    1    3    3  502    0  0.26548075708E+02 -0.29023335872E+02  0.77316794926E+01  0.40361159755E+02  0.47000000000E+01 0. -1.
         -5    1    3    3    0  502 -0.39981167170E+02  0.41724714781E+02 -0.10185898561E+03  0.11720404644E+03  0.47000000000E+01 0. -1.
        -11    1    1    2    0    0  0.36422160708E+02 -0.17213264205E+02 -0.28558745111E+01  0.40385966306E+02  0.00000000000E+00 0.  1.
         11    1    1    2    0    0 -0.22989069246E+02  0.45118852964E+01 -0.91723455908E+02  0.94668087429E+02  0.00000000000E+00 0. -1.
<mgrwt>
<rscale>  0 0.11809582E+03</rscale>
<asrwt>0</asrwt>
<pdfrwt beam="2">  1        1 0.37025069E-01 0.12635998E+03</pdfrwt>
<pdfrwt beam="1">  1       -1 0.79932788E-02 0.12635998E+03</pdfrwt>
<totfact> 0.93906268E+03</totfact>
</mgrwt>
</event>
<event>
 7    1  0.6095443E-006  0.1365115E+03  0.7546771E-02  0.1229680E+00
         -1   -1    0    0    0  501 -0.00000000000E+00  0.00000000000E+00  0.79145280207E+02  0.79145280207E+02  0.00000000000E+00 0.  1.
          1   -1    0    0  501    0  0.00000000000E+00 -0.00000000000E+00 -0.23896605578E+03  0.23896605578E+03  0.00000000000E+00 0. -1.
         23    2    1    2    0    0 -0.42011779871E+02 -0.35948609935E+02 -0.14159101163E+02  0.13724385216E+03  0.12481226945E+03 0.  0.
          5    1    3    3  502    0  0.38776504678E+02 -0.39168171317E+02 -0.20428652259E+01  0.55353647194E+02  0.47000000000E+01 0. -1.
         -5    1    3    3    0  502 -0.80788284549E+02  0.32195613823E+01 -0.12116235937E+02  0.81890204964E+02  0.47000000000E+01 0. -1.
        -11    1    1    2    0    0  0.70640754560E+02  0.16596711166E+02 -0.95012133915E+02  0.11955280263E+03  0.00000000000E+00 0.  1.
         11    1    1    2    0    0 -0.28628974689E+02  0.19351898769E+02 -0.50649540500E+02  0.61314681200E+02  0.00000000000E+00 0. -1.
<mgrwt>
<rscale>  0 0.12851210E+03</rscale>
<asrwt>0</asrwt>
<pdfrwt beam="2">  1        1 0.36764008E-01 0.13651152E+03</pdfrwt>
<pdfrwt beam="1">  1       -1 0.12176197E-01 0.13651152E+03</pdfrwt>
<totfact> 0.50140808E+03</totfact>
</mgrwt>
</event>
<event>
 7    1  0.6095443E-006  0.1280706E+03  0.7546771E-02  0.1244985E+00
          4   -1    0    0  501    0  0.00000000000E+00  0.00000000000E+00  0.18567679943E+03  0.18567679943E+03  0.00000000000E+00 0.  1.
         -4   -1    0    0    0  501 -0.00000000000E+00 -0.00000000000E+00 -0.70949654905E+02  0.70949654905E+02  0.00000000000E+00 0. -1.
         23    2    1    2    0    0  0.24215646952E+02  0.13778235324E+02  0.35480792183E+02  0.13289459620E+03  0.12500339899E+03 0.  0.
          5    1    3    3  502    0  0.26974476120E+02 -0.46370116280E+02 -0.13058917409E+02  0.55411509361E+02  0.47000000000E+01 0.  1.
         -5    1    3    3    0  502 -0.27588291684E+01  0.60148351604E+02  0.48539709592E+02  0.77483086840E+02  0.47000000000E+01 0.  1.
        -11    1    1    2    0    0 -0.38482622611E+02 -0.45836591224E+02  0.52470609589E+02  0.79593154283E+02  0.00000000000E+00 0.  1.
         11    1    1    2    0    0  0.14266975659E+02  0.32058355901E+02  0.26775742749E+02  0.44138703847E+02  0.00000000000E+00 0. -1.
<mgrwt>
<rscale>  0 0.11886272E+03</rscale>
<asrwt>0</asrwt>
<pdfrwt beam="1">  1        4 0.28565661E-01 0.12807063E+03</pdfrwt>
<pdfrwt beam="2">  1       -4 0.10915332E-01 0.12807063E+03</pdfrwt>
<totfact> 0.12416346E+03</totfact>
</mgrwt>
</event>
<event>
 7    1  0.6095443E-006  0.1469783E+03  0.7546771E-02  0.1214229E+00
          2   -1    0    0  501    0  0.00000000000E+00  0.00000000000E+00  0.53638295860E+03  0.53638295860E+03  0.00000000000E+00 0. -1.
         -2   -1    0    0    0  501 -0.00000000000E+00 -0.00000000000E+00 -0.50858816993E+02  0.50858816993E+02  0.00000000000E+00 0.  1.
         23    2    1    2    0    0 -0.15008675907E+02  0.75824974853E+02  0.85631862315E+02  0.17010416733E+03  0.12501169839E+03 0.  0.
          5    1    3    3  502    0 -0.28955595651E+02 -0.89279138266E+01  0.77922029353E+02  0.83738084665E+02  0.47000000000E+01 0.  1.
         -5    1    3    3    0  502  0.13946919744E+02  0.84752888680E+02  0.77098329620E+01  0.86366082661E+02  0.47000000000E+01 0.  1.
        -11    1    1    2    0    0  0.47073749768E+02 -0.54303210463E+02  0.32527153807E+03  0.33311612099E+03  0.00000000000E+00 0. -1.
         11    1    1    2    0    0 -0.32065073860E+02 -0.21521764390E+02  0.74620741225E+02  0.84021487282E+02  0.00000000000E+00 0.  1.
<mgrwt>
<rscale>  0 0.13933285E+03</rscale>
<asrwt>0</asrwt>
<pdfrwt beam="1">  1        2 0.82520451E-01 0.14697827E+03</pdfrwt>
<pdfrwt beam="2">  1       -2 0.78244338E-02 0.14697827E+03</pdfrwt>
<totfact> 0.54445114E+03</totfact>
</mgrwt>
</event>
<event>
 7    1  0.6095443E-006  0.1338061E+03  0.7546771E-02  0.1236040E+00
         -3   -1    0    0    0  501 -0.00000000000E+00  0.00000000000E+00  0.19366719242E+03  0.19366719242E+03  0.00000000000E+00 0.  1.
          3   -1    0    0  501    0  0.00000000000E+00 -0.00000000000E+00 -0.12385462428E+03  0.12385462428E+03  0.00000000000E+00 0. -1.
         23    2    1    2    0    0 -0.38587584076E+02 -0.28088826148E+02  0.14135575755E+03  0.19464206958E+03  0.12500440496E+03 0.  0.
          5    1    3    3  502    0 -0.38515296386E+02 -0.65906302408E+02  0.39893506482E+02  0.86259205956E+02  0.47000000000E+01 0.  1.
         -5    1    3    3    0  502 -0.72287690129E-01  0.37817476260E+02  0.10146225107E+03  0.10838286362E+03  0.47000000000E+01 0.  1.
        -11    1    1    2    0    0 -0.19144928869E+02  0.27444697258E+02 -0.52171118234E+02  0.61980362106E+02  0.00000000000E+00 0. -1.
         11    1    1    2    0    0  0.57732512945E+02  0.64412888954E+00 -0.19372071175E+02  0.60899385010E+02  0.00000000000E+00 0.  1.
<mgrwt>
<rscale>  0 0.12438094E+03</rscale>
<asrwt>0</asrwt>
<pdfrwt beam="2">  1        3 0.19054558E-01 0.13380615E+03</pdfrwt>
<pdfrwt beam="1">  1       -3 0.29794953E-01 0.13380615E+03</pdfrwt>
<totfact> 0.61436971E+02</totfact>
</mgrwt>
</event>
<event>
 7    1  0.6095443E-006  0.1259564E+03  0.7546771E-02  0.1248011E+00
         -1   -1    0    0    0  501 -0.00000000000E+00  0.00000000000E+00  0.72896041656E+02  0.72896041656E+02  0.00000000000E+00 0.  1.
          1   -1    0    0  501    0  0.00000000000E+00 -0.00000000000E+00 -0.16828963397E+03  0.16828963397E+03  0.00000000000E+00 0. -1.
         23    2    1    2    0    0  0.14151149105E+02  0.63251334597E+01 -0.40372749647E+02  0.13226854106E+03  0.12499898282E+03 0.  0.
          5    1    3    3  502    0 -0.50760336667E+02  0.26633815605E+02 -0.22746748251E+02  0.61850436282E+02  0.47000000000E+01 0.  1.
         -5    1    3    3    0  502  0.64911485772E+02 -0.20308682145E+02 -0.17626001396E+02  0.70418104780E+02  0.47000000000E+01 0.  1.
        -11    1    1    2    0    0 -0.44947471168E+02 -0.11508777504E+02 -0.86916228305E+00  0.46405630769E+02  0.00000000000E+00 0.  1.
         11    1    1    2    0    0  0.30796322063E+02  0.51836440444E+01 -0.54151680383E+02  0.62511503794E+02  0.00000000000E+00 0. -1.
<mgrwt>
<rscale>  0 0.11706981E+03</rscale>
<asrwt>0</asrwt>
<pdfrwt beam="2">  1        1 0.25890713E-01 0.12595637E+03</pdfrwt>
<pdfrwt beam="1">  1       -1 0.11214776E-01 0.12595637E+03</pdfrwt>
<totfact> 0.87479285E+03</totfact>
</mgrwt>
</event>
<event>
 6    1  0.6095443E-006  0.1538554E+03  0.7546771E-02  0.1209374E+00
          2   -1    0    0  501    0  0.00000000000E+00  0.00000000000E+00  0.20447015170E+03  0.20447015170E+03  0.00000000000E+00 0. -1.
         -2   -1    0    0    0  501 -0.00000000000E+00 -0.00000000000E+00 -0.88968685961E+02  0.88968685961E+02  0.00000000000E+00 0.  1.
          5    1    1    2  502    0  0.78240035733E+02  0.13222155164E+02  0.55809019525E+02  0.97123968406E+02  0.47000000000E+01 0. -1.
         -5    1    1    2    0  502 -0.26268051089E+02 -0.59763222145E+02 -0.30624406849E+01  0.65521918258E+02  0.47000000000E+01 0.  1.
        -11    1    1    2    0    0 -0.46860059661E+02 -0.17356933428E+02  0.20475800484E+02  0.54003580760E+02  0.00000000000E+00 0.  1.
         11    1    1    2    0    0 -0.51119249836E+01  0.63898000409E+02  0.42279086416E+02  0.76789370238E+02  0.00000000000E+00 0. -1.
<mgrwt>
<rscale>  0 0.14298059E+03</rscale>
<asrwt>0</asrwt>
<pdfrwt beam="1">  1        2 0.31456946E-01 0.15385540E+03</pdfrwt>
<pdfrwt beam="2">  1       -2 0.13687490E-01 0.15385540E+03</pdfrwt>
<totfact> 0.63618109E+03</totfact>
</mgrwt>
</event>
<event>
 7    1  0.6095443E-006  0.1368274E+03  0.7546771E-02  0.1229456E+00
          2   -1    0    0  501    0  0.00000000000E+00  0.00000000000E+00  0.26877336993E+03  0.26877336993E+03  0.00000000000E+00 0.  1.
         -2   -1    0    0    0  501 -0.00000000000E+00 -0.00000000000E+00 -0.55859704326E+02  0.55859704326E+02  0.00000000000E+00 0. -1.
         23    2    1    2    0    0 -0.36276416933E+02  0.42185520035E+02  0.10304034282E+03  0.17128643855E+03  0.12500454094E+03 0.  0.
          5    1    3    3  502    0 -0.33439513069E+02  0.33588110743E+02  0.13213426464E+03  0.14045610029E+03  0.47000000000E+01 0.  1.
         -5    1    3    3    0  502 -0.28369038645E+01  0.85974092927E+01 -0.29093921819E+02  0.30830338255E+02  0.47000000000E+01 0.  1.
        -11    1    1    2    0    0  0.62710792612E+02 -0.76319841720E+01  0.59433207053E+02  0.86736363730E+02  0.00000000000E+00 0.  1.
         11    1    1    2    0    0 -0.26434375678E+02 -0.34553535863E+02  0.50440115732E+02  0.66610271980E+02  0.00000000000E+00 0. -1.
<mgrwt>
<rscale>  0 0.12866116E+03</rscale>
<asrwt>0</asrwt>
<pdfrwt beam="1">  1        2 0.41349749E-01 0.13682738E+03</pdfrwt>
<pdfrwt beam="2">  1       -2 0.85938008E-02 0.13682738E+03</pdfrwt>
<totfact> 0.98472051E+03</totfact>
</mgrwt>
</event>
<event>
 7    1  0.6095443E-006  0.1546320E+03  0.7546771E-02  0.1203287E+00
          1   -1    0    0  501    0  0.00000000000E+00  0.00000000000E+00  0.54775975522E+03  0.54775975522E+03  0.00000000000E+00 0. -1.
         -1   -1    0    0    0  501 -0.00000000000E+00 -0.00000000000E+00 -0.37498794455E+02  0.37498794455E+02  0.00000000000E+00 0.  1.
         23    2    1    2    0    0  0.47530205758E+02  0.77626058740E+02  0.23456304112E+03  0.28094636878E+03  0.12500446558E+03 0.  0.
          5    1    3    3  502    0  0.39811296708E+00 -0.67911870705E+01 -0.12845102278E+02  0.15276300871E+02  0.47000000000E+01 0.  1.
         -5    1    3    3    0  502  0.47132092791E+02  0.84417245810E+02  0.24740814340E+03  0.26567006791E+03  0.47000000000E+01 0.  1.
        -11    1    1    2    0    0  0.23512408494E+02 -0.95716538022E+01  0.28012157602E+02  0.37803847466E+02  0.00000000000E+00 0. -1.
         11    1    1    2    0    0 -0.71042614252E+02 -0.68054404937E+02  0.24768576204E+03  0.26650833343E+03  0.00000000000E+00 0.  1.
<mgrwt>
<rscale>  0 0.14773272E+03</rscale>
<asrwt>0</asrwt>
<pdfrwt beam="1">  1        1 0.84270726E-01 0.15463196E+03</pdfrwt>
<pdfrwt beam="2">  1       -1 0.57690457E-02 0.15463196E+03</pdfrwt>
<totfact> 0.54914716E+03</totfact>
</mgrwt>
</event>
<event>
 7    1  0.6095443E-006  0.1368118E+03  0.7546771E-02  0.1229547E+00
         -4   -1    0    0    0  501 -0.00000000000E+00  0.00000000000E+00  0.12608381916E+02  0.12608381916E+02  0.00000000000E+00 0.  1.
          4   -1    0    0  501    0  0.00000000000E+00 -0.00000000000E+00 -0.11778914009E+04  0.11778914009E+04  0.00000000000E+00 0. -1.
         23    2    1    2    0    0  0.29364044943E+02  0.47225054577E+02 -0.63637239959E+03  0.65091267308E+03  0.12500009642E+03 0.  0.
          5    1    3    3  502    0 -0.23769591940E+02  0.51990666583E+02 -0.13489271137E+03  0.14658156942E+03  0.47000000000E+01 0. -1.
         -5    1    3    3    0  502  0.53133636883E+02 -0.47656120059E+01 -0.50147968822E+03  0.50433110366E+03  0.47000000000E+01 0. -1.
        -11    1    1    2    0    0 -0.59157152600E+02 -0.47427844744E+02 -0.41341414816E+03  0.42030967995E+03  0.00000000000E+00 0.  1.
         11    1    1    2    0    0  0.29793107657E+02  0.20279016697E+00 -0.11549647118E+03  0.11927742973E+03  0.00000000000E+00 0. -1.
<mgrwt>
<rscale>  0 0.12860060E+03</rscale>
<asrwt>0</asrwt>
<pdfrwt beam="2">  1        4 0.18121411E+00 0.13681183E+03</pdfrwt>
<pdfrwt beam="1">  1       -4 0.19397506E-02 0.13681183E+03</pdfrwt>
<totfact> 0.34361224E+02</totfact>
</mgrwt>
</event>
<event>
 7    1  0.6095443E-006  0.1366163E+03  0.7546771E-02  0.1231048E+00
          2   -1    0    0  501    0  0.00000000000E+00  0.00000000000E+00  0.63026624333E+03  0.63026624333E+03  0.00000000000E+00 0. -1.
         -2   -1    0    0    0  501 -0.00000000000E+00 -0.00000000000E+00 -0.23868959028E+02  0.23868959028E+02  0.00000000000E+00 0.  1.
         23    2    1    2    0    0  0.14533786858E+01 -0.55217977172E+02  0.27962965231E+03  0.31121817386E+03  0.12495147849E+03 0.  0.
          5    1    3    3  502    0  0.16660401470E+02 -0.10208395857E+02  0.25804169532E+03  0.25882308020E+03  0.47000000000E+01 0.  1.
         -5    1    3    3    0  502 -0.15207022784E+02 -0.45009581315E+02  0.21587956993E+02  0.52395093656E+02  0.47000000000E+01 0.  1.
        -11    1    1    2    0    0  0.15231837433E+02 -0.20987216380E+02  0.86330845987E+02  0.90141483745E+02  0.00000000000E+00 0. -1.
         11    1    1    2    0    0 -0.16685216119E+02  0.76205193552E+02  0.24043678600E+03  0.25277554475E+03  0.00000000000E+00 0.  1.
<mgrwt>
<rscale>  0 0.12760867E+03</rscale>
<asrwt>0</asrwt>
<pdfrwt beam="1">  1        2 0.96964025E-01 0.13661628E+03</pdfrwt>
<pdfrwt beam="2">  1       -2 0.36721480E-02 0.13661628E+03</pdfrwt>
<totfact> 0.14150440E+04</totfact>
</mgrwt>
</event>
<event>
 7    1  0.6095443E-006  0.1472191E+03  0.7546771E-02  0.1213904E+00
          2   -1    0    0  501    0  0.00000000000E+00  0.00000000000E+00  0.43564916261E+03  0.43564916261E+03  0.00000000000E+00 0.  1.
         -2   -1    0    0    0  501 -0.00000000000E+00 -0.00000000000E+00 -0.41043999002E+02  0.41043999002E+02  0.00000000000E+00 0. -1.
         23    2    1    2    0    0 -0.63103117822E+02  0.45558510333E+02  0.24125143763E+03  0.28262292987E+03  0.12496352663E+03 0.  0.
          5    1    3    3  502    0  0.25450850899E+02  0.15039770477E+02  0.76453103061E+01  0.30894680402E+02  0.47000000000E+01 0. -1.
         -5    1    3    3    0  502 -0.88553968720E+02  0.30518739856E+02  0.23360612732E+03  0.25172824947E+03  0.47000000000E+01 0. -1.
        -11    1    1    2    0    0  0.28146076189E+02 -0.40615958993E+02  0.15078100524E+03  0.15867189188E+03  0.00000000000E+00 0.  1.
         11    1    1    2    0    0  0.34957041633E+02 -0.49425513400E+01  0.25727207424E+01  0.35398339869E+02  0.00000000000E+00 0. -1.
<mgrwt>
<rscale>  0 0.13957316E+03</rscale>
<asrwt>0</asrwt>
<pdfrwt beam="1">  1        2 0.67022945E-01 0.14721910E+03</pdfrwt>
<pdfrwt beam="2">  1       -2 0.63144617E-02 0.14721910E+03</pdfrwt>
<totfact> 0.95038994E+03</totfact>
</mgrwt>
</event>
<event>
 7    1  0.6095443E-006  0.1324030E+03  0.7546771E-02  0.1236930E+00
         -2   -1    0    0    0  501 -0.00000000000E+00  0.00000000000E+00  0.18251530299E+02  0.18251530299E+02  0.00000000000E+00 0. -1.
          2   -1    0    0  501    0  0.00000000000E+00 -0.00000000000E+00 -0.75162581834E+03  0.75162581834E+03  0.00000000000E+00 0.  1.
         23    2    1    2    0    0  0.34784192559E+02  0.26371404679E+02 -0.38822880619E+03  0.41018552461E+03  0.12500067041E+03 0.  0.
          5    1    3    3  502    0  0.35569064169E+02  0.47044018565E+02 -0.71752554521E+02  0.92999016602E+02  0.47000000000E+01 0.  1.
         -5    1    3    3    0  502 -0.78487161017E+00 -0.20672613887E+02 -0.31647625167E+03  0.31718650801E+03  0.47000000000E+01 0.  1.
        -11    1    1    2    0    0 -0.65803267929E+02 -0.21511003420E+02 -0.25521018790E+03  0.26443341949E+03  0.00000000000E+00 0.  1.
         11    1    1    2    0    0  0.31019075370E+02 -0.48604012582E+01 -0.89935293946E+02  0.95258404534E+02  0.00000000000E+00 0. -1.
<mgrwt>
<rscale>  0 0.12381656E+03</rscale>
<asrwt>0</asrwt>
<pdfrwt beam="2">  1        2 0.11563472E+00 0.13240302E+03</pdfrwt>
<pdfrwt beam="1">  1       -2 0.28079283E-02 0.13240302E+03</pdfrwt>
<totfact> 0.17024214E+04</totfact>
</mgrwt>
</event>
<event>
 7    1  0.6095443E-006  0.1275638E+03  0.7546771E-02  0.1245705E+00
          4   -1    0    0  501    0  0.00000000000E+00  0.00000000000E+00  0.93087899143E+02  0.93087899143E+02  0.00000000000E+00 0. -1.
         -4   -1    0    0    0  501 -0.00000000000E+00 -0.00000000000E+00 -0.15713694540E+03  0.15713694540E+03  0.00000000000E+00 0.  1.
         23    2    1    2    0    0 -0.37045235216E+00  0.25519628797E+02 -0.84830692424E+02  0.15319516845E+03  0.12498449732E+03 0.  0.
          5    1    3    3  502    0 -0.72808398421E+01  0.23818760473E+02  0.29302569378E+02  0.38743703377E+02  0.47000000000E+01 0.  1.
         -5    1    3    3    0  502  0.69103874899E+01  0.17008683244E+01 -0.11413326180E+03  0.11445146508E+03  0.47000000000E+01 0.  1.
        -11    1    1    2    0    0 -0.23068814790E+02 -0.53449830029E+02  0.14944233829E+02  0.60103116979E+02  0.00000000000E+00 0. -1.
         11    1    1    2    0    0  0.23439267143E+02  0.27930201231E+02  0.58374123387E+01  0.36926559111E+02  0.00000000000E+00 0.  1.
<mgrwt>
<rscale>  0 0.11843292E+03</rscale>
<asrwt>0</asrwt>
<pdfrwt beam="1">  1        4 0.14321215E-01 0.12756376E+03</pdfrwt>
<pdfrwt beam="2">  1       -4 0.24174915E-01 0.12756376E+03</pdfrwt>
<totfact> 0.10613171E+03</totfact>
</mgrwt>
</event>
<event>
 7    1  0.6095443E-006  0.1271393E+03  0.7546771E-02  0.1246723E+00
         -2   -1    0    0    0  501 -0.00000000000E+00  0.00000000000E+00  0.22651893524E+02  0.22651893524E+02  0.00000000000E+00 0.  1.
          2   -1    0    0  501    0  0.00000000000E+00 -0.00000000000E+00 -0.53870491560E+03  0.53870491560E+03  0.00000000000E+00 0. -1.
         23    2    1    2    0    0  0.20967147688E+02  0.10200479649E+02 -0.29648132980E+03  0.32259196558E+03  0.12498290390E+03 0.  0.
          5    1    3    3  502    0  0.27980757368E+01  0.81642767706E+01  0.10874452381E+02  0.14657024173E+02  0.47000000000E+01 0.  1.
         -5    1    3    3    0  502  0.18169071951E+02  0.20362028787E+01 -0.30735578218E+03  0.30793494140E+03  0.47000000000E+01 0.  1.
        -11    1    1    2    0    0 -0.56796656826E+02 -0.11631122723E+01 -0.13605187559E+03  0.14743583658E+03  0.00000000000E+00 0. -1.
         11    1    1    2    0    0  0.35829509138E+02 -0.90373673770E+01 -0.83519816689E+02  0.91329006969E+02  0.00000000000E+00 0.  1.
<mgrwt>
<rscale>  0 0.11782872E+03</rscale>
<asrwt>0</asrwt>
<pdfrwt beam="2">  1        2 0.82877668E-01 0.12713928E+03</pdfrwt>
<pdfrwt beam="1">  1       -2 0.34849072E-02 0.12713928E+03</pdfrwt>
<totfact> 0.18150077E+04</totfact>
</mgrwt>
</event>
<event>
 7    1  0.6095443E-006  0.1265483E+03  0.7546771E-02  0.1248168E+00
          2   -1    0    0  501    0  0.00000000000E+00  0.00000000000E+00  0.29898798973E+03  0.29898798973E+03  0.00000000000E+00 0. -1.
         -2   -1    0    0    0  501 -0.00000000000E+00 -0.00000000000E+00 -0.54846812981E+02  0.54846812981E+02  0.00000000000E+00 0.  1.
         23    2    1    2    0    0 -0.41129958356E+01 -0.19335489064E+02  0.45013119431E+02  0.13431545759E+03  0.12499473331E+03 0.  0.
          5    1    3    3  502    0 -0.55940145141E+02  0.16704976835E+02  0.39772461153E+02  0.70797561792E+02  0.47000000000E+01 0. -1.
         -5    1    3    3    0  502  0.51827149306E+02 -0.36040465899E+02  0.52406582780E+01  0.63517895798E+02  0.47000000000E+01 0. -1.
        -11    1    1    2    0    0  0.12877092901E+02 -0.22767465907E+02  0.15753187740E+03  0.15968866404E+03  0.00000000000E+00 0. -1.
         11    1    1    2    0    0 -0.87640970655E+01  0.42102954971E+02  0.41596179910E+02  0.59830681073E+02  0.00000000000E+00 0.  1.
<mgrwt>
<rscale>  0 0.11697788E+03</rscale>
<asrwt>0</asrwt>
<pdfrwt beam="1">  1        2 0.45998151E-01 0.12654826E+03</pdfrwt>
<pdfrwt beam="2">  1       -2 0.84379714E-02 0.12654826E+03</pdfrwt>
<totfact> 0.89972713E+03</totfact>
</mgrwt>
</event>
<event>
 7    1  0.6095443E-006  0.1244569E+03  0.7546771E-02  0.1243643E+00
         -2   -1    0    0    0  501 -0.00000000000E+00  0.00000000000E+00  0.19040566247E+02  0.19040566247E+02  0.00000000000E+00 0.  1.
          2   -1    0    0  501    0  0.00000000000E+00 -0.00000000000E+00 -0.70593294885E+03  0.70593294885E+03  0.00000000000E+00 0. -1.
         23    2    1    2    0    0  0.17979582426E+02  0.54121506361E+02 -0.33602010263E+03  0.35832808698E+03  0.11062145232E+03 0.  0.
          5    1    3    3  502    0 -0.15959284437E+02 -0.28471821305E+02 -0.12202934018E+03  0.12640646041E+03  0.47000000000E+01 0. -1.
         -5    1    3    3    0  502  0.33938866863E+02  0.82593327666E+02 -0.21399076245E+03  0.23192162657E+03  0.47000000000E+01 0.  1.
        -11    1    1    2    0    0  0.29771006668E+02 -0.11395388575E+02 -0.52091350580E+02  0.61071077639E+02  0.00000000000E+00 0.  1.
         11    1    1    2    0    0 -0.47750589094E+02 -0.42726117786E+02 -0.29878092939E+03  0.30557435048E+03  0.00000000000E+00 0. -1.
<mgrwt>
<rscale>  0 0.11966937E+03</rscale>
<asrwt>0</asrwt>
<pdfrwt beam="2">  1        2 0.10860507E+00 0.12445685E+03</pdfrwt>
<pdfrwt beam="1">  1       -2 0.29293180E-02 0.12445685E+03</pdfrwt>
<totfact> 0.17167385E+04</totfact>
</mgrwt>
</event>
<event>
 7    1  0.6095443E-006  0.1444309E+03  0.7546771E-02  0.1217724E+00
          1   -1    0    0  501    0  0.00000000000E+00  0.00000000000E+00  0.37670188385E+03  0.37670188385E+03  0.00000000000E+00 0. -1.
         -1   -1    0    0    0  501 -0.00000000000E+00 -0.00000000000E+00 -0.58862003554E+02  0.58862003554E+02  0.00000000000E+00 0.  1.
         23    2    1    2    0    0  0.71540451871E+02  0.10883517273E+02  0.67189347204E+02  0.15929438952E+03  0.12499522772E+03 0.  0.
          5    1    3    3  502    0 -0.10308906943E+01 -0.48986921356E+01 -0.33440358381E+02  0.34138065103E+02  0.47000000000E+01 0. -1.
         -5    1    3    3    0  502  0.72571342566E+02  0.15782209409E+02  0.10062970559E+03  0.12515632442E+03  0.47000000000E+01 0. -1.
        -11    1    1    2    0    0 -0.30734434196E+02  0.56880766277E+01  0.11827401581E+02  0.33419262248E+02  0.00000000000E+00 0.  1.
         11    1    1    2    0    0 -0.40806017675E+02 -0.16571593901E+02  0.23882313151E+03  0.24285023564E+03  0.00000000000E+00 0. -1.
<mgrwt>
<rscale>  0 0.13678342E+03</rscale>
<asrwt>0</asrwt>
<pdfrwt beam="1">  1        1 0.57954135E-01 0.14443093E+03</pdfrwt>
<pdfrwt beam="2">  1       -1 0.90556931E-02 0.14443093E+03</pdfrwt>
<totfact> 0.44983613E+03</totfact>
</mgrwt>
</event>
<event>
 7    1  0.6095443E-006  0.1372216E+03  0.7546771E-02  0.1228319E+00
         -2   -1    0    0    0  501 -0.00000000000E+00  0.00000000000E+00  0.10183405931E+03  0.10183405931E+03  0.00000000000E+00 0.  1.
          2   -1    0    0  501    0  0.00000000000E+00 -0.00000000000E+00 -0.17783065364E+03  0.17783065364E+03  0.00000000000E+00 0. -1.
         23    2    1    2    0    0 -0.50099376212E+02 -0.26457697069E+02  0.14945907880E+02  0.13803317653E+03  0.12497928000E+03 0.  0.
          5    1    3    3  502    0  0.12352848201E+02 -0.55187912029E+02 -0.20760668731E+02  0.60426764426E+02  0.47000000000E+01 0.  1.
         -5    1    3    3    0  502 -0.62452224412E+02  0.28730214961E+02  0.35706576612E+02  0.77606412100E+02  0.47000000000E+01 0.  1.
        -11    1    1    2    0    0 -0.15017119169E+02  0.19913273800E+02 -0.67756624398E+02  0.72201194528E+02  0.00000000000E+00 0. -1.
         11    1    1    2    0    0  0.65116495381E+02  0.65444232688E+01 -0.23185877808E+02  0.69430341900E+02  0.00000000000E+00 0.  1.
<mgrwt>
<rscale>  0 0.12941999E+03</rscale>
<asrwt>0</asrwt>
<pdfrwt beam="2">  1        2 0.27358562E-01 0.13722164E+03</pdfrwt>
<pdfrwt beam="1">  1       -2 0.15666779E-01 0.13722164E+03</pdfrwt>
<totfact> 0.58959628E+03</totfact>
</mgrwt>
</event>
<event>
 7    1  0.6095443E-006  0.3585062E+03  0.7546771E-02  0.1060394E+00
          1   -1    0    0  501    0  0.00000000000E+00  0.00000000000E+00  0.18572623180E+03  0.18572623180E+03  0.00000000000E+00 0. -1.
         -1   -1    0    0    0  501 -0.00000000000E+00 -0.00000000000E+00 -0.81258979307E+03  0.81258979307E+03  0.00000000000E+00 0.  1.
         23    2    1    2    0    0  0.33023495856E+03 -0.61968128808E+02 -0.52759868692E+03  0.63787698446E+03  0.12502598139E+03 0.  0.
          5    1    3    3  502    0  0.92246860036E+02 -0.53226397694E+02 -0.25192244832E+03  0.27354989045E+03  0.47000000000E+01 0. -1.
         -5    1    3    3    0  502  0.23798809853E+03 -0.87417311140E+01 -0.27567623860E+03  0.36432709401E+03  0.47000000000E+01 0. -1.
        -11    1    1    2    0    0 -0.98061760996E+02  0.40624099376E+02 -0.65834285153E+02  0.12490227989E+03  0.00000000000E+00 0.  1.
         11    1    1    2    0    0 -0.23217319757E+03  0.21344029432E+02 -0.33430589195E+02  0.23553676052E+03  0.00000000000E+00 0. -1.
<mgrwt>
<rscale>  0 0.35546638E+03</rscale>
<asrwt>0</asrwt>
<pdfrwt beam="1">  1        1 0.28573267E-01 0.35850617E+03</pdfrwt>
<pdfrwt beam="2">  1       -1 0.12501381E+00 0.35850617E+03</pdfrwt>
<totfact> 0.96181999E+01</totfact>
</mgrwt>
</event>
<event>
 7    1  0.6095443E-006  0.1781955E+03  0.7546771E-02  0.1175513E+00
          2   -1    0    0  501    0  0.00000000000E+00  0.00000000000E+00  0.73418159060E+02  0.73418159060E+02  0.00000000000E+00 0. -1.
         -2   -1    0    0    0  501 -0.00000000000E+00 -0.00000000000E+00 -0.51905777987E+03  0.51905777987E+03  0.00000000000E+00 0.  1.
         23    2    1    2    0    0 -0.11870479180E+03  0.43703760728E+02 -0.38723842321E+03  0.42627130678E+03  0.12551009629E+03 0.  0.
          5    1    3    3  502    0 -0.81462161076E+02  0.68311977117E+02 -0.14472197326E+03  0.17963615853E+03  0.47000000000E+01 0.  1.
         -5    1    3    3    0  502 -0.37242630726E+02 -0.24608216389E+02 -0.24251644995E+03  0.24663514825E+03  0.47000000000E+01 0.  1.
        -11    1    1    2    0    0  0.42002033552E+02 -0.38843491265E+02  0.15823325733E+02  0.59357941957E+02  0.00000000000E+00 0. -1.
         11    1    1    2    0    0  0.76702758251E+02 -0.48602694638E+01 -0.74224523337E+02  0.10684669020E+03  0.00000000000E+00 0.  1.
<mgrwt>
<rscale>  0 0.17225793E+03</rscale>
<asrwt>0</asrwt>
<pdfrwt beam="1">  1        2 0.11295102E-01 0.17819548E+03</pdfrwt>
<pdfrwt beam="2">  1       -2 0.79855041E-01 0.17819548E+03</pdfrwt>
<totfact> 0.77894193E+02</totfact>
</mgrwt>
</event>
<event>
 7    1  0.6095443E-006  0.2130262E+03  0.7546771E-02  0.1142953E+00
         -3   -1    0    0    0  501 -0.00000000000E+00  0.00000000000E+00  0.16566021546E+03  0.16566021546E+03  0.00000000000E+00 0.  1.
          3   -1    0    0  501    0  0.00000000000E+00 -0.00000000000E+00 -0.35969499037E+03  0.35969499037E+03  0.00000000000E+00 0. -1.
         23    2    1    2    0    0 -0.75364849236E+01  0.17232852933E+03  0.44394908123E+02  0.21760297164E+03  0.12500489901E+03 0.  0.
          5    1    3    3  502    0 -0.35965002292E+02  0.62534662552E+02 -0.33760782519E+02  0.79786877660E+02  0.47000000000E+01 0. -1.
         -5    1    3    3    0  502  0.28428517368E+02  0.10979386678E+03  0.78155690642E+02  0.13781609398E+03  0.47000000000E+01 0. -1.
        -11    1    1    2    0    0 -0.16587827745E+02 -0.85558482067E+02 -0.54047076229E+02  0.10254996993E+03  0.00000000000E+00 0.  1.
         11    1    1    2    0    0  0.24124312669E+02 -0.86770047261E+02 -0.18438260680E+03  0.20520226425E+03  0.00000000000E+00 0. -1.
<mgrwt>
<rscale>  0 0.20825776E+03</rscale>
<asrwt>0</asrwt>
<pdfrwt beam="2">  1        3 0.55337691E-01 0.21302616E+03</pdfrwt>
<pdfrwt beam="1">  1       -3 0.25486187E-01 0.21302616E+03</pdfrwt>
<totfact> 0.11592655E+02</totfact>
</mgrwt>
</event>
<event>
 7    1  0.6095443E-006  0.1435675E+03  0.7546771E-02  0.1218441E+00
         -2   -1    0    0    0  501 -0.00000000000E+00  0.00000000000E+00  0.94819626884E+02  0.94819626884E+02  0.00000000000E+00 0.  1.
          2   -1    0    0  501    0  0.00000000000E+00 -0.00000000000E+00 -0.20251282995E+03  0.20251282995E+03  0.00000000000E+00 0. -1.
         23    2    1    2    0    0 -0.29762976986E+02  0.64036803694E+02 -0.76772368205E+01  0.14377260537E+03  0.12500030025E+03 0.  0.
          5    1    3    3  502    0  0.68985624550E+00  0.49531472147E+02 -0.62097584134E+02  0.79574132669E+02  0.47000000000E+01 0.  1.
         -5    1    3    3    0  502 -0.30452833232E+02  0.14505331547E+02  0.54420347314E+02  0.64198472699E+02  0.47000000000E+01 0.  1.
        -11    1    1    2    0    0  0.50758382337E+02 -0.53383991671E+02 -0.10617321231E+03  0.12922466853E+03  0.00000000000E+00 0. -1.
         11    1    1    2    0    0 -0.20995405350E+02 -0.10652812023E+02  0.61572460586E+01  0.24335182943E+02  0.00000000000E+00 0.  1.
<mgrwt>
<rscale>  0 0.13626812E+03</rscale>
<asrwt>0</asrwt>
<pdfrwt beam="2">  1        2 0.31155819E-01 0.14356748E+03</pdfrwt>
<pdfrwt beam="1">  1       -2 0.14587635E-01 0.14356748E+03</pdfrwt>
<totfact> 0.57701214E+03</totfact>
</mgrwt>
</event>
<event>
 7    1  0.6095443E-006  0.1279649E+03  0.7546771E-02  0.1244841E+00
         -2   -1    0    0    0  501 -0.00000000000E+00  0.00000000000E+00  0.15308467810E+03  0.15308467810E+03  0.00000000000E+00 0.  1.
          2   -1    0    0  501    0  0.00000000000E+00 -0.00000000000E+00 -0.93240796136E+02  0.93240796136E+02  0.00000000000E+00 0. -1.
         23    2    1    2    0    0  0.25981064533E+02  0.85002474640E+01  0.76876377539E+02  0.14928160044E+03  0.12501099505E+03 0.  0.
          5    1    3    3  502    0 -0.37911334840E+01 -0.52945709889E+02  0.56962888599E+02  0.78003086903E+02  0.47000000000E+01 0. -1.
         -5    1    3    3    0  502  0.29772198017E+02  0.61445957353E+02  0.19913488940E+02  0.71278513534E+02  0.47000000000E+01 0. -1.
        -11    1    1    2    0    0  0.15999957281E+02 -0.38559242091E+02  0.25438862254E+01  0.41824456252E+02  0.00000000000E+00 0.  1.
         11    1    1    2    0    0 -0.41981021814E+02  0.30058994627E+02 -0.19576381796E+02  0.55219417552E+02  0.00000000000E+00 0. -1.
<mgrwt>
<rscale>  0 0.11894922E+03</rscale>
<asrwt>0</asrwt>
<pdfrwt beam="2">  1        2 0.14344738E-01 0.12796491E+03</pdfrwt>
<pdfrwt beam="1">  1       -2 0.23551489E-01 0.12796491E+03</pdfrwt>
<totfact> 0.61369009E+03</totfact>
</mgrwt>
</event>
<event>
 7    1  0.6095443E-006  0.2338002E+03  0.7546771E-02  0.1126867E+00
         -2   -1    0    0    0  501 -0.00000000000E+00  0.00000000000E+00  0.32508966145E+03  0.32508966145E+03  0.00000000000E+00 0. -1.
          2   -1    0    0  501    0  0.00000000000E+00 -0.00000000000E+00 -0.16607299019E+03  0.16607299019E+03  0.00000000000E+00 0.  1.
         23    2    1    2    0    0  0.19698319481E+03  0.15674557525E+02  0.24166531223E+02  0.23504583598E+03  0.12495780484E+03 0.  0.
          5    1    3    3  502    0  0.26789209052E+02 -0.26914185633E+02 -0.32934585589E+02  0.50485760744E+02  0.47000000000E+01 0. -1.
         -5    1    3    3    0  502  0.17019398575E+03  0.42588743158E+02  0.57101116812E+02  0.18456007524E+03  0.47000000000E+01 0. -1.
        -11    1    1    2    0    0 -0.20339391772E+03 -0.34234240866E+01  0.13023082255E+03  0.24153855332E+03  0.00000000000E+00 0.  1.
         11    1    1    2    0    0  0.64107229105E+01 -0.12251133438E+02  0.46193174907E+01  0.14578262339E+02  0.00000000000E+00 0. -1.
<mgrwt>
<rscale>  0 0.22967769E+03</rscale>
<asrwt>0</asrwt>
<pdfrwt beam="2">  1        2 0.25549691E-01 0.23380018E+03</pdfrwt>
<pdfrwt beam="1">  1       -2 0.50013794E-01 0.23380018E+03</pdfrwt>
<totfact> 0.80512353E+02</totfact>
</mgrwt>
</event>
<event>
 7    1  0.6095443E-006  0.1266292E+03  0.7546771E-02  0.1248851E+00
         -3   -1    0    0    0  501 -0.00000000000E+00  0.00000000000E+00  0.90884665538E+02  0.90884665538E+02  0.00000000000E+00 0.  1.
          3   -1    0    0  501    0  0.00000000000E+00 -0.00000000000E+00 -0.15264374548E+03  0.15264374548E+03  0.00000000000E+00 0. -1.
         23    2    1    2    0    0  0.16033304582E+02  0.12368146492E+02  0.10915076275E+02  0.12709879076E+03  0.12499970328E+03 0.  0.
          5    1    3    3  502    0  0.64372632449E+02 -0.20345101954E+02  0.83076028313E+00  0.67679680440E+02  0.47000000000E+01 0.  1.
         -5    1    3    3    0  502 -0.48339327867E+02  0.32713248445E+02  0.10084315992E+02  0.59419110322E+02  0.47000000000E+01 0.  1.
        -11    1    1    2    0    0  0.26497020634E+02  0.11787770099E+02 -0.20802865693E+00  0.29001498277E+02  0.00000000000E+00 0.  1.
         11    1    1    2    0    0 -0.42530325216E+02 -0.24155916591E+02 -0.72466127564E+02  0.87428121983E+02  0.00000000000E+00 0. -1.
<mgrwt>
<rscale>  0 0.11657812E+03</rscale>
<asrwt>0</asrwt>
<pdfrwt beam="2">  1        3 0.23483653E-01 0.12662924E+03</pdfrwt>
<pdfrwt beam="1">  1       -3 0.13982256E-01 0.12662924E+03</pdfrwt>
<totfact> 0.15998539E+03</totfact>
</mgrwt>
</event>
<event>
 7    1  0.6095443E-006  0.1488595E+03  0.7546771E-02  0.1211257E+00
         -2   -1    0    0    0  501 -0.00000000000E+00  0.00000000000E+00  0.95174329079E+02  0.95174329079E+02  0.00000000000E+00 0.  1.
          2   -1    0    0  501    0  0.00000000000E+00 -0.00000000000E+00 -0.34024974582E+03  0.34024974582E+03  0.00000000000E+00 0. -1.
         23    2    1    2    0    0 -0.79238747547E+02  0.15999903602E+02  0.13667258189E+02  0.14948562247E+03  0.12499752538E+03 0.  0.
          5    1    3    3  502    0 -0.41030734770E+01 -0.35346840352E+02  0.40862525552E+02  0.54388145118E+02  0.47000000000E+01 0. -1.
         -5    1    3    3    0  502 -0.75135674070E+02  0.51346743954E+02 -0.27195267363E+02  0.95097477357E+02  0.47000000000E+01 0. -1.
        -11    1    1    2    0    0  0.23565437241E+02 -0.36364321024E+02 -0.38859851663E+02  0.58204654000E+02  0.00000000000E+00 0.  1.
         11    1    1    2    0    0  0.55673310306E+02  0.20364417423E+02 -0.21988282326E+03  0.22773379842E+03  0.00000000000E+00 0. -1.
<mgrwt>
<rscale>  0 0.14155100E+03</rscale>
<asrwt>0</asrwt>
<pdfrwt beam="2">  1        2 0.52346115E-01 0.14885952E+03</pdfrwt>
<pdfrwt beam="1">  1       -2 0.14642204E-01 0.14885952E+03</pdfrwt>
<totfact> 0.33017208E+03</totfact>
</mgrwt>
</event>
<event>
 7    1  0.6095443E-006  0.1719006E+03  0.7546771E-02  0.1182349E+00
          2   -1    0    0  501    0  0.00000000000E+00  0.00000000000E+00  0.46578351219E+03  0.46578351219E+03  0.00000000000E+00 0. -1.
         -2   -1    0    0    0  501 -0.00000000000E+00 -0.00000000000E+00 -0.58406709340E+02  0.58406709340E+02  0.00000000000E+00 0.  1.
         23    2    1    2    0    0  0.10407632857E+03 -0.55688078714E+02  0.15577993197E+03  0.23198533386E+03  0.12496705022E+03 0.  0.
          5    1    3    3  502    0  0.23062190810E+02 -0.49879294831E+02 -0.12096097204E+01  0.55166673395E+02  0.47000000000E+01 0. -1.
         -5    1    3    3    0  502  0.81014137764E+02 -0.58087838829E+01  0.15698954169E+03  0.17681866046E+03  0.47000000000E+01 0. -1.
        -11    1    1    2    0    0 -0.26887387308E+02  0.51414103754E+02  0.17078023647E+03  0.18036693386E+03  0.00000000000E+00 0.  1.
         11    1    1    2    0    0 -0.77188941266E+02  0.42739749596E+01  0.80816634412E+02  0.11183795381E+03  0.00000000000E+00 0. -1.
<mgrwt>
<rscale>  0 0.16575420E+03</rscale>
<asrwt>0</asrwt>
<pdfrwt beam="1">  1        2 0.71658999E-01 0.17190058E+03</pdfrwt>
<pdfrwt beam="2">  1       -2 0.89856479E-02 0.17190058E+03</pdfrwt>
<totfact> 0.51709469E+03</totfact>
</mgrwt>
</event>
<event>
 7    1  0.6095443E-006  0.1913168E+03  0.7546771E-02  0.1162033E+00
          2   -1    0    0  501    0  0.00000000000E+00  0.00000000000E+00  0.10941847693E+03  0.10941847693E+03  0.00000000000E+00 0. -1.
         -2   -1    0    0    0  501 -0.00000000000E+00 -0.00000000000E+00 -0.39167745619E+03  0.39167745619E+03  0.00000000000E+00 0.  1.
         23    2    1    2    0    0 -0.12729147520E+03  0.69090483336E+02 -0.26794481618E+03  0.32923630088E+03  0.12500201098E+03 0.  0.
          5    1    3    3  502    0 -0.51228441214E+02  0.80942863694E+02 -0.21576089979E+03  0.23611640403E+03  0.47000000000E+01 0.  1.
         -5    1    3    3    0  502 -0.76063033986E+02 -0.11852380358E+02 -0.52183916390E+02  0.93119896849E+02  0.47000000000E+01 0.  1.
        -11    1    1    2    0    0  0.64283779918E+02 -0.72789032151E+02 -0.38228220649E+02  0.10436495780E+03  0.00000000000E+00 0. -1.
         11    1    1    2    0    0  0.63007695282E+02  0.36985488153E+01  0.23914057573E+02  0.67494674440E+02  0.00000000000E+00 0.  1.
<mgrwt>
<rscale>  0 0.18609315E+03</rscale>
<asrwt>0</asrwt>
<pdfrwt beam="1">  1        2 0.16833612E-01 0.19131680E+03</pdfrwt>
<pdfrwt beam="2">  1       -2 0.60258069E-01 0.19131680E+03</pdfrwt>
<totfact> 0.88376382E+02</totfact>
</mgrwt>
</event>
<event>
 7    1  0.6095443E-006  0.1528367E+03  0.7546771E-02  0.1205663E+00
         -2   -1    0    0    0  501 -0.00000000000E+00  0.00000000000E+00  0.69825867395E+02  0.69825867395E+02  0.00000000000E+00 0. -1.
          2   -1    0    0  501    0  0.00000000000E+00 -0.00000000000E+00 -0.28075341538E+03  0.28075341538E+03  0.00000000000E+00 0.  1.
         23    2    1    2    0    0  0.56572279589E+02  0.67336282807E+02 -0.12493884172E+03  0.19740512211E+03  0.12499788104E+03 0.  0.
          5    1    3    3  502    0  0.31463343012E+02  0.62829475501E+02 -0.63861394172E+00  0.70427145142E+02  0.47000000000E+01 0. -1.
         -5    1    3    3    0  502  0.25108936578E+02  0.45068073067E+01 -0.12430022778E+03  0.12697797696E+03  0.47000000000E+01 0. -1.
        -11    1    1    2    0    0 -0.37348309320E+02 -0.58809453351E+01  0.85749775028E+01  0.38768698279E+02  0.00000000000E+00 0. -1.
         11    1    1    2    0    0 -0.19223970269E+02 -0.61455337472E+02 -0.94563683762E+02  0.11440546238E+03  0.00000000000E+00 0.  1.
<mgrwt>
<rscale>  0 0.14585353E+03</rscale>
<asrwt>0</asrwt>
<pdfrwt beam="2">  1        2 0.43192832E-01 0.15283674E+03</pdfrwt>
<pdfrwt beam="1">  1       -2 0.10742441E-01 0.15283674E+03</pdfrwt>
<totfact> 0.66748500E+03</totfact>
</mgrwt>
</event>
<event>
 6    1  0.6095443E-006  0.1986193E+03  0.7546771E-02  0.1161814E+00
          2   -1    0    0  501    0  0.00000000000E+00  0.00000000000E+00  0.73545582395E+02  0.73545582395E+02  0.00000000000E+00 0. -1.
         -2   -1    0    0    0  501 -0.00000000000E+00 -0.00000000000E+00 -0.44408702359E+03  0.44408702359E+03  0.00000000000E+00 0.  1.
          5    1    1    2  502    0 -0.31127065781E+02 -0.67041647144E+01  0.26916428561E+02  0.41957409061E+02  0.47000000000E+01 0. -1.
         -5    1    1    2    0  502 -0.66348538604E+02  0.83806171118E+02 -0.17765154470E+03  0.20738313390E+03  0.47000000000E+01 0.  1.
        -11    1    1    2    0    0  0.66738577512E+02 -0.83433963000E+02 -0.10702940624E+03  0.15123014815E+03  0.00000000000E+00 0.  1.
         11    1    1    2    0    0  0.30737026873E+02  0.63319565958E+01 -0.11277691881E+03  0.11706191487E+03  0.00000000000E+00 0. -1.
<mgrwt>
<rscale>  0 0.18632935E+03</rscale>
<asrwt>0</asrwt>
<pdfrwt beam="1">  1        2 0.11314705E-01 0.19861931E+03</pdfrwt>
<pdfrwt beam="2">  1       -2 0.68321081E-01 0.19861931E+03</pdfrwt>
<totfact> 0.10926662E+03</totfact>
</mgrwt>
</event>
<event>
 7    1  0.6095443E-006  0.1484758E+03  0.7546771E-02  0.1210852E+00
         -2   -1    0    0    0  501 -0.00000000000E+00  0.00000000000E+00  0.12156463056E+03  0.12156463056E+03  0.00000000000E+00 0.  1.
          2   -1    0    0  501    0  0.00000000000E+00 -0.00000000000E+00 -0.17050129596E+03  0.17050129596E+03  0.00000000000E+00 0. -1.
         23    2    1    2    0    0  0.79915578723E+02 -0.58475237658E+01  0.20991772608E+02  0.14995237752E+03  0.12499747097E+03 0.  0.
          5    1    3    3  502    0  0.85478642958E+02 -0.52358158187E+02  0.22538433171E+02  0.10284962859E+03  0.47000000000E+01 0.  1.
         -5    1    3    3    0  502 -0.55630642353E+01  0.46510634422E+02 -0.15466605629E+01  0.47102748931E+02  0.47000000000E+01 0.  1.
        -11    1    1    2    0    0 -0.30892686640E+02  0.26983405792E+02 -0.77994362210E+02  0.88122544292E+02  0.00000000000E+00 0. -1.
         11    1    1    2    0    0 -0.49022892083E+02 -0.21135882026E+02  0.80659242017E+01  0.53991004718E+02  0.00000000000E+00 0.  1.
<mgrwt>
<rscale>  0 0.14185689E+03</rscale>
<asrwt>0</asrwt>
<pdfrwt beam="2">  1        2 0.26230969E-01 0.14847579E+03</pdfrwt>
<pdfrwt beam="1">  1       -2 0.18702251E-01 0.14847579E+03</pdfrwt>
<totfact> 0.46235298E+03</totfact>
</mgrwt>
</event>
<event>
 6    1  0.6095443E-006  0.1727723E+03  0.7546771E-02  0.1189329E+00
         -2   -1    0    0    0  501 -0.00000000000E+00  0.00000000000E+00  0.60188336476E+02  0.60188336476E+02  0.00000000000E+00 0.  1.
          2   -1    0    0  501    0  0.00000000000E+00 -0.00000000000E+00 -0.37301609209E+03  0.37301609209E+03  0.00000000000E+00 0. -1.
          5    1    1    2  502    0 -0.34957265108E+02  0.96769802890E+01 -0.14317292605E+03  0.14777087360E+03  0.47000000000E+01 0. -1.
         -5    1    1    2    0  502  0.58891435746E+02  0.61928078361E+02 -0.15847007808E+02  0.87043125806E+02  0.47000000000E+01 0.  1.
        -11    1    1    2    0    0 -0.22612900303E+02  0.58014690296E+01  0.29760849359E+01  0.23534174822E+02  0.00000000000E+00 0.  1.
         11    1    1    2    0    0 -0.13212703350E+01 -0.77406527679E+02 -0.15678390669E+03  0.17485625434E+03  0.00000000000E+00 0. -1.
<mgrwt>
<rscale>  0 0.15944089E+03</rscale>
<asrwt>0</asrwt>
<pdfrwt beam="2">  1        2 0.57387089E-01 0.17277232E+03</pdfrwt>
<pdfrwt beam="1">  1       -2 0.92597444E-02 0.17277232E+03</pdfrwt>
<totfact> 0.62753120E+03</totfact>
</mgrwt>
</event>
<event>
 7    1  0.6095443E-006  0.2718060E+03  0.7546771E-02  0.1102287E+00
         -1   -1    0    0    0  501 -0.00000000000E+00  0.00000000000E+00  0.11282879179E+03  0.11282879179E+03  0.00000000000E+00 0.  1.
          1   -1    0    0  501    0  0.00000000000E+00 -0.00000000000E+00 -0.63411310619E+03  0.63411310619E+03  0.00000000000E+00 0. -1.
         23    2    1    2    0    0  0.49642049650E+02 -0.23618500032E+03 -0.21491706302E+03  0.34650810216E+03  0.12502333147E+03 0.  0.
          5    1    3    3  502    0  0.83645796560E+02 -0.21141561300E+03 -0.16446039931E+03  0.28064656357E+03  0.47000000000E+01 0.  1.
         -5    1    3    3    0  502 -0.34003746909E+02 -0.24769387327E+02 -0.50456663711E+02  0.65861538589E+02  0.47000000000E+01 0.  1.
        -11    1    1    2    0    0  0.18556363668E+02  0.11287154933E+03 -0.16550195983E+03  0.20118455207E+03  0.00000000000E+00 0.  1.
         11    1    1    2    0    0 -0.68198413318E+02  0.12331345099E+03 -0.14086529155E+03  0.19924924376E+03  0.00000000000E+00 0. -1.
<mgrwt>
<rscale>  0 0.26824761E+03</rscale>
<asrwt>0</asrwt>
<pdfrwt beam="2">  1        1 0.97555864E-01 0.27180604E+03</pdfrwt>
<pdfrwt beam="1">  1       -1 0.17358275E-01 0.27180604E+03</pdfrwt>
<totfact> 0.82862548E+02</totfact>
</mgrwt>
</event>
<event>
 7    1  0.6095443E-006  0.1684825E+03  0.7546771E-02  0.1186178E+00
         -1   -1    0    0    0  501 -0.00000000000E+00  0.00000000000E+00  0.23492101504E+02  0.23492101504E+02  0.00000000000E+00 0.  1.
          1   -1    0    0  501    0  0.00000000000E+00 -0.00000000000E+00 -0.10479494843E+04  0.10479494843E+04  0.00000000000E+00 0. -1.
         23    2    1    2    0    0 -0.88888533526E+02  0.69716554941E+02 -0.52316715183E+03  0.54962733510E+03  0.12499907723E+03 0.  0.
          5    1    3    3  502    0  0.13868895698E+02  0.51076556548E+02 -0.27911747014E+03  0.28412992281E+03  0.47000000000E+01 0.  1.
         -5    1    3    3    0  502 -0.10275742922E+03  0.18639998393E+02 -0.24404968169E+03  0.26549741229E+03  0.47000000000E+01 0.  1.
        -11    1    1    2    0    0  0.72436322058E+02 -0.10297727351E+01 -0.29512190816E+03  0.30388323721E+03  0.00000000000E+00 0.  1.
         11    1    1    2    0    0  0.16452211468E+02 -0.68686782206E+02 -0.20616832282E+03  0.21793101350E+03  0.00000000000E+00 0. -1.
<mgrwt>
<rscale>  0 0.16225154E+03</rscale>
<asrwt>0</asrwt>
<pdfrwt beam="2">  1        1 0.16122304E+00 0.16848246E+03</pdfrwt>
<pdfrwt beam="1">  1       -1 0.36141686E-02 0.16848246E+03</pdfrwt>
<totfact> 0.41580576E+03</totfact>
</mgrwt>
</event>
<event>
 7    1  0.6095443E-006  0.1450935E+03  0.7546771E-02  0.1216924E+00
          2   -1    0    0  501    0  0.00000000000E+00  0.00000000000E+00  0.27369572188E+03  0.27369572188E+03  0.00000000000E+00 0. -1.
         -2   -1    0    0    0  501 -0.00000000000E+00 -0.00000000000E+00 -0.78584669838E+02  0.78584669838E+02  0.00000000000E+00 0.  1.
         23    2    1    2    0    0  0.41315504344E+02  0.60856371069E+02  0.26789105867E+02  0.14754584651E+03  0.12506658959E+03 0.  0.
          5    1    3    3  502    0  0.86084152274E+02  0.40965357279E+02  0.23028502580E+02  0.98188816577E+02  0.47000000000E+01 0. -1.
         -5    1    3    3    0  502 -0.44768647930E+02  0.19891013791E+02  0.37606032865E+01  0.49357029937E+02  0.47000000000E+01 0. -1.
        -11    1    1    2    0    0 -0.24991012569E-01 -0.45342871388E+02  0.19225436896E+02  0.49250320143E+02  0.00000000000E+00 0.  1.
         11    1    1    2    0    0 -0.41290513331E+02 -0.15513499681E+02  0.14909650928E+03  0.15548422506E+03  0.00000000000E+00 0. -1.
<mgrwt>
<rscale>  0 0.13736125E+03</rscale>
<asrwt>0</asrwt>
<pdfrwt beam="1">  1        2 0.42107034E-01 0.14509349E+03</pdfrwt>
<pdfrwt beam="2">  1       -2 0.12089949E-01 0.14509349E+03</pdfrwt>
<totfact> 0.56633431E+03</totfact>
</mgrwt>
</event>
<event>
 7    1  0.6095443E-006  0.2355938E+03  0.7546771E-02  0.1125790E+00
          2   -1    0    0  501    0  0.00000000000E+00  0.00000000000E+00  0.12667706235E+04  0.12667706235E+04  0.00000000000E+00 0.  1.
         -2   -1    0    0    0  501 -0.00000000000E+00 -0.00000000000E+00 -0.62107148633E+02  0.62107148633E+02  0.00000000000E+00 0. -1.
         23    2    1    2    0    0 -0.13555461211E+03  0.14665937172E+03  0.22726299581E+03  0.32734221657E+03  0.12498173188E+03 0.  0.
          5    1    3    3  502    0 -0.29686859175E+02 -0.10703023854E+02  0.83254286897E+02  0.89158457894E+02  0.47000000000E+01 0.  1.
         -5    1    3    3    0  502 -0.10586775293E+03  0.15736239558E+03  0.14400870891E+03  0.23818375867E+03  0.47000000000E+01 0.  1.
        -11    1    1    2    0    0  0.34995214246E+02 -0.87791562746E+02  0.31166095549E+03  0.32567556661E+03  0.00000000000E+00 0. -1.
         11    1    1    2    0    0  0.10055939786E+03 -0.58867808977E+02  0.66573952352E+03  0.67585998891E+03  0.00000000000E+00 0.  1.
<mgrwt>
<rscale>  0 0.23121074E+03</rscale>
<asrwt>0</asrwt>
<pdfrwt beam="1">  1        2 0.19488777E+00 0.23559384E+03</pdfrwt>
<pdfrwt beam="2">  1       -2 0.95549469E-02 0.23559384E+03</pdfrwt>
<totfact> 0.13101218E+03</totfact>
</mgrwt>
</event>
<event>
 7    1  0.6095443E-006  0.1252196E+03  0.7546771E-02  0.1249172E+00
          2   -1    0    0  501    0  0.00000000000E+00  0.00000000000E+00  0.85709023146E+03  0.85709023146E+03  0.00000000000E+00 0. -1.
         -2   -1    0    0    0  501 -0.00000000000E+00 -0.00000000000E+00 -0.14487261988E+02  0.14487261988E+02  0.00000000000E+00 0.  1.
         23    2    1    2    0    0 -0.51053900512E+01 -0.51757635790E+01  0.39711320093E+03  0.41638783761E+03  0.12500833340E+03 0.  0.
          5    1    3    3  502    0  0.43539337253E+02 -0.35858151935E+02  0.28196702746E+03  0.28759168194E+03  0.47000000000E+01 0. -1.
         -5    1    3    3    0  502 -0.48644727305E+02  0.30682388356E+02  0.11514617347E+03  0.12879615567E+03  0.47000000000E+01 0. -1.
        -11    1    1    2    0    0 -0.42273521062E+02  0.15314781979E+02  0.22226504417E+03  0.22676715588E+03  0.00000000000E+00 0.  1.
         11    1    1    2    0    0  0.47378911113E+02 -0.10139018400E+02  0.22322472437E+03  0.22842249995E+03  0.00000000000E+00 0. -1.
<mgrwt>
<rscale>  0 0.11639149E+03</rscale>
<asrwt>0</asrwt>
<pdfrwt beam="1">  1        2 0.13186000E+00 0.12521956E+03</pdfrwt>
<pdfrwt beam="2">  1       -2 0.22288102E-02 0.12521956E+03</pdfrwt>
<totfact> 0.20167399E+04</totfact>
</mgrwt>
</event>
<event>
 7    1  0.7448357E-006  0.2341236E+03  0.7546771E-02  0.1126500E+00
          3   -1    0    0  501    0  0.00000000000E+00  0.00000000000E+00  0.10222824969E+04  0.10222824969E+04  0.00000000000E+00 0. -1.
         -3   -1    0    0    0  501 -0.00000000000E+00 -0.00000000000E+00 -0.53489355442E+02  0.53489355442E+02  0.00000000000E+00 0.  1.
         23    2    1    2    0    0 -0.10870607018E+03  0.16544113212E+03  0.36583207199E+03  0.43433510163E+03  0.12500439079E+03 0.  0.
          5    1    3    3  502    0 -0.79571848728E+02  0.11223117740E+03  0.12502292352E+03  0.18595789227E+03  0.47000000000E+01 0.  1.
         -5    1    3    3    0  502 -0.29134221456E+02  0.53209954715E+02  0.24080914848E+03  0.24837720936E+03  0.47000000000E+01 0.  1.
        -11    1    1    2    0    0  0.10742818906E+03 -0.82485723077E+02  0.35471672458E+03  0.37969548985E+03  0.00000000000E+00 0. -1.
         11    1    1    2    0    0  0.12778811224E+01 -0.82955409042E+02  0.24824434485E+03  0.26174126083E+03  0.00000000000E+00 0.  1.
<mgrwt>
<rscale>  0 0.23019831E+03</rscale>
<asrwt>0</asrwt>
<pdfrwt beam="1">  1        3 0.15727422E+00 0.23412363E+03</pdfrwt>
<pdfrwt beam="2">  1       -3 0.82291324E-02 0.23412363E+03</pdfrwt>
<totfact> 0.76824021E+01</totfact>
</mgrwt>
</event>
<event>
 7    1  0.6095443E-006  0.1299886E+03  0.7546771E-02  0.1241628E+00
          3   -1    0    0  501    0  0.00000000000E+00  0.00000000000E+00  0.11775496782E+03  0.11775496782E+03  0.00000000000E+00 0. -1.
         -3   -1    0    0    0  501 -0.00000000000E+00 -0.00000000000E+00 -0.11426385211E+03  0.11426385211E+03  0.00000000000E+00 0.  1.
         23    2    1    2    0    0  0.35167639952E+02  0.59682630219E+01 -0.21128196471E+02  0.13169449877E+03  0.12499862902E+03 0.  0.
          5    1    3    3  502    0  0.56835158992E+02 -0.12839044136E+01 -0.62239617237E+02  0.84425965568E+02  0.47000000000E+01 0.  1.
         -5    1    3    3    0  502 -0.21667519040E+02  0.72521674355E+01  0.41111420766E+02  0.47268533204E+02  0.47000000000E+01 0.  1.
        -11    1    1    2    0    0 -0.43815223419E+02 -0.41693819349E+02  0.14408476450E+02  0.62175176467E+02  0.00000000000E+00 0. -1.
         11    1    1    2    0    0  0.86475834666E+01  0.35725556327E+02  0.10210835727E+02  0.38149144695E+02  0.00000000000E+00 0.  1.
<mgrwt>
<rscale>  0 0.12089514E+03</rscale>
<asrwt>0</asrwt>
<pdfrwt beam="1">  1        3 0.18116149E-01 0.12998862E+03</pdfrwt>
<pdfrwt beam="2">  1       -3 0.17579054E-01 0.12998862E+03</pdfrwt>
<totfact> 0.17156211E+03</totfact>
</mgrwt>
</event>
<event>
 7    1  0.6095443E-006  0.1529978E+03  0.7546771E-02  0.1205906E+00
         -2   -1    0    0    0  501 -0.00000000000E+00  0.00000000000E+00  0.52990324825E+02  0.52990324825E+02  0.00000000000E+00 0.  1.
          2   -1    0    0  501    0  0.00000000000E+00 -0.00000000000E+00 -0.38041067727E+03  0.38041067727E+03  0.00000000000E+00 0. -1.
         23    2    1    2    0    0 -0.80911112494E+02 -0.35173267650E+02 -0.13783134795E+03  0.20592666959E+03  0.12499818354E+03 0.  0.
          5    1    3    3  502    0  0.14779959213E+02 -0.50762134055E+02 -0.68426418876E+02  0.86599689655E+02  0.47000000000E+01 0. -1.
         -5    1    3    3    0  502 -0.95691071708E+02  0.15588866406E+02 -0.69404929074E+02  0.11932697993E+03  0.47000000000E+01 0. -1.
        -11    1    1    2    0    0  0.98584037439E+02  0.16684320555E+02 -0.15513611220E+03  0.18456541469E+03  0.00000000000E+00 0. -1.
         11    1    1    2    0    0 -0.17672924945E+02  0.18488947095E+02 -0.34452892293E+02  0.42908917816E+02  0.00000000000E+00 0.  1.
<mgrwt>
<rscale>  0 0.14566256E+03</rscale>
<asrwt>0</asrwt>
<pdfrwt beam="2">  1        2 0.58524720E-01 0.15299775E+03</pdfrwt>
<pdfrwt beam="1">  1       -2 0.81523576E-02 0.15299775E+03</pdfrwt>
<totfact> 0.74427924E+03</totfact>
</mgrwt>
</event>
<event>
 7    1  0.6095443E-006  0.1291197E+03  0.7546771E-02  0.1242761E+00
          3   -1    0    0  501    0  0.00000000000E+00  0.00000000000E+00  0.36579476819E+02  0.36579476819E+02  0.00000000000E+00 0. -1.
         -3   -1    0    0    0  501 -0.00000000000E+00 -0.00000000000E+00 -0.35311696134E+03  0.35311696134E+03  0.00000000000E+00 0.  1.
         23    2    1    2    0    0  0.15653716293E+02  0.28351829207E+02 -0.20033146766E+03  0.23833711701E+03  0.12499207717E+03 0.  0.
          5    1    3    3  502    0  0.46398572732E+02 -0.10854709521E+02 -0.17655211672E+03  0.18293001993E+03  0.47000000000E+01 0.  1.
         -5    1    3    3    0  502 -0.30744856439E+02  0.39206538729E+02 -0.23779350941E+02  0.55407097088E+02  0.47000000000E+01 0.  1.
        -11    1    1    2    0    0 -0.49598942151E+02 -0.31693984303E+02 -0.51484975091E+02  0.78200168565E+02  0.00000000000E+00 0. -1.
         11    1    1    2    0    0  0.33945225858E+02  0.33421550954E+01 -0.64721041767E+02  0.73159152582E+02  0.00000000000E+00 0.  1.
<mgrwt>
<rscale>  0 0.12020396E+03</rscale>
<asrwt>0</asrwt>
<pdfrwt beam="1">  1        3 0.56276118E-02 0.12911965E+03</pdfrwt>
<pdfrwt beam="2">  1       -3 0.54325686E-01 0.12911965E+03</pdfrwt>
<totfact> 0.14530306E+03</totfact>
</mgrwt>
</event>
<event>
 7    1  0.6095443E-006  0.1768269E+03  0.7546771E-02  0.1177158E+00
         -1   -1    0    0    0  501 -0.00000000000E+00  0.00000000000E+00  0.39007612627E+02  0.39007612627E+02  0.00000000000E+00 0.  1.
          1   -1    0    0  501    0  0.00000000000E+00 -0.00000000000E+00 -0.70392119127E+03  0.70392119127E+03  0.00000000000E+00 0. -1.
         23    2    1    2    0    0  0.42983862589E+02  0.11747092639E+03 -0.32498365478E+03  0.36997586202E+03  0.12498292530E+03 0.  0.
          5    1    3    3  502    0  0.24229915141E+02  0.44034260607E+02 -0.17770402191E+02  0.53516185299E+02  0.47000000000E+01 0.  1.
         -5    1    3    3    0  502  0.18753947448E+02  0.73436665782E+02 -0.30721325258E+03  0.31645967672E+03  0.47000000000E+01 0.  1.
        -11    1    1    2    0    0  0.19031504409E+02 -0.15567897691E+02 -0.20625675661E+02  0.32093240644E+02  0.00000000000E+00 0.  1.
         11    1    1    2    0    0 -0.62015366998E+02 -0.10190302870E+03 -0.31930424820E+03  0.34085970123E+03  0.00000000000E+00 0. -1.
<mgrwt>
<rscale>  0 0.17066351E+03</rscale>
<asrwt>0</asrwt>
<pdfrwt beam="2">  1        1 0.10829557E+00 0.17682693E+03</pdfrwt>
<pdfrwt beam="1">  1       -1 0.60011711E-02 0.17682693E+03</pdfrwt>
<totfact> 0.36763691E+03</totfact>
</mgrwt>
</event>
<event>
 7    1  0.6095443E-006  0.1789374E+03  0.7546771E-02  0.1172653E+00
         -2   -1    0    0    0  501 -0.00000000000E+00  0.00000000000E+00  0.27974180311E+02  0.27974180311E+02  0.00000000000E+00 0.  1.
          2   -1    0    0  501    0  0.00000000000E+00 -0.00000000000E+00 -0.10710881941E+04  0.10710881941E+04  0.00000000000E+00 0. -1.
         23    2    1    2    0    0 -0.69429007658E+02  0.11827599914E+03 -0.46862542851E+03  0.50162573064E+03  0.11493033677E+03 0.  0.
          5    1    3    3  502    0 -0.58610776009E+02  0.12094361226E+02 -0.26457128275E+03  0.27129605653E+03  0.47000000000E+01 0. -1.
         -5    1    3    3    0  502 -0.10818231649E+02  0.10618163792E+03 -0.20405414577E+03  0.23032967410E+03  0.47000000000E+01 0.  1.
        -11    1    1    2    0    0  0.79324921748E+02 -0.12753035331E+03 -0.53541728749E+03  0.55608282294E+03  0.00000000000E+00 0.  1.
         11    1    1    2    0    0 -0.98959140907E+01  0.92543541680E+01 -0.39071297750E+02  0.41353820799E+02  0.00000000000E+00 0. -1.
<mgrwt>
<rscale>  0 0.17507797E+03</rscale>
<asrwt>0</asrwt>
<pdfrwt beam="2">  1        2 0.16478279E+00 0.17893737E+03</pdfrwt>
<pdfrwt beam="1">  1       -2 0.43037203E-02 0.17893737E+03</pdfrwt>
<totfact> 0.57618810E+03</totfact>
</mgrwt>
</event>
<event>
 6    1  0.6095443E-006  0.1710238E+03  0.7546771E-02  0.1192884E+00
         -3   -1    0    0    0  501 -0.00000000000E+00  0.00000000000E+00  0.85681376861E+03  0.85681376861E+03  0.00000000000E+00 0.  1.
          3   -1    0    0  501    0  0.00000000000E+00 -0.00000000000E+00 -0.24672174863E+02  0.24672174863E+02  0.00000000000E+00 0. -1.
          5    1    1    2  502    0 -0.13112495706E+02  0.59698509353E+02  0.21308385656E+03  0.22172656469E+03  0.47000000000E+01 0. -1.
         -5    1    1    2    0  502  0.89857573357E+02 -0.60969339309E+02  0.29688137792E+03  0.31615231516E+03  0.47000000000E+01 0.  1.
        -11    1    1    2    0    0  0.10052851257E+02 -0.19457879522E+02  0.24593897992E+02  0.32932183534E+02  0.00000000000E+00 0.  1.
         11    1    1    2    0    0 -0.86797928908E+02  0.20728709478E+02  0.29758246128E+03  0.31067488009E+03  0.00000000000E+00 0. -1.
<mgrwt>
<rscale>  0 0.15634667E+03</rscale>
<asrwt>0</asrwt>
<pdfrwt beam="2">  1        3 0.37957199E-02 0.17102383E+03</pdfrwt>
<pdfrwt beam="1">  1       -3 0.13181748E+00 0.17102383E+03</pdfrwt>
<totfact> 0.39889080E+02</totfact>
</mgrwt>
</event>
<event>
 7    1  0.6095443E-006  0.1533351E+03  0.7546771E-02  0.1205397E+00
         -2   -1    0    0    0  501 -0.00000000000E+00  0.00000000000E+00  0.59489892655E+02  0.59489892655E+02  0.00000000000E+00 0.  1.
          2   -1    0    0  501    0  0.00000000000E+00 -0.00000000000E+00 -0.38383520823E+03  0.38383520823E+03  0.00000000000E+00 0. -1.
         23    2    1    2    0    0 -0.61228863416E+02  0.64314515409E+02 -0.91786659325E+02  0.17870768608E+03  0.12500526240E+03 0.  0.
          5    1    3    3  502    0 -0.52366915437E+02  0.84157683336E+02 -0.11130863883E+03  0.14911912209E+03  0.47000000000E+01 0.  1.
         -5    1    3    3    0  502 -0.88619479786E+01 -0.19843167927E+02  0.19521979500E+02  0.29588563990E+02  0.47000000000E+01 0.  1.
        -11    1    1    2    0    0  0.49058206707E+02 -0.10886387337E+02 -0.39456249378E+02  0.63890661990E+02  0.00000000000E+00 0.  1.
         11    1    1    2    0    0  0.12170656709E+02 -0.53428128072E+02 -0.19310240687E+03  0.20072675281E+03  0.00000000000E+00 0. -1.
<mgrwt>
<rscale>  0 0.14606234E+03</rscale>
<asrwt>0</asrwt>
<pdfrwt beam="2">  1        2 0.59051572E-01 0.15333508E+03</pdfrwt>
<pdfrwt beam="1">  1       -2 0.91522910E-02 0.15333508E+03</pdfrwt>
<totfact> 0.61569711E+03</totfact>
</mgrwt>
</event>
<event>
 7    1  0.6095443E-006  0.1431479E+03  0.7546771E-02  0.1216354E+00
         -1   -1    0    0    0  501 -0.00000000000E+00  0.00000000000E+00  0.73719419111E+02  0.73719419111E+02  0.00000000000E+00 0.  1.
          1   -1    0    0  501    0  0.00000000000E+00 -0.00000000000E+00 -0.24667387740E+03  0.24667387740E+03  0.00000000000E+00 0. -1.
         23    2    1    2    0    0 -0.50790311682E+02 -0.47821281261E+02 -0.66473179517E+02  0.15782907920E+03  0.12499921578E+03 0.  0.
          5    1    3    3  502    0 -0.71622043176E+02 -0.60318957713E+02 -0.85287953688E+02  0.12674469919E+03  0.47000000000E+01 0. -1.
         -5    1    3    3    0  502  0.20831731494E+02  0.12497676452E+02  0.18814774172E+02  0.31084380014E+02  0.47000000000E+01 0. -1.
        -11    1    1    2    0    0 -0.35297001967E+01  0.61794483661E+02 -0.78254229676E+02  0.99773450660E+02  0.00000000000E+00 0. -1.
         11    1    1    2    0    0  0.54320011878E+02 -0.13973202400E+02 -0.28227049100E+02  0.62790766652E+02  0.00000000000E+00 0.  1.
<mgrwt>
<rscale>  0 0.13777515E+03</rscale>
<asrwt>0</asrwt>
<pdfrwt beam="2">  1        1 0.37949828E-01 0.14314795E+03</pdfrwt>
<pdfrwt beam="1">  1       -1 0.11341449E-01 0.14314795E+03</pdfrwt>
<totfact> 0.53936745E+03</totfact>
</mgrwt>
</event>
<event>
 7    1  0.6095443E-006  0.1271267E+03  0.7546771E-02  0.1248461E+00
         -4   -1    0    0    0  501 -0.00000000000E+00  0.00000000000E+00  0.47056981548E+03  0.47056981548E+03  0.00000000000E+00 0.  1.
          4   -1    0    0  501    0  0.00000000000E+00 -0.00000000000E+00 -0.44024690035E+02  0.44024690035E+02  0.00000000000E+00 0. -1.
         23    2    1    2    0    0 -0.18591424024E+02 -0.13822782415E+02  0.40068914829E+03  0.42037244336E+03  0.12499794888E+03 0.  0.
          5    1    3    3  502    0 -0.42518360514E+00  0.69417384104E+01 -0.74810579380E+01  0.11243875717E+02  0.47000000000E+01 0. -1.
         -5    1    3    3    0  502 -0.18166240419E+02 -0.20764520825E+02  0.40817020622E+03  0.40912856765E+03  0.47000000000E+01 0. -1.
        -11    1    1    2    0    0  0.12879125287E+02  0.22064912666E+01  0.58060799406E+02  0.59512997736E+02  0.00000000000E+00 0.  1.
         11    1    1    2    0    0  0.57122987370E+01  0.11616291148E+02 -0.32204822245E+02  0.34709064417E+02  0.00000000000E+00 0. -1.
<mgrwt>
<rscale>  0 0.11680612E+03</rscale>
<asrwt>0</asrwt>
<pdfrwt beam="2">  1        4 0.67730295E-02 0.12712670E+03</pdfrwt>
<pdfrwt beam="1">  1       -4 0.72395353E-01 0.12712670E+03</pdfrwt>
<totfact> 0.42312337E+02</totfact>
</mgrwt>
</event>
<event>
 7    1  0.6095443E-006  0.1392836E+03  0.7546771E-02  0.1232575E+00
          2   -1    0    0  501    0  0.00000000000E+00  0.00000000000E+00  0.29546574200E+03  0.29546574200E+03  0.00000000000E+00 0.  1.
         -2   -1    0    0    0  501 -0.00000000000E+00 -0.00000000000E+00 -0.46931205764E+02  0.46931205764E+02  0.00000000000E+00 0. -1.
         23    2    1    2    0    0 -0.40140689598E+02  0.46499866793E+02  0.13099841644E+03  0.19120798545E+03  0.12500558394E+03 0.  0.
          5    1    3    3  502    0 -0.63002501762E+02  0.74159463127E+02  0.68869096124E+02  0.11930625969E+03  0.47000000000E+01 0.  1.
         -5    1    3    3    0  502  0.22861812164E+02 -0.27659596334E+02  0.62129320314E+02  0.71901725762E+02  0.47000000000E+01 0.  1.
        -11    1    1    2    0    0  0.12588039881E+02 -0.61286512716E+02  0.66265963916E+02  0.91135467095E+02  0.00000000000E+00 0. -1.
         11    1    1    2    0    0  0.27552649718E+02  0.14786645923E+02  0.51270155886E+02  0.60053495225E+02  0.00000000000E+00 0.  1.
<mgrwt>
<rscale>  0 0.12660945E+03</rscale>
<asrwt>0</asrwt>
<pdfrwt beam="1">  1        2 0.45456267E-01 0.13928355E+03</pdfrwt>
<pdfrwt beam="2">  1       -2 0.72201857E-02 0.13928355E+03</pdfrwt>
<totfact> 0.11668506E+04</totfact>
</mgrwt>
</event>
<event>
 7    1  0.6095443E-006  0.1439961E+03  0.7546771E-02  0.1216681E+00
         -1   -1    0    0    0  501 -0.00000000000E+00  0.00000000000E+00  0.14207335644E+02  0.14207335644E+02  0.00000000000E+00 0.  1.
          1   -1    0    0  501    0  0.00000000000E+00 -0.00000000000E+00 -0.12304972917E+04  0.12304972917E+04  0.00000000000E+00 0. -1.
         23    2    1    2    0    0 -0.64045242556E+02  0.53987216170E+02 -0.62202871950E+03  0.63847835208E+03  0.11712585362E+03 0.  0.
          5    1    3    3  502    0 -0.95773951122E+02  0.52063280209E+02 -0.52659601327E+03  0.53778126227E+03  0.47000000000E+01 0. -1.
         -5    1    3    3    0  502  0.31728708566E+02  0.19239359611E+01 -0.95432706230E+02  0.10069708981E+03  0.47000000000E+01 0.  1.
        -11    1    1    2    0    0  0.36592593933E+02 -0.76203210127E+02 -0.41922723863E+03  0.42766508481E+03  0.00000000000E+00 0.  1.
         11    1    1    2    0    0  0.27452648623E+02  0.22215993957E+02 -0.17503399796E+03  0.17856119048E+03  0.00000000000E+00 0. -1.
<mgrwt>
<rscale>  0 0.13753779E+03</rscale>
<asrwt>0</asrwt>
<pdfrwt beam="2">  1        1 0.18930726E+00 0.14399610E+03</pdfrwt>
<pdfrwt beam="1">  1       -1 0.21857442E-02 0.14399610E+03</pdfrwt>
<totfact> 0.64173132E+03</totfact>
</mgrwt>
</event>
<event>
 7    1  0.6095443E-006  0.1326912E+03  0.7546771E-02  0.1233757E+00
          1   -1    0    0  501    0  0.00000000000E+00  0.00000000000E+00  0.37125652302E+03  0.37125652302E+03  0.00000000000E+00 0. -1.
         -1   -1    0    0    0  501 -0.00000000000E+00 -0.00000000000E+00 -0.46275934521E+02  0.46275934521E+02  0.00000000000E+00 0.  1.
         23    2    1    2    0    0  0.38245559871E+02  0.22797221053E+02  0.93357956160E+02  0.16224259776E+03  0.12499806563E+03 0.  0.
          5    1    3    3  502    0  0.16038606725E+02  0.65429624619E+02  0.91742600243E+02  0.11391693194E+03  0.47000000000E+01 0.  1.
         -5    1    3    3    0  502  0.22206953146E+02 -0.42632403565E+02  0.16153559177E+01  0.48325665816E+02  0.47000000000E+01 0.  1.
        -11    1    1    2    0    0 -0.56282761774E+02 -0.37021045170E+02  0.21889870892E+03  0.22903046047E+03  0.00000000000E+00 0. -1.
         11    1    1    2    0    0  0.18037201903E+02  0.14223824116E+02  0.12723923420E+02  0.26259399311E+02  0.00000000000E+00 0.  1.
<mgrwt>
<rscale>  0 0.12584367E+03</rscale>
<asrwt>0</asrwt>
<pdfrwt beam="1">  1        1 0.57116386E-01 0.13269119E+03</pdfrwt>
<pdfrwt beam="2">  1       -1 0.71193748E-02 0.13269119E+03</pdfrwt>
<totfact> 0.65559929E+03</totfact>
</mgrwt>
</event>
<event>
 7    1  0.6095443E-006  0.1315926E+03  0.7546771E-02  0.1236476E+00
          2   -1    0    0  501    0  0.00000000000E+00  0.00000000000E+00  0.39835079472E+02  0.39835079472E+02  0.00000000000E+00 0. -1.
         -2   -1    0    0    0  501 -0.00000000000E+00 -0.00000000000E+00 -0.52293650733E+03  0.52293650733E+03  0.00000000000E+00 0.  1.
         23    2    1    2    0    0 -0.30767395210E+02  0.27299880537E+02 -0.42205178709E+03  0.44209086530E+03  0.12499882442E+03 0.  0.
          5    1    3    3  502    0  0.22184534642E+02  0.57145039948E+02 -0.13081989979E+03  0.14454634326E+03  0.47000000000E+01 0.  1.
         -5    1    3    3    0  502 -0.52951929853E+02 -0.29845159411E+02 -0.29123188730E+03  0.29754452204E+03  0.47000000000E+01 0.  1.
        -11    1    1    2    0    0 -0.79077117725E+01 -0.53500497371E+02 -0.17573579623E+02  0.56865330609E+02  0.00000000000E+00 0. -1.
         11    1    1    2    0    0  0.38675106983E+02  0.26200616835E+02 -0.43476061147E+02  0.63815390898E+02  0.00000000000E+00 0.  1.
<mgrwt>
<rscale>  0 0.12410412E+03</rscale>
<asrwt>0</asrwt>
<pdfrwt beam="1">  1        2 0.61284739E-02 0.13159264E+03</pdfrwt>
<pdfrwt beam="2">  1       -2 0.80451769E-01 0.13159264E+03</pdfrwt>
<totfact> 0.16288897E+03</totfact>
</mgrwt>
</event>
<event>
 7    1  0.6095443E-006  0.1421382E+03  0.7546771E-02  0.1220946E+00
         -1   -1    0    0    0  501 -0.00000000000E+00  0.00000000000E+00  0.51374409108E+02  0.51374409108E+02  0.00000000000E+00 0.  1.
          1   -1    0    0  501    0  0.00000000000E+00 -0.00000000000E+00 -0.33426706563E+03  0.33426706563E+03  0.00000000000E+00 0. -1.
         23    2    1    2    0    0 -0.20088629868E+02  0.64623466098E+02 -0.11542673661E+03  0.18310270406E+03  0.12499409301E+03 0.  0.
          5    1    3    3  502    0 -0.38203997674E+02 -0.26705802227E+02 -0.53842851858E+02  0.71371478947E+02  0.47000000000E+01 0. -1.
         -5    1    3    3    0  502  0.18115367806E+02  0.91329268324E+02 -0.61583884757E+02  0.11173122511E+03  0.47000000000E+01 0. -1.
        -11    1    1    2    0    0 -0.19231669322E+00  0.16307197485E+02 -0.10052335627E+01  0.16339283033E+02  0.00000000000E+00 0.  1.
         11    1    1    2    0    0  0.20280946561E+02 -0.80930663583E+02 -0.16646068634E+03  0.18619948764E+03  0.00000000000E+00 0. -1.
<mgrwt>
<rscale>  0 0.13448703E+03</rscale>
<asrwt>0</asrwt>
<pdfrwt beam="2">  1        1 0.51425703E-01 0.14213820E+03</pdfrwt>
<pdfrwt beam="1">  1       -1 0.79037552E-02 0.14213820E+03</pdfrwt>
<totfact> 0.64135105E+03</totfact>
</mgrwt>
</event>
<event>
 7    1  0.6095443E-006  0.2192519E+03  0.7546771E-02  0.1137592E+00
          2   -1    0    0  501    0  0.00000000000E+00  0.00000000000E+00  0.12467295875E+04  0.12467295875E+04  0.00000000000E+00 0. -1.
         -2   -1    0    0    0  501 -0.00000000000E+00 -0.00000000000E+00 -0.37626603245E+02  0.37626603245E+02  0.00000000000E+00 0.  1.
         23    2    1    2    0    0  0.14327497474E+03 -0.10917748165E+03  0.48396875547E+03  0.53131642258E+03  0.12499577490E+03 0.  0.
          5    1    3    3  502    0  0.66340820862E+02  0.14981202008E+02  0.21028671089E+03  0.22106137542E+03  0.47000000000E+01 0. -1.
         -5    1    3    3    0  502  0.76934153880E+02 -0.12415868366E+03  0.27368204458E+03  0.31025504716E+03  0.47000000000E+01 0. -1.
        -11    1    1    2    0    0 -0.72971155431E+02  0.18019229947E+01  0.21700029233E+03  0.22894794894E+03  0.00000000000E+00 0.  1.
         11    1    1    2    0    0 -0.70303819310E+02  0.10737555865E+03  0.50813393640E+03  0.52409181918E+03  0.00000000000E+00 0. -1.
<mgrwt>
<rscale>  0 0.21509706E+03</rscale>
<asrwt>0</asrwt>
<pdfrwt beam="1">  1        2 0.19180452E+00 0.21925187E+03</pdfrwt>
<pdfrwt beam="2">  1       -2 0.57887091E-02 0.21925187E+03</pdfrwt>
<totfact> 0.29321875E+03</totfact>
</mgrwt>
</event>
<event>
 7    1  0.6095443E-006  0.4489168E+03  0.7546771E-02  0.1028653E+00
          1   -1    0    0  501    0  0.00000000000E+00  0.00000000000E+00  0.56835482095E+03  0.56835482095E+03  0.00000000000E+00 0. -1.
         -1   -1    0    0    0  501 -0.00000000000E+00 -0.00000000000E+00 -0.39024158946E+03  0.39024158946E+03  0.00000000000E+00 0.  1.
         23    2    1    2    0    0 -0.41956471861E+03  0.99319113124E+02 -0.67433399981E+02  0.45395323648E+03  0.12500975221E+03 0.  0.
          5    1    3    3  502    0 -0.99698986240E+02 -0.28749302634E+02 -0.69315171576E+01  0.10409873289E+03  0.47000000000E+01 0.  1.
         -5    1    3    3    0  502 -0.31986573237E+03  0.12806841576E+03 -0.60501882823E+02  0.34985450359E+03  0.47000000000E+01 0.  1.
        -11    1    1    2    0    0  0.18498641457E+03 -0.46846071411E+02  0.16151361315E+03  0.25000235042E+03  0.00000000000E+00 0. -1.
         11    1    1    2    0    0  0.23457830404E+03 -0.52473041713E+02  0.84033018324E+02  0.25464082351E+03  0.00000000000E+00 0.  1.
<mgrwt>
<rscale>  0 0.44689292E+03</rscale>
<asrwt>0</asrwt>
<pdfrwt beam="1">  1        1 0.87439203E-01 0.44891678E+03</pdfrwt>
<pdfrwt beam="2">  1       -1 0.60037168E-01 0.44891678E+03</pdfrwt>
<totfact> 0.10874206E+02</totfact>
</mgrwt>
</event>
<event>
 7    1  0.6095443E-006  0.1906933E+03  0.7546771E-02  0.1162661E+00
          2   -1    0    0  501    0  0.00000000000E+00  0.00000000000E+00  0.41909760618E+03  0.41909760618E+03  0.00000000000E+00 0. -1.
         -2   -1    0    0    0  501 -0.00000000000E+00 -0.00000000000E+00 -0.10431301021E+03  0.10431301021E+03  0.00000000000E+00 0.  1.
         23    2    1    2    0    0 -0.14366875981E+03  0.99478214466E+01  0.32187441793E+02  0.19339069947E+03  0.12499703812E+03 0.  0.
          5    1    3    3  502    0 -0.39105853360E+02 -0.54080981534E+01 -0.46770288285E+02  0.61384567759E+02  0.47000000000E+01 0. -1.
         -5    1    3    3    0  502 -0.10456290645E+03  0.15355919600E+02  0.78957730078E+02  0.13200613172E+03  0.47000000000E+01 0. -1.
        -11    1    1    2    0    0  0.14672607440E+03 -0.29435143366E+02  0.23637122388E+03  0.27976119111E+03  0.00000000000E+00 0.  1.
         11    1    1    2    0    0 -0.30573145895E+01  0.19487321919E+02  0.46225930286E+02  0.50258725799E+02  0.00000000000E+00 0. -1.
<mgrwt>
<rscale>  0 0.18541657E+03</rscale>
<asrwt>0</asrwt>
<pdfrwt beam="1">  1        2 0.64476554E-01 0.19069329E+03</pdfrwt>
<pdfrwt beam="2">  1       -2 0.16048156E-01 0.19069329E+03</pdfrwt>
<totfact> 0.22906737E+03</totfact>
</mgrwt>
</event>
<event>
 7    1  0.6095443E-006  0.1267515E+03  0.7546771E-02  0.1244523E+00
          1   -1    0    0  501    0  0.00000000000E+00  0.00000000000E+00  0.53562417628E+02  0.53562417628E+02  0.00000000000E+00 0. -1.
         -1   -1    0    0    0  501 -0.00000000000E+00 -0.00000000000E+00 -0.23836049407E+03  0.23836049407E+03  0.00000000000E+00 0.  1.
         23    2    1    2    0    0  0.37484714155E+02  0.22952783503E+02 -0.11113488907E+03  0.16857315211E+03  0.11888654246E+03 0.  0.
          5    1    3    3  502    0  0.53340243660E+02 -0.31677986269E+02 -0.29226455929E+02  0.68738287249E+02  0.47000000000E+01 0. -1.
         -5    1    3    3    0  502 -0.15855529505E+02  0.54630769772E+02 -0.81908433140E+02  0.99834864858E+02  0.47000000000E+01 0.  1.
        -11    1    1    2    0    0 -0.48174339180E+02  0.16775886353E+02 -0.62588654904E+02  0.80743650159E+02  0.00000000000E+00 0.  1.
         11    1    1    2    0    0  0.10689625026E+02 -0.39728669856E+02 -0.11074532472E+02  0.42606109435E+02  0.00000000000E+00 0. -1.
<mgrwt>
<rscale>  0 0.11913972E+03</rscale>
<asrwt>0</asrwt>
<pdfrwt beam="1">  1        1 0.82403721E-02 0.12675151E+03</pdfrwt>
<pdfrwt beam="2">  1       -1 0.36670845E-01 0.12675151E+03</pdfrwt>
<totfact> 0.56939490E+03</totfact>
</mgrwt>
</event>
<event>
 7    1  0.6095443E-006  0.1433212E+03  0.7546771E-02  0.1213738E+00
          1   -1    0    0  501    0  0.00000000000E+00  0.00000000000E+00  0.19580127915E+03  0.19580127915E+03  0.00000000000E+00 0. -1.
         -1   -1    0    0    0  501 -0.00000000000E+00 -0.00000000000E+00 -0.10607969087E+03  0.10607969087E+03  0.00000000000E+00 0.  1.
         23    2    1    2    0    0  0.62744830461E+02 -0.31298890169E+02 -0.19425757403E+01  0.14333437749E+03  0.12499774355E+03 0.  0.
          5    1    3    3  502    0  0.74660087218E+02 -0.32344251348E+02 -0.48632701955E+02  0.94907897027E+02  0.47000000000E+01 0.  1.
         -5    1    3    3    0  502 -0.11915256757E+02  0.10453611792E+01  0.46690126215E+02  0.48426480458E+02  0.47000000000E+01 0.  1.
        -11    1    1    2    0    0 -0.12375597373E+01 -0.34598627356E+02  0.79374712701E+01  0.35519009265E+02  0.00000000000E+00 0.  1.
         11    1    1    2    0    0 -0.61507270723E+02  0.65897517525E+02  0.83726692752E+02  0.12302758328E+03  0.00000000000E+00 0. -1.
<mgrwt>
<rscale>  0 0.13969637E+03</rscale>
<asrwt>0</asrwt>
<pdfrwt beam="1">  1        1 0.30123274E-01 0.14332121E+03</pdfrwt>
<pdfrwt beam="2">  1       -1 0.16319952E-01 0.14332121E+03</pdfrwt>
<totfact> 0.40750218E+03</totfact>
</mgrwt>
</event>
<event>
 7    1  0.6095443E-006  0.1637833E+03  0.7546771E-02  0.1192316E+00
          1   -1    0    0  501    0  0.00000000000E+00  0.00000000000E+00  0.12170421887E+04  0.12170421887E+04  0.00000000000E+00 0. -1.
         -1   -1    0    0    0  501 -0.00000000000E+00 -0.00000000000E+00 -0.19083484223E+02  0.19083484223E+02  0.00000000000E+00 0.  1.
         23    2    1    2    0    0  0.96097579921E+02  0.44309463831E+02  0.55926895818E+03  0.58275787715E+03  0.12500760915E+03 0.  0.
          5    1    3    3  502    0  0.12092048070E+03  0.48535854889E+02  0.51823854393E+03  0.53438822057E+03  0.47000000000E+01 0. -1.
         -5    1    3    3    0  502 -0.24822900783E+02 -0.42263910580E+01  0.41030414248E+02  0.48369656583E+02  0.47000000000E+01 0. -1.
        -11    1    1    2    0    0 -0.11069921774E+03 -0.40264709850E+02  0.60593379949E+03  0.61727735503E+03  0.00000000000E+00 0.  1.
         11    1    1    2    0    0  0.14601637816E+02 -0.40447539815E+01  0.32755946769E+02  0.36090440706E+02  0.00000000000E+00 0. -1.
<mgrwt>
<rscale>  0 0.15683610E+03</rscale>
<asrwt>0</asrwt>
<pdfrwt beam="1">  1        1 0.18723720E+00 0.16378332E+03</pdfrwt>
<pdfrwt beam="2">  1       -1 0.29359216E-02 0.16378332E+03</pdfrwt>
<totfact> 0.42857772E+03</totfact>
</mgrwt>
</event>
<event>
 7    1  0.6095443E-006  0.1296301E+03  0.7546771E-02  0.1242576E+00
          2   -1    0    0  501    0  0.00000000000E+00  0.00000000000E+00  0.45220223074E+03  0.45220223074E+03  0.00000000000E+00 0.  1.
         -2   -1    0    0    0  501 -0.00000000000E+00 -0.00000000000E+00 -0.30858735265E+02  0.30858735265E+02  0.00000000000E+00 0. -1.
         23    2    1    2    0    0  0.26550042537E+02  0.30918967508E+02  0.16892000407E+03  0.21292706223E+03  0.12305721736E+03 0.  0.
          5    1    3    3  502    0 -0.18338300302E+01  0.64160054264E+02  0.15331814648E+03  0.16627813908E+03  0.47000000000E+01 0.  1.
         -5    1    3    3    0  502  0.28383872567E+02 -0.33241086756E+02  0.15601857589E+02  0.46648923148E+02  0.47000000000E+01 0.  1.
        -11    1    1    2    0    0  0.58608777635E+01 -0.43271037814E+02  0.21383686784E+03  0.21824971627E+03  0.00000000000E+00 0.  1.
         11    1    1    2    0    0 -0.32410920301E+02  0.12352070306E+02  0.38586623563E+02  0.51884187510E+02  0.00000000000E+00 0. -1.
<mgrwt>
<rscale>  0 0.12031638E+03</rscale>
<asrwt>0</asrwt>
<pdfrwt beam="1">  1        2 0.69569569E-01 0.12963011E+03</pdfrwt>
<pdfrwt beam="2">  1       -2 0.47474981E-02 0.12963011E+03</pdfrwt>
<totfact> 0.13910005E+04</totfact>
</mgrwt>
</event>
<event>
 7    1  0.6095443E-006  0.1361200E+03  0.7546771E-02  0.1230460E+00
         -3   -1    0    0    0  501 -0.00000000000E+00  0.00000000000E+00  0.36706047002E+02  0.36706047002E+02  0.00000000000E+00 0.  1.
          3   -1    0    0  501    0  0.00000000000E+00 -0.00000000000E+00 -0.40157855634E+03  0.40157855634E+03  0.00000000000E+00 0. -1.
         23    2    1    2    0    0 -0.46086304968E+02  0.27946917284E+02 -0.19425245317E+03  0.23719753831E+03  0.12499471558E+03 0.  0.
          5    1    3    3  502    0 -0.83802131793E+02  0.86274967865E+01 -0.84317370893E+02  0.11928428240E+03  0.47000000000E+01 0.  1.
         -5    1    3    3    0  502  0.37715826826E+02  0.19319420498E+02 -0.10993508228E+03  0.11791325590E+03  0.47000000000E+01 0.  1.
        -11    1    1    2    0    0  0.53302478861E+02 -0.49476511951E+02 -0.16053769793E+03  0.17624253727E+03  0.00000000000E+00 0.  1.
         11    1    1    2    0    0 -0.72161738937E+01  0.21529594667E+02 -0.10082358231E+02  0.24844527761E+02  0.00000000000E+00 0. -1.
<mgrwt>
<rscale>  0 0.12799568E+03</rscale>
<asrwt>0</asrwt>
<pdfrwt beam="2">  1        3 0.61781316E-01 0.13612001E+03</pdfrwt>
<pdfrwt beam="1">  1       -3 0.56470841E-02 0.13612001E+03</pdfrwt>
<totfact> 0.11214941E+03</totfact>
</mgrwt>
</event>
<event>
 7    1  0.6095443E-006  0.1383952E+03  0.7546771E-02  0.1227207E+00
         -1   -1    0    0    0  501 -0.00000000000E+00  0.00000000000E+00  0.58988075708E+02  0.58988075708E+02  0.00000000000E+00 0.  1.
          1   -1    0    0  501    0  0.00000000000E+00 -0.00000000000E+00 -0.29813594735E+03  0.29813594735E+03  0.00000000000E+00 0. -1.
         23    2    1    2    0    0 -0.17703040776E+02 -0.56723192966E+02 -0.67047769238E+02  0.15378111164E+03  0.12498923420E+03 0.  0.
          5    1    3    3  502    0 -0.56013621104E+02 -0.10896873837E+01  0.30716999831E+01  0.56304871091E+02  0.47000000000E+01 0.  1.
         -5    1    3    3    0  502  0.38310580328E+02 -0.55633505582E+02 -0.70119469221E+02  0.97476240552E+02  0.47000000000E+01 0.  1.
        -11    1    1    2    0    0  0.52658133814E+02  0.23378003211E+02 -0.72156120657E+02  0.92335885977E+02  0.00000000000E+00 0.  1.
         11    1    1    2    0    0 -0.34955093038E+02  0.33345189755E+02 -0.99943981747E+02  0.11100702544E+03  0.00000000000E+00 0. -1.
<mgrwt>
<rscale>  0 0.13016748E+03</rscale>
<asrwt>0</asrwt>
<pdfrwt beam="2">  1        1 0.45867070E-01 0.13839518E+03</pdfrwt>
<pdfrwt beam="1">  1       -1 0.90750884E-02 0.13839518E+03</pdfrwt>
<totfact> 0.59869436E+03</totfact>
</mgrwt>
</event>
<event>
 6    1  0.6095443E-006  0.3483826E+03  0.7546771E-02  0.1063281E+00
          1   -1    0    0  501    0  0.00000000000E+00  0.00000000000E+00  0.66445307912E+03  0.66445307912E+03  0.00000000000E+00 0. -1.
         -1   -1    0    0    0  501 -0.00000000000E+00 -0.00000000000E+00 -0.45665542322E+02  0.45665542322E+02  0.00000000000E+00 0.  1.
          5    1    1    2  502    0  0.75027561154E+01  0.37691529403E+01  0.13229474403E+03  0.13264421270E+03  0.47000000000E+01 0. -1.
         -5    1    1    2    0  502 -0.77460660887E+02  0.25171491254E+02  0.52491243257E+01  0.81752071920E+02  0.47000000000E+01 0.  1.
        -11    1    1    2    0    0  0.13295056165E+02 -0.54863369430E+02  0.24205894557E+03  0.24855438229E+03  0.00000000000E+00 0. -1.
         11    1    1    2    0    0  0.56662848607E+02  0.25922725235E+02  0.23918472286E+03  0.24716795453E+03  0.00000000000E+00 0.  1.
<mgrwt>
<rscale>  0 0.34838261E+03</rscale>
<asrwt>0</asrwt>
<pdfrwt beam="1">  1        1 0.10222354E+00 0.34838261E+03</pdfrwt>
<pdfrwt beam="2">  1       -1 0.70254685E-02 0.34838261E+03</pdfrwt>
<totfact> 0.32054440E+03</totfact>
</mgrwt>
</event>
<event>
 7    1  0.6095443E-006  0.1537784E+03  0.7546771E-02  0.1205734E+00
         -3   -1    0    0    0  501 -0.00000000000E+00  0.00000000000E+00  0.25333774523E+02  0.25333774523E+02  0.00000000000E+00 0.  1.
          3   -1    0    0  501    0  0.00000000000E+00 -0.00000000000E+00 -0.78467462659E+03  0.78467462659E+03  0.00000000000E+00 0. -1.
         23    2    1    2    0    0  0.86945845806E+02 -0.21503811431E+02 -0.48605664051E+03  0.50980275355E+03  0.12500318290E+03 0.  0.
          5    1    3    3  502    0  0.11352114889E+03 -0.27726609626E+02 -0.44616972784E+03  0.46124324620E+03  0.47000000000E+01 0.  1.
         -5    1    3    3    0  502 -0.26575303087E+02  0.62227981957E+01 -0.39886912672E+02  0.48559507350E+02  0.47000000000E+01 0.  1.
        -11    1    1    2    0    0 -0.95588458615E+02  0.39996078793E+02 -0.22129576952E+03  0.24435354990E+03  0.00000000000E+00 0. -1.
         11    1    1    2    0    0  0.86426128094E+01 -0.18492267362E+02 -0.51988442036E+02  0.55852097666E+02  0.00000000000E+00 0.  1.
<mgrwt>
<rscale>  0 0.14579729E+03</rscale>
<asrwt>0</asrwt>
<pdfrwt beam="2">  1        3 0.12071918E+00 0.15377838E+03</pdfrwt>
<pdfrwt beam="1">  1       -3 0.38975035E-02 0.15377838E+03</pdfrwt>
<totfact> 0.46741909E+02</totfact>
</mgrwt>
</event>
<event>
 7    1  0.6095443E-006  0.2260026E+03  0.7546771E-02  0.1132295E+00
         -2   -1    0    0    0  501 -0.00000000000E+00  0.00000000000E+00  0.81533786149E+02  0.81533786149E+02  0.00000000000E+00 0.  1.
          2   -1    0    0  501    0  0.00000000000E+00 -0.00000000000E+00 -0.58550138141E+03  0.58550138141E+03  0.00000000000E+00 0. -1.
         23    2    1    2    0    0  0.16783510104E+03 -0.85352292219E+02 -0.25736601451E+03  0.34251195359E+03  0.12499415185E+03 0.  0.
          5    1    3    3  502    0  0.39715387415E+01 -0.25610508793E+02 -0.11306876498E+03  0.11609611059E+03  0.47000000000E+01 0.  1.
         -5    1    3    3    0  502  0.16386356230E+03 -0.59741783426E+02 -0.14429724953E+03  0.22641584299E+03  0.47000000000E+01 0.  1.
        -11    1    1    2    0    0 -0.10212687145E+03  0.56214887570E+02 -0.75374759215E+02  0.13882134484E+03  0.00000000000E+00 0.  1.
         11    1    1    2    0    0 -0.65708229597E+02  0.29137404649E+02 -0.17122682154E+03  0.18570186913E+03  0.00000000000E+00 0. -1.
<mgrwt>
<rscale>  0 0.22214355E+03</rscale>
<asrwt>0</asrwt>
<pdfrwt beam="2">  1        2 0.90077139E-01 0.22600259E+03</pdfrwt>
<pdfrwt beam="1">  1       -2 0.12543659E-01 0.22600259E+03</pdfrwt>
<totfact> 0.23734978E+03</totfact>
</mgrwt>
</event>
<event>
 7    1  0.6095443E-006  0.1318347E+03  0.7546771E-02  0.1238078E+00
         -1   -1    0    0    0  501 -0.00000000000E+00  0.00000000000E+00  0.36280549441E+02  0.36280549441E+02  0.00000000000E+00 0.  1.
          1   -1    0    0  501    0  0.00000000000E+00 -0.00000000000E+00 -0.51372937339E+03  0.51372937339E+03  0.00000000000E+00 0. -1.
         23    2    1    2    0    0 -0.33380297267E+02  0.25321182679E+02 -0.11824952475E+03  0.17709698132E+03  0.12499993660E+03 0.  0.
          5    1    3    3  502    0 -0.22489914467E+02 -0.20898320625E+02 -0.12509348941E+03  0.12889145492E+03  0.47000000000E+01 0. -1.
         -5    1    3    3    0  502 -0.10890382800E+02  0.46219503304E+02  0.68439646602E+01  0.48205526400E+02  0.47000000000E+01 0. -1.
        -11    1    1    2    0    0 -0.11217850917E+02  0.25619862186E+02 -0.16245508175E+03  0.16484499114E+03  0.00000000000E+00 0. -1.
         11    1    1    2    0    0  0.44598148185E+02 -0.50941044865E+02 -0.19674421745E+03  0.20806795037E+03  0.00000000000E+00 0.  1.
<mgrwt>
<rscale>  0 0.12309450E+03</rscale>
<asrwt>0</asrwt>
<pdfrwt beam="2">  1        1 0.79035283E-01 0.13183471E+03</pdfrwt>
<pdfrwt beam="1">  1       -1 0.55816234E-02 0.13183471E+03</pdfrwt>
<totfact> 0.62250601E+03</totfact>
</mgrwt>
</event>
<event>
 7    1  0.6095443E-006  0.1499084E+03  0.7546771E-02  0.1210501E+00
         -1   -1    0    0    0  501 -0.00000000000E+00  0.00000000000E+00  0.14508654264E+03  0.14508654264E+03  0.00000000000E+00 0.  1.
          1   -1    0    0  501    0  0.00000000000E+00 -0.00000000000E+00 -0.12898253841E+03  0.12898253841E+03  0.00000000000E+00 0. -1.
         23    2    1    2    0    0  0.78621041277E+02  0.25803589514E+02  0.27552309608E+02  0.15241933740E+03  0.12500172513E+03 0.  0.
          5    1    3    3  502    0  0.94291628750E+02  0.45033830478E+02  0.52404005847E+02  0.11699242270E+03  0.47000000000E+01 0. -1.
         -5    1    3    3    0  502 -0.15670587473E+02 -0.19230240964E+02 -0.24851696239E+02  0.35426914701E+02  0.47000000000E+01 0. -1.
        -11    1    1    2    0    0 -0.34429670980E+02 -0.54896537259E+02  0.79751865212E+01  0.65288863115E+02  0.00000000000E+00 0.  1.
         11    1    1    2    0    0 -0.44191370296E+02  0.29092947745E+02 -0.19423491892E+02  0.56360880533E+02  0.00000000000E+00 0. -1.
<mgrwt>
<rscale>  0 0.14212298E+03</rscale>
<asrwt>0</asrwt>
<pdfrwt beam="2">  1        1 0.19843467E-01 0.14990839E+03</pdfrwt>
<pdfrwt beam="1">  1       -1 0.22321007E-01 0.14990839E+03</pdfrwt>
<totfact> 0.41847823E+03</totfact>
</mgrwt>
</event>
<event>
 7    1  0.6095443E-006  0.2004555E+03  0.7546771E-02  0.1154002E+00
          1   -1    0    0  501    0  0.00000000000E+00  0.00000000000E+00  0.12595964692E+03  0.12595964692E+03  0.00000000000E+00 0. -1.
         -1   -1    0    0    0  501 -0.00000000000E+00 -0.00000000000E+00 -0.34513962416E+03  0.34513962416E+03  0.00000000000E+00 0.  1.
         23    2    1    2    0    0 -0.11803053206E+03  0.10309151220E+03 -0.21137962449E+03  0.29131381204E+03  0.12499330002E+03 0.  0.
          5    1    3    3  502    0 -0.69532612389E+02  0.12509330645E+03 -0.12687590673E+03  0.19131833475E+03  0.47000000000E+01 0. -1.
         -5    1    3    3    0  502 -0.48497919675E+02 -0.22001794251E+02 -0.84503717763E+02  0.99995477292E+02  0.47000000000E+01 0. -1.
        -11    1    1    2    0    0  0.12877578117E+03 -0.10467990263E+03 -0.15188938292E+02  0.16664869540E+03  0.00000000000E+00 0.  1.
         11    1    1    2    0    0 -0.10745249107E+02  0.15883904323E+01  0.73885855480E+01  0.13136763641E+02  0.00000000000E+00 0. -1.
<mgrwt>
<rscale>  0 0.19502926E+03</rscale>
<asrwt>0</asrwt>
<pdfrwt beam="1">  1        1 0.19378408E-01 0.20045546E+03</pdfrwt>
<pdfrwt beam="2">  1       -1 0.53098403E-01 0.20045546E+03</pdfrwt>
<totfact> 0.97305508E+02</totfact>
</mgrwt>
</event>
<event>
 7    1  0.6095443E-006  0.1323089E+03  0.7546771E-02  0.1238087E+00
         -1   -1    0    0    0  501 -0.00000000000E+00  0.00000000000E+00  0.47306217548E+02  0.47306217548E+02  0.00000000000E+00 0.  1.
          1   -1    0    0  501    0  0.00000000000E+00 -0.00000000000E+00 -0.32488245969E+03  0.32488245969E+03  0.00000000000E+00 0. -1.
         23    2    1    2    0    0  0.35604707462E+02 -0.24698767312E+02 -0.89931549746E+02  0.15997912790E+03  0.12501165315E+03 0.  0.
          5    1    3    3  502    0  0.33582550111E+02  0.83344417985E+01  0.23258837292E+02  0.41956097343E+02  0.47000000000E+01 0.  1.
         -5    1    3    3    0  502  0.20221573511E+01 -0.33033209110E+02 -0.11319038704E+03  0.11802303056E+03  0.47000000000E+01 0.  1.
        -11    1    1    2    0    0  0.23262669901E+02  0.10700011755E+02 -0.11426858751E+03  0.11710231490E+03  0.00000000000E+00 0. -1.
         11    1    1    2    0    0 -0.58867377363E+02  0.13998755557E+02 -0.73376104884E+02  0.95107234439E+02  0.00000000000E+00 0.  1.
<mgrwt>
<rscale>  0 0.12308885E+03</rscale>
<asrwt>0</asrwt>
<pdfrwt beam="2">  1        1 0.49981919E-01 0.13230887E+03</pdfrwt>
<pdfrwt beam="1">  1       -1 0.72778793E-02 0.13230887E+03</pdfrwt>
<totfact> 0.74888058E+03</totfact>
</mgrwt>
</event>
<event>
 7    1  0.6095443E-006  0.1935221E+03  0.7546771E-02  0.1159904E+00
         -2   -1    0    0    0  501 -0.00000000000E+00  0.00000000000E+00  0.15968094138E+02  0.15968094138E+02  0.00000000000E+00 0.  1.
          2   -1    0    0  501    0  0.00000000000E+00 -0.00000000000E+00 -0.21135012900E+04  0.21135012900E+04  0.00000000000E+00 0. -1.
         23    2    1    2    0    0  0.76317152726E+02 -0.12648998627E+03 -0.11176817082E+04  0.11343117764E+04  0.12500712300E+03 0.  0.
          5    1    3    3  502    0  0.92175074036E+02 -0.11879125166E+03 -0.68849904557E+03  0.70474153524E+03  0.47000000000E+01 0.  1.
         -5    1    3    3    0  502 -0.15857921310E+02 -0.76987346079E+01 -0.42918266264E+03  0.42957024116E+03  0.47000000000E+01 0.  1.
        -11    1    1    2    0    0 -0.74904216498E+01  0.99405882443E+02 -0.58680443234E+03  0.59521179230E+03  0.00000000000E+00 0.  1.
         11    1    1    2    0    0 -0.68826731076E+02  0.27084103825E+02 -0.39304705532E+03  0.39994581543E+03  0.00000000000E+00 0. -1.
<mgrwt>
<rscale>  0 0.18840925E+03</rscale>
<asrwt>0</asrwt>
<pdfrwt beam="2">  1        2 0.32515392E+00 0.19352211E+03</pdfrwt>
<pdfrwt beam="1">  1       -2 0.24566308E-02 0.19352211E+03</pdfrwt>
<totfact> 0.36929166E+03</totfact>
</mgrwt>
</event>
<event>
 7    1  0.6095443E-006  0.1337052E+03  0.7546771E-02  0.1234617E+00
          1   -1    0    0  501    0  0.00000000000E+00  0.00000000000E+00  0.41091669792E+03  0.41091669792E+03  0.00000000000E+00 0. -1.
         -1   -1    0    0    0  501 -0.00000000000E+00 -0.00000000000E+00 -0.38760488589E+02  0.38760488589E+02  0.00000000000E+00 0.  1.
         23    2    1    2    0    0  0.23121449561E+02 -0.41473377178E+02  0.12998231166E+03  0.18647381964E+03  0.12498976607E+03 0.  0.
          5    1    3    3  502    0  0.72618194829E+02 -0.13077232790E+02  0.55096769558E+02  0.92207159447E+02  0.47000000000E+01 0. -1.
         -5    1    3    3    0  502 -0.49496745268E+02 -0.28396144388E+02  0.74885542102E+02  0.94266660194E+02  0.47000000000E+01 0. -1.
        -11    1    1    2    0    0 -0.22938317315E+02 -0.50444687881E+01  0.85516914704E+01  0.24994889350E+02  0.00000000000E+00 0.  1.
         11    1    1    2    0    0 -0.18313224555E+00  0.46517845966E+02  0.23362220620E+03  0.23820847751E+03  0.00000000000E+00 0. -1.
<mgrwt>
<rscale>  0 0.12529010E+03</rscale>
<asrwt>0</asrwt>
<pdfrwt beam="1">  1        1 0.63217951E-01 0.13370521E+03</pdfrwt>
<pdfrwt beam="2">  1       -1 0.59631524E-02 0.13370521E+03</pdfrwt>
<totfact> 0.75236319E+03</totfact>
</mgrwt>
</event>
<event>
 7    1  0.6095443E-006  0.2128999E+03  0.7546771E-02  0.1142952E+00
          1   -1    0    0  501    0  0.00000000000E+00  0.00000000000E+00  0.38262791291E+03  0.38262791291E+03  0.00000000000E+00 0. -1.
         -1   -1    0    0    0  501 -0.00000000000E+00 -0.00000000000E+00 -0.11476788180E+03  0.11476788180E+03  0.00000000000E+00 0.  1.
         23    2    1    2    0    0  0.17210133006E+03 -0.90303752061E+01  0.82266180577E+02  0.22824128974E+03  0.12500378550E+03 0.  0.
          5    1    3    3  502    0  0.10790076488E+03 -0.57980488921E+02  0.15866877405E+02  0.12360485410E+03  0.47000000000E+01 0. -1.
         -5    1    3    3    0  502  0.64200565174E+02  0.48950113715E+02  0.66399303172E+02  0.10463643564E+03  0.47000000000E+01 0. -1.
        -11    1    1    2    0    0 -0.11973548985E+03 -0.11669708092E+02  0.66593605300E+02  0.13750446496E+03  0.00000000000E+00 0. -1.
         11    1    1    2    0    0 -0.52365840203E+02  0.20700083298E+02  0.11900024524E+03  0.13165004001E+03  0.00000000000E+00 0.  1.
<mgrwt>
<rscale>  0 0.20825872E+03</rscale>
<asrwt>0</asrwt>
<pdfrwt beam="1">  1        1 0.58865832E-01 0.21289989E+03</pdfrwt>
<pdfrwt beam="2">  1       -1 0.17656597E-01 0.21289989E+03</pdfrwt>
<totfact> 0.15777652E+03</totfact>
</mgrwt>
</event>
<event>
 7    1  0.6095443E-006  0.1147386E+03  0.7546771E-02  0.1259934E+00
         -2   -1    0    0    0  501 -0.00000000000E+00  0.00000000000E+00  0.88066169749E+02  0.88066169749E+02  0.00000000000E+00 0.  1.
          2   -1    0    0  501    0  0.00000000000E+00 -0.00000000000E+00 -0.14607477057E+03  0.14607477057E+03  0.00000000000E+00 0. -1.
         23    2    1    2    0    0  0.16238075025E+02 -0.23095606499E+02  0.93280142692E+01  0.11511717573E+03  0.11121092652E+03 0.  0.
          5    1    3    3  502    0 -0.46743496073E+02 -0.17562547869E+02  0.12328366280E+02  0.51647614929E+02  0.47000000000E+01 0. -1.
         -5    1    3    3    0  502  0.62981571098E+02 -0.55330586300E+01 -0.30003520108E+01  0.63469560799E+02  0.47000000000E+01 0.  1.
        -11    1    1    2    0    0  0.22594507408E+02  0.47276582890E+02 -0.35724527649E+02  0.63417891249E+02  0.00000000000E+00 0.  1.
         11    1    1    2    0    0 -0.38832582433E+02 -0.24180976391E+02 -0.31612087439E+02  0.55605873339E+02  0.00000000000E+00 0. -1.
<mgrwt>
<rscale>  0 0.11034414E+03</rscale>
<asrwt>0</asrwt>
<pdfrwt beam="2">  1        2 0.22473041E-01 0.11473863E+03</pdfrwt>
<pdfrwt beam="1">  1       -2 0.13548642E-01 0.11473863E+03</pdfrwt>
<totfact> 0.91512830E+03</totfact>
</mgrwt>
</event>
<event>
 7    1  0.6095443E-006  0.1894026E+03  0.7546771E-02  0.1164043E+00
          2   -1    0    0  501    0  0.00000000000E+00  0.00000000000E+00  0.62640167649E+02  0.62640167649E+02  0.00000000000E+00 0. -1.
         -2   -1    0    0    0  501 -0.00000000000E+00 -0.00000000000E+00 -0.70952753438E+03  0.70952753438E+03  0.00000000000E+00 0.  1.
         23    2    1    2    0    0 -0.60344016670E+02 -0.12886507321E+03 -0.54094861638E+03  0.57314809366E+03  0.12500289702E+03 0.  0.
          5    1    3    3  502    0 -0.37728225445E+02 -0.98997982679E+02 -0.17056217288E+03  0.20084213798E+03  0.47000000000E+01 0.  1.
         -5    1    3    3    0  502 -0.22615791224E+02 -0.29867090534E+02 -0.37038644350E+03  0.37230595568E+03  0.47000000000E+01 0.  1.
        -11    1    1    2    0    0 -0.85698726163E+01  0.80229431634E+02 -0.71863413456E+02  0.10804885289E+03  0.00000000000E+00 0. -1.
         11    1    1    2    0    0  0.68913889286E+02  0.48635641579E+02 -0.34075336900E+02  0.90970755483E+02  0.00000000000E+00 0.  1.
<mgrwt>
<rscale>  0 0.18394035E+03</rscale>
<asrwt>0</asrwt>
<pdfrwt beam="1">  1        2 0.96369481E-02 0.18940257E+03</pdfrwt>
<pdfrwt beam="2">  1       -2 0.10915809E+00 0.18940257E+03</pdfrwt>
<totfact> 0.46532565E+02</totfact>
</mgrwt>
</event>
<event>
 7    1  0.6095443E-006  0.1291802E+03  0.7546771E-02  0.1243063E+00
         -2   -1    0    0    0  501 -0.00000000000E+00  0.00000000000E+00  0.30905041426E+03  0.30905041426E+03  0.00000000000E+00 0.  1.
          2   -1    0    0  501    0  0.00000000000E+00 -0.00000000000E+00 -0.67908683211E+02  0.67908683211E+02  0.00000000000E+00 0. -1.
         23    2    1    2    0    0 -0.29094067191E+02  0.14706615067E+02  0.24886214325E+03  0.28039239655E+03  0.12499912169E+03 0.  0.
          5    1    3    3  502    0 -0.62712363096E+02  0.27545419142E+02  0.70619735537E+02  0.98492779675E+02  0.47000000000E+01 0. -1.
         -5    1    3    3    0  502  0.33618295905E+02 -0.12838804075E+02  0.17824240772E+03  0.18189961687E+03  0.47000000000E+01 0. -1.
        -11    1    1    2    0    0  0.44512528820E+02  0.23664077963E+01  0.29040725602E+02  0.53200835062E+02  0.00000000000E+00 0.  1.
         11    1    1    2    0    0 -0.15418461629E+02 -0.17073022864E+02 -0.36761137810E+02  0.43365865860E+02  0.00000000000E+00 0. -1.
<mgrwt>
<rscale>  0 0.12002059E+03</rscale>
<asrwt>0</asrwt>
<pdfrwt beam="2">  1        2 0.10447490E-01 0.12918022E+03</pdfrwt>
<pdfrwt beam="1">  1       -2 0.47546217E-01 0.12918022E+03</pdfrwt>
<totfact> 0.24749066E+03</totfact>
</mgrwt>
</event>
<event>
 7    1  0.6095443E-006  0.1416844E+03  0.7546771E-02  0.1220656E+00
          2   -1    0    0  501    0  0.00000000000E+00  0.00000000000E+00  0.36883252925E+03  0.36883252925E+03  0.00000000000E+00 0. -1.
         -2   -1    0    0    0  501 -0.00000000000E+00 -0.00000000000E+00 -0.53519404606E+02  0.53519404606E+02  0.00000000000E+00 0.  1.
         23    2    1    2    0    0 -0.44137368861E+02  0.50014749925E+02  0.86661307031E+02  0.16608630231E+03  0.12499958055E+03 0.  0.
          5    1    3    3  502    0 -0.69109690349E+02  0.75222141477E+02  0.46632015175E+02  0.11238841002E+03  0.47000000000E+01 0. -1.
         -5    1    3    3    0  502  0.24972321488E+02 -0.25207391553E+02  0.40029291856E+02  0.53697892286E+02  0.47000000000E+01 0. -1.
        -11    1    1    2    0    0  0.60400780090E+02 -0.38180688729E+02  0.22467306898E+03  0.23576260762E+03  0.00000000000E+00 0. -1.
         11    1    1    2    0    0 -0.16263411230E+02 -0.11834061196E+02  0.39787486264E+01  0.20503023919E+02  0.00000000000E+00 0.  1.
<mgrwt>
<rscale>  0 0.13469171E+03</rscale>
<asrwt>0</asrwt>
<pdfrwt beam="1">  1        2 0.56743464E-01 0.14168443E+03</pdfrwt>
<pdfrwt beam="2">  1       -2 0.82337548E-02 0.14168443E+03</pdfrwt>
<totfact> 0.75381073E+03</totfact>
</mgrwt>
</event>
<event>
 7    1  0.6095443E-006  0.1674062E+03  0.7546771E-02  0.1187498E+00
          2   -1    0    0  501    0  0.00000000000E+00  0.00000000000E+00  0.28524019943E+03  0.28524019943E+03  0.00000000000E+00 0. -1.
         -2   -1    0    0    0  501 -0.00000000000E+00 -0.00000000000E+00 -0.14014320925E+03  0.14014320925E+03  0.00000000000E+00 0.  1.
         23    2    1    2    0    0  0.91636542005E+02 -0.63263584288E+02 -0.57618240613E+02  0.17704431722E+03  0.12500116672E+03 0.  0.
          5    1    3    3  502    0 -0.18946725636E+01 -0.66258810811E+02  0.11131824579E+01  0.66461635320E+02  0.47000000000E+01 0. -1.
         -5    1    3    3    0  502  0.93531214569E+02  0.29952265227E+01 -0.58731423071E+02  0.11058268190E+03  0.47000000000E+01 0. -1.
        -11    1    1    2    0    0 -0.76458251049E+02  0.50187856504E+02  0.20833987862E+03  0.22753063556E+03  0.00000000000E+00 0. -1.
         11    1    1    2    0    0 -0.15178290956E+02  0.13075727785E+02 -0.56246478343E+01  0.20808455894E+02  0.00000000000E+00 0.  1.
<mgrwt>
<rscale>  0 0.16106687E+03</rscale>
<asrwt>0</asrwt>
<pdfrwt beam="1">  1        2 0.43883108E-01 0.16740618E+03</pdfrwt>
<pdfrwt beam="2">  1       -2 0.21560494E-01 0.16740618E+03</pdfrwt>
<totfact> 0.20947306E+03</totfact>
</mgrwt>
</event>
<event>
 7    1  0.6095443E-006  0.1493215E+03  0.7546771E-02  0.1210247E+00
         -1   -1    0    0    0  501 -0.00000000000E+00  0.00000000000E+00  0.12488408088E+03  0.12488408088E+03  0.00000000000E+00 0.  1.
          1   -1    0    0  501    0  0.00000000000E+00 -0.00000000000E+00 -0.15588082875E+03  0.15588082875E+03  0.00000000000E+00 0. -1.
         23    2    1    2    0    0  0.78566879436E+02 -0.22348055209E+02  0.13116062206E+02  0.14989642339E+03  0.12499886616E+03 0.  0.
          5    1    3    3  502    0  0.10019943867E+03  0.13361722282E+02 -0.10433125401E+02  0.10173201678E+03  0.47000000000E+01 0. -1.
         -5    1    3    3    0  502 -0.21632559231E+02 -0.35709777491E+02  0.23549187607E+02  0.48164406612E+02  0.47000000000E+01 0. -1.
        -11    1    1    2    0    0 -0.22013395570E+02 -0.18132795232E+01  0.28277740257E+02  0.35881863960E+02  0.00000000000E+00 0.  1.
         11    1    1    2    0    0 -0.56553483866E+02  0.24161334732E+02 -0.72390550333E+02  0.94986622273E+02  0.00000000000E+00 0. -1.
<mgrwt>
<rscale>  0 0.14231574E+03</rscale>
<asrwt>0</asrwt>
<pdfrwt beam="2">  1        1 0.23981666E-01 0.14932149E+03</pdfrwt>
<pdfrwt beam="1">  1       -1 0.19212936E-01 0.14932149E+03</pdfrwt>
<totfact> 0.41920407E+03</totfact>
</mgrwt>
</event>
<event>
 7    1  0.6095443E-006  0.2267879E+03  0.7546771E-02  0.1132040E+00
         -4   -1    0    0    0  501 -0.00000000000E+00  0.00000000000E+00  0.84133224341E+03  0.84133224341E+03  0.00000000000E+00 0. -1.
          4   -1    0    0  501    0  0.00000000000E+00 -0.00000000000E+00 -0.57266299241E+02  0.57266299241E+02  0.00000000000E+00 0.  1.
         23    2    1    2    0    0  0.18735413041E+03  0.26558578440E+02  0.45104949841E+03  0.50485483348E+03  0.12500329833E+03 0.  0.
          5    1    3    3  502    0  0.20457643245E+03  0.29795051009E+02  0.39369178782E+03  0.44469604853E+03  0.47000000000E+01 0.  1.
         -5    1    3    3    0  502 -0.17222302037E+02 -0.32364725691E+01  0.57357710591E+02  0.60158784948E+02  0.47000000000E+01 0.  1.
        -11    1    1    2    0    0 -0.13464133082E+03 -0.12562321051E+02  0.30225921337E+03  0.33112947912E+03  0.00000000000E+00 0. -1.
         11    1    1    2    0    0 -0.52712799586E+02 -0.13996257390E+02  0.30757232382E+02  0.62614230051E+02  0.00000000000E+00 0.  1.
<mgrwt>
<rscale>  0 0.22249065E+03</rscale>
<asrwt>0</asrwt>
<pdfrwt beam="2">  1        4 0.88102005E-02 0.22678790E+03</pdfrwt>
<pdfrwt beam="1">  1       -4 0.12943572E+00 0.22678790E+03</pdfrwt>
<totfact> 0.78107939E+01</totfact>
</mgrwt>
</event>
<event>
 7    1  0.6095443E-006  0.1251062E+03  0.7546771E-02  0.1251434E+00
          2   -1    0    0  501    0  0.00000000000E+00  0.00000000000E+00  0.99927938550E+02  0.99927938550E+02  0.00000000000E+00 0. -1.
         -2   -1    0    0    0  501 -0.00000000000E+00 -0.00000000000E+00 -0.11988082268E+03  0.11988082268E+03  0.00000000000E+00 0.  1.
         23    2    1    2    0    0  0.16423909396E+01 -0.49668120566E+01 -0.32736987230E+02  0.12931848159E+03  0.12499677067E+03 0.  0.
          5    1    3    3  502    0  0.22046885185E+02  0.19076961249E+02  0.40104884314E+02  0.49804491190E+02  0.47000000000E+01 0. -1.
         -5    1    3    3    0  502 -0.20404494246E+02 -0.24043773305E+02 -0.72841871543E+02  0.79513990405E+02  0.47000000000E+01 0. -1.
        -11    1    1    2    0    0  0.29043471100E+01 -0.40450049157E+02  0.18342071599E+02  0.44509249595E+02  0.00000000000E+00 0.  1.
         11    1    1    2    0    0 -0.45467380496E+01  0.45416861214E+02 -0.55579684956E+01  0.45981030036E+02  0.00000000000E+00 0. -1.
<mgrwt>
<rscale>  0 0.11508405E+03</rscale>
<asrwt>0</asrwt>
<pdfrwt beam="1">  1        2 0.15373529E-01 0.12510619E+03</pdfrwt>
<pdfrwt beam="2">  1       -2 0.18443204E-01 0.12510619E+03</pdfrwt>
<totfact> 0.85590727E+03</totfact>
</mgrwt>
</event>
<event>
 7    1  0.6095443E-006  0.1395036E+03  0.7546771E-02  0.1225376E+00
         -2   -1    0    0    0  501 -0.00000000000E+00  0.00000000000E+00  0.96924457396E+03  0.96924457396E+03  0.00000000000E+00 0. -1.
          2   -1    0    0  501    0  0.00000000000E+00 -0.00000000000E+00 -0.22687994697E+02  0.22687994697E+02  0.00000000000E+00 0.  1.
         23    2    1    2    0    0  0.24465780241E+02  0.56905680929E+02  0.78025957763E+03  0.79263248995E+03  0.12499769888E+03 0.  0.
          5    1    3    3  502    0 -0.11712933313E+02  0.72650780555E+02  0.69105776496E+03  0.69498075745E+03  0.47000000000E+01 0. -1.
         -5    1    3    3    0  502  0.36178713554E+02 -0.15745099626E+02  0.89201812670E+02  0.97651732501E+02  0.47000000000E+01 0. -1.
        -11    1    1    2    0    0  0.19131332848E+02  0.14916542209E+02  0.24486819018E+02  0.34469050373E+02  0.00000000000E+00 0.  1.
         11    1    1    2    0    0 -0.43597113089E+02 -0.71822223138E+02  0.14181018261E+03  0.16483102833E+03  0.00000000000E+00 0. -1.
<mgrwt>
<rscale>  0 0.13141160E+03</rscale>
<asrwt>0</asrwt>
<pdfrwt beam="2">  1        2 0.34904615E-02 0.13950360E+03</pdfrwt>
<pdfrwt beam="1">  1       -2 0.14911452E+00 0.13950360E+03</pdfrwt>
<totfact> 0.79856480E+02</totfact>
</mgrwt>
</event>
<event>
 6    1  0.6095443E-006  0.1646381E+03  0.7546771E-02  0.1204465E+00
         -1   -1    0    0    0  501 -0.00000000000E+00  0.00000000000E+00  0.48979353984E+02  0.48979353984E+02  0.00000000000E+00 0.  1.
          1   -1    0    0  501    0  0.00000000000E+00 -0.00000000000E+00 -0.36869604320E+03  0.36869604320E+03  0.00000000000E+00 0. -1.
          5    1    1    2  502    0 -0.68898497417E+01 -0.28669144237E+02 -0.22140700315E+03  0.22341114767E+03  0.47000000000E+01 0. -1.
         -5    1    1    2    0  502 -0.13585013037E+02 -0.25413143820E+02  0.20989693290E+02  0.35958833163E+02  0.47000000000E+01 0.  1.
        -11    1    1    2    0    0  0.95898682477E+01  0.75346302924E+02 -0.68974778610E+02  0.10259898158E+03  0.00000000000E+00 0.  1.
         11    1    1    2    0    0  0.10884994531E+02 -0.21264014866E+02 -0.50324600749E+02  0.55706434770E+02  0.00000000000E+00 0. -1.
<mgrwt>
<rscale>  0 0.14679711E+03</rscale>
<asrwt>0</asrwt>
<pdfrwt beam="2">  1        1 0.56722470E-01 0.16463805E+03</pdfrwt>
<pdfrwt beam="1">  1       -1 0.75352850E-02 0.16463805E+03</pdfrwt>
<totfact> 0.61498749E+03</totfact>
</mgrwt>
</event>
<event>
 7    1  0.6095443E-006  0.1341041E+03  0.7546771E-02  0.1224833E+00
          2   -1    0    0  501    0  0.00000000000E+00  0.00000000000E+00  0.15300374201E+03  0.15300374201E+03  0.00000000000E+00 0. -1.
         -2   -1    0    0    0  501 -0.00000000000E+00 -0.00000000000E+00 -0.14093463034E+03  0.14093463034E+03  0.00000000000E+00 0.  1.
         23    2    1    2    0    0  0.47124378497E+02 -0.11649474504E+02 -0.62907039566E+02  0.14812563323E+03  0.12500996076E+03 0.  0.
          5    1    3    3  502    0  0.13297330148E+01 -0.14197718030E+02  0.35997133807E+02  0.39002910526E+02  0.47000000000E+01 0. -1.
         -5    1    3    3    0  502  0.45794645483E+02  0.25482435257E+01 -0.98904173373E+02  0.10912272270E+03  0.47000000000E+01 0. -1.
        -11    1    1    2    0    0 -0.47769033017E+02  0.34383380465E+02 -0.83433489777E+01  0.59445006853E+02  0.00000000000E+00 0.  1.
         11    1    1    2    0    0  0.64465451945E+00 -0.22733905961E+02  0.83319500213E+02  0.86367732258E+02  0.00000000000E+00 0. -1.
<mgrwt>
<rscale>  0 0.13178345E+03</rscale>
<asrwt>0</asrwt>
<pdfrwt beam="1">  1        2 0.23539037E-01 0.13410409E+03</pdfrwt>
<pdfrwt beam="2">  1       -2 0.21682251E-01 0.13410409E+03</pdfrwt>
<totfact> 0.40320498E+03</totfact>
</mgrwt>
</event>
<event>
 7    1  0.6095443E-006  0.1369151E+03  0.7546771E-02  0.1228597E+00
         -3   -1    0    0    0  501 -0.00000000000E+00  0.00000000000E+00  0.27153575710E+03  0.27153575710E+03  0.00000000000E+00 0. -1.
          3   -1    0    0  501    0  0.00000000000E+00 -0.00000000000E+00 -0.59195478355E+02  0.59195478355E+02  0.00000000000E+00 0.  1.
         23    2    1    2    0    0  0.31760974208E+02 -0.45934263489E+02  0.15849612837E+03  0.20944391969E+03  0.12500806670E+03 0.  0.
          5    1    3    3  502    0  0.35553636946E+00 -0.82910058052E+02  0.70865126440E+02  0.10917032691E+03  0.47000000000E+01 0. -1.
         -5    1    3    3    0  502  0.31405437838E+02  0.36975794563E+02  0.87631001931E+02  0.10027359278E+03  0.47000000000E+01 0. -1.
        -11    1    1    2    0    0 -0.43920214583E+02  0.75174532888E+01 -0.10115587768E+02  0.45692696013E+02  0.00000000000E+00 0.  1.
         11    1    1    2    0    0  0.12159240376E+02  0.38416810201E+02  0.63959738142E+02  0.75594619754E+02  0.00000000000E+00 0. -1.
<mgrwt>
<rscale>  0 0.12923382E+03</rscale>
<asrwt>0</asrwt>
<pdfrwt beam="2">  1        3 0.91069968E-02 0.13691506E+03</pdfrwt>
<pdfrwt beam="1">  1       -3 0.41774731E-01 0.13691506E+03</pdfrwt>
<totfact> 0.11344698E+03</totfact>
</mgrwt>
</event>
<event>
 6    1  0.6095443E-006  0.3999032E+03  0.7546771E-02  0.1071290E+00
         -2   -1    0    0    0  501 -0.00000000000E+00  0.00000000000E+00  0.65292055697E+02  0.65292055697E+02  0.00000000000E+00 0.  1.
          2   -1    0    0  501    0  0.00000000000E+00 -0.00000000000E+00 -0.13480615987E+04  0.13480615987E+04  0.00000000000E+00 0. -1.
          5    1    1    2  502    0 -0.11102542658E+03 -0.29618004468E+02 -0.73560465003E+03  0.74454023577E+03  0.47000000000E+01 0. -1.
         -5    1    1    2    0  502  0.27079480436E+02 -0.10648941069E+03 -0.22037534119E+02  0.11216521636E+03  0.47000000000E+01 0.  1.
        -11    1    1    2    0    0  0.15535305753E+02 -0.12008165815E+02 -0.85439417060E+02  0.87666617128E+02  0.00000000000E+00 0. -1.
         11    1    1    2    0    0  0.68410640388E+02  0.14811558097E+03 -0.43968794181E+03  0.46898158516E+03  0.00000000000E+00 0.  1.
<mgrwt>
<rscale>  0 0.32965375E+03</rscale>
<asrwt>0</asrwt>
<pdfrwt beam="2">  1        2 0.20739408E+00 0.39990318E+03</pdfrwt>
<pdfrwt beam="1">  1       -2 0.10044932E-01 0.39990318E+03</pdfrwt>
<totfact> 0.10812833E+03</totfact>
</mgrwt>
</event>
<event>
 6    1  0.6095443E-006  0.1620559E+03  0.7546771E-02  0.1200990E+00
          2   -1    0    0  501    0  0.00000000000E+00  0.00000000000E+00  0.23388877071E+03  0.23388877071E+03  0.00000000000E+00 0. -1.
         -2   -1    0    0    0  501 -0.00000000000E+00 -0.00000000000E+00 -0.22548885956E+03  0.22548885956E+03  0.00000000000E+00 0.  1.
          5    1    1    2  502    0  0.16175030511E+02 -0.52399626600E+02  0.32841681339E+01  0.55138264755E+02  0.47000000000E+01 0. -1.
         -5    1    1    2    0  502 -0.35399977372E+02 -0.19970078757E+02 -0.18017707693E+03  0.18476425924E+03  0.47000000000E+01 0.  1.
        -11    1    1    2    0    0  0.65190982355E+01  0.17093290667E+02 -0.65439657503E+01  0.19429429105E+02  0.00000000000E+00 0.  1.
         11    1    1    2    0    0  0.12705848626E+02  0.55276414691E+02  0.19183678569E+03  0.20004567717E+03  0.00000000000E+00 0. -1.
<mgrwt>
<rscale>  0 0.14958036E+03</rscale>
<asrwt>0</asrwt>
<pdfrwt beam="1">  1        2 0.35982888E-01 0.16205592E+03</pdfrwt>
<pdfrwt beam="2">  1       -2 0.34690594E-01 0.16205592E+03</pdfrwt>
<totfact> 0.11099314E+03</totfact>
</mgrwt>
</event>
<event>
 7    1  0.6095443E-006  0.1394950E+03  0.7546771E-02  0.1228186E+00
          2   -1    0    0  501    0  0.00000000000E+00  0.00000000000E+00  0.10112678390E+03  0.10112678390E+03  0.00000000000E+00 0. -1.
         -2   -1    0    0    0  501 -0.00000000000E+00 -0.00000000000E+00 -0.17744720913E+03  0.17744720913E+03  0.00000000000E+00 0.  1.
         23    2    1    2    0    0  0.58931375938E+02 -0.19018491952E+02 -0.10077401916E+03  0.17208794339E+03  0.12499698882E+03 0.  0.
          5    1    3    3  502    0 -0.20441084762E+01  0.44259732195E+02 -0.60940085168E+02  0.75490968027E+02  0.47000000000E+01 0.  1.
         -5    1    3    3    0  502  0.60975484414E+02 -0.63278224147E+02 -0.39833933997E+02  0.96596975358E+02  0.47000000000E+01 0.  1.
        -11    1    1    2    0    0 -0.46702442334E+02 -0.19323790684E+01 -0.23818554929E+02  0.52461183438E+02  0.00000000000E+00 0.  1.
         11    1    1    2    0    0 -0.12228933604E+02  0.20950871021E+02  0.48272148857E+02  0.54024866209E+02  0.00000000000E+00 0. -1.
<mgrwt>
<rscale>  0 0.12950935E+03</rscale>
<asrwt>0</asrwt>
<pdfrwt beam="1">  1        2 0.15557967E-01 0.13949501E+03</pdfrwt>
<pdfrwt beam="2">  1       -2 0.27299570E-01 0.13949501E+03</pdfrwt>
<totfact> 0.43350513E+03</totfact>
</mgrwt>
</event>
<event>
 7    1  0.6095443E-006  0.1644928E+03  0.7546771E-02  0.1191191E+00
          4   -1    0    0  501    0  0.00000000000E+00  0.00000000000E+00  0.41368963869E+02  0.41368963869E+02  0.00000000000E+00 0. -1.
         -4   -1    0    0    0  501 -0.00000000000E+00 -0.00000000000E+00 -0.55790408447E+03  0.55790408447E+03  0.00000000000E+00 0.  1.
         23    2    1    2    0    0  0.25401765879E+02 -0.10384400264E+03 -0.27952826499E+03  0.32433613821E+03  0.12501621107E+03 0.  0.
          5    1    3    3  502    0 -0.11301798588E+02 -0.11975005316E+02  0.89558281736E+01  0.19324292016E+02  0.47000000000E+01 0.  1.
         -5    1    3    3    0  502  0.36703564466E+02 -0.91868997323E+02 -0.28848409316E+03  0.30501184620E+03  0.47000000000E+01 0.  1.
        -11    1    1    2    0    0 -0.39404829137E+02  0.18648701604E+02 -0.13188860257E+03  0.13890686851E+03  0.00000000000E+00 0.  1.
         11    1    1    2    0    0  0.14003063258E+02  0.85195301036E+02 -0.10511825303E+03  0.13603004161E+03  0.00000000000E+00 0. -1.
<mgrwt>
<rscale>  0 0.15781049E+03</rscale>
<asrwt>0</asrwt>
<pdfrwt beam="1">  1        4 0.63644571E-02 0.16449280E+03</pdfrwt>
<pdfrwt beam="2">  1       -4 0.85831383E-01 0.16449280E+03</pdfrwt>
<totfact> 0.33729449E+02</totfact>
</mgrwt>
</event>
<event>
 7    1  0.6095443E-006  0.1658485E+03  0.7546771E-02  0.1188999E+00
          2   -1    0    0  501    0  0.00000000000E+00  0.00000000000E+00  0.11706087694E+03  0.11706087694E+03  0.00000000000E+00 0. -1.
         -2   -1    0    0    0  501 -0.00000000000E+00 -0.00000000000E+00 -0.20609309488E+03  0.20609309488E+03  0.00000000000E+00 0.  1.
         23    2    1    2    0    0 -0.29432286742E+02  0.10495175425E+03 -0.66485729261E+02  0.17867872513E+03  0.12499841756E+03 0.  0.
          5    1    3    3  502    0  0.18299917847E+02  0.40168574648E+02  0.29529018982E+02  0.53314672882E+02  0.47000000000E+01 0.  1.
         -5    1    3    3    0  502 -0.47732204588E+02  0.64783179606E+02 -0.96014748244E+02  0.12536405224E+03  0.47000000000E+01 0.  1.
        -11    1    1    2    0    0  0.61295487107E+02 -0.78475513271E+02 -0.25966047582E+02  0.10290664969E+03  0.00000000000E+00 0.  1.
         11    1    1    2    0    0 -0.31863200365E+02 -0.26476240983E+02  0.34195589088E+01  0.41568597008E+02  0.00000000000E+00 0. -1.
<mgrwt>
<rscale>  0 0.15973262E+03</rscale>
<asrwt>0</asrwt>
<pdfrwt beam="1">  1        2 0.18009366E-01 0.16584853E+03</pdfrwt>
<pdfrwt beam="2">  1       -2 0.31706630E-01 0.16584853E+03</pdfrwt>
<totfact> 0.28229804E+03</totfact>
</mgrwt>
</event>
<event>
 7    1  0.6095443E-006  0.1545097E+03  0.7546771E-02  0.1202897E+00
          1   -1    0    0  501    0  0.00000000000E+00  0.00000000000E+00  0.15622637730E+03  0.15622637730E+03  0.00000000000E+00 0. -1.
         -1   -1    0    0    0  501 -0.00000000000E+00 -0.00000000000E+00 -0.15263586869E+03  0.15263586869E+03  0.00000000000E+00 0.  1.
         23    2    1    2    0    0  0.19609657698E+02 -0.88677976047E+02 -0.57703587485E+02  0.16493315220E+03  0.12499967430E+03 0.  0.
          5    1    3    3  502    0  0.24113102084E+02 -0.63035515157E+02  0.29499470442E+02  0.73805329209E+02  0.47000000000E+01 0. -1.
         -5    1    3    3    0  502 -0.45034443866E+01 -0.25642460890E+02 -0.87203057927E+02  0.91127822994E+02  0.47000000000E+01 0. -1.
        -11    1    1    2    0    0 -0.22644218809E+02  0.75491218437E+01 -0.18420521889E+02  0.30150713304E+02  0.00000000000E+00 0.  1.
         11    1    1    2    0    0  0.30345611118E+01  0.81128854204E+02  0.79714617981E+02  0.11377838048E+03  0.00000000000E+00 0. -1.
<mgrwt>
<rscale>  0 0.14804392E+03</rscale>
<asrwt>0</asrwt>
<pdfrwt beam="1">  1        1 0.24034827E-01 0.15450968E+03</pdfrwt>
<pdfrwt beam="2">  1       -1 0.23482441E-01 0.15450968E+03</pdfrwt>
<totfact> 0.30256106E+03</totfact>
</mgrwt>
</event>
<event>
 7    1  0.6095443E-006  0.1534773E+03  0.7546771E-02  0.1204557E+00
          2   -1    0    0  501    0  0.00000000000E+00  0.00000000000E+00  0.21872832220E+03  0.21872832220E+03  0.00000000000E+00 0. -1.
         -2   -1    0    0    0  501 -0.00000000000E+00 -0.00000000000E+00 -0.15720570223E+03  0.15720570223E+03  0.00000000000E+00 0.  1.
         23    2    1    2    0    0 -0.81238995093E+02  0.36469686431E+02 -0.89635503321E+02  0.17773522121E+03  0.12500189219E+03 0.  0.
          5    1    3    3  502    0 -0.69634160867E+02 -0.11473254050E+02  0.50065807401E+01  0.70906330950E+02  0.47000000000E+01 0.  1.
         -5    1    3    3    0  502 -0.11604834226E+02  0.47942940482E+02 -0.94642084061E+02  0.10682889026E+03  0.47000000000E+01 0.  1.
        -11    1    1    2    0    0  0.77101919428E+02 -0.61955488962E+02  0.98702913999E+02  0.13973351003E+03  0.00000000000E+00 0.  1.
         11    1    1    2    0    0  0.41370756647E+01  0.25485802530E+02  0.52455209297E+02  0.58465293193E+02  0.00000000000E+00 0. -1.
<mgrwt>
<rscale>  0 0.14672395E+03</rscale>
<asrwt>0</asrwt>
<pdfrwt beam="1">  1        2 0.33650511E-01 0.15347731E+03</pdfrwt>
<pdfrwt beam="2">  1       -2 0.24185493E-01 0.15347731E+03</pdfrwt>
<totfact> 0.22748895E+03</totfact>
</mgrwt>
</event>
<event>
 6    1  0.6095443E-006  0.3068330E+03  0.7546771E-02  0.1125721E+00
         -1   -1    0    0    0  501 -0.00000000000E+00  0.00000000000E+00  0.12507652093E+03  0.12507652093E+03  0.00000000000E+00 0.  1.
          1   -1    0    0  501    0  0.00000000000E+00 -0.00000000000E+00 -0.48181292410E+03  0.48181292410E+03  0.00000000000E+00 0. -1.
          5    1    1    2  502    0  0.54125107338E+02 -0.89255721623E+02 -0.17088732996E+03  0.20030147435E+03  0.47000000000E+01 0. -1.
         -5    1    1    2    0  502 -0.70745839655E+02  0.42428651815E+02  0.84780262029E+02  0.11838474206E+03  0.47000000000E+01 0.  1.
        -11    1    1    2    0    0  0.10447680376E+02  0.61144967462E+02 -0.26412090923E+03  0.27130741929E+03  0.00000000000E+00 0. -1.
         11    1    1    2    0    0  0.61730519405E+01 -0.14317897654E+02 -0.65084260109E+01  0.16895809322E+02  0.00000000000E+00 0.  1.
<mgrwt>
<rscale>  0 0.23131044E+03</rscale>
<asrwt>0</asrwt>
<pdfrwt beam="2">  1        1 0.74125065E-01 0.30683298E+03</pdfrwt>
<pdfrwt beam="1">  1       -1 0.19242542E-01 0.30683298E+03</pdfrwt>
<totfact> 0.10212097E+03</totfact>
</mgrwt>
</event>
<event>
 7    1  0.6095443E-006  0.1418782E+03  0.7546771E-02  0.1220418E+00
         -1   -1    0    0    0  501 -0.00000000000E+00  0.00000000000E+00  0.11186149547E+03  0.11186149547E+03  0.00000000000E+00 0.  1.
          1   -1    0    0  501    0  0.00000000000E+00 -0.00000000000E+00 -0.14936489675E+03  0.14936489675E+03  0.00000000000E+00 0. -1.
         23    2    1    2    0    0  0.90203284872E+00 -0.67104934576E+02 -0.10276200307E+02  0.14224989092E+03  0.12500218105E+03 0.  0.
          5    1    3    3  502    0  0.62548963671E+02 -0.31795354083E+02 -0.10144018588E+02  0.71051449744E+02  0.47000000000E+01 0.  1.
         -5    1    3    3    0  502 -0.61646930823E+02 -0.35309580493E+02 -0.13218171827E+00  0.71198441180E+02  0.47000000000E+01 0.  1.
        -11    1    1    2    0    0  0.21544254759E+02 -0.17125981475E+02 -0.13766572401E+02  0.30772921055E+02  0.00000000000E+00 0. -1.
         11    1    1    2    0    0 -0.22446287608E+02  0.84230916051E+02 -0.13460628576E+02  0.88203580244E+02  0.00000000000E+00 0.  1.
<mgrwt>
<rscale>  0 0.13485963E+03</rscale>
<asrwt>0</asrwt>
<pdfrwt beam="2">  1        1 0.22979215E-01 0.14187823E+03</pdfrwt>
<pdfrwt beam="1">  1       -1 0.17209461E-01 0.14187823E+03</pdfrwt>
<totfact> 0.52575913E+03</totfact>
</mgrwt>
</event>
<event>
 7    1  0.6095443E-006  0.1548507E+03  0.7546771E-02  0.1198643E+00
         -2   -1    0    0    0  501 -0.00000000000E+00  0.00000000000E+00  0.35989569753E+02  0.35989569753E+02  0.00000000000E+00 0.  1.
          2   -1    0    0  501    0  0.00000000000E+00 -0.00000000000E+00 -0.62594448712E+03  0.62594448712E+03  0.00000000000E+00 0. -1.
         23    2    1    2    0    0  0.76313614384E+02 -0.50297527413E+02 -0.35763795585E+03  0.38972250723E+03  0.12500046468E+03 0.  0.
          5    1    3    3  502    0 -0.32200749524E+01  0.16799687875E+02 -0.19996489823E+03  0.20075021524E+03  0.47000000000E+01 0. -1.
         -5    1    3    3    0  502  0.79533689337E+02 -0.67097215288E+02 -0.15767305762E+03  0.18897229199E+03  0.47000000000E+01 0. -1.
        -11    1    1    2    0    0  0.92774179892E+01  0.35387141786E+02 -0.17626316117E+02  0.40607970993E+02  0.00000000000E+00 0.  1.
         11    1    1    2    0    0 -0.85591032373E+02  0.14910385627E+02 -0.21469064540E+03  0.23160357865E+03  0.00000000000E+00 0. -1.
<mgrwt>
<rscale>  0 0.15149899E+03</rscale>
<asrwt>0</asrwt>
<pdfrwt beam="2">  1        2 0.96299145E-01 0.15485065E+03</pdfrwt>
<pdfrwt beam="1">  1       -2 0.55368573E-02 0.15485065E+03</pdfrwt>
<totfact> 0.77762150E+03</totfact>
</mgrwt>
</event>
<event>
 7    1  0.6095443E-006  0.1533989E+03  0.7546771E-02  0.1203708E+00
         -4   -1    0    0    0  501 -0.00000000000E+00  0.00000000000E+00  0.40507899432E+03  0.40507899432E+03  0.00000000000E+00 0.  1.
          4   -1    0    0  501    0  0.00000000000E+00 -0.00000000000E+00 -0.54661936271E+02  0.54661936271E+02  0.00000000000E+00 0. -1.
         23    2    1    2    0    0 -0.21460335985E+02 -0.86284121457E+02  0.25603605209E+03  0.29847226631E+03  0.12500295257E+03 0.  0.
          5    1    3    3  502    0  0.17792121230E+02 -0.87086945228E+02  0.23969400224E+03  0.25568730965E+03  0.47000000000E+01 0. -1.
         -5    1    3    3    0  502 -0.39252457214E+02  0.80282377097E+00  0.16342049853E+02  0.42784956664E+02  0.47000000000E+01 0. -1.
        -11    1    1    2    0    0  0.47456678152E+02  0.89788623373E+02  0.87737894875E+02  0.13420905851E+03  0.00000000000E+00 0.  1.
         11    1    1    2    0    0 -0.25996342168E+02 -0.35045019164E+01  0.66431110885E+01  0.27059605775E+02  0.00000000000E+00 0. -1.
<mgrwt>
<rscale>  0 0.14739769E+03</rscale>
<asrwt>0</asrwt>
<pdfrwt beam="2">  1        4 0.84095289E-02 0.15339894E+03</pdfrwt>
<pdfrwt beam="1">  1       -4 0.62319844E-01 0.15339894E+03</pdfrwt>
<totfact> 0.42285506E+02</totfact>
</mgrwt>
</event>
<event>
 7    1  0.6095443E-006  0.2635167E+03  0.7546771E-02  0.1107161E+00
         -1   -1    0    0    0  501 -0.00000000000E+00  0.00000000000E+00  0.41622429052E+03  0.41622429052E+03  0.00000000000E+00 0.  1.
          1   -1    0    0  501    0  0.00000000000E+00 -0.00000000000E+00 -0.15876967089E+03  0.15876967089E+03  0.00000000000E+00 0. -1.
         23    2    1    2    0    0 -0.81101243683E+02 -0.21738612240E+03  0.11424021812E+03  0.28721395962E+03  0.12492755191E+03 0.  0.
          5    1    3    3  502    0  0.31496330122E+02 -0.77938859108E+02  0.38542065206E+02  0.92596249171E+02  0.47000000000E+01 0.  1.
         -5    1    3    3    0  502 -0.11259757381E+03 -0.13944726329E+03  0.75698152913E+02  0.19461771045E+03  0.47000000000E+01 0.  1.
        -11    1    1    2    0    0  0.34068824380E+02  0.11548906881E+03  0.12592498347E+03  0.17422833085E+03  0.00000000000E+00 0.  1.
         11    1    1    2    0    0  0.47032419303E+02  0.10189705359E+03  0.17289418041E+02  0.11355167093E+03  0.00000000000E+00 0. -1.
<mgrwt>
<rscale>  0 0.25996994E+03</rscale>
<asrwt>0</asrwt>
<pdfrwt beam="2">  1        1 0.24426103E-01 0.26351666E+03</pdfrwt>
<pdfrwt beam="1">  1       -1 0.64034506E-01 0.26351666E+03</pdfrwt>
<totfact> 0.50619105E+02</totfact>
</mgrwt>
</event>
<event>
 7    1  0.6095443E-006  0.1328458E+03  0.7546771E-02  0.1235003E+00
          2   -1    0    0  501    0  0.00000000000E+00  0.00000000000E+00  0.11177234325E+03  0.11177234325E+03  0.00000000000E+00 0. -1.
         -2   -1    0    0    0  501 -0.00000000000E+00 -0.00000000000E+00 -0.17338666998E+03  0.17338666998E+03  0.00000000000E+00 0.  1.
         23    2    1    2    0    0  0.59864647665E+01 -0.44496063381E+02 -0.10782879445E+03  0.17109951047E+03  0.12502902125E+03 0.  0.
          5    1    3    3  502    0 -0.24495952542E+02 -0.24575007935E+02  0.18458709217E+02  0.39582782266E+02  0.47000000000E+01 0. -1.
         -5    1    3    3    0  502  0.30482417309E+02 -0.19921055447E+02 -0.12628750367E+03  0.13151672820E+03  0.47000000000E+01 0. -1.
        -11    1    1    2    0    0 -0.34363002293E+02 -0.15351697223E+02  0.21634948151E+02  0.43411536666E+02  0.00000000000E+00 0.  1.
         11    1    1    2    0    0  0.28376537527E+02  0.59847760604E+02  0.24579519569E+02  0.70647966096E+02  0.00000000000E+00 0. -1.
<mgrwt>
<rscale>  0 0.12504271E+03</rscale>
<asrwt>0</asrwt>
<pdfrwt beam="1">  1        2 0.17195745E-01 0.13284575E+03</pdfrwt>
<pdfrwt beam="2">  1       -2 0.26674872E-01 0.13284575E+03</pdfrwt>
<totfact> 0.40096963E+03</totfact>
</mgrwt>
</event>
<event>
 7    1  0.6095443E-006  0.1472933E+03  0.7546771E-02  0.1208528E+00
         -1   -1    0    0    0  501 -0.00000000000E+00  0.00000000000E+00  0.21164551357E+02  0.21164551357E+02  0.00000000000E+00 0.  1.
          1   -1    0    0  501    0  0.00000000000E+00 -0.00000000000E+00 -0.95598480321E+03  0.95598480321E+03  0.00000000000E+00 0. -1.
         23    2    1    2    0    0 -0.92670680299E+02  0.28273404673E+02 -0.40853692050E+03  0.43427840416E+03  0.11094177083E+03 0.  0.
          5    1    3    3  502    0 -0.74711799029E+02  0.52853641637E+02 -0.38432555687E+03  0.39509946091E+03  0.47000000000E+01 0. -1.
         -5    1    3    3    0  502 -0.17958881270E+02 -0.24580236964E+02 -0.24211363623E+02  0.39178943250E+02  0.47000000000E+01 0.  1.
        -11    1    1    2    0    0  0.10799357820E+03 -0.37298139765E+02 -0.47652196480E+03  0.49002749627E+03  0.00000000000E+00 0.  1.
         11    1    1    2    0    0 -0.15322897896E+02  0.90247350916E+01 -0.49761366557E+02  0.52843454136E+02  0.00000000000E+00 0. -1.
<mgrwt>
<rscale>  0 0.14362839E+03</rscale>
<asrwt>0</asrwt>
<pdfrwt beam="2">  1        1 0.14707455E+00 0.14729330E+03</pdfrwt>
<pdfrwt beam="1">  1       -1 0.32560856E-02 0.14729330E+03</pdfrwt>
<totfact> 0.56355868E+03</totfact>
</mgrwt>
</event>
<event>
 7    1  0.6095443E-006  0.1595576E+03  0.7546771E-02  0.1194205E+00
         -2   -1    0    0    0  501 -0.00000000000E+00  0.00000000000E+00  0.66180002123E+02  0.66180002123E+02  0.00000000000E+00 0.  1.
          2   -1    0    0  501    0  0.00000000000E+00 -0.00000000000E+00 -0.37507171127E+03  0.37507171127E+03  0.00000000000E+00 0. -1.
         23    2    1    2    0    0 -0.90655001595E+02 -0.40250122607E+02 -0.10048241482E+03  0.18856121629E+03  0.12498085820E+03 0.  0.
          5    1    3    3  502    0 -0.79720675568E+02 -0.76973396432E+02 -0.42240258924E+02  0.11868706478E+03  0.47000000000E+01 0.  1.
         -5    1    3    3    0  502 -0.10934326027E+02  0.36723273825E+02 -0.58242155898E+02  0.69874151514E+02  0.47000000000E+01 0.  1.
        -11    1    1    2    0    0  0.17132167272E+02  0.42143630855E+02 -0.18632564222E+02  0.49160647133E+02  0.00000000000E+00 0.  1.
         11    1    1    2    0    0  0.73522834323E+02 -0.18935082482E+01 -0.18977673011E+03  0.20352984997E+03  0.00000000000E+00 0. -1.
<mgrwt>
<rscale>  0 0.15521720E+03</rscale>
<asrwt>0</asrwt>
<pdfrwt beam="2">  1        2 0.57703340E-01 0.15955757E+03</pdfrwt>
<pdfrwt beam="1">  1       -2 0.10181539E-01 0.15955757E+03</pdfrwt>
<totfact> 0.53494536E+03</totfact>
</mgrwt>
</event>
<event>
 7    1  0.6095443E-006  0.2299530E+03  0.7546771E-02  0.1129717E+00
          4   -1    0    0  501    0  0.00000000000E+00  0.00000000000E+00  0.12693986382E+03  0.12693986382E+03  0.00000000000E+00 0.  1.
         -4   -1    0    0    0  501 -0.00000000000E+00 -0.00000000000E+00 -0.41477386067E+03  0.41477386067E+03  0.00000000000E+00 0. -1.
         23    2    1    2    0    0 -0.18415790753E+03  0.57781542442E+02 -0.21898316130E+03  0.31754059175E+03  0.12500224369E+03 0.  0.
          5    1    3    3  502    0 -0.91043756350E+02  0.82367289219E+02 -0.16898305161E+03  0.20892749373E+03  0.47000000000E+01 0.  1.
         -5    1    3    3    0  502 -0.93114151178E+02 -0.24585746778E+02 -0.50000109690E+02  0.10861309803E+03  0.47000000000E+01 0.  1.
        -11    1    1    2    0    0  0.15483416252E+03 -0.72625626055E+02 -0.30591946365E+02  0.17373533500E+03  0.00000000000E+00 0.  1.
         11    1    1    2    0    0  0.29323745003E+02  0.14844083613E+02 -0.38258889188E+02  0.50437797743E+02  0.00000000000E+00 0. -1.
<mgrwt>
<rscale>  0 0.22568178E+03</rscale>
<asrwt>0</asrwt>
<pdfrwt beam="1">  1        4 0.19529210E-01 0.22995304E+03</pdfrwt>
<pdfrwt beam="2">  1       -4 0.63811364E-01 0.22995304E+03</pdfrwt>
<totfact> 0.99219252E+01</totfact>
</mgrwt>
</event>
<event>
 7    1  0.6095443E-006  0.1460615E+03  0.7546771E-02  0.1214504E+00
         -2   -1    0    0    0  501 -0.00000000000E+00  0.00000000000E+00  0.69434992740E+03  0.69434992740E+03  0.00000000000E+00 0.  1.
          2   -1    0    0  501    0  0.00000000000E+00 -0.00000000000E+00 -0.25598140786E+02  0.25598140786E+02  0.00000000000E+00 0. -1.
         23    2    1    2    0    0  0.31573315060E+02  0.68729911833E+02  0.34890991091E+03  0.37824869696E+03  0.12495309447E+03 0.  0.
          5    1    3    3  502    0  0.90873641053E+01  0.77376085256E+02  0.34459966153E+03  0.35332797155E+03  0.47000000000E+01 0. -1.
         -5    1    3    3    0  502  0.22485950954E+02 -0.86461734223E+01  0.43102493799E+01  0.24920725408E+02  0.47000000000E+01 0. -1.
        -11    1    1    2    0    0  0.18015526925E+02  0.14618277096E+02  0.66230473339E+02  0.70176412236E+02  0.00000000000E+00 0.  1.
         11    1    1    2    0    0 -0.49588841985E+02 -0.83348188929E+02  0.25361140237E+03  0.27152295899E+03  0.00000000000E+00 0. -1.
<mgrwt>
<rscale>  0 0.13913020E+03</rscale>
<asrwt>0</asrwt>
<pdfrwt beam="2">  1        2 0.39381760E-02 0.14606146E+03</pdfrwt>
<pdfrwt beam="1">  1       -2 0.10682305E+00 0.14606146E+03</pdfrwt>
<totfact> 0.15376393E+03</totfact>
</mgrwt>
</event>
<event>
 7    1  0.6095443E-006  0.1281187E+03  0.7546771E-02  0.1246715E+00
         -2   -1    0    0    0  501 -0.00000000000E+00  0.00000000000E+00  0.54685796490E+02  0.54685796490E+02  0.00000000000E+00 0.  1.
          2   -1    0    0  501    0  0.00000000000E+00 -0.00000000000E+00 -0.25861152917E+03  0.25861152917E+03  0.00000000000E+00 0. -1.
         23    2    1    2    0    0  0.15644173064E+02 -0.23362975914E+02 -0.57243242379E+02  0.14032526885E+03  0.12499529385E+03 0.  0.
          5    1    3    3  502    0  0.61524550596E+02 -0.30259774479E+02 -0.29965548223E+01  0.68789487702E+02  0.47000000000E+01 0.  1.
         -5    1    3    3    0  502 -0.45880377531E+02  0.68967985648E+01 -0.54246687557E+02  0.71535781143E+02  0.47000000000E+01 0.  1.
        -11    1    1    2    0    0 -0.30075550945E+02  0.48658064581E+02 -0.12220075472E+03  0.13492653730E+03  0.00000000000E+00 0. -1.
         11    1    1    2    0    0  0.14431377881E+02 -0.25295088667E+02 -0.24481735578E+02  0.38045519514E+02  0.00000000000E+00 0.  1.
<mgrwt>
<rscale>  0 0.11783311E+03</rscale>
<asrwt>0</asrwt>
<pdfrwt beam="2">  1        2 0.39786389E-01 0.12811866E+03</pdfrwt>
<pdfrwt beam="1">  1       -2 0.84131995E-02 0.12811866E+03</pdfrwt>
<totfact> 0.10548072E+04</totfact>
</mgrwt>
</event>
<event>
 7    1  0.6095443E-006  0.1305804E+03  0.7546771E-02  0.1240180E+00
          2   -1    0    0  501    0  0.00000000000E+00  0.00000000000E+00  0.67328061377E+03  0.67328061377E+03  0.00000000000E+00 0. -1.
         -2   -1    0    0    0  501 -0.00000000000E+00 -0.00000000000E+00 -0.22897507628E+02  0.22897507628E+02  0.00000000000E+00 0.  1.
         23    2    1    2    0    0 -0.29917179899E+02 -0.23045476246E+02  0.23137495074E+03  0.26567952166E+03  0.12500043508E+03 0.  0.
          5    1    3    3  502    0 -0.55171286253E+02  0.35382714397E+02  0.13410703570E+03  0.14934053144E+03  0.47000000000E+01 0. -1.
         -5    1    3    3    0  502  0.25254106355E+02 -0.58428190643E+02  0.97267915041E+02  0.11633899022E+03  0.47000000000E+01 0. -1.
        -11    1    1    2    0    0  0.29054629542E+02 -0.32083535319E+02  0.20316510916E+03  0.20772478504E+03  0.00000000000E+00 0. -1.
         11    1    1    2    0    0  0.86255035665E+00  0.55129011565E+02  0.21584304623E+03  0.22277381470E+03  0.00000000000E+00 0.  1.
<mgrwt>
<rscale>  0 0.12178574E+03</rscale>
<asrwt>0</asrwt>
<pdfrwt beam="1">  1        2 0.10358162E+00 0.13058040E+03</pdfrwt>
<pdfrwt beam="2">  1       -2 0.35226940E-02 0.13058040E+03</pdfrwt>
<totfact> 0.13890310E+04</totfact>
</mgrwt>
</event>
<event>
 7    1  0.6095443E-006  0.1262676E+03  0.7546771E-02  0.1248096E+00
         -2   -1    0    0    0  501 -0.00000000000E+00  0.00000000000E+00  0.27074013966E+02  0.27074013966E+02  0.00000000000E+00 0.  1.
          2   -1    0    0  501    0  0.00000000000E+00 -0.00000000000E+00 -0.45737885154E+03  0.45737885154E+03  0.00000000000E+00 0. -1.
         23    2    1    2    0    0 -0.16394153188E+02  0.69760577567E+01 -0.20658861658E+03  0.24212055859E+03  0.12500429894E+03 0.  0.
          5    1    3    3  502    0 -0.39255553589E+02  0.57373355832E+02 -0.13025866265E+03  0.14772308432E+03  0.47000000000E+01 0.  1.
         -5    1    3    3    0  502  0.22861400400E+02 -0.50397298075E+02 -0.76329953927E+02  0.94397474267E+02  0.47000000000E+01 0.  1.
        -11    1    1    2    0    0  0.21534294632E+02  0.39139641692E+02 -0.13523362343E+03  0.14242110203E+03  0.00000000000E+00 0. -1.
         11    1    1    2    0    0 -0.51401414433E+01 -0.46115699449E+02 -0.88482597569E+02  0.99911204888E+02  0.00000000000E+00 0.  1.
<mgrwt>
<rscale>  0 0.11701968E+03</rscale>
<asrwt>0</asrwt>
<pdfrwt beam="2">  1        2 0.70365973E-01 0.12626761E+03</pdfrwt>
<pdfrwt beam="1">  1       -2 0.41652331E-02 0.12626761E+03</pdfrwt>
<totfact> 0.16662961E+04</totfact>
</mgrwt>
</event>
<event>
 7    1  0.6095443E-006  0.1805977E+03  0.7546771E-02  0.1172803E+00
         -2   -1    0    0    0  501 -0.00000000000E+00  0.00000000000E+00  0.98649716546E+02  0.98649716546E+02  0.00000000000E+00 0.  1.
          2   -1    0    0  501    0  0.00000000000E+00 -0.00000000000E+00 -0.29513100305E+03  0.29513100305E+03  0.00000000000E+00 0. -1.
         23    2    1    2    0    0  0.11133918538E+03 -0.67789137229E+02 -0.84878067131E+02  0.19954901741E+03  0.12499497087E+03 0.  0.
          5    1    3    3  502    0 -0.21217915008E+02 -0.34267646740E+02 -0.36072601588E+02  0.54293591848E+02  0.47000000000E+01 0. -1.
         -5    1    3    3    0  502  0.13255710039E+03 -0.33521490488E+02 -0.48805465543E+02  0.14525542556E+03  0.47000000000E+01 0. -1.
        -11    1    1    2    0    0 -0.80455907490E+01  0.71450498955E+01  0.15959033620E+02  0.19247701748E+02  0.00000000000E+00 0.  1.
         11    1    1    2    0    0 -0.10329359463E+03  0.60644087333E+02 -0.12756225299E+03  0.17498400044E+03  0.00000000000E+00 0. -1.
<mgrwt>
<rscale>  0 0.17492877E+03</rscale>
<asrwt>0</asrwt>
<pdfrwt beam="2">  1        2 0.45404769E-01 0.18059769E+03</pdfrwt>
<pdfrwt beam="1">  1       -2 0.15176880E-01 0.18059769E+03</pdfrwt>
<totfact> 0.36544547E+03</totfact>
</mgrwt>
</event>
<event>
 7    1  0.6317417E-006  0.2013077E+03  0.7546771E-02  0.1152915E+00
         -1   -1    0    0    0  501 -0.00000000000E+00  0.00000000000E+00  0.22112158070E+02  0.22112158070E+02  0.00000000000E+00 0.  1.
          1   -1    0    0  501    0  0.00000000000E+00 -0.00000000000E+00 -0.16838136227E+04  0.16838136227E+04  0.00000000000E+00 0. -1.
         23    2    1    2    0    0 -0.14834245847E+03 -0.53800287619E+02 -0.97225099365E+03  0.99287298950E+03  0.12499929079E+03 0.  0.
          5    1    3    3  502    0 -0.81052059392E+02 -0.82660672854E+02 -0.74812117289E+03  0.75704002701E+03  0.47000000000E+01 0.  1.
         -5    1    3    3    0  502 -0.67290399082E+02  0.28860385234E+02 -0.22412982076E+03  0.23583296249E+03  0.47000000000E+01 0.  1.
        -11    1    1    2    0    0  0.49920508765E+02 -0.18143388980E+02 -0.12921449539E+03  0.13970549588E+03  0.00000000000E+00 0.  1.
         11    1    1    2    0    0  0.98421949709E+02  0.71943676599E+02 -0.56023597561E+03  0.57334729541E+03  0.00000000000E+00 0. -1.
<mgrwt>
<rscale>  0 0.19628069E+03</rscale>
<asrwt>0</asrwt>
<pdfrwt beam="2">  1        1 0.25904822E+00 0.20130767E+03</pdfrwt>
<pdfrwt beam="1">  1       -1 0.34018709E-02 0.20130767E+03</pdfrwt>
<totfact> 0.16990237E+03</totfact>
</mgrwt>
</event>
<event>
 7    1  0.6095443E-006  0.1853433E+03  0.7546771E-02  0.1168223E+00
          2   -1    0    0  501    0  0.00000000000E+00  0.00000000000E+00  0.65523471664E+03  0.65523471664E+03  0.00000000000E+00 0. -1.
         -2   -1    0    0    0  501 -0.00000000000E+00 -0.00000000000E+00 -0.46625512235E+02  0.46625512235E+02  0.00000000000E+00 0.  1.
         23    2    1    2    0    0  0.22312215941E+02 -0.13476214941E+03  0.29784065367E+03  0.35080080128E+03  0.12527360179E+03 0.  0.
          5    1    3    3  502    0 -0.29708249986E+02 -0.10976397977E+03  0.25347320081E+03  0.27785151593E+03  0.47000000000E+01 0. -1.
         -5    1    3    3    0  502  0.52020465927E+02 -0.24998169635E+02  0.44367452863E+02  0.72949285356E+02  0.47000000000E+01 0. -1.
        -11    1    1    2    0    0  0.20884595566E+02 -0.84953180669E+00  0.43303515065E+02  0.48084118514E+02  0.00000000000E+00 0.  1.
         11    1    1    2    0    0 -0.43196811508E+02  0.13561168122E+03  0.26746503566E+03  0.30297530907E+03  0.00000000000E+00 0. -1.
<mgrwt>
<rscale>  0 0.17956707E+03</rscale>
<asrwt>0</asrwt>
<pdfrwt beam="1">  1        2 0.10080533E+00 0.18534332E+03</pdfrwt>
<pdfrwt beam="2">  1       -2 0.71731562E-02 0.18534332E+03</pdfrwt>
<totfact> 0.50050347E+03</totfact>
</mgrwt>
</event>
<event>
 7    1  0.6095443E-006  0.1251429E+03  0.7546771E-02  0.1250228E+00
          2   -1    0    0  501    0  0.00000000000E+00  0.00000000000E+00  0.10404584213E+03  0.10404584213E+03  0.00000000000E+00 0. -1.
         -2   -1    0    0    0  501 -0.00000000000E+00 -0.00000000000E+00 -0.23806154535E+03  0.23806154535E+03  0.00000000000E+00 0.  1.
         23    2    1    2    0    0 -0.72350820741E+01 -0.75586632022E+01 -0.19520925491E+03  0.23187800816E+03  0.12470476199E+03 0.  0.
          5    1    3    3  502    0  0.58624925440E+02 -0.20814717612E+01 -0.88948932140E+02  0.10665466205E+03  0.47000000000E+01 0. -1.
         -5    1    3    3    0  502 -0.65860007514E+02 -0.54771914410E+01 -0.10626032277E+03  0.12522334611E+03  0.47000000000E+01 0.  1.
        -11    1    1    2    0    0 -0.19174417430E+02 -0.22805357683E+02 -0.74021575057E+01  0.30700725700E+02  0.00000000000E+00 0. -1.
         11    1    1    2    0    0  0.26409499504E+02  0.30364020885E+02  0.68595709193E+02  0.79528653629E+02  0.00000000000E+00 0.  1.
<mgrwt>
<rscale>  0 0.11577841E+03</rscale>
<asrwt>0</asrwt>
<pdfrwt beam="1">  1        2 0.16007053E-01 0.12514295E+03</pdfrwt>
<pdfrwt beam="2">  1       -2 0.36624853E-01 0.12514295E+03</pdfrwt>
<totfact> 0.24459010E+03</totfact>
</mgrwt>
</event>
<event>
 7    1  0.6095443E-006  0.1369144E+03  0.7546771E-02  0.1229210E+00
         -2   -1    0    0    0  501 -0.00000000000E+00  0.00000000000E+00  0.97848299000E+03  0.97848299000E+03  0.00000000000E+00 0.  1.
          2   -1    0    0  501    0  0.00000000000E+00 -0.00000000000E+00 -0.15806675982E+02  0.15806675982E+02  0.00000000000E+00 0. -1.
         23    2    1    2    0    0  0.52361533954E+02  0.19466896113E+02  0.63106896020E+03  0.64575040614E+03  0.12499945689E+03 0.  0.
          5    1    3    3  502    0  0.27190834891E+02 -0.60259062264E+01  0.22502887091E+02  0.36112642874E+02  0.47000000000E+01 0. -1.
         -5    1    3    3    0  502  0.25170699063E+02  0.25492802339E+02  0.60856607311E+03  0.60963776327E+03  0.47000000000E+01 0. -1.
        -11    1    1    2    0    0 -0.19327618874E+02 -0.48952984663E+02  0.25208208371E+03  0.25751762753E+03  0.00000000000E+00 0.  1.
         11    1    1    2    0    0 -0.33033915081E+02  0.29486088550E+02  0.79525270106E+02  0.91021632313E+02  0.00000000000E+00 0. -1.
<mgrwt>
<rscale>  0 0.12882508E+03</rscale>
<asrwt>0</asrwt>
<pdfrwt beam="2">  1        2 0.24317971E-02 0.13691441E+03</pdfrwt>
<pdfrwt beam="1">  1       -2 0.15053580E+00 0.13691441E+03</pdfrwt>
<totfact> 0.12666430E+03</totfact>
</mgrwt>
</event>
<event>
 7    1  0.6095443E-006  0.1344432E+03  0.7546771E-02  0.1233495E+00
          2   -1    0    0  501    0  0.00000000000E+00  0.00000000000E+00  0.49005009705E+03  0.49005009705E+03  0.00000000000E+00 0. -1.
         -2   -1    0    0    0  501 -0.00000000000E+00 -0.00000000000E+00 -0.29014799925E+02  0.29014799925E+02  0.00000000000E+00 0.  1.
         23    2    1    2    0    0 -0.34294811290E+02 -0.35737389976E+02  0.27255656860E+03  0.30391126314E+03  0.12498670992E+03 0.  0.
          5    1    3    3  502    0 -0.44991816434E+02 -0.71373366167E+02  0.11970178154E+03  0.14652312939E+03  0.47000000000E+01 0.  1.
         -5    1    3    3    0  502  0.10697005144E+02  0.35635976191E+02  0.15285478706E+03  0.15738813375E+03  0.47000000000E+01 0.  1.
        -11    1    1    2    0    0  0.33445021199E+02  0.54885478344E+02  0.18477210533E+03  0.19563158253E+03  0.00000000000E+00 0. -1.
         11    1    1    2    0    0  0.84979009088E+00 -0.19148088368E+02  0.37066231967E+01  0.19522051297E+02  0.00000000000E+00 0.  1.
<mgrwt>
<rscale>  0 0.12601296E+03</rscale>
<asrwt>0</asrwt>
<pdfrwt beam="1">  1        2 0.75392316E-01 0.13444320E+03</pdfrwt>
<pdfrwt beam="2">  1       -2 0.44638157E-02 0.13444320E+03</pdfrwt>
<totfact> 0.14015892E+04</totfact>
</mgrwt>
</event>
<event>
 7    1  0.6095443E-006  0.2761035E+03  0.7546771E-02  0.1099850E+00
          1   -1    0    0  501    0  0.00000000000E+00  0.00000000000E+00  0.12960968102E+04  0.12960968102E+04  0.00000000000E+00 0. -1.
         -1   -1    0    0    0  501 -0.00000000000E+00 -0.00000000000E+00 -0.57100043850E+02  0.57100043850E+02  0.00000000000E+00 0.  1.
         23    2    1    2    0    0 -0.12360688111E+03 -0.21291731380E+03  0.53551438155E+03  0.60250211406E+03  0.12498280290E+03 0.  0.
          5    1    3    3  502    0  0.71977049683E+01 -0.10008229410E+03  0.23990893153E+03  0.26008971140E+03  0.47000000000E+01 0. -1.
         -5    1    3    3    0  502 -0.13080458608E+03 -0.11283501970E+03  0.29560545002E+03  0.34241240265E+03  0.47000000000E+01 0. -1.
        -11    1    1    2    0    0  0.41791057125E+02  0.14496982752E+02  0.16992008839E+03  0.17558328907E+03  0.00000000000E+00 0. -1.
         11    1    1    2    0    0  0.81815823986E+02  0.19842033105E+03  0.53356229640E+03  0.57511145091E+03  0.00000000000E+00 0.  1.
<mgrwt>
<rscale>  0 0.27251352E+03</rscale>
<asrwt>0</asrwt>
<pdfrwt beam="1">  1        1 0.19939949E+00 0.27610350E+03</pdfrwt>
<pdfrwt beam="2">  1       -1 0.87846231E-02 0.27610350E+03</pdfrwt>
<totfact> 0.73293932E+02</totfact>
</mgrwt>
</event>
<event>
 7    1  0.6095443E-006  0.1750005E+03  0.7546771E-02  0.1179052E+00
         -2   -1    0    0    0  501 -0.00000000000E+00  0.00000000000E+00  0.60246904528E+02  0.60246904528E+02  0.00000000000E+00 0.  1.
          2   -1    0    0  501    0  0.00000000000E+00 -0.00000000000E+00 -0.44388644161E+03  0.44388644161E+03  0.00000000000E+00 0. -1.
         23    2    1    2    0    0 -0.57998230304E+02  0.10807938850E+03 -0.19310823165E+03  0.26060688956E+03  0.12482072272E+03 0.  0.
          5    1    3    3  502    0 -0.68403317774E+02  0.13183573668E+03 -0.16606329739E+03  0.22284250961E+03  0.47000000000E+01 0.  1.
         -5    1    3    3    0  502  0.10405087471E+02 -0.23756348182E+02 -0.27044934251E+02  0.37764379948E+02  0.47000000000E+01 0.  1.
        -11    1    1    2    0    0 -0.21065973250E+02 -0.14190321117E+02 -0.55548773783E+02  0.61080329986E+02  0.00000000000E+00 0. -1.
         11    1    1    2    0    0  0.79064203554E+02 -0.93889067380E+02 -0.13498253165E+03  0.18244612659E+03  0.00000000000E+00 0.  1.
<mgrwt>
<rscale>  0 0.16885050E+03</rscale>
<asrwt>0</asrwt>
<pdfrwt beam="2">  1        2 0.68290220E-01 0.17500046E+03</pdfrwt>
<pdfrwt beam="1">  1       -2 0.92687548E-02 0.17500046E+03</pdfrwt>
<totfact> 0.51958947E+03</totfact>
</mgrwt>
</event>
<event>
 7    1  0.6095443E-006  0.1328445E+03  0.7546771E-02  0.1237882E+00
         -1   -1    0    0    0  501 -0.00000000000E+00  0.00000000000E+00  0.10214567398E+03  0.10214567398E+03  0.00000000000E+00 0.  1.
          1   -1    0    0  501    0  0.00000000000E+00 -0.00000000000E+00 -0.14596123030E+03  0.14596123030E+03  0.00000000000E+00 0. -1.
         23    2    1    2    0    0  0.32333280708E+02  0.31260233558E+02  0.14753447621E+02  0.13366120765E+03  0.12500004388E+03 0.  0.
          5    1    3    3  502    0  0.27149687852E+01  0.42341444021E+02  0.62809058603E+02  0.75942325352E+02  0.47000000000E+01 0. -1.
         -5    1    3    3    0  502  0.29618311923E+02 -0.11081210463E+02 -0.48055610981E+02  0.57718882294E+02  0.47000000000E+01 0. -1.
        -11    1    1    2    0    0  0.70093463686E+01  0.25385457867E+02 -0.42951117596E+01  0.26683335486E+02  0.00000000000E+00 0. -1.
         11    1    1    2    0    0 -0.39342627077E+02 -0.56645691425E+02 -0.54273892177E+02  0.87762361148E+02  0.00000000000E+00 0.  1.
<mgrwt>
<rscale>  0 0.12321734E+03</rscale>
<asrwt>0</asrwt>
<pdfrwt beam="2">  1        1 0.22455574E-01 0.13284447E+03</pdfrwt>
<pdfrwt beam="1">  1       -1 0.15714719E-01 0.13284447E+03</pdfrwt>
<totfact> 0.62214989E+03</totfact>
</mgrwt>
</event>
<event>
 7    1  0.6095443E-006  0.1463444E+03  0.7546771E-02  0.1215350E+00
         -1   -1    0    0    0  501 -0.00000000000E+00  0.00000000000E+00  0.26470642773E+02  0.26470642773E+02  0.00000000000E+00 0.  1.
          1   -1    0    0  501    0  0.00000000000E+00 -0.00000000000E+00 -0.69951471125E+03  0.69951471125E+03  0.00000000000E+00 0. -1.
         23    2    1    2    0    0  0.26443766347E+02  0.71360157970E+02 -0.28231468811E+03  0.31799098126E+03  0.12500054448E+03 0.  0.
          5    1    3    3  502    0  0.27949964377E+02 -0.11671799044E+02 -0.19501623359E+03  0.19741036640E+03  0.47000000000E+01 0.  1.
         -5    1    3    3    0  502 -0.15061980298E+01  0.83031957014E+02 -0.87298454521E+02  0.12058061486E+03  0.47000000000E+01 0.  1.
        -11    1    1    2    0    0  0.63279571921E+01 -0.76618911896E+02 -0.32947386989E+03  0.33832459509E+03  0.00000000000E+00 0. -1.
         11    1    1    2    0    0 -0.32771723539E+02  0.52587539261E+01 -0.61255510480E+02  0.69669777671E+02  0.00000000000E+00 0.  1.
<mgrwt>
<rscale>  0 0.13850882E+03</rscale>
<asrwt>0</asrwt>
<pdfrwt beam="2">  1        1 0.10761766E+00 0.14634439E+03</pdfrwt>
<pdfrwt beam="1">  1       -1 0.40724063E-02 0.14634439E+03</pdfrwt>
<totfact> 0.65453165E+03</totfact>
</mgrwt>
</event>
<event>
 7    1  0.6095443E-006  0.1263844E+03  0.7546771E-02  0.1254658E+00
         -1   -1    0    0    0  501 -0.00000000000E+00  0.00000000000E+00  0.21098933646E+02  0.21098933646E+02  0.00000000000E+00 0.  1.
          1   -1    0    0  501    0  0.00000000000E+00 -0.00000000000E+00 -0.56576091646E+03  0.56576091646E+03  0.00000000000E+00 0. -1.
         23    2    1    2    0    0  0.13457998445E+02 -0.12825910756E+02 -0.23707077802E+03  0.26865513334E+03  0.12500962030E+03 0.  0.
          5    1    3    3  502    0 -0.35374626543E+02 -0.22196382182E+02 -0.20508295971E+03  0.20934458184E+03  0.47000000000E+01 0. -1.
         -5    1    3    3    0  502  0.48832624988E+02  0.93704714255E+01 -0.31987818318E+02  0.59310551496E+02  0.47000000000E+01 0. -1.
        -11    1    1    2    0    0 -0.41440238199E+02 -0.12985464419E+02 -0.16282712963E+03  0.16851881133E+03  0.00000000000E+00 0.  1.
         11    1    1    2    0    0  0.27982239754E+02  0.25811375176E+02 -0.14476407516E+03  0.14968590544E+03  0.00000000000E+00 0. -1.
<mgrwt>
<rscale>  0 0.11325482E+03</rscale>
<asrwt>0</asrwt>
<pdfrwt beam="2">  1        1 0.87040135E-01 0.12638444E+03</pdfrwt>
<pdfrwt beam="1">  1       -1 0.32459900E-02 0.12638444E+03</pdfrwt>
<totfact> 0.12118448E+04</totfact>
</mgrwt>
</event>
<event>
 7    1  0.6095443E-006  0.1550408E+03  0.7546771E-02  0.1203296E+00
          4   -1    0    0  501    0  0.00000000000E+00  0.00000000000E+00  0.54610456033E+03  0.54610456033E+03  0.00000000000E+00 0. -1.
         -4   -1    0    0    0  501 -0.00000000000E+00 -0.00000000000E+00 -0.59616946877E+02  0.59616946877E+02  0.00000000000E+00 0.  1.
         23    2    1    2    0    0 -0.39538980471E+02  0.82769241144E+02  0.70072321741E+02  0.17014050879E+03  0.12499433667E+03 0.  0.
          5    1    3    3  502    0 -0.47003082884E+02  0.60898236431E+02  0.10361601510E+03  0.12913656951E+03  0.47000000000E+01 0.  1.
         -5    1    3    3    0  502  0.74641024135E+01  0.21871004713E+02 -0.33543693356E+02  0.41003939273E+02  0.47000000000E+01 0.  1.
        -11    1    1    2    0    0  0.17572809379E+02 -0.62231881625E+02  0.39069527622E+03  0.39601061802E+03  0.00000000000E+00 0.  1.
         11    1    1    2    0    0  0.21966171092E+02 -0.20537359519E+02  0.25720015487E+02  0.39570380401E+02  0.00000000000E+00 0. -1.
<mgrwt>
<rscale>  0 0.14772531E+03</rscale>
<asrwt>0</asrwt>
<pdfrwt beam="1">  1        4 0.84016083E-01 0.15504084E+03</pdfrwt>
<pdfrwt beam="2">  1       -4 0.91718383E-02 0.15504084E+03</pdfrwt>
<totfact> 0.19121090E+02</totfact>
</mgrwt>
</event>
<event>
 7    1  0.6095443E-006  0.1289283E+03  0.7546771E-02  0.1243236E+00
          1   -1    0    0  501    0  0.00000000000E+00  0.00000000000E+00  0.51838103763E+02  0.51838103763E+02  0.00000000000E+00 0. -1.
         -1   -1    0    0    0  501 -0.00000000000E+00 -0.00000000000E+00 -0.47053877321E+03  0.47053877321E+03  0.00000000000E+00 0.  1.
         23    2    1    2    0    0 -0.66075908392E+01 -0.30894934973E+02 -0.40487287072E+03  0.42490533025E+03  0.12499736385E+03 0.  0.
          5    1    3    3  502    0  0.31108388518E+02 -0.21572317131E+02 -0.37155774895E+03  0.37351083988E+03  0.47000000000E+01 0. -1.
         -5    1    3    3    0  502 -0.37715979357E+02 -0.93226178430E+01 -0.33315121768E+02  0.51394490373E+02  0.47000000000E+01 0. -1.
        -11    1    1    2    0    0 -0.90790868518E+01  0.53966589220E+01  0.37002527486E+02  0.38480394826E+02  0.00000000000E+00 0. -1.
         11    1    1    2    0    0  0.15686677691E+02  0.25498276051E+02 -0.50830326211E+02  0.58991151890E+02  0.00000000000E+00 0.  1.
<mgrwt>
<rscale>  0 0.11991593E+03</rscale>
<asrwt>0</asrwt>
<pdfrwt beam="1">  1        1 0.79750928E-02 0.12892827E+03</pdfrwt>
<pdfrwt beam="2">  1       -1 0.72390581E-01 0.12892827E+03</pdfrwt>
<totfact> 0.17018492E+03</totfact>
</mgrwt>
</event>
<event>
 7    1  0.6095443E-006  0.1842342E+03  0.7546771E-02  0.1168734E+00
          2   -1    0    0  501    0  0.00000000000E+00  0.00000000000E+00  0.64792600935E+02  0.64792600935E+02  0.00000000000E+00 0. -1.
         -2   -1    0    0    0  501 -0.00000000000E+00 -0.00000000000E+00 -0.47596601402E+03  0.47596601402E+03  0.00000000000E+00 0.  1.
         23    2    1    2    0    0 -0.19696194427E+02 -0.13390126176E+03 -0.18397022849E+03  0.26035994329E+03  0.12499906849E+03 0.  0.
          5    1    3    3  502    0 -0.15631337987E+00  0.21274853946E+02 -0.44843979164E+01  0.22245081905E+02  0.47000000000E+01 0.  1.
         -5    1    3    3    0  502 -0.19539881047E+02 -0.15517611570E+03 -0.17948583057E+03  0.23811486139E+03  0.47000000000E+01 0.  1.
        -11    1    1    2    0    0  0.27137856522E+02  0.29920875785E+02 -0.13605124049E+03  0.14192132364E+03  0.00000000000E+00 0.  1.
         11    1    1    2    0    0 -0.74416620949E+01  0.10398038597E+03 -0.91151944102E+02  0.13847734802E+03  0.00000000000E+00 0. -1.
<mgrwt>
<rscale>  0 0.17904101E+03</rscale>
<asrwt>0</asrwt>
<pdfrwt beam="1">  1        2 0.99680926E-02 0.18423424E+03</pdfrwt>
<pdfrwt beam="2">  1       -2 0.73225539E-01 0.18423424E+03</pdfrwt>
<totfact> 0.10980368E+03</totfact>
</mgrwt>
</event>
<event>
 7    1  0.6095443E-006  0.1251566E+03  0.7546771E-02  0.1250429E+00
          3   -1    0    0  501    0  0.00000000000E+00  0.00000000000E+00  0.36830715027E+03  0.36830715027E+03  0.00000000000E+00 0. -1.
         -3   -1    0    0    0  501 -0.00000000000E+00 -0.00000000000E+00 -0.36244493515E+02  0.36244493515E+02  0.00000000000E+00 0.  1.
         23    2    1    2    0    0  0.43592129657E+01 -0.45624255722E+01  0.11875448851E+03  0.17253056162E+03  0.12499739073E+03 0.  0.
          5    1    3    3  502    0  0.12632653687E+02  0.16861162491E+02 -0.21419497526E+02  0.30409992009E+02  0.47000000000E+01 0. -1.
         -5    1    3    3    0  502 -0.82734407218E+01 -0.21423588063E+02  0.14017398603E+03  0.14212056961E+03  0.47000000000E+01 0. -1.
        -11    1    1    2    0    0 -0.20862903493E+02  0.43912539253E+02  0.11372222836E+03  0.12367828050E+03  0.00000000000E+00 0.  1.
         11    1    1    2    0    0  0.16503690527E+02 -0.39350113681E+02  0.99585939894E+02  0.10834280166E+03  0.00000000000E+00 0. -1.
<mgrwt>
<rscale>  0 0.11566263E+03</rscale>
<asrwt>0</asrwt>
<pdfrwt beam="1">  1        3 0.56662636E-01 0.12515657E+03</pdfrwt>
<pdfrwt beam="2">  1       -3 0.55760762E-02 0.12515657E+03</pdfrwt>
<totfact> 0.13473751E+03</totfact>
</mgrwt>
</event>
<event>
 6    1  0.6095443E-006  0.1769675E+03  0.7546771E-02  0.1179820E+00
          1   -1    0    0  501    0  0.00000000000E+00  0.00000000000E+00  0.50455511663E+02  0.50455511663E+02  0.00000000000E+00 0. -1.
         -1   -1    0    0    0  501 -0.00000000000E+00 -0.00000000000E+00 -0.13061235479E+04  0.13061235479E+04  0.00000000000E+00 0.  1.
          5    1    1    2  502    0 -0.35650013792E+02 -0.17916320710E+02 -0.81832626853E+02  0.91162420157E+02  0.47000000000E+01 0. -1.
         -5    1    1    2    0  502  0.14018144234E+02 -0.90941556753E+02 -0.10992620034E+04  0.11031164568E+04  0.47000000000E+01 0.  1.
        -11    1    1    2    0    0  0.36353284158E+02  0.11337885363E+02 -0.45801537379E+02  0.59564164896E+02  0.00000000000E+00 0.  1.
         11    1    1    2    0    0 -0.14721414600E+02  0.97519992100E+02 -0.28771868553E+02  0.10273601767E+03  0.00000000000E+00 0. -1.
<mgrwt>
<rscale>  0 0.16812268E+03</rscale>
<asrwt>0</asrwt>
<pdfrwt beam="1">  1        1 0.77623860E-02 0.17696754E+03</pdfrwt>
<pdfrwt beam="2">  1       -1 0.20094209E+00 0.17696754E+03</pdfrwt>
<totfact> 0.15079292E+02</totfact>
</mgrwt>
</event>
<event>
 7    1  0.6095443E-006  0.1291609E+03  0.7546771E-02  0.1241639E+00
         -2   -1    0    0    0  501 -0.00000000000E+00  0.00000000000E+00  0.18018064314E+03  0.18018064314E+03  0.00000000000E+00 0.  1.
          2   -1    0    0  501    0  0.00000000000E+00 -0.00000000000E+00 -0.72355667274E+02  0.72355667274E+02  0.00000000000E+00 0. -1.
         23    2    1    2    0    0 -0.90086562761E+01  0.40887574467E+02  0.64408163473E+02  0.14432930253E+03  0.12218668672E+03 0.  0.
          5    1    3    3  502    0 -0.60766393797E+02  0.35906495525E+02  0.14716970883E+02  0.72253098673E+02  0.47000000000E+01 0. -1.
         -5    1    3    3    0  502  0.51757737520E+02  0.49810789417E+01  0.49691192590E+02  0.72076203852E+02  0.47000000000E+01 0.  1.
        -11    1    1    2    0    0 -0.23452049863E+02 -0.98332503233E+01 -0.18687685659E+02  0.31558216838E+02  0.00000000000E+00 0. -1.
         11    1    1    2    0    0  0.32460706139E+02 -0.31054324144E+02  0.62104498053E+02  0.76648791050E+02  0.00000000000E+00 0.  1.
<mgrwt>
<rscale>  0 0.12088791E+03</rscale>
<asrwt>0</asrwt>
<pdfrwt beam="2">  1        2 0.11131641E-01 0.12916089E+03</pdfrwt>
<pdfrwt beam="1">  1       -2 0.27720099E-01 0.12916089E+03</pdfrwt>
<totfact> 0.62482642E+03</totfact>
</mgrwt>
</event>
<event>
 7    1  0.6095443E-006  0.2223799E+03  0.7546771E-02  0.1135526E+00
         -2   -1    0    0    0  501 -0.00000000000E+00  0.00000000000E+00  0.46608303344E+02  0.46608303344E+02  0.00000000000E+00 0.  1.
          2   -1    0    0  501    0  0.00000000000E+00 -0.00000000000E+00 -0.10526794550E+04  0.10526794550E+04  0.00000000000E+00 0. -1.
         23    2    1    2    0    0  0.17445043836E+03  0.58269009003E+02 -0.37630091470E+03  0.43709860972E+03  0.12499833341E+03 0.  0.
          5    1    3    3  502    0  0.18852577912E+03  0.58952655790E+02 -0.29901797827E+03  0.35840092961E+03  0.47000000000E+01 0. -1.
         -5    1    3    3    0  502 -0.14075340759E+02 -0.68364678727E+00 -0.77282936432E+02  0.78697680105E+02  0.47000000000E+01 0. -1.
        -11    1    1    2    0    0 -0.32905915489E+02 -0.53195285307E+02 -0.21416510440E+03  0.22311259399E+03  0.00000000000E+00 0. -1.
         11    1    1    2    0    0 -0.14154452287E+03 -0.50737236957E+01 -0.41560513254E+03  0.43907655463E+03  0.00000000000E+00 0.  1.
<mgrwt>
<rscale>  0 0.21780987E+03</rscale>
<asrwt>0</asrwt>
<pdfrwt beam="2">  1        2 0.16195068E+00 0.22237989E+03</pdfrwt>
<pdfrwt beam="1">  1       -2 0.71705084E-02 0.22237989E+03</pdfrwt>
<totfact> 0.27266953E+03</totfact>
</mgrwt>
</event>
<event>
 7    1  0.6095443E-006  0.1261098E+03  0.7546771E-02  0.1245115E+00
         -1   -1    0    0    0  501 -0.00000000000E+00  0.00000000000E+00  0.18892706808E+03  0.18892706808E+03  0.00000000000E+00 0.  1.
          1   -1    0    0  501    0  0.00000000000E+00 -0.00000000000E+00 -0.76161214620E+02  0.76161214620E+02  0.00000000000E+00 0. -1.
         23    2    1    2    0    0  0.24492579036E+02  0.16531303774E+02  0.10745401868E+03  0.16568053334E+03  0.12259895009E+03 0.  0.
          5    1    3    3  502    0 -0.49342474341E+02  0.19964358968E+01  0.53545940674E+02  0.72992624922E+02  0.47000000000E+01 0. -1.
         -5    1    3    3    0  502  0.73835053376E+02  0.14534867877E+02  0.53908078011E+02  0.92687908414E+02  0.47000000000E+01 0.  1.
        -11    1    1    2    0    0  0.17254772082E+01 -0.24038195018E+02  0.45120568648E+02  0.51153473064E+02  0.00000000000E+00 0.  1.
         11    1    1    2    0    0 -0.26218056244E+02  0.75068912445E+01 -0.39808733870E+02  0.48254276305E+02  0.00000000000E+00 0. -1.
<mgrwt>
<rscale>  0 0.11878494E+03</rscale>
<asrwt>0</asrwt>
<pdfrwt beam="2">  1        1 0.11717110E-01 0.12610977E+03</pdfrwt>
<pdfrwt beam="1">  1       -1 0.29065703E-01 0.12610977E+03</pdfrwt>
<totfact> 0.52974821E+03</totfact>
</mgrwt>
</event>
<event>
 6    1  0.6095443E-006  0.2293080E+03  0.7546771E-02  0.1157364E+00
          2   -1    0    0  501    0  0.00000000000E+00  0.00000000000E+00  0.35445572198E+03  0.35445572198E+03  0.00000000000E+00 0. -1.
         -2   -1    0    0    0  501 -0.00000000000E+00 -0.00000000000E+00 -0.10552492863E+03  0.10552492863E+03  0.00000000000E+00 0.  1.
          5    1    1    2  502    0 -0.10143740307E+03  0.12885498041E+01  0.11000436804E+03  0.14971392082E+03  0.47000000000E+01 0. -1.
         -5    1    1    2    0  502  0.50238829314E+02 -0.40722811440E+02 -0.56216860473E+02  0.85817904565E+02  0.47000000000E+01 0.  1.
        -11    1    1    2    0    0 -0.91643884363E+01  0.10336980188E+02 -0.39605960758E+01  0.14370994958E+02  0.00000000000E+00 0.  1.
         11    1    1    2    0    0  0.60362962189E+02  0.29097281449E+02  0.19910388187E+03  0.21007783026E+03  0.00000000000E+00 0. -1.
<mgrwt>
<rscale>  0 0.19122140E+03</rscale>
<asrwt>0</asrwt>
<pdfrwt beam="1">  1        2 0.54531649E-01 0.22930797E+03</pdfrwt>
<pdfrwt beam="2">  1       -2 0.16234605E-01 0.22930797E+03</pdfrwt>
<totfact> 0.27091153E+03</totfact>
</mgrwt>
</event>
<event>
 7    1  0.6095443E-006  0.1251442E+03  0.7546771E-02  0.1239527E+00
         -1   -1    0    0    0  501 -0.00000000000E+00  0.00000000000E+00  0.69598531726E+03  0.69598531726E+03  0.00000000000E+00 0.  1.
          1   -1    0    0  501    0  0.00000000000E+00 -0.00000000000E+00 -0.26461365467E+02  0.26461365467E+02  0.00000000000E+00 0. -1.
         23    2    1    2    0    0  0.42469858549E+01 -0.44216408804E+01  0.51846762359E+03  0.53335705010E+03  0.12499391342E+03 0.  0.
          5    1    3    3  502    0  0.21878885915E+02  0.56299149964E+02  0.21727319856E+03  0.22556154980E+03  0.47000000000E+01 0. -1.
         -5    1    3    3    0  502 -0.17631900060E+02 -0.60720790845E+02  0.30119442503E+03  0.30779550031E+03  0.47000000000E+01 0. -1.
        -11    1    1    2    0    0 -0.14688678616E+02  0.38703864287E+02  0.87130896112E+01  0.42304424364E+02  0.00000000000E+00 0. -1.
         11    1    1    2    0    0  0.10441692761E+02 -0.34282223406E+02  0.14234323860E+03  0.14678520826E+03  0.00000000000E+00 0.  1.
<mgrwt>
<rscale>  0 0.12219028E+03</rscale>
<asrwt>0</asrwt>
<pdfrwt beam="2">  1        1 0.40709798E-02 0.12514418E+03</pdfrwt>
<pdfrwt beam="1">  1       -1 0.10707465E+00 0.12514418E+03</pdfrwt>
<totfact> 0.18543938E+03</totfact>
</mgrwt>
</event>
<event>
 7    1  0.6095443E-006  0.1296669E+03  0.7546771E-02  0.1238958E+00
         -1   -1    0    0    0  501 -0.00000000000E+00  0.00000000000E+00  0.12883697906E+03  0.12883697906E+03  0.00000000000E+00 0.  1.
          1   -1    0    0  501    0  0.00000000000E+00 -0.00000000000E+00 -0.10544069658E+03  0.10544069658E+03  0.00000000000E+00 0. -1.
         23    2    1    2    0    0 -0.19701951171E+02 -0.28186080452E+02  0.12756706398E+02  0.13029292572E+03  0.12502356147E+03 0.  0.
          5    1    3    3  502    0 -0.38484216029E+02 -0.59635174332E+02 -0.26951779667E+02  0.76064954666E+02  0.47000000000E+01 0. -1.
         -5    1    3    3    0  502  0.18782264858E+02  0.31449093881E+02  0.39708486065E+02  0.54227971055E+02  0.47000000000E+01 0. -1.
        -11    1    1    2    0    0 -0.10576277502E+02 -0.16606897554E+02  0.38440554868E+02  0.43189384700E+02  0.00000000000E+00 0.  1.
         11    1    1    2    0    0  0.30278228673E+02  0.44792978006E+02 -0.27800978794E+02  0.60795365219E+02  0.00000000000E+00 0. -1.
<mgrwt>
<rscale>  0 0.12254427E+03</rscale>
<asrwt>0</asrwt>
<pdfrwt beam="2">  1        1 0.16221646E-01 0.12966693E+03</pdfrwt>
<pdfrwt beam="1">  1       -1 0.19821074E-01 0.12966693E+03</pdfrwt>
<totfact> 0.65026169E+03</totfact>
</mgrwt>
</event>
<event>
 7    1  0.6095443E-006  0.1731219E+03  0.7546771E-02  0.1180114E+00
         -1   -1    0    0    0  501 -0.00000000000E+00  0.00000000000E+00  0.29266329224E+03  0.29266329224E+03  0.00000000000E+00 0.  1.
          1   -1    0    0  501    0  0.00000000000E+00 -0.00000000000E+00 -0.92755910206E+02  0.92755910206E+02  0.00000000000E+00 0. -1.
         23    2    1    2    0    0  0.11874134410E+03 -0.15695563978E+02  0.13373151446E+03  0.21875857957E+03  0.12500136259E+03 0.  0.
          5    1    3    3  502    0  0.62361259469E+02 -0.22995595238E+02  0.14593153649E+03  0.16042389917E+03  0.47000000000E+01 0. -1.
         -5    1    3    3    0  502  0.56380084633E+02  0.73000312607E+01 -0.12200022035E+02  0.58334680399E+02  0.47000000000E+01 0. -1.
        -11    1    1    2    0    0 -0.63809441621E+02 -0.25501406252E+02 -0.35412713673E+01  0.68807755113E+02  0.00000000000E+00 0. -1.
         11    1    1    2    0    0 -0.54931902481E+02  0.41196970230E+02  0.69717138944E+02  0.97852867760E+02  0.00000000000E+00 0.  1.
<mgrwt>
<rscale>  0 0.16784482E+03</rscale>
<asrwt>0</asrwt>
<pdfrwt beam="2">  1        1 0.14270140E-01 0.17312192E+03</pdfrwt>
<pdfrwt beam="1">  1       -1 0.45025121E-01 0.17312192E+03</pdfrwt>
<totfact> 0.19505534E+03</totfact>
</mgrwt>
</event>
<event>
 7    1  0.6095443E-006  0.1649986E+03  0.7546771E-02  0.1190402E+00
          1   -1    0    0  501    0  0.00000000000E+00  0.00000000000E+00  0.42545592820E+03  0.42545592820E+03  0.00000000000E+00 0.  1.
         -1   -1    0    0    0  501 -0.00000000000E+00 -0.00000000000E+00 -0.68262449745E+02  0.68262449745E+02  0.00000000000E+00 0. -1.
         23    2    1    2    0    0 -0.32657376954E+02 -0.10263166263E+03  0.80920729946E+02  0.18377352464E+03  0.12499912552E+03 0.  0.
          5    1    3    3  502    0 -0.65225529908E+02 -0.65868325654E+02  0.94644135361E+02  0.13256171557E+03  0.47000000000E+01 0.  1.
         -5    1    3    3    0  502  0.32568152954E+02 -0.36763336977E+02 -0.13723405414E+02  0.51211809075E+02  0.47000000000E+01 0.  1.
        -11    1    1    2    0    0  0.56211486744E+02  0.10253728205E+03  0.22873726259E+03  0.25689367597E+03  0.00000000000E+00 0.  1.
         11    1    1    2    0    0 -0.23554109790E+02  0.94380582570E-01  0.47535485914E+02  0.53051177336E+02  0.00000000000E+00 0. -1.
<mgrwt>
<rscale>  0 0.15849894E+03</rscale>
<asrwt>0</asrwt>
<pdfrwt beam="1">  1        1 0.65454757E-01 0.16499862E+03</pdfrwt>
<pdfrwt beam="2">  1       -1 0.10501916E-01 0.16499862E+03</pdfrwt>
<totfact> 0.30924045E+03</totfact>
</mgrwt>
</event>
<event>
 7    1  0.6095443E-006  0.3017324E+03  0.7546771E-02  0.1085970E+00
         -2   -1    0    0    0  501 -0.00000000000E+00  0.00000000000E+00  0.15458183702E+03  0.15458183702E+03  0.00000000000E+00 0.  1.
          2   -1    0    0  501    0  0.00000000000E+00 -0.00000000000E+00 -0.57012922783E+03  0.57012922783E+03  0.00000000000E+00 0. -1.
         23    2    1    2    0    0 -0.15284083308E+03 -0.22815989068E+03 -0.24740050923E+03  0.39019155018E+03  0.12500071157E+03 0.  0.
          5    1    3    3  502    0 -0.17391465442E+03 -0.20135583992E+03 -0.22947360102E+03  0.35138398492E+03  0.47000000000E+01 0. -1.
         -5    1    3    3    0  502  0.21073821347E+02 -0.26804050758E+02 -0.17926908214E+02  0.38807565259E+02  0.47000000000E+01 0. -1.
        -11    1    1    2    0    0  0.10404570108E+03  0.15379620943E+03 -0.16016720648E+03  0.24521891439E+03  0.00000000000E+00 0. -1.
         11    1    1    2    0    0  0.48795132002E+02  0.74363681252E+02 -0.79796751047E+01  0.89300600285E+02  0.00000000000E+00 0.  1.
<mgrwt>
<rscale>  0 0.29854628E+03</rscale>
<asrwt>0</asrwt>
<pdfrwt beam="2">  1        2 0.87712191E-01 0.30173239E+03</pdfrwt>
<pdfrwt beam="1">  1       -2 0.23781821E-01 0.30173239E+03</pdfrwt>
<totfact> 0.83405937E+02</totfact>
</mgrwt>
</event>
<event>
 7    1  0.6095443E-006  0.2231384E+03  0.7546771E-02  0.1134819E+00
         -3   -1    0    0    0  501 -0.00000000000E+00  0.00000000000E+00  0.57997551115E+03  0.57997551115E+03  0.00000000000E+00 0.  1.
          3   -1    0    0  501    0  0.00000000000E+00 -0.00000000000E+00 -0.79598169314E+02  0.79598169314E+02  0.00000000000E+00 0. -1.
         23    2    1    2    0    0 -0.12834019313E+03 -0.13301353594E+03  0.24440237076E+03  0.33094296250E+03  0.12500767847E+03 0.  0.
          5    1    3    3  502    0 -0.65855753022E+02 -0.28691202090E+02  0.18468172262E+02  0.74319100305E+02  0.47000000000E+01 0.  1.
         -5    1    3    3    0  502 -0.62484440111E+02 -0.10432233385E+03  0.22593419849E+03  0.25662386219E+03  0.47000000000E+01 0.  1.
        -11    1    1    2    0    0  0.57132360218E+02  0.37509459412E+02  0.33151257545E+02  0.75960990029E+02  0.00000000000E+00 0.  1.
         11    1    1    2    0    0  0.71207832915E+02  0.95504076532E+02  0.22282371354E+03  0.25266972794E+03  0.00000000000E+00 0. -1.
<mgrwt>
<rscale>  0 0.21874961E+03</rscale>
<asrwt>0</asrwt>
<pdfrwt beam="2">  1        3 0.12245873E-01 0.22313836E+03</pdfrwt>
<pdfrwt beam="1">  1       -3 0.89226999E-01 0.22313836E+03</pdfrwt>
<totfact> 0.15171743E+02</totfact>
</mgrwt>
</event>
<event>
 7    1  0.6095443E-006  0.1979577E+03  0.7546771E-02  0.1155835E+00
          1   -1    0    0  501    0  0.00000000000E+00  0.00000000000E+00  0.69016250580E+03  0.69016250580E+03  0.00000000000E+00 0. -1.
         -1   -1    0    0    0  501 -0.00000000000E+00 -0.00000000000E+00 -0.11395454323E+03  0.11395454323E+03  0.00000000000E+00 0.  1.
         23    2    1    2    0    0 -0.66084796776E+02 -0.13855851786E+03 -0.30063101368E+01  0.19798052222E+03  0.12498634342E+03 0.  0.
          5    1    3    3  502    0  0.38172237872E+01 -0.42829417844E+02 -0.53718008174E+02  0.68968432145E+02  0.47000000000E+01 0. -1.
         -5    1    3    3    0  502 -0.69902020563E+02 -0.95729100013E+02  0.50711698037E+02  0.12901209008E+03  0.47000000000E+01 0. -1.
        -11    1    1    2    0    0  0.20291315836E+02  0.91920047653E+02  0.46597028576E+03  0.47538336095E+03  0.00000000000E+00 0. -1.
         11    1    1    2    0    0  0.45793480940E+02  0.46638470204E+02  0.11324398695E+03  0.13075316585E+03  0.00000000000E+00 0.  1.
<mgrwt>
<rscale>  0 0.19294080E+03</rscale>
<asrwt>0</asrwt>
<pdfrwt beam="1">  1        1 0.10617884E+00 0.19795770E+03</pdfrwt>
<pdfrwt beam="2">  1       -1 0.17531469E-01 0.19795770E+03</pdfrwt>
<totfact> 0.72388107E+02</totfact>
</mgrwt>
</event>
<event>
 7    1  0.6095443E-006  0.1248877E+03  0.7546771E-02  0.1241722E+00
          3   -1    0    0  501    0  0.00000000000E+00  0.00000000000E+00  0.38660937759E+02  0.38660937759E+02  0.00000000000E+00 0. -1.
         -3   -1    0    0    0  501 -0.00000000000E+00 -0.00000000000E+00 -0.37011641635E+03  0.37011641635E+03  0.00000000000E+00 0.  1.
         23    2    1    2    0    0 -0.46396334919E+02 -0.55638304911E+01 -0.21724512498E+03  0.25058407238E+03  0.11581604766E+03 0.  0.
          5    1    3    3  502    0  0.15011621044E+02  0.23161548438E+02 -0.59417090708E+01  0.28621670096E+02  0.47000000000E+01 0. -1.
         -5    1    3    3    0  502 -0.61407955963E+02 -0.28725378929E+02 -0.21130341591E+03  0.22196240228E+03  0.47000000000E+01 0.  1.
        -11    1    1    2    0    0 -0.30923765857E+02  0.75303247638E+01 -0.38614360862E+02  0.50040523084E+02  0.00000000000E+00 0.  1.
         11    1    1    2    0    0  0.77320100775E+02 -0.19664942726E+01 -0.75595992744E+02  0.10815275865E+03  0.00000000000E+00 0. -1.
<mgrwt>
<rscale>  0 0.12083753E+03</rscale>
<asrwt>0</asrwt>
<pdfrwt beam="1">  1        3 0.59478368E-02 0.12488768E+03</pdfrwt>
<pdfrwt beam="2">  1       -3 0.56940985E-01 0.12488768E+03</pdfrwt>
<totfact> 0.12025564E+03</totfact>
</mgrwt>
</event>
<event>
 7    1  0.6095443E-006  0.1426650E+03  0.7546771E-02  0.1220631E+00
         -1   -1    0    0    0  501 -0.00000000000E+00  0.00000000000E+00  0.20895085523E+03  0.20895085523E+03  0.00000000000E+00 0.  1.
          1   -1    0    0  501    0  0.00000000000E+00 -0.00000000000E+00 -0.80627174765E+02  0.80627174765E+02  0.00000000000E+00 0. -1.
         23    2    1    2    0    0 -0.68726055888E+02  0.32270722892E+01  0.94911428050E+02  0.17135191518E+03  0.12497845777E+03 0.  0.
          5    1    3    3  502    0 -0.42176483932E+02  0.50802247775E+02  0.96055901039E+02  0.11665569125E+03  0.47000000000E+01 0.  1.
         -5    1    3    3    0  502 -0.26549571956E+02 -0.47575175486E+02 -0.11444729897E+01  0.54696223928E+02  0.47000000000E+01 0.  1.
        -11    1    1    2    0    0  0.15191935227E+02  0.40126587902E+02  0.32624077464E+01  0.43030004147E+02  0.00000000000E+00 0.  1.
         11    1    1    2    0    0  0.53534120660E+02 -0.43353660191E+02  0.30149844672E+02  0.75196110675E+02  0.00000000000E+00 0. -1.
<mgrwt>
<rscale>  0 0.13470929E+03</rscale>
<asrwt>0</asrwt>
<pdfrwt beam="2">  1        1 0.12404181E-01 0.14266499E+03</pdfrwt>
<pdfrwt beam="1">  1       -1 0.32146285E-01 0.14266499E+03</pdfrwt>
<totfact> 0.41818609E+03</totfact>
</mgrwt>
</event>
<event>
 7    1  0.6095443E-006  0.1366196E+03  0.7546771E-02  0.1229333E+00
          3   -1    0    0  501    0  0.00000000000E+00  0.00000000000E+00  0.14910051459E+03  0.14910051459E+03  0.00000000000E+00 0. -1.
         -3   -1    0    0    0  501 -0.00000000000E+00 -0.00000000000E+00 -0.10013144574E+03  0.10013144574E+03  0.00000000000E+00 0.  1.
         23    2    1    2    0    0  0.52641543989E+02 -0.16387088712E+02  0.25840769387E+02  0.13904197853E+03  0.12500103040E+03 0.  0.
          5    1    3    3  502    0  0.45004394657E+02 -0.68309549918E+02  0.27198595090E+02  0.86333329157E+02  0.47000000000E+01 0.  1.
         -5    1    3    3    0  502  0.76371493318E+01  0.51922461206E+02 -0.13578257029E+01  0.52708649369E+02  0.47000000000E+01 0.  1.
        -11    1    1    2    0    0 -0.12647386026E+02 -0.30634610617E+02  0.34032819837E+02  0.47504405764E+02  0.00000000000E+00 0. -1.
         11    1    1    2    0    0 -0.39994157962E+02  0.47021699329E+02 -0.10904520383E+02  0.62685576041E+02  0.00000000000E+00 0.  1.
<mgrwt>
<rscale>  0 0.12874324E+03</rscale>
<asrwt>0</asrwt>
<pdfrwt beam="1">  1        3 0.22938541E-01 0.13661964E+03</pdfrwt>
<pdfrwt beam="2">  1       -3 0.15404838E-01 0.13661964E+03</pdfrwt>
<totfact> 0.14326867E+03</totfact>
</mgrwt>
</event>
<event>
 7    1  0.6095443E-006  0.1250827E+03  0.7546771E-02  0.1249708E+00
         -2   -1    0    0    0  501 -0.00000000000E+00  0.00000000000E+00  0.18783734281E+03  0.18783734281E+03  0.00000000000E+00 0.  1.
          2   -1    0    0  501    0  0.00000000000E+00 -0.00000000000E+00 -0.63631189501E+02  0.63631189501E+02  0.00000000000E+00 0. -1.
         23    2    1    2    0    0  0.44321203488E+01  0.81019259172E+00  0.81845747675E+02  0.14948048440E+03  0.12500155480E+03 0.  0.
          5    1    3    3  502    0 -0.11119126052E+01 -0.34432872880E+01 -0.33402455264E+02  0.33925014291E+02  0.47000000000E+01 0. -1.
         -5    1    3    3    0  502  0.55440329540E+01  0.42534798797E+01  0.11524820294E+03  0.11555547011E+03  0.47000000000E+01 0. -1.
        -11    1    1    2    0    0 -0.17825608722E+02 -0.41099477243E+02  0.39003118245E+02  0.59398338266E+02  0.00000000000E+00 0.  1.
         11    1    1    2    0    0  0.13393488373E+02  0.40289284651E+02  0.33572873886E+01  0.42589709639E+02  0.00000000000E+00 0. -1.
<mgrwt>
<rscale>  0 0.11607949E+03</rscale>
<asrwt>0</asrwt>
<pdfrwt beam="2">  1        2 0.97894139E-02 0.12508273E+03</pdfrwt>
<pdfrwt beam="1">  1       -2 0.28898052E-01 0.12508273E+03</pdfrwt>
<totfact> 0.67690285E+03</totfact>
</mgrwt>
</event>
<event>
 7    1  0.6095443E-006  0.1973073E+03  0.7546771E-02  0.1156457E+00
          1   -1    0    0  501    0  0.00000000000E+00  0.00000000000E+00  0.36022299935E+03  0.36022299935E+03  0.00000000000E+00 0. -1.
         -1   -1    0    0    0  501 -0.00000000000E+00 -0.00000000000E+00 -0.10770546189E+03  0.10770546189E+03  0.00000000000E+00 0.  1.
         23    2    1    2    0    0  0.57706169113E+02 -0.14136395301E+03  0.60821325073E+02  0.20646890192E+03  0.12496561411E+03 0.  0.
          5    1    3    3  502    0  0.19703424784E+02 -0.23495433793E+02 -0.37214723739E+02  0.48448797925E+02  0.47000000000E+01 0.  1.
         -5    1    3    3    0  502  0.38002744328E+02 -0.11786851922E+03  0.98036048812E+02  0.15802010399E+03  0.47000000000E+01 0.  1.
        -11    1    1    2    0    0 -0.63832336926E+02  0.11399907418E+03  0.19336527471E+03  0.23336770474E+03  0.00000000000E+00 0. -1.
         11    1    1    2    0    0  0.61261678138E+01  0.27364878832E+02 -0.16690623226E+01  0.28091854595E+02  0.00000000000E+00 0.  1.
<mgrwt>
<rscale>  0 0.19223910E+03</rscale>
<asrwt>0</asrwt>
<pdfrwt beam="1">  1        1 0.55418922E-01 0.19730731E+03</pdfrwt>
<pdfrwt beam="2">  1       -1 0.16570071E-01 0.19730731E+03</pdfrwt>
<totfact> 0.18824463E+03</totfact>
</mgrwt>
</event>
<event>
 7    1  0.6095443E-006  0.2037187E+03  0.7546771E-02  0.1151073E+00
         -2   -1    0    0    0  501 -0.00000000000E+00  0.00000000000E+00  0.48969689093E+02  0.48969689093E+02  0.00000000000E+00 0.  1.
          2   -1    0    0  501    0  0.00000000000E+00 -0.00000000000E+00 -0.82272103157E+03  0.82272103157E+03  0.00000000000E+00 0. -1.
         23    2    1    2    0    0 -0.13094573156E+03 -0.93438128964E+02 -0.29041181726E+03  0.35473978277E+03  0.12499528517E+03 0.  0.
          5    1    3    3  502    0  0.18089812312E+02  0.89855373496E+01 -0.47844833585E+02  0.52145942237E+02  0.47000000000E+01 0.  1.
         -5    1    3    3    0  502 -0.14903554387E+03 -0.10242366631E+03 -0.24256698367E+03  0.30259384053E+03  0.47000000000E+01 0.  1.
        -11    1    1    2    0    0  0.93255798064E+01 -0.86813464732E+01 -0.63821662977E+01  0.14250061823E+02  0.00000000000E+00 0.  1.
         11    1    1    2    0    0  0.12162015175E+03  0.10211947544E+03 -0.47695735892E+03  0.50270087607E+03  0.00000000000E+00 0. -1.
<mgrwt>
<rscale>  0 0.19842652E+03</rscale>
<asrwt>0</asrwt>
<pdfrwt beam="2">  1        2 0.12657246E+00 0.20371865E+03</pdfrwt>
<pdfrwt beam="1">  1       -2 0.75337989E-02 0.20371865E+03</pdfrwt>
<totfact> 0.35210369E+03</totfact>
</mgrwt>
</event>
<event>
 7    1  0.6095443E-006  0.1252494E+03  0.7546771E-02  0.1248691E+00
         -3   -1    0    0    0  501 -0.00000000000E+00  0.00000000000E+00  0.17827949961E+02  0.17827949961E+02  0.00000000000E+00 0.  1.
          3   -1    0    0  501    0  0.00000000000E+00 -0.00000000000E+00 -0.67859587753E+03  0.67859587753E+03  0.00000000000E+00 0. -1.
         23    2    1    2    0    0 -0.31199835314E+01  0.72183163258E+01 -0.35529219446E+03  0.37672265528E+03  0.12500230865E+03 0.  0.
          5    1    3    3  502    0  0.35485011781E+02  0.53681527929E+02 -0.17440255317E+03  0.18595492210E+03  0.47000000000E+01 0.  1.
         -5    1    3    3    0  502 -0.38604995313E+02 -0.46463211603E+02 -0.18088964129E+03  0.19076773318E+03  0.47000000000E+01 0.  1.
        -11    1    1    2    0    0  0.16216390163E+02 -0.47699884087E+02 -0.13812191197E+03  0.14702351111E+03  0.00000000000E+00 0.  1.
         11    1    1    2    0    0 -0.13096406632E+02  0.40481567761E+02 -0.16735382113E+03  0.17267766110E+03  0.00000000000E+00 0. -1.
<mgrwt>
<rscale>  0 0.11667165E+03</rscale>
<asrwt>0</asrwt>
<pdfrwt beam="2">  1        3 0.10439936E+00 0.12524941E+03</pdfrwt>
<pdfrwt beam="1">  1       -3 0.27427617E-02 0.12524941E+03</pdfrwt>
<totfact> 0.10954390E+03</totfact>
</mgrwt>
</event>
<event>
 7    1  0.6095443E-006  0.1749246E+03  0.7546771E-02  0.1178522E+00
         -4   -1    0    0    0  501 -0.00000000000E+00  0.00000000000E+00  0.44849411955E+03  0.44849411955E+03  0.00000000000E+00 0. -1.
          4   -1    0    0  501    0  0.00000000000E+00 -0.00000000000E+00 -0.69693643514E+02  0.69693643514E+02  0.00000000000E+00 0.  1.
         23    2    1    2    0    0  0.83691118219E+02  0.89204551082E+02  0.29545700399E+03  0.34335618768E+03  0.12504789165E+03 0.  0.
          5    1    3    3  502    0  0.89757237778E+02  0.11367469015E+03  0.21806436487E+03  0.26182523587E+03  0.47000000000E+01 0.  1.
         -5    1    3    3    0  502 -0.60661195586E+01 -0.24470139063E+02  0.77392639120E+02  0.81530951805E+02  0.47000000000E+01 0.  1.
        -11    1    1    2    0    0 -0.63817797070E+02 -0.58758126155E+01  0.55428731306E+02  0.84732406144E+02  0.00000000000E+00 0.  1.
         11    1    1    2    0    0 -0.19873321149E+02 -0.83328738467E+02  0.27914740742E+02  0.90099169245E+02  0.00000000000E+00 0. -1.
<mgrwt>
<rscale>  0 0.16935503E+03</rscale>
<asrwt>0</asrwt>
<pdfrwt beam="2">  1        4 0.10722099E-01 0.17492464E+03</pdfrwt>
<pdfrwt beam="1">  1       -4 0.68999094E-01 0.17492464E+03</pdfrwt>
<totfact> 0.23092063E+02</totfact>
</mgrwt>
</event>
<event>
 7    1  0.6095443E-006  0.1429747E+03  0.7546771E-02  0.1220403E+00
          1   -1    0    0  501    0  0.00000000000E+00  0.00000000000E+00  0.39359939018E+03  0.39359939018E+03  0.00000000000E+00 0. -1.
         -1   -1    0    0    0  501 -0.00000000000E+00 -0.00000000000E+00 -0.47984952471E+02  0.47984952471E+02  0.00000000000E+00 0.  1.
         23    2    1    2    0    0 -0.93954680779E+01 -0.68765712765E+02  0.11072722861E+03  0.18083776532E+03  0.12499912056E+03 0.  0.
          5    1    3    3  502    0  0.29038493836E+01 -0.10448080863E+03  0.76053432939E+02  0.12934792760E+03  0.47000000000E+01 0.  1.
         -5    1    3    3    0  502 -0.12299317461E+02  0.35715095865E+02  0.34673795668E+02  0.51489837722E+02  0.47000000000E+01 0.  1.
        -11    1    1    2    0    0  0.30772967434E+02  0.26803463015E+02  0.19441293962E+03  0.19864992385E+03  0.00000000000E+00 0. -1.
         11    1    1    2    0    0 -0.21377499356E+02  0.41962249750E+02  0.40474269485E+02  0.62096653478E+02  0.00000000000E+00 0.  1.
<mgrwt>
<rscale>  0 0.13487046E+03</rscale>
<asrwt>0</asrwt>
<pdfrwt beam="1">  1        1 0.60553750E-01 0.14297475E+03</pdfrwt>
<pdfrwt beam="2">  1       -1 0.73823006E-02 0.14297475E+03</pdfrwt>
<totfact> 0.57947364E+03</totfact>
</mgrwt>
</event>
<event>
 7    1  0.6095443E-006  0.1304475E+03  0.7546771E-02  0.1241499E+00
         -1   -1    0    0    0  501 -0.00000000000E+00  0.00000000000E+00  0.16077362452E+03  0.16077362452E+03  0.00000000000E+00 0.  1.
          1   -1    0    0  501    0  0.00000000000E+00 -0.00000000000E+00 -0.89078363114E+02  0.89078363114E+02  0.00000000000E+00 0. -1.
         23    2    1    2    0    0  0.31355787530E+02 -0.20229237003E+02  0.79974771830E+02  0.15301145983E+03  0.12499654103E+03 0.  0.
          5    1    3    3  502    0  0.36662800836E+02 -0.40588579847E+02 -0.13952140198E+02  0.56642263331E+02  0.47000000000E+01 0.  1.
         -5    1    3    3    0  502 -0.53070133063E+01  0.20359342844E+02  0.93926912028E+02  0.96369196502E+02  0.47000000000E+01 0.  1.
        -11    1    1    2    0    0 -0.14266874588E+02  0.39021148911E+02  0.29755752200E+02  0.51103801834E+02  0.00000000000E+00 0.  1.
         11    1    1    2    0    0 -0.17088912942E+02 -0.18791911908E+02 -0.38035262628E+02  0.45736725964E+02  0.00000000000E+00 0. -1.
<mgrwt>
<rscale>  0 0.12097420E+03</rscale>
<asrwt>0</asrwt>
<pdfrwt beam="2">  1        1 0.13704364E-01 0.13044747E+03</pdfrwt>
<pdfrwt beam="1">  1       -1 0.24734404E-01 0.13044747E+03</pdfrwt>
<totfact> 0.56515701E+03</totfact>
</mgrwt>
</event>
<event>
 7    1  0.6095443E-006  0.1940102E+03  0.7546771E-02  0.1159641E+00
          2   -1    0    0  501    0  0.00000000000E+00  0.00000000000E+00  0.12651683085E+04  0.12651683085E+04  0.00000000000E+00 0. -1.
         -2   -1    0    0    0  501 -0.00000000000E+00 -0.00000000000E+00 -0.28954340520E+02  0.28954340520E+02  0.00000000000E+00 0.  1.
         23    2    1    2    0    0 -0.20020015494E+02  0.14701669508E+03  0.82977071379E+03  0.85214986128E+03  0.12500095583E+03 0.  0.
          5    1    3    3  502    0 -0.36129491879E+02  0.16226983601E+03  0.64933266498E+03  0.67029235388E+03  0.47000000000E+01 0. -1.
         -5    1    3    3    0  502  0.16109476385E+02 -0.15253140933E+02  0.18043804881E+03  0.18185750740E+03  0.47000000000E+01 0. -1.
        -11    1    1    2    0    0 -0.71816245832E-01 -0.93395104901E+02  0.34734991014E+03  0.35968682329E+03  0.00000000000E+00 0.  1.
         11    1    1    2    0    0  0.20091831740E+02 -0.53621590178E+02  0.59093344085E+02  0.82285964484E+02  0.00000000000E+00 0. -1.
<mgrwt>
<rscale>  0 0.18869838E+03</rscale>
<asrwt>0</asrwt>
<pdfrwt beam="1">  1        2 0.19464124E+00 0.19401018E+03</pdfrwt>
<pdfrwt beam="2">  1       -2 0.44545149E-02 0.19401018E+03</pdfrwt>
<totfact> 0.42548816E+03</totfact>
</mgrwt>
</event>
<event>
 7    1  0.6095443E-006  0.1514810E+03  0.7546771E-02  0.1211239E+00
          3   -1    0    0  501    0  0.00000000000E+00  0.00000000000E+00  0.19265379271E+03  0.19265379271E+03  0.00000000000E+00 0. -1.
         -3   -1    0    0    0  501 -0.00000000000E+00 -0.00000000000E+00 -0.11176658309E+03  0.11176658309E+03  0.00000000000E+00 0.  1.
         23    2    1    2    0    0  0.58288990262E+02  0.62639321769E+02 -0.17728919273E+02  0.15251495881E+03  0.12500082825E+03 0.  0.
          5    1    3    3  502    0  0.22417839883E+02  0.75992146741E+02  0.35367142185E+02  0.86892408516E+02  0.47000000000E+01 0.  1.
         -5    1    3    3    0  502  0.35871150378E+02 -0.13352824972E+02 -0.53096061458E+02  0.65622550290E+02  0.47000000000E+01 0.  1.
        -11    1    1    2    0    0 -0.51371302282E+02 -0.74315127687E+02  0.10359084102E+03  0.13745112311E+03  0.00000000000E+00 0. -1.
         11    1    1    2    0    0 -0.69176879794E+01  0.11675805917E+02 -0.49747121248E+01  0.14454293878E+02  0.00000000000E+00 0.  1.
<mgrwt>
<rscale>  0 0.14156447E+03</rscale>
<asrwt>0</asrwt>
<pdfrwt beam="1">  1        3 0.29639045E-01 0.15148102E+03</pdfrwt>
<pdfrwt beam="2">  1       -3 0.17194859E-01 0.15148102E+03</pdfrwt>
<totfact> 0.75561899E+02</totfact>
</mgrwt>
</event>
<event>
 7    1  0.6095443E-006  0.1334589E+03  0.7546771E-02  0.1234417E+00
         -2   -1    0    0    0  501 -0.00000000000E+00  0.00000000000E+00  0.37933680745E+02  0.37933680745E+02  0.00000000000E+00 0.  1.
          2   -1    0    0  501    0  0.00000000000E+00 -0.00000000000E+00 -0.46301831759E+03  0.46301831759E+03  0.00000000000E+00 0. -1.
         23    2    1    2    0    0 -0.10844037885E+02  0.45491569561E+02 -0.12321260031E+03  0.18163871020E+03  0.12499680040E+03 0.  0.
          5    1    3    3  502    0 -0.63001812608E+02  0.21864425467E+02 -0.98620667837E+02  0.11914448211E+03  0.47000000000E+01 0. -1.
         -5    1    3    3    0  502  0.52157774723E+02  0.23627144093E+02 -0.24591932475E+02  0.62494228093E+02  0.47000000000E+01 0. -1.
        -11    1    1    2    0    0  0.38604446905E+02 -0.58233340818E+02 -0.16700649924E+03  0.18103203057E+03  0.00000000000E+00 0.  1.
         11    1    1    2    0    0 -0.27760409020E+02  0.12741771258E+02 -0.13486553729E+03  0.13828125756E+03  0.00000000000E+00 0. -1.
<mgrwt>
<rscale>  0 0.12541818E+03</rscale>
<asrwt>0</asrwt>
<pdfrwt beam="2">  1        2 0.71233590E-01 0.13345889E+03</pdfrwt>
<pdfrwt beam="1">  1       -2 0.58359507E-02 0.13345889E+03</pdfrwt>
<totfact> 0.99612880E+03</totfact>
</mgrwt>
</event>
<event>
 7    1  0.6095443E-006  0.1625112E+03  0.7546771E-02  0.1193290E+00
         -2   -1    0    0    0  501 -0.00000000000E+00  0.00000000000E+00  0.54923453933E+02  0.54923453933E+02  0.00000000000E+00 0.  1.
          2   -1    0    0  501    0  0.00000000000E+00 -0.00000000000E+00 -0.43749672497E+03  0.43749672497E+03  0.00000000000E+00 0. -1.
         23    2    1    2    0    0  0.54152668726E+02 -0.88603636186E+02 -0.14557388296E+03  0.21817800673E+03  0.12500708518E+03 0.  0.
          5    1    3    3  502    0 -0.36222104637E+02 -0.53417756091E+02 -0.68278069017E+02  0.94071686701E+02  0.47000000000E+01 0.  1.
         -5    1    3    3    0  502  0.90374773363E+02 -0.35185880095E+02 -0.77295813941E+02  0.12410632003E+03  0.47000000000E+01 0.  1.
        -11    1    1    2    0    0 -0.50300050446E+02  0.10146173710E+03 -0.15964738364E+03  0.19573417247E+03  0.00000000000E+00 0.  1.
         11    1    1    2    0    0 -0.38526182800E+01 -0.12858100910E+02 -0.77352004434E+02  0.78507999698E+02  0.00000000000E+00 0. -1.
<mgrwt>
<rscale>  0 0.15599870E+03</rscale>
<asrwt>0</asrwt>
<pdfrwt beam="2">  1        2 0.67307188E-01 0.16251119E+03</pdfrwt>
<pdfrwt beam="1">  1       -2 0.84497622E-02 0.16251119E+03</pdfrwt>
<totfact> 0.60773695E+03</totfact>
</mgrwt>
</event>
<event>
 6    1  0.6095443E-006  0.3031756E+03  0.7546771E-02  0.1094635E+00
         -3   -1    0    0    0  501 -0.00000000000E+00  0.00000000000E+00  0.40716773313E+03  0.40716773313E+03  0.00000000000E+00 0.  1.
          3   -1    0    0  501    0  0.00000000000E+00 -0.00000000000E+00 -0.17583189051E+03  0.17583189051E+03  0.00000000000E+00 0. -1.
          5    1    1    2  502    0  0.18736848831E+03 -0.31128461667E+02  0.23289156865E+02  0.19141683929E+03  0.47000000000E+01 0. -1.
         -5    1    1    2    0  502  0.33090396068E+01 -0.50162814062E+02  0.14893652154E+03  0.15726231305E+03  0.47000000000E+01 0.  1.
        -11    1    1    2    0    0 -0.45746601308E+02  0.17422045953E+02 -0.25027742758E+02  0.54978787945E+02  0.00000000000E+00 0. -1.
         11    1    1    2    0    0 -0.14493092661E+03  0.63869229777E+02  0.84137906972E+02  0.17934168336E+03  0.00000000000E+00 0.  1.
<mgrwt>
<rscale>  0 0.28193816E+03</rscale>
<asrwt>0</asrwt>
<pdfrwt beam="2">  1        3 0.27051060E-01 0.30317564E+03</pdfrwt>
<pdfrwt beam="1">  1       -3 0.62641189E-01 0.30317564E+03</pdfrwt>
<totfact> 0.82506192E+01</totfact>
</mgrwt>
</event>
<event>
 7    1  0.6095443E-006  0.1623357E+03  0.7546771E-02  0.1193556E+00
         -2   -1    0    0    0  501 -0.00000000000E+00  0.00000000000E+00  0.52305170642E+02  0.52305170642E+02  0.00000000000E+00 0.  1.
          2   -1    0    0  501    0  0.00000000000E+00 -0.00000000000E+00 -0.44347751041E+03  0.44347751041E+03  0.00000000000E+00 0. -1.
         23    2    1    2    0    0  0.35060101039E+02  0.97470080529E+02 -0.16823673064E+03  0.23378725855E+03  0.12499302956E+03 0.  0.
          5    1    3    3  502    0  0.66366609799E+02  0.99567299486E+02 -0.91362210476E+02  0.15062309759E+03  0.47000000000E+01 0.  1.
         -5    1    3    3    0  502 -0.31306508760E+02 -0.20972189570E+01 -0.76874520167E+02  0.83164160965E+02  0.47000000000E+01 0.  1.
        -11    1    1    2    0    0 -0.65969288334E+02 -0.64467966456E+02 -0.14335312715E+03  0.17046461441E+03  0.00000000000E+00 0.  1.
         11    1    1    2    0    0  0.30909187295E+02 -0.33002114073E+02 -0.79582481976E+02  0.91530808093E+02  0.00000000000E+00 0. -1.
<mgrwt>
<rscale>  0 0.15577108E+03</rscale>
<asrwt>0</asrwt>
<pdfrwt beam="2">  1        2 0.68227306E-01 0.16233572E+03</pdfrwt>
<pdfrwt beam="1">  1       -2 0.80469497E-02 0.16233572E+03</pdfrwt>
<totfact> 0.64604028E+03</totfact>
</mgrwt>
</event>
<event>
 7    1  0.6095443E-006  0.1372687E+03  0.7546771E-02  0.1229628E+00
          4   -1    0    0  501    0  0.00000000000E+00  0.00000000000E+00  0.21634424234E+03  0.21634424234E+03  0.00000000000E+00 0. -1.
         -4   -1    0    0    0  501 -0.00000000000E+00 -0.00000000000E+00 -0.73845957700E+02  0.73845957700E+02  0.00000000000E+00 0.  1.
         23    2    1    2    0    0  0.56658943984E+02  0.28227739895E+01  0.39829922884E+02  0.14293043326E+03  0.12499792802E+03 0.  0.
          5    1    3    3  502    0  0.78293593505E+02 -0.98821163916E+01 -0.16794211529E+02  0.80818800716E+02  0.47000000000E+01 0.  1.
         -5    1    3    3    0  502 -0.21634649521E+02  0.12704890381E+02  0.56624134413E+02  0.62111632546E+02  0.47000000000E+01 0.  1.
        -11    1    1    2    0    0 -0.28946565123E+02 -0.43216844297E+02  0.74155995794E+02  0.90579859658E+02  0.00000000000E+00 0. -1.
         11    1    1    2    0    0 -0.27712378861E+02  0.40394070307E+02  0.28512365958E+02  0.56679907115E+02  0.00000000000E+00 0.  1.
<mgrwt>
<rscale>  0 0.12854697E+03</rscale>
<asrwt>0</asrwt>
<pdfrwt beam="1">  1        4 0.33283729E-01 0.13726866E+03</pdfrwt>
<pdfrwt beam="2">  1       -4 0.11360917E-01 0.13726866E+03</pdfrwt>
<totfact> 0.88105159E+02</totfact>
</mgrwt>
</event>
<event>
 7    1  0.6095443E-006  0.1644695E+03  0.7546771E-02  0.1190109E+00
         -2   -1    0    0    0  501 -0.00000000000E+00  0.00000000000E+00  0.67209635784E+02  0.67209635784E+02  0.00000000000E+00 0.  1.
          2   -1    0    0  501    0  0.00000000000E+00 -0.00000000000E+00 -0.44077145501E+03  0.44077145501E+03  0.00000000000E+00 0. -1.
         23    2    1    2    0    0 -0.10162507211E+03 -0.33135907113E+02 -0.82980378804E+02  0.18421714283E+03  0.12499827529E+03 0.  0.
          5    1    3    3  502    0 -0.52866971844E+02  0.22594090899E+02 -0.92907355865E+02  0.10935847671E+03  0.47000000000E+01 0.  1.
         -5    1    3    3    0  502 -0.48758100263E+02 -0.55729998011E+02  0.99269770605E+01  0.74858666119E+02  0.47000000000E+01 0.  1.
        -11    1    1    2    0    0  0.12274391499E+02  0.50315137441E+02 -0.10542638962E+03  0.11746062051E+03  0.00000000000E+00 0. -1.
         11    1    1    2    0    0  0.89350680608E+02 -0.17179230328E+02 -0.18515505080E+03  0.20630332745E+03  0.00000000000E+00 0.  1.
<mgrwt>
<rscale>  0 0.15875566E+03</rscale>
<asrwt>0</asrwt>
<pdfrwt beam="2">  1        2 0.67810995E-01 0.16446949E+03</pdfrwt>
<pdfrwt beam="1">  1       -2 0.10339944E-01 0.16446949E+03</pdfrwt>
<totfact> 0.43936253E+03</totfact>
</mgrwt>
</event>
<event>
 7    1  0.6095443E-006  0.1268513E+03  0.7546771E-02  0.1250562E+00
         -1   -1    0    0    0  501 -0.00000000000E+00  0.00000000000E+00  0.56862372487E+02  0.56862372487E+02  0.00000000000E+00 0.  1.
          1   -1    0    0  501    0  0.00000000000E+00 -0.00000000000E+00 -0.21080846782E+03  0.21080846782E+03  0.00000000000E+00 0. -1.
         23    2    1    2    0    0 -0.21576705721E+02 -0.51812869427E+01 -0.63471401470E+02  0.14184452591E+03  0.12489535925E+03 0.  0.
          5    1    3    3  502    0  0.10438685771E+02  0.52006555149E+02 -0.53319219894E+02  0.75356998011E+02  0.47000000000E+01 0. -1.
         -5    1    3    3    0  502 -0.32015391492E+02 -0.57187842092E+02 -0.10152181575E+02  0.66487527900E+02  0.47000000000E+01 0. -1.
        -11    1    1    2    0    0  0.45928162224E+02 -0.17948300466E+02 -0.72649918815E+02  0.87804033386E+02  0.00000000000E+00 0. -1.
         11    1    1    2    0    0 -0.24351456503E+02  0.23129587409E+02 -0.17824775044E+02  0.38022281006E+02  0.00000000000E+00 0.  1.
<mgrwt>
<rscale>  0 0.11558585E+03</rscale>
<asrwt>0</asrwt>
<pdfrwt beam="2">  1        1 0.32432072E-01 0.12685129E+03</pdfrwt>
<pdfrwt beam="1">  1       -1 0.87480573E-02 0.12685129E+03</pdfrwt>
<totfact> 0.96558715E+03</totfact>
</mgrwt>
</event>
<event>
 7    1  0.6095443E-006  0.1266388E+03  0.7546771E-02  0.1249734E+00
          2   -1    0    0  501    0  0.00000000000E+00  0.00000000000E+00  0.23906027365E+03  0.23906027365E+03  0.00000000000E+00 0.  1.
         -2   -1    0    0    0  501 -0.00000000000E+00 -0.00000000000E+00 -0.50607050999E+02  0.50607050999E+02  0.00000000000E+00 0. -1.
         23    2    1    2    0    0 -0.16984138826E+02  0.11086229948E+02  0.82835925993E+02  0.15132477950E+03  0.12500413109E+03 0.  0.
          5    1    3    3  502    0  0.11580305656E+02 -0.26851522585E+01  0.10912218135E+03  0.10986834842E+03  0.47000000000E+01 0.  1.
         -5    1    3    3    0  502 -0.28564444482E+02  0.13771382206E+02 -0.26286255361E+02  0.41456431073E+02  0.47000000000E+01 0.  1.
        -11    1    1    2    0    0  0.58371827363E+01 -0.47021674883E+02  0.37117278375E+02  0.60189724746E+02  0.00000000000E+00 0. -1.
         11    1    1    2    0    0  0.11146956090E+02  0.35935444935E+02  0.68500018280E+02  0.78152820404E+02  0.00000000000E+00 0.  1.
<mgrwt>
<rscale>  0 0.11606476E+03</rscale>
<asrwt>0</asrwt>
<pdfrwt beam="1">  1        2 0.36778503E-01 0.12663885E+03</pdfrwt>
<pdfrwt beam="2">  1       -2 0.77857003E-02 0.12663885E+03</pdfrwt>
<totfact> 0.12912740E+04</totfact>
</mgrwt>
</event>
<event>
 6    1  0.6095443E-006  0.3006267E+03  0.7546771E-02  0.1127096E+00
          2   -1    0    0  501    0  0.00000000000E+00  0.00000000000E+00  0.11844149044E+04  0.11844149044E+04  0.00000000000E+00 0. -1.
         -2   -1    0    0    0  501 -0.00000000000E+00 -0.00000000000E+00 -0.41383854627E+02  0.41383854627E+02  0.00000000000E+00 0.  1.
          5    1    1    2  502    0  0.80201227977E+02 -0.50537383256E+02  0.50355288223E+03  0.51241961250E+03  0.47000000000E+01 0. -1.
         -5    1    1    2    0  502 -0.10290176611E+03  0.55082383862E+02  0.72839663055E+02  0.13766099300E+03  0.47000000000E+01 0.  1.
        -11    1    1    2    0    0 -0.39300132580E+02 -0.21810274398E+01  0.19449454425E+03  0.19843735799E+03  0.00000000000E+00 0.  1.
         11    1    1    2    0    0  0.62000670712E+02 -0.23639731663E+01  0.37214396021E+03  0.37728079551E+03  0.00000000000E+00 0. -1.
<mgrwt>
<rscale>  0 0.22935306E+03</rscale>
<asrwt>0</asrwt>
<pdfrwt beam="1">  1        2 0.18221765E+00 0.30062672E+03</pdfrwt>
<pdfrwt beam="2">  1       -2 0.63667478E-02 0.30062672E+03</pdfrwt>
<totfact> 0.27538194E+03</totfact>
</mgrwt>
</event>
<event>
 7    1  0.6095443E-006  0.1509222E+03  0.7546771E-02  0.1209530E+00
         -1   -1    0    0    0  501 -0.00000000000E+00  0.00000000000E+00  0.55717596733E+02  0.55717596733E+02  0.00000000000E+00 0. -1.
          1   -1    0    0  501    0  0.00000000000E+00 -0.00000000000E+00 -0.37597723470E+03  0.37597723470E+03  0.00000000000E+00 0.  1.
         23    2    1    2    0    0 -0.81706907043E+02  0.21833983939E+02 -0.10232541409E+03  0.18234034571E+03  0.12499907917E+03 0.  0.
          5    1    3    3  502    0  0.27507133019E+02  0.26788622142E+02 -0.43100705266E+02  0.57914017627E+02  0.47000000000E+01 0. -1.
         -5    1    3    3    0  502 -0.10921404006E+03 -0.49546382035E+01 -0.59224708821E+02  0.12442632809E+03  0.47000000000E+01 0. -1.
        -11    1    1    2    0    0  0.38297702881E+02  0.24700597599E+02 -0.14773146472E+03  0.15460083841E+03  0.00000000000E+00 0.  1.
         11    1    1    2    0    0  0.43409204162E+02 -0.46534581538E+02 -0.70202759153E+02  0.94753647305E+02  0.00000000000E+00 0. -1.
<mgrwt>
<rscale>  0 0.14286118E+03</rscale>
<asrwt>0</asrwt>
<pdfrwt beam="2">  1        1 0.57842650E-01 0.15092220E+03</pdfrwt>
<pdfrwt beam="1">  1       -1 0.85719383E-02 0.15092220E+03</pdfrwt>
<totfact> 0.49126755E+03</totfact>
</mgrwt>
</event>
<event>
 7    1  0.6095443E-006  0.1298758E+03  0.7546771E-02  0.1241231E+00
          1   -1    0    0  501    0  0.00000000000E+00  0.00000000000E+00  0.12484661564E+03  0.12484661564E+03  0.00000000000E+00 0. -1.
         -1   -1    0    0    0  501 -0.00000000000E+00 -0.00000000000E+00 -0.10838509406E+03  0.10838509406E+03  0.00000000000E+00 0.  1.
         23    2    1    2    0    0 -0.25482739444E+02 -0.24346823858E+02 -0.13229036784E+02  0.13054779705E+03  0.12500232822E+03 0.  0.
          5    1    3    3  502    0 -0.34801025171E+02 -0.14167904598E+02 -0.65840816474E+02  0.75953564680E+02  0.47000000000E+01 0.  1.
         -5    1    3    3    0  502  0.93182857272E+01 -0.10178919260E+02  0.52611779690E+02  0.54594232372E+02  0.47000000000E+01 0.  1.
        -11    1    1    2    0    0  0.28356889822E+02 -0.12724007630E+02 -0.22666056420E+02  0.38467696632E+02  0.00000000000E+00 0.  1.
         11    1    1    2    0    0 -0.28741503784E+01  0.37070831488E+02  0.52356614789E+02  0.64216216019E+02  0.00000000000E+00 0. -1.
<mgrwt>
<rscale>  0 0.12113847E+03</rscale>
<asrwt>0</asrwt>
<pdfrwt beam="1">  1        1 0.19207172E-01 0.12987579E+03</pdfrwt>
<pdfrwt beam="2">  1       -1 0.16674630E-01 0.12987579E+03</pdfrwt>
<totfact> 0.68962892E+03</totfact>
</mgrwt>
</event>
<event>
 7    1  0.6095443E-006  0.1457435E+03  0.7546771E-02  0.1214172E+00
         -1   -1    0    0    0  501 -0.00000000000E+00  0.00000000000E+00  0.86811610273E+02  0.86811610273E+02  0.00000000000E+00 0.  1.
          1   -1    0    0  501    0  0.00000000000E+00 -0.00000000000E+00 -0.26433718876E+03  0.26433718876E+03  0.00000000000E+00 0. -1.
         23    2    1    2    0    0 -0.11620693567E+02  0.74083455391E+02 -0.12905268759E+02  0.14631371301E+03  0.12497102773E+03 0.  0.
          5    1    3    3  502    0  0.56202494611E+02  0.43325747130E+02 -0.68756547699E+01  0.71450720034E+02  0.47000000000E+01 0.  1.
         -5    1    3    3    0  502 -0.67823188178E+02  0.30757708260E+02 -0.60296139890E+01  0.74862992973E+02  0.47000000000E+01 0.  1.
        -11    1    1    2    0    0  0.48489762288E+02 -0.61942086994E+02 -0.82443352820E+02  0.11395168104E+03  0.00000000000E+00 0.  1.
         11    1    1    2    0    0 -0.36869068722E+02 -0.12141368397E+02 -0.82176956908E+02  0.90883404984E+02  0.00000000000E+00 0. -1.
<mgrwt>
<rscale>  0 0.13937512E+03</rscale>
<asrwt>0</asrwt>
<pdfrwt beam="2">  1        1 0.40667260E-01 0.14574346E+03</pdfrwt>
<pdfrwt beam="1">  1       -1 0.13355632E-01 0.14574346E+03</pdfrwt>
<totfact> 0.38478487E+03</totfact>
</mgrwt>
</event>
<event>
 7    1  0.6095443E-006  0.1291072E+03  0.7546771E-02  0.1242562E+00
          1   -1    0    0  501    0  0.00000000000E+00  0.00000000000E+00  0.18724609536E+03  0.18724609536E+03  0.00000000000E+00 0. -1.
         -1   -1    0    0    0  501 -0.00000000000E+00 -0.00000000000E+00 -0.69821132374E+02  0.69821132374E+02  0.00000000000E+00 0.  1.
         23    2    1    2    0    0 -0.79196974359E+01  0.31318815613E+02  0.49276360330E+02  0.13819128956E+03  0.12500033201E+03 0.  0.
          5    1    3    3  502    0  0.15794982080E+02  0.11667174242E+01 -0.38711769956E+02  0.42089592794E+02  0.47000000000E+01 0. -1.
         -5    1    3    3    0  502 -0.23714679516E+02  0.30152098189E+02  0.87988130285E+02  0.96101696764E+02  0.47000000000E+01 0. -1.
        -11    1    1    2    0    0  0.32289427723E+02  0.21058219935E+02  0.18755241730E+02  0.42869742965E+02  0.00000000000E+00 0. -1.
         11    1    1    2    0    0 -0.24369730287E+02 -0.52377035548E+02  0.49393360929E+02  0.76006195214E+02  0.00000000000E+00 0.  1.
<mgrwt>
<rscale>  0 0.12032489E+03</rscale>
<asrwt>0</asrwt>
<pdfrwt beam="1">  1        1 0.28807091E-01 0.12910721E+03</pdfrwt>
<pdfrwt beam="2">  1       -1 0.10741713E-01 0.12910721E+03</pdfrwt>
<totfact> 0.81961470E+03</totfact>
</mgrwt>
</event>
<event>
 7    1  0.6095443E-006  0.1302512E+03  0.7546771E-02  0.1240405E+00
          1   -1    0    0  501    0  0.00000000000E+00  0.00000000000E+00  0.17276112572E+02  0.17276112572E+02  0.00000000000E+00 0. -1.
         -1   -1    0    0    0  501 -0.00000000000E+00 -0.00000000000E+00 -0.95403923541E+03  0.95403923541E+03  0.00000000000E+00 0.  1.
         23    2    1    2    0    0 -0.34108342385E+02  0.13327388517E+02 -0.73589119944E+03  0.74732940240E+03  0.12499751990E+03 0.  0.
          5    1    3    3  502    0 -0.64734431864E+02  0.45163326261E+02 -0.57523203603E+03  0.58064124723E+03  0.47000000000E+01 0. -1.
         -5    1    3    3    0  502  0.30626089478E+02 -0.31835937743E+02 -0.16065916341E+03  0.16668815518E+03  0.47000000000E+01 0. -1.
        -11    1    1    2    0    0 -0.86463918429E+01 -0.37878978065E+02 -0.40146776298E+02  0.55868960240E+02  0.00000000000E+00 0. -1.
         11    1    1    2    0    0  0.42754734228E+02  0.24551589548E+02 -0.16072514710E+03  0.16811698534E+03  0.00000000000E+00 0.  1.
<mgrwt>
<rscale>  0 0.12164695E+03</rscale>
<asrwt>0</asrwt>
<pdfrwt beam="1">  1        1 0.26578640E-02 0.13025121E+03</pdfrwt>
<pdfrwt beam="2">  1       -1 0.14677524E+00 0.13025121E+03</pdfrwt>
<totfact> 0.15731175E+03</totfact>
</mgrwt>
</event>
<event>
 7    1  0.6095443E-006  0.1324680E+03  0.7546771E-02  0.1237702E+00
          1   -1    0    0  501    0  0.00000000000E+00  0.00000000000E+00  0.30185286418E+02  0.30185286418E+02  0.00000000000E+00 0. -1.
         -1   -1    0    0    0  501 -0.00000000000E+00 -0.00000000000E+00 -0.46173926290E+03  0.46173926290E+03  0.00000000000E+00 0.  1.
         23    2    1    2    0    0  0.37073661091E+02 -0.23409436980E+02 -0.29065688712E+03  0.31942009145E+03  0.12500124280E+03 0.  0.
          5    1    3    3  502    0  0.75760340115E+02 -0.14958670533E+02 -0.25303067568E+03  0.26459403583E+03  0.47000000000E+01 0.  1.
         -5    1    3    3    0  502 -0.38686679024E+02 -0.84507664475E+01 -0.37626211441E+02  0.54826055620E+02  0.47000000000E+01 0.  1.
        -11    1    1    2    0    0  0.15326270020E+02  0.37157923731E+02 -0.33927632499E+02  0.52599335506E+02  0.00000000000E+00 0. -1.
         11    1    1    2    0    0 -0.52399931111E+02 -0.13748486751E+02 -0.10696945686E+03  0.11990512236E+03  0.00000000000E+00 0.  1.
<mgrwt>
<rscale>  0 0.12333019E+03</rscale>
<asrwt>0</asrwt>
<pdfrwt beam="1">  1        1 0.46438905E-02 0.13246799E+03</pdfrwt>
<pdfrwt beam="2">  1       -1 0.71036805E-01 0.13246799E+03</pdfrwt>
<totfact> 0.36818214E+03</totfact>
</mgrwt>
</event>
<event>
 7    1  0.6095443E-006  0.1334161E+03  0.7546771E-02  0.1236126E+00
          2   -1    0    0  501    0  0.00000000000E+00  0.00000000000E+00  0.53569897173E+03  0.53569897173E+03  0.00000000000E+00 0.  1.
         -2   -1    0    0    0  501 -0.00000000000E+00 -0.00000000000E+00 -0.25728104274E+02  0.25728104274E+02  0.00000000000E+00 0. -1.
         23    2    1    2    0    0 -0.71338131277E+01 -0.46093519478E+02  0.26792432570E+03  0.29930468363E+03  0.12499738203E+03 0.  0.
          5    1    3    3  502    0 -0.63189919681E+02 -0.34307661397E+02  0.11253687034E+03  0.13362865997E+03  0.47000000000E+01 0. -1.
         -5    1    3    3    0  502  0.56056106553E+02 -0.11785858081E+02  0.15538745535E+03  0.16567602365E+03  0.47000000000E+01 0. -1.
        -11    1    1    2    0    0 -0.22656227267E+02  0.27389146177E+02  0.21455215877E+03  0.21747666264E+03  0.00000000000E+00 0.  1.
         11    1    1    2    0    0  0.29790040394E+02  0.18704373301E+02  0.27494382990E+02  0.44645729732E+02  0.00000000000E+00 0. -1.
<mgrwt>
<rscale>  0 0.12432612E+03</rscale>
<asrwt>0</asrwt>
<pdfrwt beam="1">  1        2 0.82415218E-01 0.13341608E+03</pdfrwt>
<pdfrwt beam="2">  1       -2 0.39581703E-02 0.13341608E+03</pdfrwt>
<totfact> 0.15186701E+04</totfact>
</mgrwt>
</event>
<event>
 7    1  0.6095443E-006  0.1301586E+03  0.7546771E-02  0.1240508E+00
         -2   -1    0    0    0  501 -0.00000000000E+00  0.00000000000E+00  0.94173127517E+02  0.94173127517E+02  0.00000000000E+00 0.  1.
          2   -1    0    0  501    0  0.00000000000E+00 -0.00000000000E+00 -0.17069808968E+03  0.17069808968E+03  0.00000000000E+00 0. -1.
         23    2    1    2    0    0  0.30658953414E+02 -0.19412511179E+02  0.13666386942E+02  0.13087409145E+03  0.12499776264E+03 0.  0.
          5    1    3    3  502    0  0.63514120054E+02 -0.40317150883E+02 -0.21298719003E+02  0.78327782636E+02  0.47000000000E+01 0.  1.
         -5    1    3    3    0  502 -0.32855166640E+02  0.20904639705E+02  0.34965105945E+02  0.52546308813E+02  0.47000000000E+01 0.  1.
        -11    1    1    2    0    0  0.31548072899E+02  0.18543563093E+02 -0.38439240188E+02  0.53072778540E+02  0.00000000000E+00 0. -1.
         11    1    1    2    0    0 -0.62207026313E+02  0.86894808592E+00 -0.51752108916E+02  0.80924347206E+02  0.00000000000E+00 0.  1.
<mgrwt>
<rscale>  0 0.12158296E+03</rscale>
<asrwt>0</asrwt>
<pdfrwt beam="2">  1        2 0.26261244E-01 0.13015859E+03</pdfrwt>
<pdfrwt beam="1">  1       -2 0.14488174E-01 0.13015859E+03</pdfrwt>
<totfact> 0.69817256E+03</totfact>
</mgrwt>
</event>
<event>
 7    1  0.6095443E-006  0.1820006E+03  0.7546771E-02  0.1171318E+00
          1   -1    0    0  501    0  0.00000000000E+00  0.00000000000E+00  0.58693681232E+03  0.58693681232E+03  0.00000000000E+00 0. -1.
         -1   -1    0    0    0  501 -0.00000000000E+00 -0.00000000000E+00 -0.51196435398E+02  0.51196435398E+02  0.00000000000E+00 0.  1.
         23    2    1    2    0    0  0.12668911878E+03  0.38105240776E+02  0.23577012718E+03  0.29784518327E+03  0.12498823198E+03 0.  0.
          5    1    3    3  502    0  0.82395983297E+02  0.82782286468E+02  0.13121393462E+03  0.17573045170E+03  0.47000000000E+01 0. -1.
         -5    1    3    3    0  502  0.44293135486E+02 -0.44677045692E+02  0.10455619256E+03  0.12211473157E+03  0.47000000000E+01 0. -1.
        -11    1    1    2    0    0 -0.67855337941E+02  0.26056051093E+02  0.11845910372E+03  0.13898137983E+03  0.00000000000E+00 0. -1.
         11    1    1    2    0    0 -0.58833780841E+02 -0.64161291869E+02  0.18151114602E+03  0.20130668462E+03  0.00000000000E+00 0.  1.
<mgrwt>
<rscale>  0 0.17641522E+03</rscale>
<asrwt>0</asrwt>
<pdfrwt beam="1">  1        1 0.90297966E-01 0.18200055E+03</pdfrwt>
<pdfrwt beam="2">  1       -1 0.78763751E-02 0.18200055E+03</pdfrwt>
<totfact> 0.31516704E+03</totfact>
</mgrwt>
</event>
<event>
 7    1  0.6095443E-006  0.1648741E+03  0.7546771E-02  0.1191188E+00
         -2   -1    0    0    0  501 -0.00000000000E+00  0.00000000000E+00  0.99856530895E+02  0.99856530895E+02  0.00000000000E+00 0. -1.
          2   -1    0    0  501    0  0.00000000000E+00 -0.00000000000E+00 -0.27841675771E+03  0.27841675771E+03  0.00000000000E+00 0.  1.
         23    2    1    2    0    0 -0.42350498433E+02 -0.98820177381E+02 -0.17312572054E+02  0.16578057485E+03  0.12499792666E+03 0.  0.
          5    1    3    3  502    0 -0.56306968158E+02 -0.10458085196E+03  0.24245199631E+02  0.12131590566E+03  0.47000000000E+01 0. -1.
         -5    1    3    3    0  502  0.13956469726E+02  0.57606745791E+01 -0.41557771685E+02  0.44464669191E+02  0.47000000000E+01 0. -1.
        -11    1    1    2    0    0 -0.56075089162E+01 -0.96204761992E+01 -0.45311976923E+02  0.46660186146E+02  0.00000000000E+00 0.  1.
         11    1    1    2    0    0  0.47958007349E+02  0.10844065358E+03 -0.11593567784E+03  0.16583252761E+03  0.00000000000E+00 0. -1.
<mgrwt>
<rscale>  0 0.15781276E+03</rscale>
<asrwt>0</asrwt>
<pdfrwt beam="2">  1        2 0.42833348E-01 0.16487412E+03</pdfrwt>
<pdfrwt beam="1">  1       -2 0.15362543E-01 0.16487412E+03</pdfrwt>
<totfact> 0.37962868E+03</totfact>
</mgrwt>
</event>
<event>
 7    1  0.6095443E-006  0.2077687E+03  0.7546771E-02  0.1147035E+00
         -2   -1    0    0    0  501 -0.00000000000E+00  0.00000000000E+00  0.15160296212E+03  0.15160296212E+03  0.00000000000E+00 0.  1.
          2   -1    0    0  501    0  0.00000000000E+00 -0.00000000000E+00 -0.27501229989E+03  0.27501229989E+03  0.00000000000E+00 0. -1.
         23    2    1    2    0    0  0.15156418824E+03  0.67615667765E+02 -0.16559640433E+02  0.20842753097E+03  0.12499692913E+03 0.  0.
          5    1    3    3  502    0  0.88569268269E+02  0.40491029136E+02  0.52708947483E+02  0.11083484049E+03  0.47000000000E+01 0.  1.
         -5    1    3    3    0  502  0.62994919968E+02  0.27124638629E+02 -0.69268587915E+02  0.97592690476E+02  0.47000000000E+01 0.  1.
        -11    1    1    2    0    0 -0.14439652382E+03 -0.53356219978E+02 -0.12181732050E+03  0.19630767146E+03  0.00000000000E+00 0. -1.
         11    1    1    2    0    0 -0.71676644205E+01 -0.14259447787E+02  0.14967623161E+02  0.21880059587E+02  0.00000000000E+00 0.  1.
<mgrwt>
<rscale>  0 0.20323904E+03</rscale>
<asrwt>0</asrwt>
<pdfrwt beam="2">  1        2 0.42309585E-01 0.20776865E+03</pdfrwt>
<pdfrwt beam="1">  1       -2 0.23323533E-01 0.20776865E+03</pdfrwt>
<totfact> 0.19140579E+03</totfact>
</mgrwt>
</event>
<event>
 7    1  0.6095443E-006  0.1904608E+03  0.7546771E-02  0.1162834E+00
         -2   -1    0    0    0  501 -0.00000000000E+00  0.00000000000E+00  0.31480537404E+02  0.31480537404E+02  0.00000000000E+00 0.  1.
          2   -1    0    0  501    0  0.00000000000E+00 -0.00000000000E+00 -0.10358256461E+04  0.10358256461E+04  0.00000000000E+00 0. -1.
         23    2    1    2    0    0  0.53922346257E+02 -0.13319956785E+03 -0.50815060580E+03  0.54267148458E+03  0.12500223076E+03 0.  0.
          5    1    3    3  502    0 -0.36124600612E+02 -0.49763976670E+02 -0.11134560471E+03  0.12728461742E+03  0.47000000000E+01 0.  1.
         -5    1    3    3    0  502  0.90046946868E+02 -0.83435591184E+02 -0.39680500109E+03  0.41538686716E+03  0.47000000000E+01 0.  1.
        -11    1    1    2    0    0 -0.30532692513E+02  0.42962907168E+01 -0.43189105061E+02  0.53066017582E+02  0.00000000000E+00 0.  1.
         11    1    1    2    0    0 -0.23389653744E+02  0.12890327714E+03 -0.45300539785E+03  0.47156868136E+03  0.00000000000E+00 0. -1.
<mgrwt>
<rscale>  0 0.18523150E+03</rscale>
<asrwt>0</asrwt>
<pdfrwt beam="2">  1        2 0.15935777E+00 0.19046076E+03</pdfrwt>
<pdfrwt beam="1">  1       -2 0.48431604E-02 0.19046076E+03</pdfrwt>
<totfact> 0.50703329E+03</totfact>
</mgrwt>
</event>
<event>
 7    1  0.6095443E-006  0.1891696E+03  0.7546771E-02  0.1164146E+00
         -1   -1    0    0    0  501 -0.00000000000E+00  0.00000000000E+00  0.56051150141E+02  0.56051150141E+02  0.00000000000E+00 0.  1.
          1   -1    0    0  501    0  0.00000000000E+00 -0.00000000000E+00 -0.57274126720E+03  0.57274126720E+03  0.00000000000E+00 0. -1.
         23    2    1    2    0    0 -0.38192072817E+02  0.13675317100E+03 -0.28922333589E+03  0.34559408437E+03  0.12500027570E+03 0.  0.
          5    1    3    3  502    0  0.43150590485E+01 -0.51708743699E+01 -0.12142334735E+03  0.12170076811E+03  0.47000000000E+01 0. -1.
         -5    1    3    3    0  502 -0.42507131866E+02  0.14192404537E+03 -0.16779998853E+03  0.22389331626E+03  0.47000000000E+01 0. -1.
        -11    1    1    2    0    0 -0.65818691990E+01 -0.65252006014E+02 -0.16696392080E+03  0.17938254134E+03  0.00000000000E+00 0. -1.
         11    1    1    2    0    0  0.44773942016E+02 -0.71501164984E+02 -0.60502860376E+02  0.10381579163E+03  0.00000000000E+00 0.  1.
<mgrwt>
<rscale>  0 0.18383075E+03</rscale>
<asrwt>0</asrwt>
<pdfrwt beam="2">  1        1 0.88114041E-01 0.18916959E+03</pdfrwt>
<pdfrwt beam="1">  1       -1 0.86232539E-02 0.18916959E+03</pdfrwt>
<totfact> 0.28423241E+03</totfact>
</mgrwt>
</event>
<event>
 7    1  0.6095443E-006  0.1885534E+03  0.7546771E-02  0.1164777E+00
          2   -1    0    0  501    0  0.00000000000E+00  0.00000000000E+00  0.53187584657E+03  0.53187584657E+03  0.00000000000E+00 0. -1.
         -2   -1    0    0    0  501 -0.00000000000E+00 -0.00000000000E+00 -0.92608611358E+02  0.92608611358E+02  0.00000000000E+00 0.  1.
         23    2    1    2    0    0  0.15802979847E+02 -0.14027339298E+03  0.41970782758E+02  0.19316813813E+03  0.12500409606E+03 0.  0.
          5    1    3    3  502    0  0.37553273635E+01 -0.32438688726E+01  0.54531163481E+02  0.54957828918E+02  0.47000000000E+01 0.  1.
         -5    1    3    3    0  502  0.12047652484E+02 -0.13702952411E+03 -0.12560380722E+02  0.13821030921E+03  0.47000000000E+01 0.  1.
        -11    1    1    2    0    0  0.21018775360E+02  0.49149032618E+02  0.23967562177E+03  0.24556428892E+03  0.00000000000E+00 0. -1.
         11    1    1    2    0    0 -0.36821755207E+02  0.91124360365E+02  0.15762083069E+03  0.18575203088E+03  0.00000000000E+00 0.  1.
<mgrwt>
<rscale>  0 0.18316239E+03</rscale>
<asrwt>0</asrwt>
<pdfrwt beam="1">  1        2 0.81827051E-01 0.18855340E+03</pdfrwt>
<pdfrwt beam="2">  1       -2 0.14247479E-01 0.18855340E+03</pdfrwt>
<totfact> 0.21422132E+03</totfact>
</mgrwt>
</event>
<event>
 7    1  0.6095443E-006  0.1664005E+03  0.7546771E-02  0.1186466E+00
          2   -1    0    0  501    0  0.00000000000E+00  0.00000000000E+00  0.38964832266E+02  0.38964832266E+02  0.00000000000E+00 0. -1.
         -2   -1    0    0    0  501 -0.00000000000E+00 -0.00000000000E+00 -0.67713451432E+03  0.67713451432E+03  0.00000000000E+00 0.  1.
         23    2    1    2    0    0 -0.10336793945E+03  0.37129043528E+02 -0.41889326334E+03  0.45073350857E+03  0.12500253157E+03 0.  0.
          5    1    3    3  502    0 -0.84864818310E+02 -0.19081520612E+02 -0.13474803785E+03  0.16045331258E+03  0.47000000000E+01 0.  1.
         -5    1    3    3    0  502 -0.18503121144E+02  0.56210564140E+02 -0.28414522549E+03  0.29028019599E+03  0.47000000000E+01 0.  1.
        -11    1    1    2    0    0  0.10267239866E+03 -0.16250859540E+02 -0.22117986162E+03  0.24438953142E+03  0.00000000000E+00 0.  1.
         11    1    1    2    0    0  0.69554079699E+00 -0.20878183988E+02  0.19034428988E+01  0.20976306598E+02  0.00000000000E+00 0. -1.
<mgrwt>
<rscale>  0 0.16199209E+03</rscale>
<asrwt>0</asrwt>
<pdfrwt beam="1">  1        2 0.59945903E-02 0.16640051E+03</pdfrwt>
<pdfrwt beam="2">  1       -2 0.10417453E+00 0.16640051E+03</pdfrwt>
<totfact> 0.94549958E+02</totfact>
</mgrwt>
</event>
<event>
 7    1  0.6095443E-006  0.1256870E+03  0.7546771E-02  0.1248098E+00
         -2   -1    0    0    0  501 -0.00000000000E+00  0.00000000000E+00  0.33758728489E+02  0.33758728489E+02  0.00000000000E+00 0.  1.
          2   -1    0    0  501    0  0.00000000000E+00 -0.00000000000E+00 -0.37232034881E+03  0.37232034881E+03  0.00000000000E+00 0. -1.
         23    2    1    2    0    0  0.12908749270E+01 -0.13067684382E+02 -0.15417316114E+03  0.19891352364E+03  0.12499918216E+03 0.  0.
          5    1    3    3  502    0  0.60514733989E+01  0.43789348265E+02 -0.12886956290E+03  0.13632161088E+03  0.47000000000E+01 0. -1.
         -5    1    3    3    0  502 -0.47605984719E+01 -0.56857032647E+02 -0.25303598236E+02  0.62591912760E+02  0.47000000000E+01 0. -1.
        -11    1    1    2    0    0  0.20437548021E+02 -0.33854386052E+02 -0.54273040931E+02  0.67151886019E+02  0.00000000000E+00 0.  1.
         11    1    1    2    0    0 -0.21728422948E+02  0.46922070434E+02 -0.13011541825E+03  0.14001366763E+03  0.00000000000E+00 0. -1.
<mgrwt>
<rscale>  0 0.11701838E+03</rscale>
<asrwt>0</asrwt>
<pdfrwt beam="2">  1        2 0.57280055E-01 0.12568702E+03</pdfrwt>
<pdfrwt beam="1">  1       -2 0.51936505E-02 0.12568702E+03</pdfrwt>
<totfact> 0.14928611E+04</totfact>
</mgrwt>
</event>
<event>
 7    1  0.6095443E-006  0.1371949E+03  0.7546771E-02  0.1230522E+00
          1   -1    0    0  501    0  0.00000000000E+00  0.00000000000E+00  0.65328236926E+03  0.65328236926E+03  0.00000000000E+00 0. -1.
         -1   -1    0    0    0  501 -0.00000000000E+00 -0.00000000000E+00 -0.28593817686E+02  0.28593817686E+02  0.00000000000E+00 0.  1.
         23    2    1    2    0    0 -0.15487649840E+02  0.54380768859E+02  0.18630176685E+03  0.23136724355E+03  0.12500127094E+03 0.  0.
          5    1    3    3  502    0  0.28644324676E+02  0.67592753424E+02  0.16447213492E+03  0.18017339098E+03  0.47000000000E+01 0. -1.
         -5    1    3    3    0  502 -0.44131974516E+02 -0.13211984565E+02  0.21829631931E+02  0.51193852571E+02  0.47000000000E+01 0. -1.
        -11    1    1    2    0    0  0.29390843335E+02  0.14043395516E+02  0.17612221877E+03  0.17910911360E+03  0.00000000000E+00 0. -1.
         11    1    1    2    0    0 -0.13903193495E+02 -0.68424164376E+02  0.26226456595E+03  0.27139982980E+03  0.00000000000E+00 0.  1.
<mgrwt>
<rscale>  0 0.12795505E+03</rscale>
<asrwt>0</asrwt>
<pdfrwt beam="1">  1        1 0.10050497E+00 0.13719495E+03</pdfrwt>
<pdfrwt beam="2">  1       -1 0.43990494E-02 0.13719495E+03</pdfrwt>
<totfact> 0.64138934E+03</totfact>
</mgrwt>
</event>
<event>
 7    1  0.6095443E-006  0.1514176E+03  0.7546771E-02  0.1207734E+00
         -1   -1    0    0    0  501 -0.00000000000E+00  0.00000000000E+00  0.17700937308E+03  0.17700937308E+03  0.00000000000E+00 0.  1.
          1   -1    0    0  501    0  0.00000000000E+00 -0.00000000000E+00 -0.10973480904E+03  0.10973480904E+03  0.00000000000E+00 0. -1.
         23    2    1    2    0    0 -0.82985987514E+02 -0.20422294883E+02  0.56414263870E+02  0.16158547527E+03  0.12499420945E+03 0.  0.
          5    1    3    3  502    0 -0.82032219226E+02  0.35611296532E+02  0.55468750098E+02  0.10533907950E+03  0.47000000000E+01 0. -1.
         -5    1    3    3    0  502 -0.95376828882E+00 -0.56033591415E+02  0.94551377254E+00  0.56246395770E+02  0.47000000000E+01 0. -1.
        -11    1    1    2    0    0  0.46457977686E+02  0.13858524348E+02  0.51085397424E+02  0.70428120930E+02  0.00000000000E+00 0.  1.
         11    1    1    2    0    0  0.36528009829E+02  0.65637705352E+01 -0.40225097262E+02  0.54730585922E+02  0.00000000000E+00 0. -1.
<mgrwt>
<rscale>  0 0.14424052E+03</rscale>
<asrwt>0</asrwt>
<pdfrwt beam="2">  1        1 0.16882278E-01 0.15141762E+03</pdfrwt>
<pdfrwt beam="1">  1       -1 0.27232211E-01 0.15141762E+03</pdfrwt>
<totfact> 0.37140631E+03</totfact>
</mgrwt>
</event>
<event>
 7    1  0.6095443E-006  0.1377162E+03  0.7546771E-02  0.1224197E+00
         -1   -1    0    0    0  501 -0.00000000000E+00  0.00000000000E+00  0.16769121935E+03  0.16769121935E+03  0.00000000000E+00 0.  1.
          1   -1    0    0  501    0  0.00000000000E+00 -0.00000000000E+00 -0.11458369934E+03  0.11458369934E+03  0.00000000000E+00 0. -1.
         23    2    1    2    0    0  0.21685077351E+02 -0.53572515207E+02  0.83918632189E+02  0.16127026144E+03  0.12500201371E+03 0.  0.
          5    1    3    3  502    0  0.13368144372E+02  0.39436721765E+02  0.12860906107E+02  0.43834406730E+02  0.47000000000E+01 0. -1.
         -5    1    3    3    0  502  0.83169329792E+01 -0.93009236972E+02  0.71057726081E+02  0.11743585471E+03  0.47000000000E+01 0. -1.
        -11    1    1    2    0    0 -0.55082201307E+02  0.24716380350E+02 -0.44265997464E+02  0.74862720295E+02  0.00000000000E+00 0. -1.
         11    1    1    2    0    0  0.33397123956E+02  0.28856134856E+02  0.13454885292E+02  0.46141936951E+02  0.00000000000E+00 0.  1.
<mgrwt>
<rscale>  0 0.13222099E+03</rscale>
<asrwt>0</asrwt>
<pdfrwt beam="2">  1        1 0.17628261E-01 0.13771623E+03</pdfrwt>
<pdfrwt beam="1">  1       -1 0.25798649E-01 0.13771623E+03</pdfrwt>
<totfact> 0.38226856E+03</totfact>
</mgrwt>
</event>
<event>
 7    1  0.6095443E-006  0.1499205E+03  0.7546771E-02  0.1209456E+00
         -1   -1    0    0    0  501 -0.00000000000E+00  0.00000000000E+00  0.20329958545E+03  0.20329958545E+03  0.00000000000E+00 0.  1.
          1   -1    0    0  501    0  0.00000000000E+00 -0.00000000000E+00 -0.10330035630E+03  0.10330035630E+03  0.00000000000E+00 0. -1.
         23    2    1    2    0    0  0.41255995077E+02 -0.71759271147E+02  0.10443270213E+03  0.18270833123E+03  0.12499877961E+03 0.  0.
          5    1    3    3  502    0 -0.83558796773E+01 -0.25393758812E+02 -0.24722365622E+02  0.36714425962E+02  0.47000000000E+01 0.  1.
         -5    1    3    3    0  502  0.49611874754E+02 -0.46365512336E+02  0.12915506775E+03  0.14599390527E+03  0.47000000000E+01 0.  1.
        -11    1    1    2    0    0  0.18206800527E+02 -0.36640714258E+01 -0.19207335130E+02  0.26717685672E+02  0.00000000000E+00 0. -1.
         11    1    1    2    0    0 -0.59462795604E+02  0.75423342573E+02  0.14773862146E+02  0.97173924839E+02  0.00000000000E+00 0.  1.
<mgrwt>
<rscale>  0 0.14291789E+03</rscale>
<asrwt>0</asrwt>
<pdfrwt beam="2">  1        1 0.15892363E-01 0.14992046E+03</pdfrwt>
<pdfrwt beam="1">  1       -1 0.31276859E-01 0.14992046E+03</pdfrwt>
<totfact> 0.31810134E+03</totfact>
</mgrwt>
</event>
<event>
 7    1  0.6095443E-006  0.1536958E+03  0.7546771E-02  0.1203777E+00
         -2   -1    0    0    0  501 -0.00000000000E+00  0.00000000000E+00  0.89339711964E+02  0.89339711964E+02  0.00000000000E+00 0.  1.
          2   -1    0    0  501    0  0.00000000000E+00 -0.00000000000E+00 -0.27195686721E+03  0.27195686721E+03  0.00000000000E+00 0. -1.
         23    2    1    2    0    0 -0.74241470976E+02  0.49867102138E+02 -0.22764177288E+02  0.15537247218E+03  0.12499549373E+03 0.  0.
          5    1    3    3  502    0 -0.50615522896E+02 -0.37391957035E+02 -0.70746889274E+01  0.63499849074E+02  0.47000000000E+01 0. -1.
         -5    1    3    3    0  502 -0.23625948080E+02  0.87259059173E+02 -0.15689488361E+02  0.91872623101E+02  0.47000000000E+01 0. -1.
        -11    1    1    2    0    0  0.33295151138E+02  0.13059034474E+02 -0.81807523388E+01  0.36688283954E+02  0.00000000000E+00 0.  1.
         11    1    1    2    0    0  0.40946319838E+02 -0.62926136612E+02 -0.15167222562E+03  0.16923582305E+03  0.00000000000E+00 0. -1.
<mgrwt>
<rscale>  0 0.14734220E+03</rscale>
<asrwt>0</asrwt>
<pdfrwt beam="2">  1        2 0.41839519E-01 0.15369579E+03</pdfrwt>
<pdfrwt beam="1">  1       -2 0.13744571E-01 0.15369579E+03</pdfrwt>
<totfact> 0.46523035E+03</totfact>
</mgrwt>
</event>
<event>
 7    1  0.6095443E-006  0.1477042E+03  0.7546771E-02  0.1212940E+00
          1   -1    0    0  501    0  0.00000000000E+00  0.00000000000E+00  0.27692117584E+03  0.27692117584E+03  0.00000000000E+00 0. -1.
         -1   -1    0    0    0  501 -0.00000000000E+00 -0.00000000000E+00 -0.66851079389E+02  0.66851079389E+02  0.00000000000E+00 0.  1.
         23    2    1    2    0    0 -0.71976301766E-01  0.78680118599E+02  0.85516242895E+02  0.17067383926E+03  0.12500386140E+03 0.  0.
          5    1    3    3  502    0  0.56517148828E+02  0.70162731716E+02  0.54774752615E+02  0.10554316917E+03  0.47000000000E+01 0. -1.
         -5    1    3    3    0  502 -0.56589125129E+02  0.85173868828E+01  0.30741490280E+02  0.65130670094E+02  0.47000000000E+01 0. -1.
        -11    1    1    2    0    0  0.37463582335E+02 -0.21653722573E+02  0.18605663673E+02  0.47101745438E+02  0.00000000000E+00 0. -1.
         11    1    1    2    0    0 -0.37391606033E+02 -0.57026396026E+02  0.10594818988E+03  0.12599667053E+03  0.00000000000E+00 0.  1.
<mgrwt>
<rscale>  0 0.14028973E+03</rscale>
<asrwt>0</asrwt>
<pdfrwt beam="1">  1        1 0.42603257E-01 0.14770420E+03</pdfrwt>
<pdfrwt beam="2">  1       -1 0.10284782E-01 0.14770420E+03</pdfrwt>
<totfact> 0.54412594E+03</totfact>
</mgrwt>
</event>
<event>
 6    1  0.6095443E-006  0.2072154E+03  0.7546771E-02  0.1172517E+00
          2   -1    0    0  501    0  0.00000000000E+00  0.00000000000E+00  0.48238178233E+03  0.48238178233E+03  0.00000000000E+00 0. -1.
         -2   -1    0    0    0  501 -0.00000000000E+00 -0.00000000000E+00 -0.54617942979E+02  0.54617942979E+02  0.00000000000E+00 0.  1.
          5    1    1    2  502    0 -0.85010465672E+02  0.33822071029E+02  0.18259087785E+03  0.20428467988E+03  0.47000000000E+01 0. -1.
         -5    1    1    2    0  502  0.47762287785E+02 -0.72468522591E+02  0.28394502926E+02  0.91439929448E+02  0.47000000000E+01 0.  1.
        -11    1    1    2    0    0  0.55660099080E+02  0.54529186329E+02  0.18856015475E+03  0.20402551495E+03  0.00000000000E+00 0.  1.
         11    1    1    2    0    0 -0.18411921193E+02 -0.15882734767E+02  0.28218303831E+02  0.37249601029E+02  0.00000000000E+00 0. -1.
<mgrwt>
<rscale>  0 0.17521423E+03</rscale>
<asrwt>0</asrwt>
<pdfrwt beam="1">  1        2 0.74212579E-01 0.20721538E+03</pdfrwt>
<pdfrwt beam="2">  1       -2 0.84027608E-02 0.20721538E+03</pdfrwt>
<totfact> 0.55749432E+03</totfact>
</mgrwt>
</event>
<event>
 7    1  0.6095443E-006  0.1264009E+03  0.7546771E-02  0.1244615E+00
         -1   -1    0    0    0  501 -0.00000000000E+00  0.00000000000E+00  0.67211982658E+02  0.67211982658E+02  0.00000000000E+00 0.  1.
          1   -1    0    0  501    0  0.00000000000E+00 -0.00000000000E+00 -0.28499498903E+03  0.28499498903E+03  0.00000000000E+00 0. -1.
         23    2    1    2    0    0 -0.13963548269E+02  0.12549669921E+02 -0.16284519976E+02  0.12744555478E+03  0.12499883578E+03 0.  0.
          5    1    3    3  502    0  0.18284367457E+02  0.30260973869E+00 -0.64933575491E+02  0.67622990853E+02  0.47000000000E+01 0. -1.
         -5    1    3    3    0  502 -0.32247915726E+02  0.12247060182E+02  0.48649055515E+02  0.59822563922E+02  0.47000000000E+01 0. -1.
        -11    1    1    2    0    0  0.43610617067E+02 -0.37590232470E+01 -0.36803049187E+02  0.57188115952E+02  0.00000000000E+00 0.  1.
         11    1    1    2    0    0 -0.29647068798E+02 -0.87906466739E+01 -0.16469543721E+03  0.16757330096E+03  0.00000000000E+00 0. -1.
<mgrwt>
<rscale>  0 0.11908442E+03</rscale>
<asrwt>0</asrwt>
<pdfrwt beam="2">  1        1 0.43845383E-01 0.12640089E+03</pdfrwt>
<pdfrwt beam="1">  1       -1 0.10340305E-01 0.12640089E+03</pdfrwt>
<totfact> 0.51605125E+03</totfact>
</mgrwt>
</event>
<event>
 7    1  0.6095443E-006  0.1718278E+03  0.7546771E-02  0.1182327E+00
         -2   -1    0    0    0  501 -0.00000000000E+00  0.00000000000E+00  0.14940276348E+03  0.14940276348E+03  0.00000000000E+00 0.  1.
          2   -1    0    0  501    0  0.00000000000E+00 -0.00000000000E+00 -0.17302137322E+03  0.17302137322E+03  0.00000000000E+00 0. -1.
         23    2    1    2    0    0  0.69004508365E+02 -0.95610875954E+02 -0.24443007264E+02  0.17355764477E+03  0.12498693403E+03 0.  0.
          5    1    3    3  502    0  0.72659185003E+02 -0.35055225965E+02 -0.62174644070E+02  0.10196078853E+03  0.47000000000E+01 0.  1.
         -5    1    3    3    0  502 -0.36546766380E+01 -0.60555649988E+02  0.37731636806E+02  0.71596856236E+02  0.47000000000E+01 0.  1.
        -11    1    1    2    0    0 -0.40550585095E+02  0.74198097292E+02  0.42012853202E+02  0.94418152002E+02  0.00000000000E+00 0.  1.
         11    1    1    2    0    0 -0.28453923270E+02  0.21412778661E+02 -0.41188455685E+02  0.54448339930E+02  0.00000000000E+00 0. -1.
<mgrwt>
<rscale>  0 0.16577447E+03</rscale>
<asrwt>0</asrwt>
<pdfrwt beam="2">  1        2 0.26618673E-01 0.17182781E+03</pdfrwt>
<pdfrwt beam="1">  1       -2 0.22985040E-01 0.17182781E+03</pdfrwt>
<totfact> 0.32243500E+03</totfact>
</mgrwt>
</event>
<event>
 7    1  0.6095443E-006  0.1266725E+03  0.7546771E-02  0.1247551E+00
         -2   -1    0    0    0  501 -0.00000000000E+00  0.00000000000E+00  0.12215736230E+02  0.12215736230E+02  0.00000000000E+00 0. -1.
          2   -1    0    0  501    0  0.00000000000E+00 -0.00000000000E+00 -0.99472038355E+03  0.99472038355E+03  0.00000000000E+00 0.  1.
         23    2    1    2    0    0  0.20354097231E+02  0.24189792284E+01 -0.53121519915E+03  0.54610943007E+03  0.12500312422E+03 0.  0.
          5    1    3    3  502    0  0.35898751926E+02 -0.47708978590E+02 -0.40397007328E+03  0.40838557410E+03  0.47000000000E+01 0. -1.
         -5    1    3    3    0  502 -0.15544654695E+02  0.50127957818E+02 -0.12724512587E+03  0.13772385597E+03  0.47000000000E+01 0. -1.
        -11    1    1    2    0    0 -0.51435482579E+02 -0.21294946702E+02 -0.30829683834E+03  0.31328265856E+03  0.00000000000E+00 0.  1.
         11    1    1    2    0    0  0.31081385348E+02  0.18875967473E+02 -0.14299260983E+03  0.14754403115E+03  0.00000000000E+00 0. -1.
<mgrwt>
<rscale>  0 0.11733994E+03</rscale>
<asrwt>0</asrwt>
<pdfrwt beam="2">  1        2 0.15303394E+00 0.12667250E+03</pdfrwt>
<pdfrwt beam="1">  1       -2 0.18793436E-02 0.12667250E+03</pdfrwt>
<totfact> 0.21239440E+04</totfact>
</mgrwt>
</event>
<event>
 7    1  0.6095443E-006  0.1701838E+03  0.7546771E-02  0.1182896E+00
          1   -1    0    0  501    0  0.00000000000E+00  0.00000000000E+00  0.68888121515E+03  0.68888121515E+03  0.00000000000E+00 0. -1.
         -1   -1    0    0    0  501 -0.00000000000E+00 -0.00000000000E+00 -0.30708942226E+03  0.30708942226E+03  0.00000000000E+00 0.  1.
         23    2    1    2    0    0  0.12510869537E+03 -0.24915787608E+02 -0.27422237043E+03  0.32273896133E+03  0.11264788763E+03 0.  0.
          5    1    3    3  502    0  0.49111236981E+02  0.44713561863E+02 -0.96614982843E+02  0.11733610323E+03  0.47000000000E+01 0. -1.
         -5    1    3    3    0  502  0.75997458385E+02 -0.69629349472E+02 -0.17760738759E+03  0.20540285810E+03  0.47000000000E+01 0.  1.
        -11    1    1    2    0    0 -0.56574712211E+02  0.50161969014E+02  0.39604373567E+03  0.40319667875E+03  0.00000000000E+00 0. -1.
         11    1    1    2    0    0 -0.68533983156E+02 -0.25246181406E+02  0.25997042766E+03  0.27003499732E+03  0.00000000000E+00 0.  1.
<mgrwt>
<rscale>  0 0.16524778E+03</rscale>
<asrwt>0</asrwt>
<pdfrwt beam="1">  1        1 0.10598172E+00 0.17018381E+03</pdfrwt>
<pdfrwt beam="2">  1       -1 0.47244527E-01 0.17018381E+03</pdfrwt>
<totfact> 0.13621757E+02</totfact>
</mgrwt>
</event>
<event>
 7    1  0.6095443E-006  0.1267711E+03  0.7546771E-02  0.1246872E+00
          2   -1    0    0  501    0  0.00000000000E+00  0.00000000000E+00  0.19451905518E+03  0.19451905518E+03  0.00000000000E+00 0. -1.
         -2   -1    0    0    0  501 -0.00000000000E+00 -0.00000000000E+00 -0.68772302284E+02  0.68772302284E+02  0.00000000000E+00 0.  1.
         23    2    1    2    0    0  0.17601627738E+02  0.11652212929E+02  0.32981129505E+02  0.13099107419E+03  0.12500126099E+03 0.  0.
          5    1    3    3  502    0  0.57525172113E+02  0.32552453244E+02 -0.11778559370E+02  0.67302541554E+02  0.47000000000E+01 0.  1.
         -5    1    3    3    0  502 -0.39923544375E+02 -0.20900240315E+02  0.44759688875E+02  0.63688532632E+02  0.47000000000E+01 0.  1.
        -11    1    1    2    0    0  0.16293022077E+02  0.53553679638E+01 -0.11967325698E+02  0.20913139859E+02  0.00000000000E+00 0.  1.
         11    1    1    2    0    0 -0.33894649814E+02 -0.17007580893E+02  0.10473294909E+03  0.11138714342E+03  0.00000000000E+00 0. -1.
<mgrwt>
<rscale>  0 0.11774056E+03</rscale>
<asrwt>0</asrwt>
<pdfrwt beam="1">  1        2 0.29926008E-01 0.12677108E+03</pdfrwt>
<pdfrwt beam="2">  1       -2 0.10580354E-01 0.12677108E+03</pdfrwt>
<totfact> 0.99947179E+03</totfact>
</mgrwt>
</event>
<event>
 7    1  0.6095443E-006  0.2472189E+03  0.7546771E-02  0.1117756E+00
          1   -1    0    0  501    0  0.00000000000E+00  0.00000000000E+00  0.78951798051E+03  0.78951798051E+03  0.00000000000E+00 0. -1.
         -1   -1    0    0    0  501 -0.00000000000E+00 -0.00000000000E+00 -0.79954360840E+02  0.79954360840E+02  0.00000000000E+00 0.  1.
         23    2    1    2    0    0 -0.18026990941E+03 -0.11398917891E+03  0.49881520917E+03  0.55671699322E+03  0.12500569782E+03 0.  0.
          5    1    3    3  502    0 -0.78653804720E+02 -0.81907907351E+02  0.12947058463E+03  0.17227898470E+03  0.47000000000E+01 0.  1.
         -5    1    3    3    0  502 -0.10161610469E+03 -0.32081271561E+02  0.36934462454E+03  0.38443800852E+03  0.47000000000E+01 0.  1.
        -11    1    1    2    0    0  0.16990561380E+03  0.86488458967E+02  0.20960879831E+03  0.28334434786E+03  0.00000000000E+00 0.  1.
         11    1    1    2    0    0  0.10364295609E+02  0.27500719946E+02  0.11396121851E+01  0.29411000271E+02  0.00000000000E+00 0. -1.
<mgrwt>
<rscale>  0 0.24308322E+03</rscale>
<asrwt>0</asrwt>
<pdfrwt beam="1">  1        1 0.12146430E+00 0.24721893E+03</pdfrwt>
<pdfrwt beam="2">  1       -1 0.12300671E-01 0.24721893E+03</pdfrwt>
<totfact> 0.10380180E+03</totfact>
</mgrwt>
</event>
<event>
 7    1  0.6095443E-006  0.1288899E+03  0.7546771E-02  0.1242225E+00
          1   -1    0    0  501    0  0.00000000000E+00  0.00000000000E+00  0.27947466332E+02  0.27947466332E+02  0.00000000000E+00 0. -1.
         -1   -1    0    0    0  501 -0.00000000000E+00 -0.00000000000E+00 -0.46566549270E+03  0.46566549270E+03  0.00000000000E+00 0.  1.
         23    2    1    2    0    0 -0.29498465408E+02  0.10857705061E+02 -0.26706803244E+03  0.29654333587E+03  0.12499826750E+03 0.  0.
          5    1    3    3  502    0 -0.63873640299E+02  0.29682271288E+02 -0.23593975918E+03  0.24627330167E+03  0.47000000000E+01 0. -1.
         -5    1    3    3    0  502  0.34375174891E+02 -0.18824566227E+02 -0.31128273263E+02  0.50270034203E+02  0.47000000000E+01 0. -1.
        -11    1    1    2    0    0  0.36327329117E+02 -0.21304251030E+02 -0.17777731468E+03  0.18269734417E+03  0.00000000000E+00 0.  1.
         11    1    1    2    0    0 -0.68288637088E+01  0.10446545969E+02  0.71273207522E+01  0.14372278989E+02  0.00000000000E+00 0. -1.
<mgrwt>
<rscale>  0 0.12052987E+03</rscale>
<asrwt>0</asrwt>
<pdfrwt beam="1">  1        1 0.42996102E-02 0.12888994E+03</pdfrwt>
<pdfrwt beam="2">  1       -1 0.71640845E-01 0.12888994E+03</pdfrwt>
<totfact> 0.40164198E+03</totfact>
</mgrwt>
</event>
<event>
 6    1  0.6095443E-006  0.1972933E+03  0.7546771E-02  0.1168708E+00
          1   -1    0    0  501    0  0.00000000000E+00  0.00000000000E+00  0.12510494475E+03  0.12510494475E+03  0.00000000000E+00 0. -1.
         -1   -1    0    0    0  501 -0.00000000000E+00 -0.00000000000E+00 -0.98664258149E+03  0.98664258149E+03  0.00000000000E+00 0.  1.
          5    1    1    2  502    0  0.14658601787E+02  0.61021758256E+02 -0.13307906966E+03  0.14720957295E+03  0.47000000000E+01 0. -1.
         -5    1    1    2    0  502  0.82862053770E+02 -0.58819956651E+02 -0.80427029916E+03  0.81067793319E+03  0.47000000000E+01 0.  1.
        -11    1    1    2    0    0 -0.50727885714E+02  0.36912716263E+02  0.89672015861E+01  0.63374109187E+02  0.00000000000E+00 0. -1.
         11    1    1    2    0    0 -0.46792769843E+02 -0.39114517867E+02  0.66844530490E+02  0.90485910915E+02  0.00000000000E+00 0.  1.
<mgrwt>
<rscale>  0 0.17906804E+03</rscale>
<asrwt>0</asrwt>
<pdfrwt beam="1">  1        1 0.19246915E-01 0.19729327E+03</pdfrwt>
<pdfrwt beam="2">  1       -1 0.15179116E+00 0.19729327E+03</pdfrwt>
<totfact> 0.10006100E+02</totfact>
</mgrwt>
</event>
<event>
 6    1  0.6095443E-006  0.2599241E+03  0.7546771E-02  0.1170472E+00
         -2   -1    0    0    0  501 -0.00000000000E+00  0.00000000000E+00  0.20709516982E+03  0.20709516982E+03  0.00000000000E+00 0.  1.
          2   -1    0    0  501    0  0.00000000000E+00 -0.00000000000E+00 -0.12199373400E+03  0.12199373400E+03  0.00000000000E+00 0. -1.
          5    1    1    2  502    0 -0.32319972622E+02  0.11367203001E+03 -0.30600203124E+02  0.12216535298E+03  0.47000000000E+01 0. -1.
         -5    1    1    2    0  502  0.62042477824E+02 -0.77141750261E+02  0.11345247609E+03  0.15064419344E+03  0.47000000000E+01 0.  1.
        -11    1    1    2    0    0 -0.99155003954E+01 -0.27267638153E+02  0.13140217388E+02  0.31851319463E+02  0.00000000000E+00 0.  1.
         11    1    1    2    0    0 -0.19807004807E+02 -0.92626415946E+01 -0.10891054529E+02  0.24428037938E+02  0.00000000000E+00 0. -1.
<mgrwt>
<rscale>  0 0.17727008E+03</rscale>
<asrwt>0</asrwt>
<pdfrwt beam="2">  1        2 0.18768267E-01 0.25992412E+03</pdfrwt>
<pdfrwt beam="1">  1       -2 0.31860795E-01 0.25992412E+03</pdfrwt>
<totfact> 0.27201628E+03</totfact>
</mgrwt>
</event>
<event>
 7    1  0.6095443E-006  0.1934926E+03  0.7546771E-02  0.1159967E+00
          1   -1    0    0  501    0  0.00000000000E+00  0.00000000000E+00  0.75511938365E+02  0.75511938365E+02  0.00000000000E+00 0. -1.
         -1   -1    0    0    0  501 -0.00000000000E+00 -0.00000000000E+00 -0.78083077864E+03  0.78083077864E+03  0.00000000000E+00 0.  1.
         23    2    1    2    0    0  0.52861939831E+02 -0.13791143634E+03 -0.64352466647E+03  0.67198467016E+03  0.12500180644E+03 0.  0.
          5    1    3    3  502    0 -0.29276108450E+02 -0.47553419800E+02 -0.97548826730E+02  0.11250014159E+03  0.47000000000E+01 0. -1.
         -5    1    3    3    0  502  0.82138048280E+02 -0.90358016542E+02 -0.54597583974E+03  0.55948452857E+03  0.47000000000E+01 0. -1.
        -11    1    1    2    0    0 -0.34814599472E+02  0.11474795503E+01 -0.50665406158E+01  0.35200040903E+02  0.00000000000E+00 0. -1.
         11    1    1    2    0    0 -0.18047340358E+02  0.13676395679E+03 -0.56727633193E+02  0.14915800595E+03  0.00000000000E+00 0.  1.
<mgrwt>
<rscale>  0 0.18834067E+03</rscale>
<asrwt>0</asrwt>
<pdfrwt beam="1">  1        1 0.11617221E-01 0.19349264E+03</pdfrwt>
<pdfrwt beam="2">  1       -1 0.12012781E+00 0.19349264E+03</pdfrwt>
<totfact> 0.34710149E+02</totfact>
</mgrwt>
</event>
<event>
 6    1  0.6095443E-006  0.1590904E+03  0.7546771E-02  0.1198497E+00
          2   -1    0    0  501    0  0.00000000000E+00  0.00000000000E+00  0.97567682105E+02  0.97567682105E+02  0.00000000000E+00 0. -1.
         -2   -1    0    0    0  501 -0.00000000000E+00 -0.00000000000E+00 -0.23209121473E+03  0.23209121473E+03  0.00000000000E+00 0.  1.
          5    1    1    2  502    0 -0.10509934095E+02 -0.30438726161E+02  0.53913868740E+01  0.32986843095E+02  0.47000000000E+01 0. -1.
         -5    1    1    2    0  502  0.10392489070E+03  0.35801906232E+02 -0.12187835684E+03  0.16419069176E+03  0.47000000000E+01 0.  1.
        -11    1    1    2    0    0 -0.32805741624E+02  0.60121759234E+01 -0.52228519726E+02  0.61969195700E+02  0.00000000000E+00 0.  1.
         11    1    1    2    0    0 -0.60609214978E+02 -0.11375355994E+02  0.34191957069E+02  0.70512166273E+02  0.00000000000E+00 0. -1.
<mgrwt>
<rscale>  0 0.15161986E+03</rscale>
<asrwt>0</asrwt>
<pdfrwt beam="1">  1        2 0.15010413E-01 0.15909043E+03</pdfrwt>
<pdfrwt beam="2">  1       -2 0.35706340E-01 0.15909043E+03</pdfrwt>
<totfact> 0.27985714E+03</totfact>
</mgrwt>
</event>
<event>
 6    1  0.6095443E-006  0.1765103E+03  0.7546771E-02  0.1187470E+00
         -2   -1    0    0    0  501 -0.00000000000E+00  0.00000000000E+00  0.83639155020E+02  0.83639155020E+02  0.00000000000E+00 0.  1.
          2   -1    0    0  501    0  0.00000000000E+00 -0.00000000000E+00 -0.27612689722E+03  0.27612689722E+03  0.00000000000E+00 0. -1.
          5    1    1    2  502    0  0.12501797248E+03 -0.31411892763E+02 -0.71370794087E+02  0.14741804739E+03  0.47000000000E+01 0. -1.
         -5    1    1    2    0  502 -0.43938675569E+02 -0.12143880240E+02 -0.98103589798E+01  0.46865917054E+02  0.47000000000E+01 0.  1.
        -11    1    1    2    0    0 -0.57180190796E+02 -0.14216406511E+02 -0.43412566835E+02  0.73186961904E+02  0.00000000000E+00 0. -1.
         11    1    1    2    0    0 -0.23899106111E+02  0.57772179514E+02 -0.67894022297E+02  0.92295125886E+02  0.00000000000E+00 0.  1.
<mgrwt>
<rscale>  0 0.16109105E+03</rscale>
<asrwt>0</asrwt>
<pdfrwt beam="2">  1        2 0.42481061E-01 0.17651028E+03</pdfrwt>
<pdfrwt beam="1">  1       -2 0.12867562E-01 0.17651028E+03</pdfrwt>
<totfact> 0.51313976E+03</totfact>
</mgrwt>
</event>
<event>
 7    1  0.6095443E-006  0.1424678E+03  0.7546771E-02  0.1218322E+00
          1   -1    0    0  501    0  0.00000000000E+00  0.00000000000E+00  0.71447741422E+02  0.71447741422E+02  0.00000000000E+00 0. -1.
         -1   -1    0    0    0  501 -0.00000000000E+00 -0.00000000000E+00 -0.35343920294E+03  0.35343920294E+03  0.00000000000E+00 0.  1.
         23    2    1    2    0    0  0.66924525250E+02 -0.13894126653E+02 -0.26931705558E+03  0.30467809597E+03  0.12500050761E+03 0.  0.
          5    1    3    3  502    0  0.32084192969E+02 -0.39627321846E+02 -0.25878465343E+02  0.57371639716E+02  0.47000000000E+01 0. -1.
         -5    1    3    3    0  502  0.34840332281E+02  0.25733195194E+02 -0.24343859024E+03  0.24730645625E+03  0.47000000000E+01 0. -1.
        -11    1    1    2    0    0 -0.51662073216E+01  0.46918576616E+02  0.63750744094E+01  0.47630705469E+02  0.00000000000E+00 0.  1.
         11    1    1    2    0    0 -0.61758317928E+02 -0.33024449963E+02 -0.19049480347E+02  0.72578142923E+02  0.00000000000E+00 0. -1.
<mgrwt>
<rscale>  0 0.13635300E+03</rscale>
<asrwt>0</asrwt>
<pdfrwt beam="1">  1        1 0.10991960E-01 0.14246777E+03</pdfrwt>
<pdfrwt beam="2">  1       -1 0.54375261E-01 0.14246777E+03</pdfrwt>
<totfact> 0.19322165E+03</totfact>
</mgrwt>
</event>
<event>
 7    1  0.6095443E-006  0.2110551E+03  0.7546771E-02  0.1144411E+00
          2   -1    0    0  501    0  0.00000000000E+00  0.00000000000E+00  0.97152471583E+02  0.97152471583E+02  0.00000000000E+00 0. -1.
         -2   -1    0    0    0  501 -0.00000000000E+00 -0.00000000000E+00 -0.42068395584E+03  0.42068395584E+03  0.00000000000E+00 0.  1.
         23    2    1    2    0    0 -0.16517562456E+03  0.40452488386E+02 -0.16454375431E+03  0.26761710701E+03  0.12499951247E+03 0.  0.
          5    1    3    3  502    0 -0.10962467984E+03  0.57855078685E+01 -0.16926191832E+03  0.20179873519E+03  0.47000000000E+01 0. -1.
         -5    1    3    3    0  502 -0.55550944718E+02  0.34666980517E+02  0.47181640113E+01  0.65818371819E+02  0.47000000000E+01 0. -1.
        -11    1    1    2    0    0  0.19368886957E+02  0.29633166757E+01  0.10694909562E+02  0.22322995278E+02  0.00000000000E+00 0. -1.
         11    1    1    2    0    0  0.14580673760E+03 -0.43415805062E+02 -0.16968263951E+03  0.22789632514E+03  0.00000000000E+00 0.  1.
<mgrwt>
<rscale>  0 0.20644672E+03</rscale>
<asrwt>0</asrwt>
<pdfrwt beam="1">  1        2 0.14946534E-01 0.21105513E+03</pdfrwt>
<pdfrwt beam="2">  1       -2 0.64720609E-01 0.21105513E+03</pdfrwt>
<totfact> 0.87768208E+02</totfact>
</mgrwt>
</event>
<event>
 7    1  0.6095443E-006  0.2814750E+03  0.7546771E-02  0.1096662E+00
         -2   -1    0    0    0  501 -0.00000000000E+00  0.00000000000E+00  0.34237718216E+03  0.34237718216E+03  0.00000000000E+00 0. -1.
          2   -1    0    0  501    0  0.00000000000E+00 -0.00000000000E+00 -0.37711908390E+03  0.37711908390E+03  0.00000000000E+00 0.  1.
         23    2    1    2    0    0  0.22346457814E+03  0.11689848518E+03  0.21380631695E+03  0.35347037299E+03  0.12500595942E+03 0.  0.
          5    1    3    3  502    0  0.20550091921E+03  0.10084372665E+03  0.12402253797E+03  0.26039156078E+03  0.47000000000E+01 0. -1.
         -5    1    3    3    0  502  0.17963658928E+02  0.16054758529E+02  0.89783778977E+02  0.93078812202E+02  0.47000000000E+01 0. -1.
        -11    1    1    2    0    0 -0.61023956292E+02 -0.24754916114E+02 -0.15997830567E+02  0.67769164789E+02  0.00000000000E+00 0. -1.
         11    1    1    2    0    0 -0.16244062185E+03 -0.92143569068E+02 -0.23255038812E+03  0.29825672828E+03  0.00000000000E+00 0.  1.
<mgrwt>
<rscale>  0 0.27822493E+03</rscale>
<asrwt>0</asrwt>
<pdfrwt beam="2">  1        2 0.58018321E-01 0.28147498E+03</pdfrwt>
<pdfrwt beam="1">  1       -2 0.52673413E-01 0.28147498E+03</pdfrwt>
<totfact> 0.29634863E+02</totfact>
</mgrwt>
</event>
<event>
 6    1  0.6095443E-006  0.2178600E+03  0.7546771E-02  0.1151169E+00
         -1   -1    0    0    0  501 -0.00000000000E+00  0.00000000000E+00  0.86543731306E+03  0.86543731306E+03  0.00000000000E+00 0.  1.
          1   -1    0    0  501    0  0.00000000000E+00 -0.00000000000E+00 -0.46915783940E+02  0.46915783940E+02  0.00000000000E+00 0. -1.
          5    1    1    2  502    0 -0.41445501134E+02  0.12717653259E+03  0.35361680323E+03  0.37809857648E+03  0.47000000000E+01 0. -1.
         -5    1    1    2    0  502 -0.46192042984E+02 -0.66693837552E+02  0.30351400793E+03  0.31420473551E+03  0.47000000000E+01 0.  1.
        -11    1    1    2    0    0  0.61883041428E+01 -0.60491621642E+02  0.10379031448E+03  0.12029115004E+03  0.00000000000E+00 0.  1.
         11    1    1    2    0    0  0.81449239975E+02  0.89266038458E-02  0.57600403463E+02  0.99758634971E+02  0.00000000000E+00 0. -1.
<mgrwt>
<rscale>  0 0.19831399E+03</rscale>
<asrwt>0</asrwt>
<pdfrwt beam="2">  1        1 0.72178135E-02 0.21785998E+03</pdfrwt>
<pdfrwt beam="1">  1       -1 0.13314419E+00 0.21785998E+03</pdfrwt>
<totfact> 0.51345158E+02</totfact>
</mgrwt>
</event>
<event>
 7    1  0.6095443E-006  0.1437865E+03  0.7546771E-02  0.1219698E+00
         -2   -1    0    0    0  501 -0.00000000000E+00  0.00000000000E+00  0.33329037716E+02  0.33329037716E+02  0.00000000000E+00 0.  1.
          2   -1    0    0  501    0  0.00000000000E+00 -0.00000000000E+00 -0.49767128828E+03  0.49767128828E+03  0.00000000000E+00 0. -1.
         23    2    1    2    0    0 -0.72805745676E+01 -0.70701499432E+02 -0.28100489549E+03  0.31565536954E+03  0.12499140868E+03 0.  0.
          5    1    3    3  502    0  0.14807173950E+02 -0.82066609215E+02 -0.27790488254E+03  0.29018510383E+03  0.47000000000E+01 0.  1.
         -5    1    3    3    0  502 -0.22087748518E+02  0.11365109783E+02 -0.31000129523E+01  0.25470265709E+02  0.47000000000E+01 0.  1.
        -11    1    1    2    0    0 -0.39051823479E+02  0.44612432860E+02 -0.10672812339E+03  0.12209097594E+03  0.00000000000E+00 0.  1.
         11    1    1    2    0    0  0.46332398047E+02  0.26089066573E+02 -0.76609231682E+02  0.93253980517E+02  0.00000000000E+00 0. -1.
<mgrwt>
<rscale>  0 0.13537037E+03</rscale>
<asrwt>0</asrwt>
<pdfrwt beam="2">  1        2 0.76564808E-01 0.14378651E+03</pdfrwt>
<pdfrwt beam="1">  1       -2 0.51275447E-02 0.14378651E+03</pdfrwt>
<totfact> 0.11250004E+04</totfact>
</mgrwt>
</event>
<event>
 7    1  0.6095443E-006  0.2378175E+03  0.7546771E-02  0.1124295E+00
         -1   -1    0    0    0  501 -0.00000000000E+00  0.00000000000E+00  0.71777573919E+02  0.71777573919E+02  0.00000000000E+00 0.  1.
          1   -1    0    0  501    0  0.00000000000E+00 -0.00000000000E+00 -0.89667681341E+03  0.89667681341E+03  0.00000000000E+00 0. -1.
         23    2    1    2    0    0 -0.17031028265E+03 -0.10921704046E+03 -0.21752251567E+03  0.32229366857E+03  0.12499283849E+03 0.  0.
          5    1    3    3  502    0 -0.62569800806E+02  0.22677235532E+02 -0.50159748350E+02  0.83470517782E+02  0.47000000000E+01 0.  1.
         -5    1    3    3    0  502 -0.10774048185E+03 -0.13189427599E+03 -0.16736276732E+03  0.23882315079E+03  0.47000000000E+01 0.  1.
        -11    1    1    2    0    0  0.62766207533E+02  0.68033745984E+02 -0.38214732436E+03  0.39319812425E+03  0.00000000000E+00 0.  1.
         11    1    1    2    0    0  0.10754407512E+03  0.41183294476E+02 -0.22522939946E+03  0.25296259451E+03  0.00000000000E+00 0. -1.
<mgrwt>
<rscale>  0 0.23336278E+03</rscale>
<asrwt>0</asrwt>
<pdfrwt beam="2">  1        1 0.13795028E+00 0.23781750E+03</pdfrwt>
<pdfrwt beam="1">  1       -1 0.11042704E-01 0.23781750E+03</pdfrwt>
<totfact> 0.10054991E+03</totfact>
</mgrwt>
</event>
<event>
 7    1  0.6095443E-006  0.1274078E+03  0.7546771E-02  0.1245758E+00
         -1   -1    0    0    0  501 -0.00000000000E+00  0.00000000000E+00  0.84515913246E+02  0.84515913246E+02  0.00000000000E+00 0.  1.
          1   -1    0    0  501    0  0.00000000000E+00 -0.00000000000E+00 -0.14724691357E+03  0.14724691357E+03  0.00000000000E+00 0. -1.
         23    2    1    2    0    0 -0.19862256912E+02  0.14357215828E+02 -0.26961426039E+02  0.13022924625E+03  0.12502839353E+03 0.  0.
          5    1    3    3  502    0  0.16515338508E+02 -0.46488347360E+02 -0.32020690035E+02  0.59002859563E+02  0.47000000000E+01 0. -1.
         -5    1    3    3    0  502 -0.36377595420E+02  0.60845563188E+02  0.50592639959E+01  0.71226386686E+02  0.47000000000E+01 0. -1.
        -11    1    1    2    0    0  0.36734035791E+01  0.26168782682E+02  0.18230815853E+02  0.32103920751E+02  0.00000000000E+00 0.  1.
         11    1    1    2    0    0  0.16188853333E+02 -0.40525998510E+02 -0.54000390141E+02  0.69429659821E+02  0.00000000000E+00 0. -1.
<mgrwt>
<rscale>  0 0.11840104E+03</rscale>
<asrwt>0</asrwt>
<pdfrwt beam="2">  1        1 0.22653371E-01 0.12740776E+03</pdfrwt>
<pdfrwt beam="1">  1       -1 0.13002448E-01 0.12740776E+03</pdfrwt>
<totfact> 0.82434594E+03</totfact>
</mgrwt>
</event>
<event>
 7    1  0.6095443E-006  0.1468325E+03  0.7546771E-02  0.1213694E+00
         -2   -1    0    0    0  501 -0.00000000000E+00  0.00000000000E+00  0.20811676550E+02  0.20811676550E+02  0.00000000000E+00 0.  1.
          2   -1    0    0  501    0  0.00000000000E+00 -0.00000000000E+00 -0.86909919295E+03  0.86909919295E+03  0.00000000000E+00 0. -1.
         23    2    1    2    0    0 -0.44973275443E+02  0.62547977959E+02 -0.51571108085E+03  0.53620678126E+03  0.12499979325E+03 0.  0.
          5    1    3    3  502    0 -0.75684973470E+02  0.80570146730E+02 -0.40287221950E+03  0.41778927583E+03  0.47000000000E+01 0.  1.
         -5    1    3    3    0  502  0.30711698027E+02 -0.18022168770E+02 -0.11283886135E+03  0.11841750543E+03  0.47000000000E+01 0.  1.
        -11    1    1    2    0    0  0.11976209148E+02  0.23950013148E+02 -0.56624656584E+02  0.62636925600E+02  0.00000000000E+00 0.  1.
         11    1    1    2    0    0  0.32997066295E+02 -0.86497991108E+02 -0.27595177897E+03  0.29106716264E+03  0.00000000000E+00 0. -1.
<mgrwt>
<rscale>  0 0.13972877E+03</rscale>
<asrwt>0</asrwt>
<pdfrwt beam="2">  1        2 0.13370755E+00 0.14683254E+03</pdfrwt>
<pdfrwt beam="1">  1       -2 0.32017967E-02 0.14683254E+03</pdfrwt>
<totfact> 0.11786553E+04</totfact>
</mgrwt>
</event>
<event>
 7    1  0.6095443E-006  0.1394793E+03  0.7546771E-02  0.1224658E+00
          3   -1    0    0  501    0  0.00000000000E+00  0.00000000000E+00  0.13682303449E+03  0.13682303449E+03  0.00000000000E+00 0. -1.
         -3   -1    0    0    0  501 -0.00000000000E+00 -0.00000000000E+00 -0.11575603299E+03  0.11575603299E+03  0.00000000000E+00 0.  1.
         23    2    1    2    0    0 -0.51415908783E+02 -0.34446676378E+02  0.26060048247E+01  0.13950367242E+03  0.12499725664E+03 0.  0.
          5    1    3    3  502    0  0.49595008734E+01 -0.48570925660E+02  0.45668501246E+02  0.67018157796E+02  0.47000000000E+01 0.  1.
         -5    1    3    3    0  502 -0.56375409657E+02  0.14124249282E+02 -0.43062496421E+02  0.72485514620E+02  0.47000000000E+01 0.  1.
        -11    1    1    2    0    0  0.58111296914E+02  0.48487007758E+02 -0.14104132037E+02  0.76985968143E+02  0.00000000000E+00 0.  1.
         11    1    1    2    0    0 -0.66953881306E+01 -0.14040331380E+02  0.32565128715E+02  0.36089426924E+02  0.00000000000E+00 0. -1.
<mgrwt>
<rscale>  0 0.13190394E+03</rscale>
<asrwt>0</asrwt>
<pdfrwt beam="1">  1        3 0.21049698E-01 0.13947933E+03</pdfrwt>
<pdfrwt beam="2">  1       -3 0.17808620E-01 0.13947933E+03</pdfrwt>
<totfact> 0.13039505E+03</totfact>
</mgrwt>
</event>
<event>
 7    1  0.6095443E-006  0.1481327E+03  0.7546771E-02  0.1212103E+00
          2   -1    0    0  501    0  0.00000000000E+00  0.00000000000E+00  0.31645344291E+03  0.31645344291E+03  0.00000000000E+00 0. -1.
         -2   -1    0    0    0  501 -0.00000000000E+00 -0.00000000000E+00 -0.66770274143E+02  0.66770274143E+02  0.00000000000E+00 0.  1.
         23    2    1    2    0    0 -0.13919061864E+02 -0.78240651400E+02  0.63859939606E+02  0.16131143620E+03  0.12501179044E+03 0.  0.
          5    1    3    3  502    0 -0.61596983703E+02 -0.78307757573E+02  0.49156464636E+02  0.11119685838E+03  0.47000000000E+01 0. -1.
         -5    1    3    3    0  502  0.47677921840E+02  0.67106173074E-01  0.14703474970E+02  0.50114577823E+02  0.47000000000E+01 0. -1.
        -11    1    1    2    0    0  0.11825356456E+02  0.44643347017E+02  0.18230809757E+03  0.18806676987E+03  0.00000000000E+00 0. -1.
         11    1    1    2    0    0  0.20937054074E+01  0.33597304383E+02  0.35151315963E+01  0.33845510992E+02  0.00000000000E+00 0.  1.
<mgrwt>
<rscale>  0 0.14091505E+03</rscale>
<asrwt>0</asrwt>
<pdfrwt beam="1">  1        2 0.48685144E-01 0.14813267E+03</pdfrwt>
<pdfrwt beam="2">  1       -2 0.10272350E-01 0.14813267E+03</pdfrwt>
<totfact> 0.62960969E+03</totfact>
</mgrwt>
</event>
<event>
 7    1  0.6095443E-006  0.1349598E+03  0.7546771E-02  0.1230823E+00
         -2   -1    0    0    0  501 -0.00000000000E+00  0.00000000000E+00  0.37657607723E+02  0.37657607723E+02  0.00000000000E+00 0.  1.
          2   -1    0    0  501    0  0.00000000000E+00 -0.00000000000E+00 -0.39556832295E+03  0.39556832295E+03  0.00000000000E+00 0. -1.
         23    2    1    2    0    0  0.49321474932E+02 -0.12439235321E+02 -0.18132097738E+03  0.22603415955E+03  0.12500720770E+03 0.  0.
          5    1    3    3  502    0  0.66414990153E+02 -0.14927806747E+01 -0.19156901860E+03  0.20281508376E+03  0.47000000000E+01 0.  1.
         -5    1    3    3    0  502 -0.17093515221E+02 -0.10946454646E+02  0.10248041216E+02  0.23219075793E+02  0.47000000000E+01 0.  1.
        -11    1    1    2    0    0 -0.20407059308E+02 -0.13518455354E+02  0.18709345508E+01  0.24549890037E+02  0.00000000000E+00 0.  1.
         11    1    1    2    0    0 -0.28914415624E+02  0.25957690675E+02 -0.17846067239E+03  0.18264188109E+03  0.00000000000E+00 0. -1.
<mgrwt>
<rscale>  0 0.12775638E+03</rscale>
<asrwt>0</asrwt>
<pdfrwt beam="2">  1        2 0.60856664E-01 0.13495979E+03</pdfrwt>
<pdfrwt beam="1">  1       -2 0.57934782E-02 0.13495979E+03</pdfrwt>
<totfact> 0.11939985E+04</totfact>
</mgrwt>
</event>
<event>
 7    1  0.6095443E-006  0.1850480E+03  0.7546771E-02  0.1168090E+00
          1   -1    0    0  501    0  0.00000000000E+00  0.00000000000E+00  0.36324748328E+03  0.36324748328E+03  0.00000000000E+00 0. -1.
         -1   -1    0    0    0  501 -0.00000000000E+00 -0.00000000000E+00 -0.84788839061E+02  0.84788839061E+02  0.00000000000E+00 0.  1.
         23    2    1    2    0    0 -0.12027207965E+03 -0.64424140875E+02  0.12759522778E+03  0.22477386490E+03  0.12500762025E+03 0.  0.
          5    1    3    3  502    0 -0.70486516481E+02  0.59355490059E+01  0.11835270515E+03  0.13796025719E+03  0.47000000000E+01 0.  1.
         -5    1    3    3    0  502 -0.49785563169E+02 -0.70359689881E+02  0.92425226395E+01  0.86813607718E+02  0.47000000000E+01 0.  1.
        -11    1    1    2    0    0  0.74436737633E+02  0.53137589153E+01  0.28570926472E+02  0.79908458768E+02  0.00000000000E+00 0.  1.
         11    1    1    2    0    0  0.45835342017E+02  0.59110381960E+02  0.12229248996E+03  0.14335399867E+03  0.00000000000E+00 0. -1.
<mgrwt>
<rscale>  0 0.17970371E+03</rscale>
<asrwt>0</asrwt>
<pdfrwt beam="1">  1        1 0.55884227E-01 0.18504796E+03</pdfrwt>
<pdfrwt beam="2">  1       -1 0.13044437E-01 0.18504796E+03</pdfrwt>
<totfact> 0.27119611E+03</totfact>
</mgrwt>
</event>
<event>
 7    1  0.6095443E-006  0.1476691E+03  0.7546771E-02  0.1208307E+00
          1   -1    0    0  501    0  0.00000000000E+00  0.00000000000E+00  0.18306799186E+03  0.18306799186E+03  0.00000000000E+00 0. -1.
         -1   -1    0    0    0  501 -0.00000000000E+00 -0.00000000000E+00 -0.23056163191E+03  0.23056163191E+03  0.00000000000E+00 0.  1.
         23    2    1    2    0    0 -0.36774223537E+02 -0.90264747296E+02 -0.17538389269E+03  0.22927205034E+03  0.11093284064E+03 0.  0.
          5    1    3    3  502    0 -0.17189976481E+01  0.70012056815E+01 -0.10208702484E+03  0.10244912139E+03  0.47000000000E+01 0. -1.
         -5    1    3    3    0  502 -0.35055225889E+02 -0.97265952977E+02 -0.73296867848E+02  0.12682292895E+03  0.47000000000E+01 0.  1.
        -11    1    1    2    0    0  0.36460979544E+00 -0.16600727776E+02  0.32744697210E+02  0.36714197504E+02  0.00000000000E+00 0. -1.
         11    1    1    2    0    0  0.36409613742E+02  0.10686547507E+03  0.95145555429E+02  0.14764337592E+03  0.00000000000E+00 0.  1.
<mgrwt>
<rscale>  0 0.14379848E+03</rscale>
<asrwt>0</asrwt>
<pdfrwt beam="1">  1        1 0.28164307E-01 0.14766910E+03</pdfrwt>
<pdfrwt beam="2">  1       -1 0.35471020E-01 0.14766910E+03</pdfrwt>
<totfact> 0.12392547E+03</totfact>
</mgrwt>
</event>
<event>
 7    1  0.6095443E-006  0.1251202E+03  0.7546771E-02  0.1250341E+00
          1   -1    0    0  501    0  0.00000000000E+00  0.00000000000E+00  0.16333866636E+03  0.16333866636E+03  0.00000000000E+00 0. -1.
         -1   -1    0    0    0  501 -0.00000000000E+00 -0.00000000000E+00 -0.72279178254E+02  0.72279178254E+02  0.00000000000E+00 0.  1.
         23    2    1    2    0    0  0.27209364748E+01  0.27281349708E+01  0.43462529006E+02  0.13245395844E+03  0.12506083905E+03 0.  0.
          5    1    3    3  502    0 -0.19727702808E+02 -0.22704122362E+02  0.78052137001E+02  0.83778789206E+02  0.47000000000E+01 0.  1.
         -5    1    3    3    0  502  0.22448639283E+02  0.25432257332E+02 -0.34589607995E+02  0.48675169234E+02  0.47000000000E+01 0.  1.
        -11    1    1    2    0    0  0.50493096308E+01  0.23872836924E+02 -0.19068398846E+02  0.30967914123E+02  0.00000000000E+00 0. -1.
         11    1    1    2    0    0 -0.77702461056E+01 -0.26600971895E+02  0.66665357945E+02  0.72195972050E+02  0.00000000000E+00 0.  1.
<mgrwt>
<rscale>  0 0.11571340E+03</rscale>
<asrwt>0</asrwt>
<pdfrwt beam="1">  1        1 0.25129025E-01 0.12512018E+03</pdfrwt>
<pdfrwt beam="2">  1       -1 0.11119874E-01 0.12512018E+03</pdfrwt>
<totfact> 0.91950851E+03</totfact>
</mgrwt>
</event>
<event>
 7    1  0.6095443E-006  0.1294529E+03  0.7546771E-02  0.1239088E+00
         -3   -1    0    0    0  501 -0.00000000000E+00  0.00000000000E+00  0.24043895873E+02  0.24043895873E+02  0.00000000000E+00 0.  1.
          3   -1    0    0  501    0  0.00000000000E+00 -0.00000000000E+00 -0.69429636458E+03  0.69429636458E+03  0.00000000000E+00 0. -1.
         23    2    1    2    0    0 -0.23325637202E+02  0.24440516420E+02 -0.21112609064E+03  0.24765352642E+03  0.12496647073E+03 0.  0.
          5    1    3    3  502    0 -0.27413097677E+02 -0.46334285423E+01  0.57264505850E+01  0.28772014539E+02  0.47000000000E+01 0. -1.
         -5    1    3    3    0  502  0.40874604755E+01  0.29073944963E+02 -0.21685254122E+03  0.21888151188E+03  0.47000000000E+01 0. -1.
        -11    1    1    2    0    0  0.31534746101E+02  0.31148043392E+02 -0.14679206760E+03  0.15333803159E+03  0.00000000000E+00 0. -1.
         11    1    1    2    0    0 -0.82091088993E+01 -0.55588559812E+02 -0.31233431047E+03  0.31734870245E+03  0.00000000000E+00 0.  1.
<mgrwt>
<rscale>  0 0.12246292E+03</rscale>
<asrwt>0</asrwt>
<pdfrwt beam="2">  1        3 0.10681481E+00 0.12945286E+03</pdfrwt>
<pdfrwt beam="1">  1       -3 0.36990613E-02 0.12945286E+03</pdfrwt>
<totfact> 0.65786855E+02</totfact>
</mgrwt>
</event>
<event>
 7    1  0.6095443E-006  0.1300804E+03  0.7546771E-02  0.1275123E+00
          3   -1    0    0  501    0  0.00000000000E+00  0.00000000000E+00  0.14363722346E+02  0.14363722346E+02  0.00000000000E+00 0. -1.
         -3   -1    0    0    0  501 -0.00000000000E+00 -0.00000000000E+00 -0.68185350193E+03  0.68185350193E+03  0.00000000000E+00 0.  1.
         23    2    1    2    0    0 -0.28252702123E+01  0.35873300599E+02 -0.58809745348E+03  0.60231181327E+03  0.12500411901E+03 0.  0.
          5    1    3    3  502    0  0.23785224357E+02  0.40927798307E+02 -0.56325157790E+03  0.56525680145E+03  0.47000000000E+01 0. -1.
         -5    1    3    3    0  502 -0.26610494570E+02 -0.50544977079E+01 -0.24845875581E+02  0.37055011830E+02  0.47000000000E+01 0. -1.
        -11    1    1    2    0    0  0.13380762253E+02 -0.36991182531E+02 -0.65767802947E+02  0.76634171804E+02  0.00000000000E+00 0.  1.
         11    1    1    2    0    0 -0.10555492041E+02  0.11178819320E+01 -0.13624523151E+02  0.17271239195E+02  0.00000000000E+00 0. -1.
<mgrwt>
<rscale>  0 0.10250096E+03</rscale>
<asrwt>0</asrwt>
<pdfrwt beam="1">  1        3 0.22098035E-02 0.13008038E+03</pdfrwt>
<pdfrwt beam="2">  1       -3 0.10490054E+00 0.13008038E+03</pdfrwt>
<totfact> 0.15149818E+03</totfact>
</mgrwt>
</event>
<event>
 7    1  0.6095443E-006  0.1646089E+03  0.7546771E-02  0.1190381E+00
         -1   -1    0    0    0  501 -0.00000000000E+00  0.00000000000E+00  0.15936330005E+03  0.15936330005E+03  0.00000000000E+00 0.  1.
          1   -1    0    0  501    0  0.00000000000E+00 -0.00000000000E+00 -0.15908710012E+03  0.15908710012E+03  0.00000000000E+00 0. -1.
         23    2    1    2    0    0 -0.80722086473E+02 -0.70386083877E+02  0.43823695237E+02  0.17034265440E+03  0.12500339033E+03 0.  0.
          5    1    3    3  502    0 -0.61734772565E+02  0.25171298746E+02  0.13356134517E+02  0.68156091096E+02  0.47000000000E+01 0.  1.
         -5    1    3    3    0  502 -0.18987313908E+02 -0.95557382623E+02  0.30467560721E+02  0.10218656330E+03  0.47000000000E+01 0.  1.
        -11    1    1    2    0    0  0.10895129274E+02  0.38533666705E+02  0.23299198812E+02  0.46329256166E+02  0.00000000000E+00 0.  1.
         11    1    1    2    0    0  0.69826957199E+02  0.31852417172E+02 -0.66846694119E+02  0.10177848960E+03  0.00000000000E+00 0. -1.
<mgrwt>
<rscale>  0 0.15851705E+03</rscale>
<asrwt>0</asrwt>
<pdfrwt beam="2">  1        1 0.24474939E-01 0.16460894E+03</pdfrwt>
<pdfrwt beam="1">  1       -1 0.24517431E-01 0.16460894E+03</pdfrwt>
<totfact> 0.27626350E+03</totfact>
</mgrwt>
</event>
<event>
 7    1  0.6095443E-006  0.1521149E+03  0.7546771E-02  0.1207101E+00
          2   -1    0    0  501    0  0.00000000000E+00  0.00000000000E+00  0.15667495797E+03  0.15667495797E+03  0.00000000000E+00 0. -1.
         -2   -1    0    0    0  501 -0.00000000000E+00 -0.00000000000E+00 -0.19082362918E+03  0.19082362918E+03  0.00000000000E+00 0.  1.
         23    2    1    2    0    0  0.83581410230E+02  0.22962429768E+02 -0.12199774446E+03  0.19499332954E+03  0.12500329433E+03 0.  0.
          5    1    3    3  502    0  0.60297007122E+02 -0.29875131795E+01  0.73026631745E+01  0.60992402743E+02  0.47000000000E+01 0. -1.
         -5    1    3    3    0  502  0.23284403108E+02  0.25949942947E+02 -0.12930040763E+03  0.13400092679E+03  0.47000000000E+01 0. -1.
        -11    1    1    2    0    0 -0.60287689145E+01  0.23938535877E+02  0.47009668238E+02  0.53097160587E+02  0.00000000000E+00 0. -1.
         11    1    1    2    0    0 -0.77552641316E+02 -0.46900965645E+02  0.40839405011E+02  0.99408097030E+02  0.00000000000E+00 0.  1.
<mgrwt>
<rscale>  0 0.14473102E+03</rscale>
<asrwt>0</asrwt>
<pdfrwt beam="1">  1        2 0.24103840E-01 0.15211492E+03</pdfrwt>
<pdfrwt beam="2">  1       -2 0.29357481E-01 0.15211492E+03</pdfrwt>
<totfact> 0.23244925E+03</totfact>
</mgrwt>
</event>
<event>
 7    1  0.6095443E-006  0.1892584E+03  0.7546771E-02  0.1164628E+00
         -2   -1    0    0    0  501 -0.00000000000E+00  0.00000000000E+00  0.72683501031E+02  0.72683501031E+02  0.00000000000E+00 0.  1.
          2   -1    0    0  501    0  0.00000000000E+00 -0.00000000000E+00 -0.48968068925E+03  0.48968068925E+03  0.00000000000E+00 0. -1.
         23    2    1    2    0    0 -0.11555215054E+03  0.82701557859E+02 -0.12700877618E+03  0.22792532501E+03  0.12500750931E+03 0.  0.
          5    1    3    3  502    0 -0.97536341763E+02 -0.60465889531E+00 -0.38518513167E+02  0.10497366067E+03  0.47000000000E+01 0. -1.
         -5    1    3    3    0  502 -0.18015808781E+02  0.83306216754E+02 -0.88490263018E+02  0.12295166434E+03  0.47000000000E+01 0. -1.
        -11    1    1    2    0    0  0.58201891459E+02 -0.69362807775E+02 -0.97115005509E+02  0.13277794834E+03  0.00000000000E+00 0.  1.
         11    1    1    2    0    0  0.57350259085E+02 -0.13338750084E+02 -0.19287340652E+03  0.20166091692E+03  0.00000000000E+00 0. -1.
<mgrwt>
<rscale>  0 0.18332051E+03</rscale>
<asrwt>0</asrwt>
<pdfrwt beam="2">  1        2 0.75335488E-01 0.18925835E+03</pdfrwt>
<pdfrwt beam="1">  1       -2 0.11182078E-01 0.18925835E+03</pdfrwt>
<totfact> 0.34763904E+03</totfact>
</mgrwt>
</event>
<event>
 7    1  0.6095443E-006  0.1621769E+03  0.7546771E-02  0.1193358E+00
          1   -1    0    0  501    0  0.00000000000E+00  0.00000000000E+00  0.51578632751E+03  0.51578632751E+03  0.00000000000E+00 0. -1.
         -1   -1    0    0    0  501 -0.00000000000E+00 -0.00000000000E+00 -0.53605503761E+02  0.53605503761E+02  0.00000000000E+00 0.  1.
         23    2    1    2    0    0  0.37895643267E+02  0.96133131334E+02  0.12479392292E+03  0.20463349412E+03  0.12499473989E+03 0.  0.
          5    1    3    3  502    0  0.36363704778E+02  0.90061632157E+02  0.19658153979E+02  0.99206600738E+02  0.47000000000E+01 0.  1.
         -5    1    3    3    0  502  0.15319384886E+01  0.60714991763E+01  0.10513576894E+03  0.10542689339E+03  0.47000000000E+01 0.  1.
        -11    1    1    2    0    0 -0.40007370227E+02 -0.51964526055E+02  0.79272324434E+02  0.10288344406E+03  0.00000000000E+00 0.  1.
         11    1    1    2    0    0  0.21117269601E+01 -0.44168605278E+02  0.25811457639E+03  0.26187489308E+03  0.00000000000E+00 0. -1.
<mgrwt>
<rscale>  0 0.15593992E+03</rscale>
<asrwt>0</asrwt>
<pdfrwt beam="1">  1        1 0.79351739E-01 0.16217689E+03</pdfrwt>
<pdfrwt beam="2">  1       -1 0.82470009E-02 0.16217689E+03</pdfrwt>
<totfact> 0.34820619E+03</totfact>
</mgrwt>
</event>
<event>
 7    1  0.6095443E-006  0.1557648E+03  0.7546771E-02  0.1201869E+00
         -1   -1    0    0    0  501 -0.00000000000E+00  0.00000000000E+00  0.55964774923E+02  0.55964774923E+02  0.00000000000E+00 0.  1.
          1   -1    0    0  501    0  0.00000000000E+00 -0.00000000000E+00 -0.36651993124E+03  0.36651993124E+03  0.00000000000E+00 0. -1.
         23    2    1    2    0    0  0.43771852313E+02  0.81983163133E+02 -0.15437894218E+03  0.21930692322E+03  0.12500181876E+03 0.  0.
          5    1    3    3  502    0  0.64926957419E+02  0.57816390233E+00 -0.37162843916E+02  0.74960062974E+02  0.47000000000E+01 0. -1.
         -5    1    3    3    0  502 -0.21155105107E+02  0.81404999231E+02 -0.11721609826E+03  0.14434686025E+03  0.47000000000E+01 0. -1.
        -11    1    1    2    0    0 -0.22447835419E+02 -0.53216672008E+02 -0.18089770247E+02  0.60524038878E+02  0.00000000000E+00 0.  1.
         11    1    1    2    0    0 -0.21324016894E+02 -0.28766491125E+02 -0.13808644389E+03  0.14265374406E+03  0.00000000000E+00 0. -1.
<mgrwt>
<rscale>  0 0.14886970E+03</rscale>
<asrwt>0</asrwt>
<pdfrwt beam="2">  1        1 0.56387681E-01 0.15576479E+03</pdfrwt>
<pdfrwt beam="1">  1       -1 0.86099654E-02 0.15576479E+03</pdfrwt>
<totfact> 0.50471537E+03</totfact>
</mgrwt>
</event>
<event>
 7    1  0.6095443E-006  0.1270015E+03  0.7546771E-02  0.1246253E+00
         -1   -1    0    0    0  501 -0.00000000000E+00  0.00000000000E+00  0.27916828722E+02  0.27916828722E+02  0.00000000000E+00 0.  1.
          1   -1    0    0  501    0  0.00000000000E+00 -0.00000000000E+00 -0.44143270664E+03  0.44143270664E+03  0.00000000000E+00 0. -1.
         23    2    1    2    0    0 -0.37694479062E+02  0.27144396006E+02 -0.23271690293E+03  0.26511610680E+03  0.11820195088E+03 0.  0.
          5    1    3    3  502    0  0.28033477615E+02  0.16365443110E+02 -0.17124201195E+03  0.17435486874E+03  0.47000000000E+01 0. -1.
         -5    1    3    3    0  502 -0.65727956677E+02  0.10778952896E+02 -0.61474890973E+02  0.90761238062E+02  0.47000000000E+01 0.  1.
        -11    1    1    2    0    0  0.38771501896E+00 -0.37011721481E+02 -0.27391648081E+02  0.46046935126E+02  0.00000000000E+00 0. -1.
         11    1    1    2    0    0  0.37306764043E+02  0.98673254747E+01 -0.15340732691E+03  0.15818649343E+03  0.00000000000E+00 0.  1.
<mgrwt>
<rscale>  0 0.11810704E+03</rscale>
<asrwt>0</asrwt>
<pdfrwt beam="2">  1        1 0.67912720E-01 0.12700155E+03</pdfrwt>
<pdfrwt beam="1">  1       -1 0.42948970E-02 0.12700155E+03</pdfrwt>
<totfact> 0.11119566E+04</totfact>
</mgrwt>
</event>
<event>
 7    1  0.6095443E-006  0.1806614E+03  0.7546771E-02  0.1172657E+00
          1   -1    0    0  501    0  0.00000000000E+00  0.00000000000E+00  0.54638346209E+02  0.54638346209E+02  0.00000000000E+00 0. -1.
         -1   -1    0    0    0  501 -0.00000000000E+00 -0.00000000000E+00 -0.61128378551E+03  0.61128378551E+03  0.00000000000E+00 0.  1.
         23    2    1    2    0    0  0.59145425545E+02 -0.11626065003E+03 -0.41545269265E+03  0.45303363091E+03  0.12499524311E+03 0.  0.
          5    1    3    3  502    0 -0.21526549031E+02 -0.85599578567E+02 -0.26703856087E+03  0.28128697652E+03  0.47000000000E+01 0. -1.
         -5    1    3    3    0  502  0.80671974576E+02 -0.30661071464E+02 -0.14841413177E+03  0.17174665439E+03  0.47000000000E+01 0. -1.
        -11    1    1    2    0    0 -0.71790489443E+02  0.72966679814E+02 -0.56462869746E+02  0.11690195207E+03  0.00000000000E+00 0. -1.
         11    1    1    2    0    0  0.12645063899E+02  0.43293970217E+02 -0.84729876912E+02  0.95986548744E+02  0.00000000000E+00 0.  1.
<mgrwt>
<rscale>  0 0.17507475E+03</rscale>
<asrwt>0</asrwt>
<pdfrwt beam="1">  1        1 0.84058993E-02 0.18066137E+03</pdfrwt>
<pdfrwt beam="2">  1       -1 0.94043660E-01 0.18066137E+03</pdfrwt>
<totfact> 0.93120814E+02</totfact>
</mgrwt>
</event>
<event>
 7    1  0.6095443E-006  0.2408014E+03  0.7546771E-02  0.1122008E+00
         -3   -1    0    0    0  501 -0.00000000000E+00  0.00000000000E+00  0.52955018010E+03  0.52955018010E+03  0.00000000000E+00 0.  1.
          3   -1    0    0  501    0  0.00000000000E+00 -0.00000000000E+00 -0.12383216054E+03  0.12383216054E+03  0.00000000000E+00 0. -1.
         23    2    1    2    0    0 -0.16159171103E+03  0.12747407953E+03  0.34460179389E+03  0.42039949061E+03  0.12499525322E+03 0.  0.
          5    1    3    3  502    0 -0.39074484719E+02 -0.12041085367E+02  0.18521664717E+02  0.45132528810E+02  0.47000000000E+01 0.  1.
         -5    1    3    3    0  502 -0.12251722632E+03  0.13951516489E+03  0.32608012917E+03  0.37526696180E+03  0.47000000000E+01 0.  1.
        -11    1    1    2    0    0  0.44829776004E+02 -0.14034990622E+02 -0.20051975391E+02  0.51076134303E+02  0.00000000000E+00 0. -1.
         11    1    1    2    0    0  0.11676193503E+03 -0.11343908891E+03  0.81168201067E+02  0.18190671573E+03  0.00000000000E+00 0.  1.
<mgrwt>
<rscale>  0 0.23670366E+03</rscale>
<asrwt>0</asrwt>
<pdfrwt beam="2">  1        3 0.19051102E-01 0.24080144E+03</pdfrwt>
<pdfrwt beam="1">  1       -3 0.81469257E-01 0.24080144E+03</pdfrwt>
<totfact> 0.86890514E+01</totfact>
</mgrwt>
</event>
<event>
 7    1  0.6095443E-006  0.1516403E+03  0.7546771E-02  0.1206998E+00
          2   -1    0    0  501    0  0.00000000000E+00  0.00000000000E+00  0.70761166080E+03  0.70761166080E+03  0.00000000000E+00 0.  1.
         -2   -1    0    0    0  501 -0.00000000000E+00 -0.00000000000E+00 -0.44756189138E+02  0.44756189138E+02  0.00000000000E+00 0. -1.
         23    2    1    2    0    0 -0.82856915517E+02 -0.22463061925E+02  0.11535358871E+03  0.19052881332E+03  0.12499968271E+03 0.  0.
          5    1    3    3  502    0 -0.30226497110E+02  0.40568933771E+02  0.91882956997E+02  0.10499546324E+03  0.47000000000E+01 0. -1.
         -5    1    3    3    0  502 -0.52630418406E+02 -0.63031995696E+02  0.23470631710E+02  0.85533350080E+02  0.47000000000E+01 0. -1.
        -11    1    1    2    0    0  0.71307948902E+02  0.55927531807E+02  0.40301852199E+03  0.41308188226E+03  0.00000000000E+00 0.  1.
         11    1    1    2    0    0  0.11548966614E+02 -0.33464469882E+02  0.14448336096E+03  0.14875715435E+03  0.00000000000E+00 0. -1.
<mgrwt>
<rscale>  0 0.14481113E+03</rscale>
<asrwt>0</asrwt>
<pdfrwt beam="1">  1        2 0.10886332E+00 0.15164029E+03</pdfrwt>
<pdfrwt beam="2">  1       -2 0.68855681E-02 0.15164029E+03</pdfrwt>
<totfact> 0.48246648E+03</totfact>
</mgrwt>
</event>
<event>
 7    1  0.6095443E-006  0.1350127E+03  0.7546771E-02  0.1232617E+00
          3   -1    0    0  501    0  0.00000000000E+00  0.00000000000E+00  0.23728522163E+02  0.23728522163E+02  0.00000000000E+00 0. -1.
         -3   -1    0    0    0  501 -0.00000000000E+00 -0.00000000000E+00 -0.62867430754E+03  0.62867430754E+03  0.00000000000E+00 0.  1.
         23    2    1    2    0    0  0.50307707916E+02  0.84898292226E+01 -0.40448176143E+03  0.42641990116E+03  0.12500197639E+03 0.  0.
          5    1    3    3  502    0 -0.15944978835E+02  0.75730208829E-01 -0.19233704833E+00  0.16624532434E+02  0.47000000000E+01 0. -1.
         -5    1    3    3    0  502  0.66252686750E+02  0.84140990138E+01 -0.40428942438E+03  0.40979536873E+03  0.47000000000E+01 0. -1.
        -11    1    1    2    0    0  0.86105529855E+01  0.29207282025E+02 -0.35300646873E+02  0.46619122854E+02  0.00000000000E+00 0. -1.
         11    1    1    2    0    0 -0.58918260901E+02 -0.37697111248E+02 -0.16516337707E+03  0.17936380568E+03  0.00000000000E+00 0.  1.
<mgrwt>
<rscale>  0 0.12658199E+03</rscale>
<asrwt>0</asrwt>
<pdfrwt beam="1">  1        3 0.36505416E-02 0.13501273E+03</pdfrwt>
<pdfrwt beam="2">  1       -3 0.96719133E-01 0.13501273E+03</pdfrwt>
<totfact> 0.84558035E+02</totfact>
</mgrwt>
</event>
<event>
 7    1  0.6095443E-006  0.1416853E+03  0.7546771E-02  0.1219904E+00
         -3   -1    0    0    0  501 -0.00000000000E+00  0.00000000000E+00  0.96042688960E+02  0.96042688960E+02  0.00000000000E+00 0.  1.
          3   -1    0    0  501    0  0.00000000000E+00 -0.00000000000E+00 -0.24167388249E+03  0.24167388249E+03  0.00000000000E+00 0. -1.
         23    2    1    2    0    0  0.65301447015E+02 -0.13589854834E+02  0.10734682032E+02  0.14209137548E+03  0.12500304977E+03 0.  0.
          5    1    3    3  502    0  0.64751673018E+02  0.25343923791E+02 -0.38123139177E+02  0.79439016688E+02  0.47000000000E+01 0. -1.
         -5    1    3    3    0  502  0.54977399676E+00 -0.38933778624E+02  0.48857821209E+02  0.62652358796E+02  0.47000000000E+01 0. -1.
        -11    1    1    2    0    0 -0.30688414028E+01 -0.28305756928E+02 -0.93524012300E+02  0.97761825573E+02  0.00000000000E+00 0. -1.
         11    1    1    2    0    0 -0.62232605612E+02  0.41895611761E+02 -0.62841863259E+02  0.97863370389E+02  0.00000000000E+00 0.  1.
<mgrwt>
<rscale>  0 0.13522373E+03</rscale>
<asrwt>0</asrwt>
<pdfrwt beam="2">  1        3 0.37180597E-01 0.14168530E+03</pdfrwt>
<pdfrwt beam="1">  1       -3 0.14775799E-01 0.14168530E+03</pdfrwt>
<totfact> 0.63484385E+02</totfact>
</mgrwt>
</event>
<event>
 7    1  0.6095443E-006  0.1282499E+03  0.7546771E-02  0.1245546E+00
          1   -1    0    0  501    0  0.00000000000E+00  0.00000000000E+00  0.18072174822E+03  0.18072174822E+03  0.00000000000E+00 0. -1.
         -1   -1    0    0    0  501 -0.00000000000E+00 -0.00000000000E+00 -0.69238270196E+02  0.69238270196E+02  0.00000000000E+00 0.  1.
         23    2    1    2    0    0 -0.26611137124E+02 -0.10716179860E+02  0.48220753748E+02  0.13701562728E+03  0.12500020759E+03 0.  0.
          5    1    3    3  502    0  0.33007802411E+01  0.43196990739E+02  0.59914268301E+02  0.74085657892E+02  0.47000000000E+01 0. -1.
         -5    1    3    3    0  502 -0.29911917365E+02 -0.53913170599E+02 -0.11693514553E+02  0.62929969388E+02  0.47000000000E+01 0. -1.
        -11    1    1    2    0    0  0.18592404107E+02  0.28150333068E+02 -0.11589696093E+02  0.35671274127E+02  0.00000000000E+00 0.  1.
         11    1    1    2    0    0  0.80187330172E+01 -0.17434153208E+02  0.74852420365E+02  0.77273117006E+02  0.00000000000E+00 0. -1.
<mgrwt>
<rscale>  0 0.11852781E+03</rscale>
<asrwt>0</asrwt>
<pdfrwt beam="1">  1        1 0.27803346E-01 0.12824992E+03</pdfrwt>
<pdfrwt beam="2">  1       -1 0.10652042E-01 0.12824992E+03</pdfrwt>
<totfact> 0.86721767E+03</totfact>
</mgrwt>
</event>
<event>
 6    1  0.6095443E-006  0.1600894E+03  0.7546771E-02  0.1206217E+00
         -3   -1    0    0    0  501 -0.00000000000E+00  0.00000000000E+00  0.46231257485E+02  0.46231257485E+02  0.00000000000E+00 0.  1.
          3   -1    0    0  501    0  0.00000000000E+00 -0.00000000000E+00 -0.39388821684E+03  0.39388821684E+03  0.00000000000E+00 0. -1.
          5    1    1    2  502    0 -0.20162273100E+02 -0.41616314649E+01 -0.19292707245E+03  0.19407931811E+03  0.47000000000E+01 0. -1.
         -5    1    1    2    0  502 -0.16191571474E+02  0.51577439431E+02  0.29650425164E+01  0.54344095559E+02  0.47000000000E+01 0.  1.
        -11    1    1    2    0    0 -0.21226459014E+02 -0.23124408678E+01 -0.43358730562E+01  0.21787834683E+02  0.00000000000E+00 0.  1.
         11    1    1    2    0    0  0.57580303588E+02 -0.45103367098E+02 -0.15335905636E+03  0.16990822597E+03  0.00000000000E+00 0. -1.
<mgrwt>
<rscale>  0 0.14541948E+03</rscale>
<asrwt>0</asrwt>
<pdfrwt beam="2">  1        3 0.60598186E-01 0.16008941E+03</pdfrwt>
<pdfrwt beam="1">  1       -3 0.71125012E-02 0.16008941E+03</pdfrwt>
<totfact> 0.82612396E+02</totfact>
</mgrwt>
</event>
<event>
 7    1  0.6095443E-006  0.1261066E+03  0.7546771E-02  0.1249445E+00
         -1   -1    0    0    0  501 -0.00000000000E+00  0.00000000000E+00  0.54906581569E+03  0.54906581569E+03  0.00000000000E+00 0.  1.
          1   -1    0    0  501    0  0.00000000000E+00 -0.00000000000E+00 -0.21561478488E+02  0.21561478488E+02  0.00000000000E+00 0. -1.
         23    2    1    2    0    0  0.12802582557E+02 -0.10636799866E+02  0.32514565940E+03  0.34874428956E+03  0.12500332812E+03 0.  0.
          5    1    3    3  502    0 -0.41103444689E+02 -0.43956246188E+02  0.19093713558E+03  0.20025165290E+03  0.47000000000E+01 0.  1.
         -5    1    3    3    0  502  0.53906027246E+02  0.33319446322E+02  0.13420852382E+03  0.14849263666E+03  0.47000000000E+01 0.  1.
        -11    1    1    2    0    0 -0.51103708069E+02  0.72655292973E+00  0.12346863835E+03  0.13362867026E+03  0.00000000000E+00 0. -1.
         11    1    1    2    0    0  0.38301125512E+02  0.99102469362E+01  0.78890039452E+02  0.88254334367E+02  0.00000000000E+00 0.  1.
<mgrwt>
<rscale>  0 0.11623237E+03</rscale>
<asrwt>0</asrwt>
<pdfrwt beam="2">  1        1 0.33171510E-02 0.12610662E+03</pdfrwt>
<pdfrwt beam="1">  1       -1 0.84471653E-01 0.12610662E+03</pdfrwt>
<totfact> 0.41027967E+03</totfact>
</mgrwt>
</event>
<event>
 7    1  0.6095443E-006  0.2041714E+03  0.7546771E-02  0.1153295E+00
         -1   -1    0    0    0  501 -0.00000000000E+00  0.00000000000E+00  0.21789703678E+03  0.21789703678E+03  0.00000000000E+00 0.  1.
          1   -1    0    0  501    0  0.00000000000E+00 -0.00000000000E+00 -0.16879414513E+03  0.16879414513E+03  0.00000000000E+00 0. -1.
         23    2    1    2    0    0 -0.13816053669E+02 -0.16084376697E+03  0.61988523506E+02  0.21337421662E+03  0.12499751423E+03 0.  0.
          5    1    3    3  502    0 -0.32729423379E+02 -0.17494067479E+03  0.44155561753E+02  0.18343189058E+03  0.47000000000E+01 0.  1.
         -5    1    3    3    0  502  0.18913369710E+02  0.14096907820E+02  0.17832961752E+02  0.29942326041E+02  0.47000000000E+01 0.  1.
        -11    1    1    2    0    0 -0.79820681208E+01  0.81289990887E+02 -0.33516342040E+02  0.88289983654E+02  0.00000000000E+00 0. -1.
         11    1    1    2    0    0  0.21798121789E+02  0.79553776078E+02  0.20630710182E+02  0.85026981626E+02  0.00000000000E+00 0.  1.
<mgrwt>
<rscale>  0 0.19584190E+03</rscale>
<asrwt>0</asrwt>
<pdfrwt beam="2">  1        1 0.25968330E-01 0.20417145E+03</pdfrwt>
<pdfrwt beam="1">  1       -1 0.33522621E-01 0.20417145E+03</pdfrwt>
<totfact> 0.15247126E+03</totfact>
</mgrwt>
</event>
<event>
 7    1  0.6095443E-006  0.1410053E+03  0.7546771E-02  0.1223345E+00
          1   -1    0    0  501    0  0.00000000000E+00  0.00000000000E+00  0.38491332703E+03  0.38491332703E+03  0.00000000000E+00 0. -1.
         -1   -1    0    0    0  501 -0.00000000000E+00 -0.00000000000E+00 -0.57612426753E+02  0.57612426753E+02  0.00000000000E+00 0.  1.
         23    2    1    2    0    0  0.64318678562E+02  0.10994114129E+02  0.60255457509E+02  0.15334016325E+03  0.12499889018E+03 0.  0.
          5    1    3    3  502    0 -0.15738700460E+02 -0.41680560005E+02  0.14902397791E+02  0.47213845791E+02  0.47000000000E+01 0.  1.
         -5    1    3    3    0  502  0.80057379022E+02  0.52674674134E+02  0.45353059718E+02  0.10612631746E+03  0.47000000000E+01 0.  1.
        -11    1    1    2    0    0  0.84702799452E+01 -0.31847394699E+02  0.56105617342E+02  0.65067983592E+02  0.00000000000E+00 0.  1.
         11    1    1    2    0    0 -0.72788958507E+02  0.20853280570E+02  0.21093982542E+03  0.22411760694E+03  0.00000000000E+00 0. -1.
<mgrwt>
<rscale>  0 0.13281006E+03</rscale>
<asrwt>0</asrwt>
<pdfrwt beam="1">  1        1 0.59217433E-01 0.14100527E+03</pdfrwt>
<pdfrwt beam="2">  1       -1 0.88634505E-02 0.14100527E+03</pdfrwt>
<totfact> 0.45176268E+03</totfact>
</mgrwt>
</event>
<event>
 7    1  0.6095443E-006  0.1640302E+03  0.7546771E-02  0.1188282E+00
         -2   -1    0    0    0  501 -0.00000000000E+00  0.00000000000E+00  0.17720432532E+03  0.17720432532E+03  0.00000000000E+00 0.  1.
          2   -1    0    0  501    0  0.00000000000E+00 -0.00000000000E+00 -0.14929393130E+03  0.14929393130E+03  0.00000000000E+00 0. -1.
         23    2    1    2    0    0  0.13542656182E+02  0.11872752176E+03  0.57354714462E+02  0.17376839713E+03  0.11236665257E+03 0.  0.
          5    1    3    3  502    0 -0.15244306757E+02  0.12698146869E+03  0.26855104063E+02  0.13076684937E+03  0.47000000000E+01 0. -1.
         -5    1    3    3    0  502  0.28786962939E+02 -0.82539469325E+01  0.30499610399E+02  0.43001547760E+02  0.47000000000E+01 0.  1.
        -11    1    1    2    0    0 -0.38668139241E+02 -0.11755783572E+03 -0.30838504039E+02  0.12753855520E+03  0.00000000000E+00 0.  1.
         11    1    1    2    0    0  0.25125483059E+02 -0.11696860437E+01  0.13941835946E+01  0.25191304299E+02  0.00000000000E+00 0. -1.
<mgrwt>
<rscale>  0 0.16036798E+03</rscale>
<asrwt>0</asrwt>
<pdfrwt beam="2">  1        2 0.22968297E-01 0.16403016E+03</pdfrwt>
<pdfrwt beam="1">  1       -2 0.27262204E-01 0.16403016E+03</pdfrwt>
<totfact> 0.28095891E+03</totfact>
</mgrwt>
</event>
<event>
 6    1  0.6095443E-006  0.7340298E+03  0.7546771E-02  0.1025315E+00
          2   -1    0    0  501    0  0.00000000000E+00  0.00000000000E+00  0.44090720849E+03  0.44090720849E+03  0.00000000000E+00 0. -1.
         -2   -1    0    0    0  501 -0.00000000000E+00 -0.00000000000E+00 -0.44794688484E+03  0.44794688484E+03  0.00000000000E+00 0.  1.
          5    1    1    2  502    0  0.48658922606E+02  0.30765895559E+03  0.13981944913E+03  0.34145759921E+03  0.47000000000E+01 0. -1.
         -5    1    1    2    0  502  0.14694153386E+02 -0.31675415365E+03 -0.24356208710E+03  0.39986709326E+03  0.47000000000E+01 0.  1.
        -11    1    1    2    0    0  0.19511597824E+02  0.18072236328E+02  0.34327375242E+02  0.43424381016E+02  0.00000000000E+00 0.  1.
         11    1    1    2    0    0 -0.82864673816E+02 -0.89770382720E+01  0.62375586381E+02  0.10410501986E+03  0.00000000000E+00 0. -1.
<mgrwt>
<rscale>  0 0.45816498E+03</rscale>
<asrwt>0</asrwt>
<pdfrwt beam="1">  1        2 0.67831878E-01 0.73402981E+03</pdfrwt>
<pdfrwt beam="2">  1       -2 0.68914905E-01 0.73402981E+03</pdfrwt>
<totfact> 0.13843825E+02</totfact>
</mgrwt>
</event>
<event>
 7    1  0.6095443E-006  0.1475402E+03  0.7546771E-02  0.1213030E+00
         -1   -1    0    0    0  501 -0.00000000000E+00  0.00000000000E+00  0.35795161855E+03  0.35795161855E+03  0.00000000000E+00 0.  1.
          1   -1    0    0  501    0  0.00000000000E+00 -0.00000000000E+00 -0.53943353717E+02  0.53943353717E+02  0.00000000000E+00 0. -1.
         23    2    1    2    0    0  0.66020142642E+02  0.42256813157E+02  0.22081255457E+03  0.26556784734E+03  0.12499519908E+03 0.  0.
          5    1    3    3  502    0  0.42216109009E+02  0.28133864846E+01  0.27679495480E+01  0.42659893906E+02  0.47000000000E+01 0. -1.
         -5    1    3    3    0  502  0.23804033632E+02  0.39443426673E+02  0.21804460503E+03  0.22290795344E+03  0.47000000000E+01 0. -1.
        -11    1    1    2    0    0 -0.32578115531E+01  0.14713073310E+02 -0.11706978673E+02  0.19082484429E+02  0.00000000000E+00 0. -1.
         11    1    1    2    0    0 -0.62762331089E+02 -0.56969886468E+02  0.94902688936E+02  0.12724464050E+03  0.00000000000E+00 0.  1.
<mgrwt>
<rscale>  0 0.14022214E+03</rscale>
<asrwt>0</asrwt>
<pdfrwt beam="2">  1        1 0.82989777E-02 0.14754015E+03</pdfrwt>
<pdfrwt beam="1">  1       -1 0.55069478E-01 0.14754015E+03</pdfrwt>
<totfact> 0.27477669E+03</totfact>
</mgrwt>
</event>
<event>
 7    1  0.6095443E-006  0.1859241E+03  0.7546771E-02  0.1167396E+00
         -2   -1    0    0    0  501 -0.00000000000E+00  0.00000000000E+00  0.11040962273E+03  0.11040962273E+03  0.00000000000E+00 0.  1.
          2   -1    0    0  501    0  0.00000000000E+00 -0.00000000000E+00 -0.27863795026E+03  0.27863795026E+03  0.00000000000E+00 0. -1.
         23    2    1    2    0    0  0.13293091481E+03 -0.35666860533E+02 -0.88602369022E+02  0.20595669304E+03  0.12500010624E+03 0.  0.
          5    1    3    3  502    0  0.12496279150E+03 -0.70605921763E+02 -0.90532857253E+02  0.16976213856E+03  0.47000000000E+01 0.  1.
         -5    1    3    3    0  502  0.79681233077E+01  0.34939061230E+02  0.19304882313E+01  0.36194554473E+02  0.47000000000E+01 0.  1.
        -11    1    1    2    0    0 -0.12553821903E+03  0.98710997163E+01 -0.34461364313E+02  0.13055599825E+03  0.00000000000E+00 0. -1.
         11    1    1    2    0    0 -0.73926957723E+01  0.25795760816E+02 -0.45164594193E+02  0.52534881703E+02  0.00000000000E+00 0.  1.
<mgrwt>
<rscale>  0 0.18042094E+03</rscale>
<asrwt>0</asrwt>
<pdfrwt beam="2">  1        2 0.42867378E-01 0.18592412E+03</pdfrwt>
<pdfrwt beam="1">  1       -2 0.16986096E-01 0.18592412E+03</pdfrwt>
<totfact> 0.32285982E+03</totfact>
</mgrwt>
</event>
<event>
 7    1  0.6095443E-006  0.1293011E+03  0.7546771E-02  0.1243112E+00
         -2   -1    0    0    0  501 -0.00000000000E+00  0.00000000000E+00  0.90677167540E+03  0.90677167540E+03  0.00000000000E+00 0.  1.
          2   -1    0    0  501    0  0.00000000000E+00 -0.00000000000E+00 -0.14078015780E+02  0.14078015780E+02  0.00000000000E+00 0. -1.
         23    2    1    2    0    0 -0.23732106879E+01  0.33045824910E+02  0.54982079968E+03  0.56482004496E+03  0.12498445003E+03 0.  0.
          5    1    3    3  502    0  0.31789439311E+02  0.69182688602E+01  0.34376784686E+02  0.47563475704E+02  0.47000000000E+01 0. -1.
         -5    1    3    3    0  502 -0.34162649999E+02  0.26127556050E+02  0.51544401500E+03  0.51725656926E+03  0.47000000000E+01 0. -1.
        -11    1    1    2    0    0  0.22876891198E+02 -0.54345410179E+02  0.28507554262E+03  0.29110967136E+03  0.00000000000E+00 0.  1.
         11    1    1    2    0    0 -0.20503680511E+02  0.21299585269E+02  0.57797317320E+02  0.64919974865E+02  0.00000000000E+00 0. -1.
<mgrwt>
<rscale>  0 0.11999066E+03</rscale>
<asrwt>0</asrwt>
<pdfrwt beam="2">  1        2 0.21658493E-02 0.12930109E+03</pdfrwt>
<pdfrwt beam="1">  1       -2 0.13950329E+00 0.12930109E+03</pdfrwt>
<totfact> 0.17900665E+03</totfact>
</mgrwt>
</event>
<event>
 7    1  0.6095443E-006  0.1891437E+03  0.7546771E-02  0.1164176E+00
         -1   -1    0    0    0  501 -0.00000000000E+00  0.00000000000E+00  0.12701134414E+03  0.12701134414E+03  0.00000000000E+00 0.  1.
          1   -1    0    0  501    0  0.00000000000E+00 -0.00000000000E+00 -0.29095229760E+03  0.29095229760E+03  0.00000000000E+00 0. -1.
         23    2    1    2    0    0  0.33978789132E+02 -0.13783148852E+03 -0.96645735122E+01  0.18939044750E+03  0.12499304095E+03 0.  0.
          5    1    3    3  502    0  0.12058096475E+02 -0.34803562824E+02 -0.61545154364E+02  0.71878937816E+02  0.47000000000E+01 0. -1.
         -5    1    3    3    0  502  0.21920692657E+02 -0.10302792569E+03  0.51880580852E+02  0.11751150969E+03  0.47000000000E+01 0. -1.
        -11    1    1    2    0    0  0.15704635244E+02  0.70872066005E+02 -0.29180032651E+02  0.78236561872E+02  0.00000000000E+00 0. -1.
         11    1    1    2    0    0 -0.49683424376E+02  0.66959422513E+02 -0.12509634730E+03  0.15033663236E+03  0.00000000000E+00 0.  1.
<mgrwt>
<rscale>  0 0.18379923E+03</rscale>
<asrwt>0</asrwt>
<pdfrwt beam="2">  1        1 0.44761892E-01 0.18914370E+03</pdfrwt>
<pdfrwt beam="1">  1       -1 0.19540207E-01 0.18914370E+03</pdfrwt>
<totfact> 0.18875162E+03</totfact>
</mgrwt>
</event>
<event>
 7    1  0.6095443E-006  0.1361108E+03  0.7546771E-02  0.1230482E+00
         -1   -1    0    0    0  501 -0.00000000000E+00  0.00000000000E+00  0.76280148248E+02  0.76280148248E+02  0.00000000000E+00 0.  1.
          1   -1    0    0  501    0  0.00000000000E+00 -0.00000000000E+00 -0.21237267873E+03  0.21237267873E+03  0.00000000000E+00 0. -1.
         23    2    1    2    0    0 -0.16603130483E+02 -0.51203353225E+02 -0.32028327540E+02  0.13982833117E+03  0.12501480356E+03 0.  0.
          5    1    3    3  502    0 -0.67940015878E+02 -0.48122084543E+02 -0.11177860286E+02  0.84134507420E+02  0.47000000000E+01 0.  1.
         -5    1    3    3    0  502  0.51336885395E+02 -0.30812686819E+01 -0.20850467255E+02  0.55693823747E+02  0.47000000000E+01 0.  1.
        -11    1    1    2    0    0 -0.31663673467E+02  0.31930368305E+02 -0.79506244356E+02  0.91342101624E+02  0.00000000000E+00 0. -1.
         11    1    1    2    0    0  0.48266803951E+02  0.19272984920E+02 -0.24557958582E+02  0.57482394183E+02  0.00000000000E+00 0.  1.
<mgrwt>
<rscale>  0 0.12798151E+03</rscale>
<asrwt>0</asrwt>
<pdfrwt beam="2">  1        1 0.32672719E-01 0.13611079E+03</pdfrwt>
<pdfrwt beam="1">  1       -1 0.11735408E-01 0.13611079E+03</pdfrwt>
<totfact> 0.61417381E+03</totfact>
</mgrwt>
</event>
<event>
 7    1  0.6095443E-006  0.1372585E+03  0.7546771E-02  0.1228522E+00
          1   -1    0    0  501    0  0.00000000000E+00  0.00000000000E+00  0.13523053287E+03  0.13523053287E+03  0.00000000000E+00 0. -1.
         -1   -1    0    0    0  501 -0.00000000000E+00 -0.00000000000E+00 -0.11266702176E+03  0.11266702176E+03  0.00000000000E+00 0.  1.
         23    2    1    2    0    0 -0.56070141470E+02 -0.85318517900E+01 -0.12794477480E+01  0.13726443318E+03  0.12499293729E+03 0.  0.
          5    1    3    3  502    0 -0.43331804887E+02 -0.54961982221E+01 -0.61432064315E+02  0.75523784569E+02  0.47000000000E+01 0. -1.
         -5    1    3    3    0  502 -0.12738336583E+02 -0.30356535679E+01  0.60152616567E+02  0.61740648615E+02  0.47000000000E+01 0. -1.
        -11    1    1    2    0    0  0.43895574221E+02  0.32272070680E+02 -0.21052688182E+02  0.58408249947E+02  0.00000000000E+00 0.  1.
         11    1    1    2    0    0  0.12174567249E+02 -0.23740218890E+02  0.44895647040E+02  0.52224871506E+02  0.00000000000E+00 0. -1.
<mgrwt>
<rscale>  0 0.12928371E+03</rscale>
<asrwt>0</asrwt>
<pdfrwt beam="1">  1        1 0.20804697E-01 0.13725847E+03</pdfrwt>
<pdfrwt beam="2">  1       -1 0.17333388E-01 0.13725847E+03</pdfrwt>
<totfact> 0.58825893E+03</totfact>
</mgrwt>
</event>
<event>
 7    1  0.6095443E-006  0.1900792E+03  0.7546771E-02  0.1163200E+00
          1   -1    0    0  501    0  0.00000000000E+00  0.00000000000E+00  0.29376837405E+03  0.29376837405E+03  0.00000000000E+00 0. -1.
         -1   -1    0    0    0  501 -0.00000000000E+00 -0.00000000000E+00 -0.11494316098E+03  0.11494316098E+03  0.00000000000E+00 0.  1.
         23    2    1    2    0    0 -0.11222456857E+03  0.88936368938E+02  0.53285080367E+02  0.19740666094E+03  0.12500423385E+03 0.  0.
          5    1    3    3  502    0 -0.99570841986E+01  0.74506156044E+02 -0.10322340310E+02  0.76019415439E+02  0.47000000000E+01 0.  1.
         -5    1    3    3    0  502 -0.10226748437E+03  0.14430212895E+02  0.63607420677E+02  0.12138724550E+03  0.47000000000E+01 0.  1.
        -11    1    1    2    0    0  0.71112355074E+02 -0.55278199245E+02  0.18712654856E+02  0.91993531336E+02  0.00000000000E+00 0.  1.
         11    1    1    2    0    0  0.41112213498E+02 -0.33658169694E+02  0.10682747785E+03  0.11931134275E+03  0.00000000000E+00 0. -1.
<mgrwt>
<rscale>  0 0.18483885E+03</rscale>
<asrwt>0</asrwt>
<pdfrwt beam="1">  1        1 0.45195134E-01 0.19007917E+03</pdfrwt>
<pdfrwt beam="2">  1       -1 0.17683563E-01 0.19007917E+03</pdfrwt>
<totfact> 0.21900297E+03</totfact>
</mgrwt>
</event>
<event>
 7    1  0.6095443E-006  0.2390608E+03  0.7546771E-02  0.1123095E+00
          1   -1    0    0  501    0  0.00000000000E+00  0.00000000000E+00  0.50382120737E+03  0.50382120737E+03  0.00000000000E+00 0. -1.
         -1   -1    0    0    0  501 -0.00000000000E+00 -0.00000000000E+00 -0.18830380429E+03  0.18830380429E+03  0.00000000000E+00 0.  1.
         23    2    1    2    0    0 -0.16705216086E+03  0.11669516516E+03 -0.67665992137E+02  0.24845267263E+03  0.12500343205E+03 0.  0.
          5    1    3    3  502    0 -0.97146148376E+01  0.29933432678E+00 -0.50827781591E+02  0.51961685153E+02  0.47000000000E+01 0. -1.
         -5    1    3    3    0  502 -0.15733754602E+03  0.11639583084E+03 -0.16838210545E+02  0.19649098747E+03  0.47000000000E+01 0. -1.
        -11    1    1    2    0    0  0.25846784421E+02 -0.26985726681E+02  0.16935091754E+02  0.41025395088E+02  0.00000000000E+00 0.  1.
         11    1    1    2    0    0  0.14120537644E+03 -0.89709438483E+02  0.36624830345E+03  0.40264694395E+03  0.00000000000E+00 0. -1.
<mgrwt>
<rscale>  0 0.23510910E+03</rscale>
<asrwt>0</asrwt>
<pdfrwt beam="1">  1        1 0.77510954E-01 0.23906075E+03</pdfrwt>
<pdfrwt beam="2">  1       -1 0.28969816E-01 0.23906075E+03</pdfrwt>
<totfact> 0.48842651E+02</totfact>
</mgrwt>
</event>
<event>
 7    1  0.6095443E-006  0.1351559E+03  0.7546771E-02  0.1230986E+00
          2   -1    0    0  501    0  0.00000000000E+00  0.00000000000E+00  0.39370059668E+02  0.39370059668E+02  0.00000000000E+00 0. -1.
         -2   -1    0    0    0  501 -0.00000000000E+00 -0.00000000000E+00 -0.37954881695E+03  0.37954881695E+03  0.00000000000E+00 0.  1.
         23    2    1    2    0    0  0.18447175603E+02 -0.47968977409E+02 -0.21427543883E+03  0.25333987735E+03  0.12500323472E+03 0.  0.
          5    1    3    3  502    0  0.46009733052E+02 -0.75859678531E+02 -0.18126471901E+03  0.20186771590E+03  0.47000000000E+01 0. -1.
         -5    1    3    3    0  502 -0.27562557448E+02  0.27890701122E+02 -0.33010719813E+02  0.51472161454E+02  0.47000000000E+01 0. -1.
        -11    1    1    2    0    0 -0.30724552795E+02 -0.21069749468E+02 -0.39406385721E+02  0.54229104019E+02  0.00000000000E+00 0. -1.
         11    1    1    2    0    0  0.12277377192E+02  0.69038726877E+02 -0.86496932735E+02  0.11134989525E+03  0.00000000000E+00 0.  1.
<mgrwt>
<rscale>  0 0.12764930E+03</rscale>
<asrwt>0</asrwt>
<pdfrwt beam="1">  1        2 0.60569325E-02 0.13515595E+03</pdfrwt>
<pdfrwt beam="2">  1       -2 0.58392123E-01 0.13515595E+03</pdfrwt>
<totfact> 0.32614209E+03</totfact>
</mgrwt>
</event>
<event>
 7    1  0.6095443E-006  0.1519949E+03  0.7546771E-02  0.1205844E+00
         -1   -1    0    0    0  501 -0.00000000000E+00  0.00000000000E+00  0.80524165253E+02  0.80524165253E+02  0.00000000000E+00 0.  1.
          1   -1    0    0  501    0  0.00000000000E+00 -0.00000000000E+00 -0.25298572394E+03  0.25298572394E+03  0.00000000000E+00 0. -1.
         23    2    1    2    0    0 -0.22026982105E+02 -0.83639367274E+02 -0.62012687293E+02  0.16415850169E+03  0.12498683368E+03 0.  0.
          5    1    3    3  502    0  0.40507018441E+02 -0.12037890880E+02  0.11325391950E+02  0.44000952974E+02  0.47000000000E+01 0. -1.
         -5    1    3    3    0  502 -0.62534000546E+02 -0.71601476394E+02 -0.73338079243E+02  0.12015754871E+03  0.47000000000E+01 0. -1.
        -11    1    1    2    0    0 -0.23401870830E+02  0.37772123210E+02 -0.36841876452E+01  0.44586478765E+02  0.00000000000E+00 0.  1.
         11    1    1    2    0    0  0.45428852935E+02  0.45867244064E+02 -0.10676468375E+03  0.12476490874E+03  0.00000000000E+00 0. -1.
<mgrwt>
<rscale>  0 0.14571171E+03</rscale>
<asrwt>0</asrwt>
<pdfrwt beam="2">  1        1 0.38920880E-01 0.15199487E+03</pdfrwt>
<pdfrwt beam="1">  1       -1 0.12388333E-01 0.15199487E+03</pdfrwt>
<totfact> 0.45763876E+03</totfact>
</mgrwt>
</event>
<event>
 7    1  0.6095443E-006  0.1592338E+03  0.7546771E-02  0.1197501E+00
         -2   -1    0    0    0  501 -0.00000000000E+00  0.00000000000E+00  0.12058073075E+03  0.12058073075E+03  0.00000000000E+00 0.  1.
          2   -1    0    0  501    0  0.00000000000E+00 -0.00000000000E+00 -0.21912112699E+03  0.21912112699E+03  0.00000000000E+00 0. -1.
         23    2    1    2    0    0 -0.71214730247E+02 -0.68244026615E+02  0.20613191949E+02  0.16056249111E+03  0.12500649941E+03 0.  0.
          5    1    3    3  502    0  0.30934365252E+02 -0.39777151897E+02 -0.64580723006E+01  0.51019148017E+02  0.47000000000E+01 0.  1.
         -5    1    3    3    0  502 -0.10214909550E+03 -0.28466874719E+02  0.27071264250E+02  0.10954334309E+03  0.47000000000E+01 0.  1.
        -11    1    1    2    0    0  0.91226619265E+02  0.55607090428E+02 -0.80324271986E+02  0.13366537786E+03  0.00000000000E+00 0.  1.
         11    1    1    2    0    0 -0.20011889019E+02  0.12636936187E+02 -0.38829316206E+02  0.45473988777E+02  0.00000000000E+00 0. -1.
<mgrwt>
<rscale>  0 0.15244490E+03</rscale>
<asrwt>0</asrwt>
<pdfrwt beam="2">  1        2 0.33710942E-01 0.15923382E+03</pdfrwt>
<pdfrwt beam="1">  1       -2 0.18550882E-01 0.15923382E+03</pdfrwt>
<totfact> 0.35806779E+03</totfact>
</mgrwt>
</event>
<event>
 6    1  0.6095443E-006  0.1715858E+03  0.7546771E-02  0.1195609E+00
          2   -1    0    0  501    0  0.00000000000E+00  0.00000000000E+00  0.12588985235E+03  0.12588985235E+03  0.00000000000E+00 0. -1.
         -2   -1    0    0    0  501 -0.00000000000E+00 -0.00000000000E+00 -0.19460037161E+03  0.19460037161E+03  0.00000000000E+00 0.  1.
          5    1    1    2  502    0  0.84265645523E+02  0.63916396967E+02 -0.26002615741E+02  0.10901481937E+03  0.47000000000E+01 0. -1.
         -5    1    1    2    0  502 -0.26226643048E+02 -0.37166549945E+02 -0.81537306644E+02  0.93485889925E+02  0.47000000000E+01 0.  1.
        -11    1    1    2    0    0  0.21661272624E+02  0.37395911905E+01 -0.42657058978E+01  0.22391773507E+02  0.00000000000E+00 0. -1.
         11    1    1    2    0    0 -0.79700275099E+02 -0.30489438213E+02  0.43095109023E+02  0.95597741161E+02  0.00000000000E+00 0.  1.
<mgrwt>
<rscale>  0 0.15402783E+03</rscale>
<asrwt>0</asrwt>
<pdfrwt beam="1">  1        2 0.19367670E-01 0.17158585E+03</pdfrwt>
<pdfrwt beam="2">  1       -2 0.29938519E-01 0.17158585E+03</pdfrwt>
<totfact> 0.28866413E+03</totfact>
</mgrwt>
</event>
<event>
 7    1  0.6095443E-006  0.1427363E+03  0.7546771E-02  0.1210987E+00
         -2   -1    0    0    0  501 -0.00000000000E+00  0.00000000000E+00  0.64668397779E+02  0.64668397779E+02  0.00000000000E+00 0.  1.
          2   -1    0    0  501    0  0.00000000000E+00 -0.00000000000E+00 -0.31262388348E+03  0.31262388348E+03  0.00000000000E+00 0. -1.
         23    2    1    2    0    0  0.58223883021E+02 -0.16224183518E+02 -0.95963298320E+02  0.16878502301E+03  0.12500473864E+03 0.  0.
          5    1    3    3  502    0  0.80216126908E+02  0.29671795573E+02 -0.45633206923E+02  0.97054222179E+02  0.47000000000E+01 0.  1.
         -5    1    3    3    0  502 -0.21992243887E+02 -0.45895979091E+02 -0.50330091397E+02  0.71730800832E+02  0.47000000000E+01 0.  1.
        -11    1    1    2    0    0 -0.56811401730E+02 -0.24433808676E+02 -0.12355705555E+02  0.63065123743E+02  0.00000000000E+00 0.  1.
         11    1    1    2    0    0 -0.14124812908E+01  0.40657992194E+02 -0.13963648182E+03  0.14544213450E+03  0.00000000000E+00 0. -1.
<mgrwt>
<rscale>  0 0.14175474E+03</rscale>
<asrwt>0</asrwt>
<pdfrwt beam="2">  1        2 0.48095983E-01 0.14273630E+03</pdfrwt>
<pdfrwt beam="1">  1       -2 0.99489842E-02 0.14273630E+03</pdfrwt>
<totfact> 0.66922828E+03</totfact>
</mgrwt>
</event>
<event>
 6    1  0.6095443E-006  0.1864204E+03  0.7546771E-02  0.1170681E+00
          2   -1    0    0  501    0  0.00000000000E+00  0.00000000000E+00  0.98892416363E+03  0.98892416363E+03  0.00000000000E+00 0. -1.
         -2   -1    0    0    0  501 -0.00000000000E+00 -0.00000000000E+00 -0.29215561953E+02  0.29215561953E+02  0.00000000000E+00 0.  1.
          5    1    1    2  502    0 -0.70509718770E+02  0.36080777075E+02  0.37079938735E+03  0.37919351073E+03  0.47000000000E+01 0. -1.
         -5    1    1    2    0  502 -0.50181678161E+02 -0.61815734831E+02  0.10526067930E+03  0.13206546294E+03  0.47000000000E+01 0.  1.
        -11    1    1    2    0    0  0.55241110751E+02  0.47442436798E+02  0.33771021861E+03  0.34547149937E+03  0.00000000000E+00 0. -1.
         11    1    1    2    0    0  0.65450286179E+02 -0.21707479042E+02  0.14593831642E+03  0.16140925255E+03  0.00000000000E+00 0.  1.
<mgrwt>
<rscale>  0 0.17705767E+03</rscale>
<asrwt>0</asrwt>
<pdfrwt beam="1">  1        2 0.15214215E+00 0.18642036E+03</pdfrwt>
<pdfrwt beam="2">  1       -2 0.44947026E-02 0.18642036E+03</pdfrwt>
<totfact> 0.60519446E+03</totfact>
</mgrwt>
</event>
<event>
 7    1  0.6095443E-006  0.1266788E+03  0.7546771E-02  0.1247428E+00
          1   -1    0    0  501    0  0.00000000000E+00  0.00000000000E+00  0.58394897097E+02  0.58394897097E+02  0.00000000000E+00 0. -1.
         -1   -1    0    0    0  501 -0.00000000000E+00 -0.00000000000E+00 -0.20761966183E+03  0.20761966183E+03  0.00000000000E+00 0.  1.
         23    2    1    2    0    0 -0.18789273722E+02  0.83583363534E+01 -0.82934432208E+02  0.15141216917E+03  0.12499850532E+03 0.  0.
          5    1    3    3  502    0 -0.21823823968E+02 -0.17826577465E+02 -0.10981561732E+03  0.11347081548E+03  0.47000000000E+01 0. -1.
         -5    1    3    3    0  502  0.30345502461E+01  0.26184913818E+02  0.26881185116E+02  0.37941353693E+02  0.47000000000E+01 0. -1.
        -11    1    1    2    0    0 -0.32206792356E+02 -0.94207357757E+01 -0.51547312039E+02  0.61507341959E+02  0.00000000000E+00 0.  1.
         11    1    1    2    0    0  0.50996066077E+02  0.10623994223E+01 -0.14743020490E+02  0.53095047802E+02  0.00000000000E+00 0. -1.
<mgrwt>
<rscale>  0 0.11741203E+03</rscale>
<asrwt>0</asrwt>
<pdfrwt beam="1">  1        1 0.89838303E-02 0.12667883E+03</pdfrwt>
<pdfrwt beam="2">  1       -1 0.31941487E-01 0.12667883E+03</pdfrwt>
<totfact> 0.64233472E+03</totfact>
</mgrwt>
</event>
<event>
 7    1  0.6095443E-006  0.1414127E+03  0.7546771E-02  0.1221123E+00
          1   -1    0    0  501    0  0.00000000000E+00  0.00000000000E+00  0.61656759763E+03  0.61656759763E+03  0.00000000000E+00 0. -1.
         -1   -1    0    0    0  501 -0.00000000000E+00 -0.00000000000E+00 -0.27233779469E+02  0.27233779469E+02  0.00000000000E+00 0.  1.
         23    2    1    2    0    0 -0.61594351403E+02  0.24058947303E+02  0.27973879398E+03  0.31345070921E+03  0.12499942870E+03 0.  0.
          5    1    3    3  502    0 -0.79321315534E+02  0.53142818040E+02  0.13985691392E+03  0.16940506657E+03  0.47000000000E+01 0.  1.
         -5    1    3    3    0  502  0.17726964130E+02 -0.29083870737E+02  0.13988188006E+03  0.14404564264E+03  0.47000000000E+01 0.  1.
        -11    1    1    2    0    0  0.60459732697E+02 -0.55211897232E+02  0.19275651952E+03  0.20942494764E+03  0.00000000000E+00 0.  1.
         11    1    1    2    0    0  0.11346187062E+01  0.31152949929E+02  0.11683850465E+03  0.12092572025E+03  0.00000000000E+00 0. -1.
<mgrwt>
<rscale>  0 0.13436193E+03</rscale>
<asrwt>0</asrwt>
<pdfrwt beam="1">  1        1 0.94856543E-01 0.14141271E+03</pdfrwt>
<pdfrwt beam="2">  1       -1 0.41898127E-02 0.14141271E+03</pdfrwt>
<totfact> 0.74785178E+03</totfact>
</mgrwt>
</event>
<event>
 6    1  0.6095443E-006  0.1616186E+03  0.7546771E-02  0.1200993E+00
          2   -1    0    0  501    0  0.00000000000E+00  0.00000000000E+00  0.17553933604E+03  0.17553933604E+03  0.00000000000E+00 0. -1.
         -2   -1    0    0    0  501 -0.00000000000E+00 -0.00000000000E+00 -0.11817703147E+03  0.11817703147E+03  0.00000000000E+00 0.  1.
          5    1    1    2  502    0 -0.45502624451E+02 -0.67426567786E+02  0.51799028472E+02  0.96550816806E+02  0.47000000000E+01 0. -1.
         -5    1    1    2    0  502  0.37387327392E+02 -0.64498706978E+01 -0.52655610051E+02  0.65070087993E+02  0.47000000000E+01 0.  1.
        -11    1    1    2    0    0  0.47864554839E+02  0.23375743092E+02  0.35118044822E+02  0.63802179016E+02  0.00000000000E+00 0. -1.
         11    1    1    2    0    0 -0.39749257780E+02  0.50500695391E+02  0.23100841327E+02  0.68293283704E+02  0.00000000000E+00 0.  1.
<mgrwt>
<rscale>  0 0.14957736E+03</rscale>
<asrwt>0</asrwt>
<pdfrwt beam="1">  1        2 0.27006052E-01 0.16161863E+03</pdfrwt>
<pdfrwt beam="2">  1       -2 0.18181082E-01 0.16161863E+03</pdfrwt>
<totfact> 0.47185597E+03</totfact>
</mgrwt>
</event>
<event>
 7    1  0.6095443E-006  0.1322280E+03  0.7546771E-02  0.1233062E+00
         -2   -1    0    0    0  501 -0.00000000000E+00  0.00000000000E+00  0.23457127358E+02  0.23457127358E+02  0.00000000000E+00 0.  1.
          2   -1    0    0  501    0  0.00000000000E+00 -0.00000000000E+00 -0.70973534187E+03  0.70973534187E+03  0.00000000000E+00 0. -1.
         23    2    1    2    0    0 -0.56289478376E+02 -0.14438557128E+02 -0.24504332774E+03  0.27844295171E+03  0.11877401898E+03 0.  0.
          5    1    3    3  502    0  0.25519094453E+02  0.14887310645E+02 -0.13430546046E+03  0.13759688554E+03  0.47000000000E+01 0. -1.
         -5    1    3    3    0  502 -0.81808572829E+02 -0.29325867773E+02 -0.11073786727E+03  0.14084606618E+03  0.47000000000E+01 0.  1.
        -11    1    1    2    0    0 -0.25854333258E+02 -0.30904241135E+01 -0.10687587954E+03  0.11000204951E+03  0.00000000000E+00 0.  1.
         11    1    1    2    0    0  0.82143811634E+02  0.17528981241E+02 -0.33435900724E+03  0.34474746800E+03  0.00000000000E+00 0. -1.
<mgrwt>
<rscale>  0 0.12629340E+03</rscale>
<asrwt>0</asrwt>
<pdfrwt beam="2">  1        2 0.10919004E+00 0.13222800E+03</pdfrwt>
<pdfrwt beam="1">  1       -2 0.36087894E-02 0.13222800E+03</pdfrwt>
<totfact> 0.12605577E+04</totfact>
</mgrwt>
</event>
<event>
 7    1  0.6095443E-006  0.1665803E+03  0.7546771E-02  0.1188221E+00
          2   -1    0    0  501    0  0.00000000000E+00  0.00000000000E+00  0.72156988423E+02  0.72156988423E+02  0.00000000000E+00 0. -1.
         -2   -1    0    0    0  501 -0.00000000000E+00 -0.00000000000E+00 -0.41236025762E+03  0.41236025762E+03  0.00000000000E+00 0.  1.
         23    2    1    2    0    0  0.72456011367E+02 -0.82910344871E+02 -0.28668448747E+03  0.33156745713E+03  0.12499993762E+03 0.  0.
          5    1    3    3  502    0  0.25470211247E+02 -0.24131993969E+02 -0.27612327464E+00  0.35401285823E+02  0.47000000000E+01 0.  1.
         -5    1    3    3    0  502  0.46985800120E+02 -0.58778350901E+02 -0.28640836419E+03  0.29616617131E+03  0.47000000000E+01 0.  1.
        -11    1    1    2    0    0 -0.71392234180E+02  0.56025964130E+02  0.25207061381E+01  0.90786087686E+02  0.00000000000E+00 0. -1.
         11    1    1    2    0    0 -0.10637771873E+01  0.26884380741E+02 -0.56039487868E+02  0.62163701226E+02  0.00000000000E+00 0.  1.
<mgrwt>
<rscale>  0 0.16042226E+03</rscale>
<asrwt>0</asrwt>
<pdfrwt beam="1">  1        2 0.11101075E-01 0.16658026E+03</pdfrwt>
<pdfrwt beam="2">  1       -2 0.63440040E-01 0.16658026E+03</pdfrwt>
<totfact> 0.12992789E+03</totfact>
</mgrwt>
</event>
<event>
 7    1  0.6095443E-006  0.1276297E+03  0.7546771E-02  0.1245905E+00
         -1   -1    0    0    0  501 -0.00000000000E+00  0.00000000000E+00  0.43990856556E+02  0.43990856556E+02  0.00000000000E+00 0.  1.
          1   -1    0    0  501    0  0.00000000000E+00 -0.00000000000E+00 -0.28333566059E+03  0.28333566059E+03  0.00000000000E+00 0. -1.
         23    2    1    2    0    0  0.25299668883E+02  0.50352733350E+01 -0.11932348191E+03  0.17472102249E+03  0.12499566049E+03 0.  0.
          5    1    3    3  502    0 -0.33192965197E+02 -0.29453571058E+01  0.77422686199E+01  0.34532315161E+02  0.47000000000E+01 0. -1.
         -5    1    3    3    0  502  0.58492634079E+02  0.79806304408E+01 -0.12706575053E+03  0.14018870732E+03  0.47000000000E+01 0. -1.
        -11    1    1    2    0    0 -0.18036444304E+02 -0.20611632300E+02 -0.12991767311E+03  0.13277331997E+03  0.00000000000E+00 0. -1.
         11    1    1    2    0    0 -0.72632245793E+01  0.15576358965E+02  0.98963509904E+01  0.19832174687E+02  0.00000000000E+00 0.  1.
<mgrwt>
<rscale>  0 0.11831389E+03</rscale>
<asrwt>0</asrwt>
<pdfrwt beam="2">  1        1 0.43590104E-01 0.12762971E+03</pdfrwt>
<pdfrwt beam="1">  1       -1 0.67678237E-02 0.12762971E+03</pdfrwt>
<totfact> 0.98631632E+03</totfact>
</mgrwt>
</event>
<event>
 7    1  0.6095443E-006  0.1957410E+03  0.7546771E-02  0.1157929E+00
         -2   -1    0    0    0  501 -0.00000000000E+00  0.00000000000E+00  0.55060539934E+02  0.55060539934E+02  0.00000000000E+00 0.  1.
          2   -1    0    0  501    0  0.00000000000E+00 -0.00000000000E+00 -0.69691740959E+03  0.69691740959E+03  0.00000000000E+00 0. -1.
         23    2    1    2    0    0 -0.14577636004E+03 -0.37862413433E+02 -0.21759580785E+03  0.29268149392E+03  0.12502084542E+03 0.  0.
          5    1    3    3  502    0 -0.14545725671E+03  0.14873874369E+01 -0.12459298875E+03  0.19158686985E+03  0.47000000000E+01 0.  1.
         -5    1    3    3    0  502 -0.31910332555E+00 -0.39349800870E+02 -0.93002819098E+02  0.10109462407E+03  0.47000000000E+01 0.  1.
        -11    1    1    2    0    0  0.11446225713E+03  0.66843082230E+02 -0.33796335680E+03  0.36302732195E+03  0.00000000000E+00 0.  1.
         11    1    1    2    0    0  0.31314102908E+02 -0.28980668797E+02 -0.86297705011E+02  0.96269133656E+02  0.00000000000E+00 0. -1.
<mgrwt>
<rscale>  0 0.19059171E+03</rscale>
<asrwt>0</asrwt>
<pdfrwt beam="2">  1        2 0.10721806E+00 0.19574095E+03</pdfrwt>
<pdfrwt beam="1">  1       -2 0.84708522E-02 0.19574095E+03</pdfrwt>
<totfact> 0.35986131E+03</totfact>
</mgrwt>
</event>
<event>
 7    1  0.6095443E-006  0.3614973E+03  0.7546771E-02  0.1058983E+00
         -1   -1    0    0    0  501 -0.00000000000E+00  0.00000000000E+00  0.20618823936E+03  0.20618823936E+03  0.00000000000E+00 0.  1.
          1   -1    0    0  501    0  0.00000000000E+00 -0.00000000000E+00 -0.61774205718E+03  0.61774205718E+03  0.00000000000E+00 0. -1.
         23    2    1    2    0    0  0.13563936103E+03  0.31088788505E+03 -0.22683787022E+03  0.42677364145E+03  0.12502403106E+03 0.  0.
          5    1    3    3  502    0  0.11725471221E+03  0.29097282003E+03 -0.15519371099E+03  0.35003003794E+03  0.47000000000E+01 0. -1.
         -5    1    3    3    0  502  0.18384648815E+02  0.19915065015E+02 -0.71644159237E+02  0.76743603508E+02  0.47000000000E+01 0. -1.
        -11    1    1    2    0    0 -0.54503554222E+02 -0.23234651989E+03 -0.12676203510E+03  0.27022982121E+03  0.00000000000E+00 0.  1.
         11    1    1    2    0    0 -0.81135806804E+02 -0.78541365153E+02 -0.57953912492E+02  0.12692683388E+03  0.00000000000E+00 0. -1.
<mgrwt>
<rscale>  0 0.35899387E+03</rscale>
<asrwt>0</asrwt>
<pdfrwt beam="2">  1        1 0.95037238E-01 0.36149733E+03</pdfrwt>
<pdfrwt beam="1">  1       -1 0.31721268E-01 0.36149733E+03</pdfrwt>
<totfact> 0.31334555E+02</totfact>
</mgrwt>
</event>
<event>
 7    1  0.6095443E-006  0.1782816E+03  0.7546771E-02  0.1178720E+00
         -3   -1    0    0    0  501 -0.00000000000E+00  0.00000000000E+00  0.61332918146E+02  0.61332918146E+02  0.00000000000E+00 0.  1.
          3   -1    0    0  501    0  0.00000000000E+00 -0.00000000000E+00 -0.58618543857E+03  0.58618543857E+03  0.00000000000E+00 0. -1.
         23    2    1    2    0    0  0.12608673632E+03 -0.16162490568E+02 -0.11307910847E+03  0.21111893369E+03  0.12500091285E+03 0.  0.
          5    1    3    3  502    0  0.93013430566E+01  0.77421430760E+01  0.25286268629E+02  0.28424305502E+02  0.47000000000E+01 0. -1.
         -5    1    3    3    0  502  0.11678539326E+03 -0.23904633644E+02 -0.13836537710E+03  0.18269462819E+03  0.47000000000E+01 0. -1.
        -11    1    1    2    0    0 -0.65364945970E+02 -0.25566238448E+02 -0.22174322776E+03  0.23258604379E+03  0.00000000000E+00 0. -1.
         11    1    1    2    0    0 -0.60721790352E+02  0.41728729016E+02 -0.19003018420E+03  0.20381337924E+03  0.00000000000E+00 0.  1.
<mgrwt>
<rscale>  0 0.16916661E+03</rscale>
<asrwt>0</asrwt>
<pdfrwt beam="2">  1        3 0.90182378E-01 0.17828157E+03</pdfrwt>
<pdfrwt beam="1">  1       -3 0.94358333E-02 0.17828157E+03</pdfrwt>
<totfact> 0.22449097E+02</totfact>
</mgrwt>
</event>
<event>
 7    1  0.6095443E-006  0.1501023E+03  0.7546771E-02  0.1213610E+00
         -1   -1    0    0    0  501 -0.00000000000E+00  0.00000000000E+00  0.73461270376E+02  0.73461270376E+02  0.00000000000E+00 0.  1.
          1   -1    0    0  501    0  0.00000000000E+00 -0.00000000000E+00 -0.33186500156E+03  0.33186500156E+03  0.00000000000E+00 0. -1.
         23    2    1    2    0    0  0.38441624596E+02 -0.73666830101E+02 -0.33688877471E+02  0.15383642138E+03  0.12500457479E+03 0.  0.
          5    1    3    3  502    0  0.63471433701E+02 -0.38050966117E+02 -0.66119344016E+02  0.99349668201E+02  0.47000000000E+01 0.  1.
         -5    1    3    3    0  502 -0.25029809105E+02 -0.35615863984E+02  0.32430466545E+02  0.54486753174E+02  0.47000000000E+01 0.  1.
        -11    1    1    2    0    0  0.57879074119E+01  0.26577382266E+02 -0.13018515808E+02  0.30155246213E+02  0.00000000000E+00 0.  1.
         11    1    1    2    0    0 -0.44229532008E+02  0.47089447834E+02 -0.21169633790E+03  0.22133460434E+03  0.00000000000E+00 0. -1.
<mgrwt>
<rscale>  0 0.13979155E+03</rscale>
<asrwt>0</asrwt>
<pdfrwt beam="2">  1        1 0.51056154E-01 0.15010231E+03</pdfrwt>
<pdfrwt beam="1">  1       -1 0.11301734E-01 0.15010231E+03</pdfrwt>
<totfact> 0.37627056E+03</totfact>
</mgrwt>
</event>
<event>
 6    1  0.6095443E-006  0.1457997E+03  0.7546771E-02  0.1280673E+00
         -2   -1    0    0    0  501 -0.00000000000E+00  0.00000000000E+00  0.19497577187E+02  0.19497577187E+02  0.00000000000E+00 0.  1.
          2   -1    0    0  501    0  0.00000000000E+00 -0.00000000000E+00 -0.41537608936E+03  0.41537608936E+03  0.00000000000E+00 0. -1.
          5    1    1    2  502    0 -0.31684153043E+02 -0.67260963320E+02 -0.15714167048E+03  0.17390663398E+03  0.47000000000E+01 0. -1.
         -5    1    1    2    0  502  0.40980969000E+01  0.70930397629E+02 -0.13842988785E+03  0.15566900641E+03  0.47000000000E+01 0.  1.
        -11    1    1    2    0    0  0.19359180883E+02  0.50879090313E+01 -0.63258477069E+02  0.66349827610E+02  0.00000000000E+00 0. -1.
         11    1    1    2    0    0  0.82268752606E+01 -0.87573433403E+01 -0.37048476777E+02  0.38948198552E+02  0.00000000000E+00 0.  1.
<mgrwt>
<rscale>  0 0.99820776E+02</rscale>
<asrwt>0</asrwt>
<pdfrwt beam="2">  1        2 0.63904015E-01 0.14579971E+03</pdfrwt>
<pdfrwt beam="1">  1       -2 0.29996272E-02 0.14579971E+03</pdfrwt>
<totfact> 0.30434044E+04</totfact>
</mgrwt>
</event>
<event>
 7    1  0.6095443E-006  0.1532340E+03  0.7546771E-02  0.1206937E+00
         -1   -1    0    0    0  501 -0.00000000000E+00  0.00000000000E+00  0.18671669714E+02  0.18671669714E+02  0.00000000000E+00 0.  1.
          1   -1    0    0  501    0  0.00000000000E+00 -0.00000000000E+00 -0.10194783444E+04  0.10194783444E+04  0.00000000000E+00 0. -1.
         23    2    1    2    0    0 -0.71805623544E+02  0.51954827269E+02 -0.53130405058E+03  0.55295990242E+03  0.12500123147E+03 0.  0.
          5    1    3    3  502    0 -0.39351533956E+02 -0.27932737774E+02 -0.33513882190E+03  0.33862796844E+03  0.47000000000E+01 0.  1.
         -5    1    3    3    0  502 -0.32454089588E+02  0.79887565043E+02 -0.19616522868E+03  0.21433193398E+03  0.47000000000E+01 0.  1.
        -11    1    1    2    0    0  0.61468118826E+02  0.75059742427E+01 -0.24766729775E+03  0.25529151896E+03  0.00000000000E+00 0.  1.
         11    1    1    2    0    0  0.10337504718E+02 -0.59460801512E+02 -0.22183532636E+03  0.22989859273E+03  0.00000000000E+00 0. -1.
<mgrwt>
<rscale>  0 0.14485833E+03</rscale>
<asrwt>0</asrwt>
<pdfrwt beam="2">  1        1 0.15684280E+00 0.15323400E+03</pdfrwt>
<pdfrwt beam="1">  1       -1 0.28725649E-02 0.15323400E+03</pdfrwt>
<totfact> 0.60849339E+03</totfact>
</mgrwt>
</event>
<event>
 7    1  0.6095443E-006  0.1532482E+03  0.7546771E-02  0.1204580E+00
         -1   -1    0    0    0  501 -0.00000000000E+00  0.00000000000E+00  0.63561328711E+02  0.63561328711E+02  0.00000000000E+00 0.  1.
          1   -1    0    0  501    0  0.00000000000E+00 -0.00000000000E+00 -0.34941613297E+03  0.34941613297E+03  0.00000000000E+00 0. -1.
         23    2    1    2    0    0  0.81553550667E+02 -0.34753022682E+02 -0.87340545044E+02  0.17638983713E+03  0.12500499839E+03 0.  0.
          5    1    3    3  502    0  0.36181440657E+02  0.41964891004E+02 -0.65343365705E+01  0.55990501690E+02  0.47000000000E+01 0. -1.
         -5    1    3    3    0  502  0.45372110010E+02 -0.76717913686E+02 -0.80806208473E+02  0.12039933544E+03  0.47000000000E+01 0. -1.
        -11    1    1    2    0    0 -0.24938100184E+02 -0.27213795614E+02 -0.27315715861E+02  0.45920015740E+02  0.00000000000E+00 0.  1.
         11    1    1    2    0    0 -0.56615450482E+02  0.61966818296E+02 -0.17119854336E+03  0.19066760881E+03  0.00000000000E+00 0. -1.
<mgrwt>
<rscale>  0 0.14670605E+03</rscale>
<asrwt>0</asrwt>
<pdfrwt beam="2">  1        1 0.53756328E-01 0.15324818E+03</pdfrwt>
<pdfrwt beam="1">  1       -1 0.97786661E-02 0.15324818E+03</pdfrwt>
<totfact> 0.44102966E+03</totfact>
</mgrwt>
</event>
<event>
 7    1  0.6095443E-006  0.1293286E+03  0.7546771E-02  0.1242333E+00
          2   -1    0    0  501    0  0.00000000000E+00  0.00000000000E+00  0.78823575536E+02  0.78823575536E+02  0.00000000000E+00 0. -1.
         -2   -1    0    0    0  501 -0.00000000000E+00 -0.00000000000E+00 -0.17442735711E+03  0.17442735711E+03  0.00000000000E+00 0.  1.
         23    2    1    2    0    0 -0.12093189841E+02  0.30870489788E+02 -0.86247938407E+02  0.15544967182E+03  0.12500664466E+03 0.  0.
          5    1    3    3  502    0 -0.15568320377E+02 -0.27994537155E+01 -0.11165400821E+03  0.11286681129E+03  0.47000000000E+01 0.  1.
         -5    1    3    3    0  502  0.34751305353E+01  0.33669943503E+02  0.25406069808E+02  0.42582860529E+02  0.47000000000E+01 0.  1.
        -11    1    1    2    0    0 -0.15883406423E+02 -0.55538039008E+02  0.46691683482E+01  0.57953062987E+02  0.00000000000E+00 0. -1.
         11    1    1    2    0    0  0.27976596264E+02  0.24667549221E+02 -0.14025011516E+02  0.39848197840E+02  0.00000000000E+00 0.  1.
<mgrwt>
<rscale>  0 0.12046421E+03</rscale>
<asrwt>0</asrwt>
<pdfrwt beam="1">  1        2 0.12126704E-01 0.12932863E+03</pdfrwt>
<pdfrwt beam="2">  1       -2 0.26834978E-01 0.12932863E+03</pdfrwt>
<totfact> 0.59693145E+03</totfact>
</mgrwt>
</event>
<event>
 7    1  0.6095443E-006  0.4560079E+03  0.7546771E-02  0.1026592E+00
          2   -1    0    0  501    0  0.00000000000E+00  0.00000000000E+00  0.24295669842E+03  0.24295669842E+03  0.00000000000E+00 0. -1.
         -2   -1    0    0    0  501 -0.00000000000E+00 -0.00000000000E+00 -0.85943412982E+03  0.85943412982E+03  0.00000000000E+00 0.  1.
         23    2    1    2    0    0  0.31925719024E+03  0.30065562054E+03 -0.39494977205E+03  0.60326490013E+03  0.12499704637E+03 0.  0.
          5    1    3    3  502    0  0.11803715307E+03  0.15635628944E+03 -0.24507250549E+03  0.31378763790E+03  0.47000000000E+01 0.  1.
         -5    1    3    3    0  502  0.20122003717E+03  0.14429933110E+03 -0.14987726656E+03  0.28947726223E+03  0.47000000000E+01 0.  1.
        -11    1    1    2    0    0 -0.97930868679E+02 -0.10542679756E+03 -0.11891045944E+03  0.18666805310E+03  0.00000000000E+00 0.  1.
         11    1    1    2    0    0 -0.22132632156E+03 -0.19522882298E+03 -0.10261719991E+03  0.31245787501E+03  0.00000000000E+00 0. -1.
<mgrwt>
<rscale>  0 0.45380805E+03</rscale>
<asrwt>0</asrwt>
<pdfrwt beam="1">  1        2 0.37377953E-01 0.45600791E+03</pdfrwt>
<pdfrwt beam="2">  1       -2 0.13222064E+00 0.45600791E+03</pdfrwt>
<totfact> 0.59521051E+01</totfact>
</mgrwt>
</event>
<event>
 7    1  0.6095443E-006  0.1528308E+03  0.7546771E-02  0.1209106E+00
         -1   -1    0    0    0  501 -0.00000000000E+00  0.00000000000E+00  0.28539195360E+02  0.28539195360E+02  0.00000000000E+00 0.  1.
          1   -1    0    0  501    0  0.00000000000E+00 -0.00000000000E+00 -0.73728810887E+03  0.73728810887E+03  0.00000000000E+00 0. -1.
         23    2    1    2    0    0 -0.27660605057E+02 -0.83474267068E+02 -0.25722205545E+03  0.29919964684E+03  0.12499672204E+03 0.  0.
          5    1    3    3  502    0  0.19839453030E+02 -0.48124010308E+02 -0.22193376157E+02  0.56781689037E+02  0.47000000000E+01 0. -1.
         -5    1    3    3    0  502 -0.47500058087E+02 -0.35350256760E+02 -0.23502867930E+03  0.24241795780E+03  0.47000000000E+01 0. -1.
        -11    1    1    2    0    0  0.29670889676E+02  0.97728287199E+01 -0.54544486964E+02  0.62856749308E+02  0.00000000000E+00 0.  1.
         11    1    1    2    0    0 -0.20102846197E+01  0.73701438348E+02 -0.39698237110E+03  0.40377090809E+03  0.00000000000E+00 0. -1.
<mgrwt>
<rscale>  0 0.14318501E+03</rscale>
<asrwt>0</asrwt>
<pdfrwt beam="2">  1        1 0.11342893E+00 0.15283077E+03</pdfrwt>
<pdfrwt beam="1">  1       -1 0.43906458E-02 0.15283077E+03</pdfrwt>
<totfact> 0.54400553E+03</totfact>
</mgrwt>
</event>
<event>
 7    1  0.6095443E-006  0.1460980E+03  0.7546771E-02  0.1215359E+00
         -1   -1    0    0    0  501 -0.00000000000E+00  0.00000000000E+00  0.41812803626E+02  0.41812803626E+02  0.00000000000E+00 0.  1.
          1   -1    0    0  501    0  0.00000000000E+00 -0.00000000000E+00 -0.48921948759E+03  0.48921948759E+03  0.00000000000E+00 0. -1.
         23    2    1    2    0    0  0.71745545654E+02 -0.23899016951E+02 -0.14248926406E+03  0.20407796881E+03  0.12500416252E+03 0.  0.
          5    1    3    3  502    0  0.53413080376E+02 -0.15109713591E+02 -0.16454273646E+03  0.17371719178E+03  0.47000000000E+01 0. -1.
         -5    1    3    3    0  502  0.18332465278E+02 -0.87893033602E+01  0.22053472395E+02  0.30360777023E+02  0.47000000000E+01 0. -1.
        -11    1    1    2    0    0 -0.34399946194E+02 -0.38816599252E+01 -0.23801487144E+02  0.42011122006E+02  0.00000000000E+00 0.  1.
         11    1    1    2    0    0 -0.37345599461E+02  0.27780676876E+02 -0.28111593276E+03  0.28494320041E+03  0.00000000000E+00 0. -1.
<mgrwt>
<rscale>  0 0.13850187E+03</rscale>
<asrwt>0</asrwt>
<pdfrwt beam="2">  1        1 0.75264529E-01 0.14609800E+03</pdfrwt>
<pdfrwt beam="1">  1       -1 0.64327396E-02 0.14609800E+03</pdfrwt>
<totfact> 0.54007257E+03</totfact>
</mgrwt>
</event>
<event>
 7    1  0.6095443E-006  0.1618895E+03  0.7546771E-02  0.1193681E+00
         -1   -1    0    0    0  501 -0.00000000000E+00  0.00000000000E+00  0.71132737631E+02  0.71132737631E+02  0.00000000000E+00 0.  1.
          1   -1    0    0  501    0  0.00000000000E+00 -0.00000000000E+00 -0.31695265421E+03  0.31695265421E+03  0.00000000000E+00 0. -1.
         23    2    1    2    0    0 -0.48035214401E+02 -0.90983148421E+02 -0.12983577474E+03  0.20752241152E+03  0.12499163077E+03 0.  0.
          5    1    3    3  502    0  0.14736857153E+02 -0.37612396531E+01 -0.92199647743E+02  0.93563812056E+02  0.47000000000E+01 0. -1.
         -5    1    3    3    0  502 -0.62772071554E+02 -0.87221908768E+02 -0.37636126995E+02  0.11395859946E+03  0.47000000000E+01 0. -1.
        -11    1    1    2    0    0 -0.25207436800E+02  0.14286579639E+02 -0.42899882686E+02  0.51767954975E+02  0.00000000000E+00 0. -1.
         11    1    1    2    0    0  0.73242651201E+02  0.76696568782E+02 -0.73084259153E+02  0.12879502535E+03  0.00000000000E+00 0.  1.
<mgrwt>
<rscale>  0 0.15566360E+03</rscale>
<asrwt>0</asrwt>
<pdfrwt beam="2">  1        1 0.48761946E-01 0.16188954E+03</pdfrwt>
<pdfrwt beam="1">  1       -1 0.10943498E-01 0.16188954E+03</pdfrwt>
<totfact> 0.42029791E+03</totfact>
</mgrwt>
</event>
<event>
 6    1  0.6095443E-006  0.1597436E+03  0.7546771E-02  0.1209647E+00
         -1   -1    0    0    0  501 -0.00000000000E+00  0.00000000000E+00  0.91705808656E+03  0.91705808656E+03  0.00000000000E+00 0.  1.
          1   -1    0    0  501    0  0.00000000000E+00 -0.00000000000E+00 -0.52544487953E+02  0.52544487953E+02  0.00000000000E+00 0. -1.
          5    1    1    2  502    0 -0.10374426524E+01  0.58064913772E+02  0.38453519263E+03  0.38892417625E+03  0.47000000000E+01 0. -1.
         -5    1    1    2    0  502 -0.34228323425E+02 -0.93234104427E+02  0.46753645055E+03  0.47799225825E+03  0.47000000000E+01 0.  1.
        -11    1    1    2    0    0  0.54799762372E+01 -0.27203649130E+02 -0.10778797474E+02  0.29769970449E+02  0.00000000000E+00 0.  1.
         11    1    1    2    0    0  0.29785789840E+02  0.62372839785E+02  0.23220752901E+02  0.72916169568E+02  0.00000000000E+00 0. -1.
<mgrwt>
<rscale>  0 0.14277188E+03</rscale>
<asrwt>0</asrwt>
<pdfrwt beam="2">  1        1 0.80837680E-02 0.15974360E+03</pdfrwt>
<pdfrwt beam="1">  1       -1 0.14108585E+00 0.15974360E+03</pdfrwt>
<totfact> 0.38054227E+02</totfact>
</mgrwt>
</event>
<event>
 7    1  0.6095443E-006  0.1289162E+03  0.7546771E-02  0.1243063E+00
          2   -1    0    0  501    0  0.00000000000E+00  0.00000000000E+00  0.37564527868E+03  0.37564527868E+03  0.00000000000E+00 0. -1.
         -2   -1    0    0    0  501 -0.00000000000E+00 -0.00000000000E+00 -0.35302181188E+02  0.35302181188E+02  0.00000000000E+00 0.  1.
         23    2    1    2    0    0  0.15981918145E+02  0.27172234711E+02  0.15316545959E+03  0.20019751839E+03  0.12500254521E+03 0.  0.
          5    1    3    3  502    0  0.42298136694E+01  0.62609813619E+02  0.26887068740E+02  0.68431604909E+02  0.47000000000E+01 0.  1.
         -5    1    3    3    0  502  0.11752104476E+02 -0.35437578908E+02  0.12627839085E+03  0.13176591348E+03  0.47000000000E+01 0.  1.
        -11    1    1    2    0    0  0.18022364810E+02 -0.42298805651E+02  0.47133736229E+02  0.65845149280E+02  0.00000000000E+00 0.  1.
         11    1    1    2    0    0 -0.34004282955E+02  0.15126570940E+02  0.14004390167E+03  0.14490479220E+03  0.00000000000E+00 0. -1.
<mgrwt>
<rscale>  0 0.12002077E+03</rscale>
<asrwt>0</asrwt>
<pdfrwt beam="1">  1        2 0.57791579E-01 0.12891621E+03</pdfrwt>
<pdfrwt beam="2">  1       -2 0.54311051E-02 0.12891621E+03</pdfrwt>
<totfact> 0.13856638E+04</totfact>
</mgrwt>
</event>
<event>
 7    1  0.6095443E-006  0.1864780E+03  0.7546771E-02  0.1166850E+00
          2   -1    0    0  501    0  0.00000000000E+00  0.00000000000E+00  0.21073296277E+02  0.21073296277E+02  0.00000000000E+00 0. -1.
         -2   -1    0    0    0  501 -0.00000000000E+00 -0.00000000000E+00 -0.14938129108E+04  0.14938129108E+04  0.00000000000E+00 0.  1.
         23    2    1    2    0    0  0.82273910532E+02  0.11133040034E+03 -0.87608053543E+03  0.89570707461E+03  0.12494240500E+03 0.  0.
          5    1    3    3  502    0  0.47783664818E+01  0.81936543421E+02 -0.22873256170E+03  0.24305782176E+03  0.47000000000E+01 0.  1.
         -5    1    3    3    0  502  0.77495544050E+02  0.29393856918E+02 -0.64734797372E+03  0.65264925286E+03  0.47000000000E+01 0.  1.
        -11    1    1    2    0    0  0.12333257603E+01 -0.70084698405E+02 -0.20709904466E+03  0.21863988735E+03  0.00000000000E+00 0.  1.
         11    1    1    2    0    0 -0.83507236292E+02 -0.41245701934E+02 -0.38956003443E+03  0.40053924510E+03  0.00000000000E+00 0. -1.
<mgrwt>
<rscale>  0 0.18098868E+03</rscale>
<asrwt>0</asrwt>
<pdfrwt beam="1">  1        2 0.32420464E-02 0.18647804E+03</pdfrwt>
<pdfrwt beam="2">  1       -2 0.22981731E+00 0.18647804E+03</pdfrwt>
<totfact> 0.26511402E+02</totfact>
</mgrwt>
</event>
<event>
 7    1  0.6095443E-006  0.1334922E+03  0.7546771E-02  0.1236212E+00
         -1   -1    0    0    0  501 -0.00000000000E+00  0.00000000000E+00  0.48303532750E+02  0.48303532750E+02  0.00000000000E+00 0.  1.
          1   -1    0    0  501    0  0.00000000000E+00 -0.00000000000E+00 -0.28304565757E+03  0.28304565757E+03  0.00000000000E+00 0. -1.
         23    2    1    2    0    0  0.12287415735E+02  0.45193050865E+02 -0.12910643308E+03  0.18571117677E+03  0.12500711053E+03 0.  0.
          5    1    3    3  502    0 -0.34874368383E+02  0.68418423510E+02 -0.54342137239E+02  0.94193737188E+02  0.47000000000E+01 0.  1.
         -5    1    3    3    0  502  0.47161784118E+02 -0.23225372645E+02 -0.74764295837E+02  0.91517439582E+02  0.47000000000E+01 0.  1.
        -11    1    1    2    0    0  0.26253245975E+02 -0.20158648381E+02 -0.91888538847E+02  0.97668355162E+02  0.00000000000E+00 0. -1.
         11    1    1    2    0    0 -0.38540661710E+02 -0.25034402485E+02 -0.13747152894E+02  0.47969658384E+02  0.00000000000E+00 0.  1.
<mgrwt>
<rscale>  0 0.12427134E+03</rscale>
<asrwt>0</asrwt>
<pdfrwt beam="2">  1        1 0.43545486E-01 0.13349221E+03</pdfrwt>
<pdfrwt beam="1">  1       -1 0.74313126E-02 0.13349221E+03</pdfrwt>
<totfact> 0.86133256E+03</totfact>
</mgrwt>
</event>
<event>
 7    1  0.6095443E-006  0.1715527E+03  0.7546771E-02  0.1179847E+00
         -1   -1    0    0    0  501 -0.00000000000E+00  0.00000000000E+00  0.10311877606E+03  0.10311877606E+03  0.00000000000E+00 0.  1.
          1   -1    0    0  501    0  0.00000000000E+00 -0.00000000000E+00 -0.50001403910E+03  0.50001403910E+03  0.00000000000E+00 0. -1.
         23    2    1    2    0    0  0.38416522966E+02  0.12470635131E+03  0.46012040977E+01  0.17161438866E+03  0.11136796678E+03 0.  0.
          5    1    3    3  502    0  0.98850995049E+01 -0.20512222342E+02  0.36982942100E+01  0.23542171473E+02  0.47000000000E+01 0. -1.
         -5    1    3    3    0  502  0.28531423461E+02  0.14521857365E+03  0.90290988765E+00  0.14807221719E+03  0.47000000000E+01 0.  1.
        -11    1    1    2    0    0 -0.71280375191E+01 -0.94749204843E+02 -0.15935044496E+03  0.18552839418E+03  0.00000000000E+00 0. -1.
         11    1    1    2    0    0 -0.31288485447E+02 -0.29957146462E+02 -0.24214602218E+03  0.24599003232E+03  0.00000000000E+00 0.  1.
<mgrwt>
<rscale>  0 0.16809687E+03</rscale>
<asrwt>0</asrwt>
<pdfrwt beam="2">  1        1 0.76925236E-01 0.17155270E+03</pdfrwt>
<pdfrwt beam="1">  1       -1 0.15864427E-01 0.17155270E+03</pdfrwt>
<totfact> 0.13198305E+03</totfact>
</mgrwt>
</event>
<event>
 7    1  0.6095443E-006  0.1439316E+03  0.7546771E-02  0.1218140E+00
         -2   -1    0    0    0  501 -0.00000000000E+00  0.00000000000E+00  0.49093580041E+02  0.49093580041E+02  0.00000000000E+00 0.  1.
          2   -1    0    0  501    0  0.00000000000E+00 -0.00000000000E+00 -0.36131859994E+03  0.36131859994E+03  0.00000000000E+00 0. -1.
         23    2    1    2    0    0  0.14190212523E+02  0.69932459237E+02 -0.12858626044E+03  0.19300448161E+03  0.12499757023E+03 0.  0.
          5    1    3    3  502    0  0.27874246056E+02  0.10025061602E+03 -0.70083549772E+02  0.12554263640E+03  0.47000000000E+01 0.  1.
         -5    1    3    3    0  502 -0.13684033533E+02 -0.30318156782E+02 -0.58502710666E+02  0.67461845214E+02  0.47000000000E+01 0.  1.
        -11    1    1    2    0    0  0.15777640259E+02 -0.51692038433E+02 -0.17223905839E+03  0.18051951142E+03  0.00000000000E+00 0. -1.
         11    1    1    2    0    0 -0.29967852782E+02 -0.18240420804E+02 -0.11399701067E+02  0.36888186942E+02  0.00000000000E+00 0.  1.
<mgrwt>
<rscale>  0 0.13648380E+03</rscale>
<asrwt>0</asrwt>
<pdfrwt beam="2">  1        2 0.55587478E-01 0.14393159E+03</pdfrwt>
<pdfrwt beam="1">  1       -2 0.75528584E-02 0.14393159E+03</pdfrwt>
<totfact> 0.88135203E+03</totfact>
</mgrwt>
</event>
<event>
 7    1  0.6095443E-006  0.1559613E+03  0.7546771E-02  0.1201529E+00
          2   -1    0    0  501    0  0.00000000000E+00  0.00000000000E+00  0.13189109665E+03  0.13189109665E+03  0.00000000000E+00 0. -1.
         -2   -1    0    0    0  501 -0.00000000000E+00 -0.00000000000E+00 -0.26129471234E+03  0.26129471234E+03  0.00000000000E+00 0.  1.
         23    2    1    2    0    0  0.87602064966E+02  0.32008536950E+02 -0.19295169872E+03  0.24810136789E+03  0.12500104995E+03 0.  0.
          5    1    3    3  502    0  0.72436642661E+02 -0.39407902117E+02 -0.95957910089E+02  0.12660987504E+03  0.47000000000E+01 0.  1.
         -5    1    3    3    0  502  0.15165422305E+02  0.71416439067E+02 -0.96993788629E+02  0.12149149285E+03  0.47000000000E+01 0.  1.
        -11    1    1    2    0    0 -0.19472775061E+02 -0.61669200849E+01  0.69053545923E+02  0.72011194105E+02  0.00000000000E+00 0. -1.
         11    1    1    2    0    0 -0.68129289906E+02 -0.25841616865E+02 -0.55054628947E+01  0.73073246999E+02  0.00000000000E+00 0.  1.
<mgrwt>
<rscale>  0 0.14914350E+03</rscale>
<asrwt>0</asrwt>
<pdfrwt beam="1">  1        2 0.20290938E-01 0.15596131E+03</pdfrwt>
<pdfrwt beam="2">  1       -2 0.40199186E-01 0.15596131E+03</pdfrwt>
<totfact> 0.15801697E+03</totfact>
</mgrwt>
</event>
<event>
 7    1  0.6095443E-006  0.1276079E+03  0.7546771E-02  0.1247890E+00
         -1   -1    0    0    0  501 -0.00000000000E+00  0.00000000000E+00  0.48961290790E+03  0.48961290790E+03  0.00000000000E+00 0.  1.
          1   -1    0    0  501    0  0.00000000000E+00 -0.00000000000E+00 -0.27881779075E+02  0.27881779075E+02  0.00000000000E+00 0. -1.
         23    2    1    2    0    0  0.98135198653E+01 -0.23717563827E+02  0.35636883880E+03  0.37852677460E+03  0.12499976727E+03 0.  0.
          5    1    3    3  502    0 -0.11727267707E+02  0.18408870371E+02  0.36571975688E+01  0.22624774259E+02  0.47000000000E+01 0.  1.
         -5    1    3    3    0  502  0.21540787573E+02 -0.42126434198E+02  0.35271164123E+03  0.35590200034E+03  0.47000000000E+01 0.  1.
        -11    1    1    2    0    0  0.20141256782E+02  0.13503488276E+02 -0.44780737457E+01  0.24659026032E+02  0.00000000000E+00 0. -1.
         11    1    1    2    0    0 -0.29954776647E+02  0.10214075550E+02  0.10984036377E+03  0.11430888634E+03  0.00000000000E+00 0.  1.
<mgrwt>
<rscale>  0 0.11714041E+03</rscale>
<asrwt>0</asrwt>
<pdfrwt beam="2">  1        1 0.42895048E-02 0.12760788E+03</pdfrwt>
<pdfrwt beam="1">  1       -1 0.75325057E-01 0.12760788E+03</pdfrwt>
<totfact> 0.36433018E+03</totfact>
</mgrwt>
</event>
<event>
 7    1  0.6095443E-006  0.1300727E+03  0.7546771E-02  0.1239873E+00
          2   -1    0    0  501    0  0.00000000000E+00  0.00000000000E+00  0.49211881640E+03  0.49211881640E+03  0.00000000000E+00 0. -1.
         -2   -1    0    0    0  501 -0.00000000000E+00 -0.00000000000E+00 -0.27462518632E+02  0.27462518632E+02  0.00000000000E+00 0.  1.
         23    2    1    2    0    0 -0.35864323302E+02 -0.20473759125E+01  0.22912965377E+03  0.26347542957E+03  0.12501384851E+03 0.  0.
          5    1    3    3  502    0 -0.43607037582E+02 -0.30604220669E+02  0.22724914747E+03  0.23345761301E+03  0.47000000000E+01 0. -1.
         -5    1    3    3    0  502  0.77427142793E+01  0.28556844756E+02  0.18805062973E+01  0.30017816556E+02  0.47000000000E+01 0. -1.
        -11    1    1    2    0    0 -0.19876496780E+02  0.29135884706E+02  0.55981848741E+02  0.66166020663E+02  0.00000000000E+00 0.  1.
         11    1    1    2    0    0  0.55740820082E+02 -0.27088508793E+02  0.17954479526E+03  0.18993988480E+03  0.00000000000E+00 0. -1.
<mgrwt>
<rscale>  0 0.12197572E+03</rscale>
<asrwt>0</asrwt>
<pdfrwt beam="1">  1        2 0.75710581E-01 0.13007269E+03</pdfrwt>
<pdfrwt beam="2">  1       -2 0.42250032E-02 0.13007269E+03</pdfrwt>
<totfact> 0.15103278E+04</totfact>
</mgrwt>
</event>
<event>
 7    1  0.6095443E-006  0.1959392E+03  0.7546771E-02  0.1157659E+00
          2   -1    0    0  501    0  0.00000000000E+00  0.00000000000E+00  0.99970819964E+03  0.99970819964E+03  0.00000000000E+00 0. -1.
         -2   -1    0    0    0  501 -0.00000000000E+00 -0.00000000000E+00 -0.41475889349E+02  0.41475889349E+02  0.00000000000E+00 0.  1.
         23    2    1    2    0    0  0.11151682800E+03  0.10164873593E+03  0.28969954982E+03  0.34973988081E+03  0.12499474637E+03 0.  0.
          5    1    3    3  502    0  0.79576183735E+02  0.27436752384E+02  0.52983441680E+02  0.99571479308E+02  0.47000000000E+01 0. -1.
         -5    1    3    3    0  502  0.31940644268E+02  0.74211983549E+02  0.23671610814E+03  0.25016840150E+03  0.47000000000E+01 0. -1.
        -11    1    1    2    0    0 -0.45372794266E+02 -0.95781250331E+02  0.47992645755E+03  0.49148971813E+03  0.00000000000E+00 0.  1.
         11    1    1    2    0    0 -0.66144033738E+02 -0.58674856027E+01  0.18860630292E+03  0.19995449004E+03  0.00000000000E+00 0. -1.
<mgrwt>
<rscale>  0 0.19089253E+03</rscale>
<asrwt>0</asrwt>
<pdfrwt beam="1">  1        2 0.15380124E+00 0.19593916E+03</pdfrwt>
<pdfrwt beam="2">  1       -2 0.63809068E-02 0.19593916E+03</pdfrwt>
<totfact> 0.35051330E+03</totfact>
</mgrwt>
</event>
<event>
 7    1  0.6095443E-006  0.1568418E+03  0.7546771E-02  0.1200531E+00
         -2   -1    0    0    0  501 -0.00000000000E+00  0.00000000000E+00  0.91283673899E+02  0.91283673899E+02  0.00000000000E+00 0.  1.
          2   -1    0    0  501    0  0.00000000000E+00 -0.00000000000E+00 -0.31181727551E+03  0.31181727551E+03  0.00000000000E+00 0. -1.
         23    2    1    2    0    0 -0.93802744275E+02  0.13046358380E+02 -0.12640681860E+02  0.15735039184E+03  0.12502078497E+03 0.  0.
          5    1    3    3  502    0 -0.43315196661E+02 -0.55068030675E+02  0.57894457970E+01  0.70457802597E+02  0.47000000000E+01 0.  1.
         -5    1    3    3    0  502 -0.50487547615E+02  0.68114389055E+02 -0.18430127658E+02  0.86892589247E+02  0.47000000000E+01 0.  1.
        -11    1    1    2    0    0  0.80718932970E+02 -0.45361233112E+02 -0.12282112312E+03  0.15381227485E+03  0.00000000000E+00 0.  1.
         11    1    1    2    0    0  0.13083811305E+02  0.32314874732E+02 -0.85071796628E+02  0.91938282716E+02  0.00000000000E+00 0. -1.
<mgrwt>
<rscale>  0 0.14995293E+03</rscale>
<asrwt>0</asrwt>
<pdfrwt beam="2">  1        2 0.47971889E-01 0.15684183E+03</pdfrwt>
<pdfrwt beam="1">  1       -2 0.14043642E-01 0.15684183E+03</pdfrwt>
<totfact> 0.38878154E+03</totfact>
</mgrwt>
</event>
<event>
 7    1  0.6095443E-006  0.1295203E+03  0.7546771E-02  0.1244382E+00
          1   -1    0    0  501    0  0.00000000000E+00  0.00000000000E+00  0.58709617358E+02  0.58709617358E+02  0.00000000000E+00 0. -1.
         -1   -1    0    0    0  501 -0.00000000000E+00 -0.00000000000E+00 -0.21186178156E+03  0.21186178156E+03  0.00000000000E+00 0.  1.
         23    2    1    2    0    0 -0.21675799584E+02 -0.26077056987E+02 -0.98388250158E+02  0.16265227787E+03  0.12500265013E+03 0.  0.
          5    1    3    3  502    0 -0.38074445178E+02  0.43152899123E+02 -0.37109962643E+02  0.68637274171E+02  0.47000000000E+01 0.  1.
         -5    1    3    3    0  502  0.16398645594E+02 -0.69229956110E+02 -0.61278287515E+02  0.94015003702E+02  0.47000000000E+01 0.  1.
        -11    1    1    2    0    0  0.29698777241E+02  0.38603867533E+02  0.24847184029E+01  0.48769352914E+02  0.00000000000E+00 0. -1.
         11    1    1    2    0    0 -0.80229776573E+01 -0.12526810545E+02 -0.57248632443E+02  0.59149768128E+02  0.00000000000E+00 0.  1.
<mgrwt>
<rscale>  0 0.11922421E+03</rscale>
<asrwt>0</asrwt>
<pdfrwt beam="1">  1        1 0.90322491E-02 0.12952033E+03</pdfrwt>
<pdfrwt beam="2">  1       -1 0.32594119E-01 0.12952033E+03</pdfrwt>
<totfact> 0.61730420E+03</totfact>
</mgrwt>
</event>
<event>
 7    1  0.6095443E-006  0.1336924E+03  0.7546771E-02  0.1234254E+00
          1   -1    0    0  501    0  0.00000000000E+00  0.00000000000E+00  0.34686814813E+02  0.34686814813E+02  0.00000000000E+00 0. -1.
         -1   -1    0    0    0  501 -0.00000000000E+00 -0.00000000000E+00 -0.44775132948E+03  0.44775132948E+03  0.00000000000E+00 0.  1.
         23    2    1    2    0    0 -0.45734807416E+02 -0.12534811853E+02 -0.30248100904E+03  0.33070897308E+03  0.12499947971E+03 0.  0.
          5    1    3    3  502    0  0.21809960822E+02 -0.39224807681E+01 -0.21894715493E+01  0.22758383776E+02  0.47000000000E+01 0. -1.
         -5    1    3    3    0  502 -0.67544768239E+02 -0.86123310847E+01 -0.30029153749E+03  0.30795058930E+03  0.47000000000E+01 0. -1.
        -11    1    1    2    0    0 -0.17785565025E+02 -0.62708404132E+01  0.40891303450E+01  0.19296910368E+02  0.00000000000E+00 0. -1.
         11    1    1    2    0    0  0.63520372442E+02  0.18805652266E+02 -0.11467263597E+03  0.13243226085E+03  0.00000000000E+00 0.  1.
<mgrwt>
<rscale>  0 0.12552292E+03</rscale>
<asrwt>0</asrwt>
<pdfrwt beam="1">  1        1 0.53364334E-02 0.13369242E+03</pdfrwt>
<pdfrwt beam="2">  1       -1 0.68884815E-01 0.13369242E+03</pdfrwt>
<totfact> 0.32371521E+03</totfact>
</mgrwt>
</event>
<event>
 7    1  0.6095443E-006  0.1337468E+03  0.7546771E-02  0.1234567E+00
          1   -1    0    0  501    0  0.00000000000E+00  0.00000000000E+00  0.26860081054E+03  0.26860081054E+03  0.00000000000E+00 0. -1.
         -1   -1    0    0    0  501 -0.00000000000E+00 -0.00000000000E+00 -0.69125864538E+02  0.69125864538E+02  0.00000000000E+00 0.  1.
         23    2    1    2    0    0  0.36236578918E+02  0.30830274524E+02  0.26486033739E+02  0.13634406314E+03  0.12499839236E+03 0.  0.
          5    1    3    3  502    0  0.57274159176E+02  0.56764359968E+02 -0.15750341692E+02  0.82296325163E+02  0.47000000000E+01 0.  1.
         -5    1    3    3    0  502 -0.21037580259E+02 -0.25934085445E+02  0.42236375431E+02  0.54047737978E+02  0.47000000000E+01 0.  1.
        -11    1    1    2    0    0 -0.44333576231E+02 -0.56450121302E+02  0.14889497595E+03  0.16529306107E+03  0.00000000000E+00 0. -1.
         11    1    1    2    0    0  0.80969973132E+01  0.25619846779E+02  0.24093936316E+02  0.36089550865E+02  0.00000000000E+00 0.  1.
<mgrwt>
<rscale>  0 0.12532221E+03</rscale>
<asrwt>0</asrwt>
<pdfrwt beam="1">  1        1 0.41323201E-01 0.13374675E+03</pdfrwt>
<pdfrwt beam="2">  1       -1 0.10634749E-01 0.13374675E+03</pdfrwt>
<totfact> 0.53370801E+03</totfact>
</mgrwt>
</event>
<event>
 7    1  0.6095443E-006  0.1532328E+03  0.7546771E-02  0.1206049E+00
         -1   -1    0    0    0  501 -0.00000000000E+00  0.00000000000E+00  0.46806237385E+03  0.46806237385E+03  0.00000000000E+00 0.  1.
          1   -1    0    0  501    0  0.00000000000E+00 -0.00000000000E+00 -0.54590353526E+02  0.54590353526E+02  0.00000000000E+00 0. -1.
         23    2    1    2    0    0  0.53756311382E+02 -0.70468661977E+02  0.35132623128E+03  0.38328895043E+03  0.12499890159E+03 0.  0.
          5    1    3    3  502    0  0.64713718825E+02 -0.10030470714E+03  0.25171762685E+03  0.27862654817E+03  0.47000000000E+01 0. -1.
         -5    1    3    3    0  502 -0.10957407443E+02  0.29836045164E+02  0.99608604436E+02  0.10466240226E+03  0.47000000000E+01 0. -1.
        -11    1    1    2    0    0  0.13091179202E+02  0.38757476241E+02 -0.26770187524E+01  0.40996187223E+02  0.00000000000E+00 0. -1.
         11    1    1    2    0    0 -0.66847490584E+02  0.31711185737E+02  0.64822807797E+02  0.98367589728E+02  0.00000000000E+00 0.  1.
<mgrwt>
<rscale>  0 0.14555114E+03</rscale>
<asrwt>0</asrwt>
<pdfrwt beam="2">  1        1 0.83985163E-02 0.15323283E+03</pdfrwt>
<pdfrwt beam="1">  1       -1 0.72009593E-01 0.15323283E+03</pdfrwt>
<totfact> 0.16152274E+03</totfact>
</mgrwt>
</event>
<event>
 7    1  0.6095443E-006  0.1257405E+03  0.7546771E-02  0.1249260E+00
         -1   -1    0    0    0  501 -0.00000000000E+00  0.00000000000E+00  0.72230742500E+02  0.72230742500E+02  0.00000000000E+00 0.  1.
          1   -1    0    0  501    0  0.00000000000E+00 -0.00000000000E+00 -0.18546829534E+03  0.18546829534E+03  0.00000000000E+00 0. -1.
         23    2    1    2    0    0  0.10423721287E+02 -0.87412019222E+01 -0.21302146142E+02  0.12753217325E+03  0.12500244481E+03 0.  0.
          5    1    3    3  502    0  0.23125443054E+01 -0.63817354464E+02  0.78569509590E+01  0.64512202491E+02  0.47000000000E+01 0. -1.
         -5    1    3    3    0  502  0.81111769814E+01  0.55076152542E+02 -0.29159097101E+02  0.63019970759E+02  0.47000000000E+01 0. -1.
        -11    1    1    2    0    0  0.13137877227E+02  0.43361570817E+02 -0.26531267766E+02  0.52504645613E+02  0.00000000000E+00 0.  1.
         11    1    1    2    0    0 -0.23561598514E+02 -0.34620368895E+02 -0.65404138934E+02  0.77662218978E+02  0.00000000000E+00 0. -1.
<mgrwt>
<rscale>  0 0.11633975E+03</rscale>
<asrwt>0</asrwt>
<pdfrwt beam="2">  1        1 0.28533584E-01 0.12574050E+03</pdfrwt>
<pdfrwt beam="1">  1       -1 0.11112422E-01 0.12574050E+03</pdfrwt>
<totfact> 0.78582759E+03</totfact>
</mgrwt>
</event>
<event>
 7    1  0.6095443E-006  0.1277494E+03  0.7546771E-02  0.1245053E+00
         -1   -1    0    0    0  501 -0.00000000000E+00  0.00000000000E+00  0.60396414832E+02  0.60396414832E+02  0.00000000000E+00 0.  1.
          1   -1    0    0  501    0  0.00000000000E+00 -0.00000000000E+00 -0.21885751429E+03  0.21885751429E+03  0.00000000000E+00 0. -1.
         23    2    1    2    0    0 -0.24319034406E+02 -0.10369792289E+02 -0.57149143791E+02  0.13994977868E+03  0.12498387052E+03 0.  0.
          5    1    3    3  502    0 -0.69075578713E+02 -0.65592128072E+01 -0.32378265050E+01  0.69620631767E+02  0.47000000000E+01 0.  1.
         -5    1    3    3    0  502  0.44756544307E+02 -0.38105794814E+01 -0.53911317286E+02  0.70329146915E+02  0.47000000000E+01 0.  1.
        -11    1    1    2    0    0  0.34060066982E+02 -0.13385087529E+02 -0.19160823570E+01  0.36645874291E+02  0.00000000000E+00 0.  1.
         11    1    1    2    0    0 -0.97410325760E+01  0.23754879818E+02 -0.99395873307E+02  0.10265827615E+03  0.00000000000E+00 0. -1.
<mgrwt>
<rscale>  0 0.11882193E+03</rscale>
<asrwt>0</asrwt>
<pdfrwt beam="2">  1        1 0.33670387E-01 0.12774943E+03</pdfrwt>
<pdfrwt beam="1">  1       -1 0.92917561E-02 0.12774943E+03</pdfrwt>
<totfact> 0.84181359E+03</totfact>
</mgrwt>
</event>
<event>
 7    1  0.6095443E-006  0.1493776E+03  0.7546771E-02  0.1210033E+00
          1   -1    0    0  501    0  0.00000000000E+00  0.00000000000E+00  0.68387528273E+03  0.68387528273E+03  0.00000000000E+00 0. -1.
         -1   -1    0    0    0  501 -0.00000000000E+00 -0.00000000000E+00 -0.29347182161E+02  0.29347182161E+02  0.00000000000E+00 0.  1.
         23    2    1    2    0    0  0.26307985164E+02 -0.77440939691E+02  0.26091870820E+03  0.30065303848E+03  0.12499787214E+03 0.  0.
          5    1    3    3  502    0  0.18618304743E+02 -0.93069798407E+02  0.97173338970E+02  0.13591679975E+03  0.47000000000E+01 0.  1.
         -5    1    3    3    0  502  0.76896804218E+01  0.15628858716E+02  0.16374536923E+03  0.16473623874E+03  0.47000000000E+01 0.  1.
        -11    1    1    2    0    0  0.16180504279E+02  0.76579847024E+02  0.29469665405E+03  0.30491375764E+03  0.00000000000E+00 0.  1.
         11    1    1    2    0    0 -0.42488489443E+02  0.86109266637E+00  0.98912738322E+02  0.10765566877E+03  0.00000000000E+00 0. -1.
<mgrwt>
<rscale>  0 0.14247806E+03</rscale>
<asrwt>0</asrwt>
<pdfrwt beam="1">  1        1 0.10521157E+00 0.14937763E+03</pdfrwt>
<pdfrwt beam="2">  1       -1 0.45149516E-02 0.14937763E+03</pdfrwt>
<totfact> 0.58120641E+03</totfact>
</mgrwt>
</event>
<event>
 6    1  0.6095443E-006  0.1816374E+03  0.7546771E-02  0.1177694E+00
         -1   -1    0    0    0  501 -0.00000000000E+00  0.00000000000E+00  0.42483521599E+03  0.42483521599E+03  0.00000000000E+00 0.  1.
          1   -1    0    0  501    0  0.00000000000E+00 -0.00000000000E+00 -0.71076781850E+02  0.71076781850E+02  0.00000000000E+00 0. -1.
          5    1    1    2  502    0 -0.81283055589E+02  0.31087562117E+02  0.54363842945E+02  0.10271752073E+03  0.47000000000E+01 0. -1.
         -5    1    1    2    0  502 -0.34193866026E+02 -0.25042857050E+02  0.23568083084E+03  0.23950763910E+03  0.47000000000E+01 0.  1.
        -11    1    1    2    0    0 -0.21929998615E+01  0.18699686997E+02  0.32825259310E+01  0.19111842367E+02  0.00000000000E+00 0. -1.
         11    1    1    2    0    0  0.11766992148E+03 -0.24744392063E+02  0.60431234427E+02  0.13457499565E+03  0.00000000000E+00 0.  1.
<mgrwt>
<rscale>  0 0.17014752E+03</rscale>
<asrwt>0</asrwt>
<pdfrwt beam="2">  1        1 0.10934890E-01 0.18163741E+03</pdfrwt>
<pdfrwt beam="1">  1       -1 0.65359262E-01 0.18163741E+03</pdfrwt>
<totfact> 0.13817330E+03</totfact>
</mgrwt>
</event>
<event>
 7    1  0.6095443E-006  0.1338715E+03  0.7546771E-02  0.1235033E+00
          1   -1    0    0  501    0  0.00000000000E+00  0.00000000000E+00  0.48889534842E+03  0.48889534842E+03  0.00000000000E+00 0. -1.
         -1   -1    0    0    0  501 -0.00000000000E+00 -0.00000000000E+00 -0.42091186374E+02  0.42091186374E+02  0.00000000000E+00 0.  1.
         23    2    1    2    0    0 -0.47888812402E+02  0.12991400290E+01  0.93478490629E+02  0.16327828977E+03  0.12500618218E+03 0.  0.
          5    1    3    3  502    0  0.62164353080E+01  0.51997421130E+01 -0.28338205840E+02  0.29846696571E+02  0.47000000000E+01 0. -1.
         -5    1    3    3    0  502 -0.54105247710E+02 -0.39006020840E+01  0.12181669647E+03  0.13343159320E+03  0.47000000000E+01 0. -1.
        -11    1    1    2    0    0 -0.16321804464E+02  0.18069818250E+02  0.36603923156E+02  0.43963244000E+02  0.00000000000E+00 0.  1.
         11    1    1    2    0    0  0.64210616867E+02 -0.19368958279E+02  0.31672174827E+03  0.32374500102E+03  0.00000000000E+00 0. -1.
<mgrwt>
<rscale>  0 0.12502305E+03</rscale>
<asrwt>0</asrwt>
<pdfrwt beam="1">  1        1 0.75214665E-01 0.13387147E+03</pdfrwt>
<pdfrwt beam="2">  1       -1 0.64755675E-02 0.13387147E+03</pdfrwt>
<totfact> 0.53273469E+03</totfact>
</mgrwt>
</event>
<event>
 6    1  0.6095443E-006  0.1921261E+03  0.7546771E-02  0.1184050E+00
         -2   -1    0    0    0  501 -0.00000000000E+00  0.00000000000E+00  0.19994175766E+03  0.19994175766E+03  0.00000000000E+00 0.  1.
          2   -1    0    0  501    0  0.00000000000E+00 -0.00000000000E+00 -0.11674731776E+03  0.11674731776E+03  0.00000000000E+00 0. -1.
          5    1    1    2  502    0  0.12662404432E+02 -0.40642590595E+02 -0.43099900337E+02  0.60760579863E+02  0.47000000000E+01 0. -1.
         -5    1    1    2    0  502 -0.59851582380E+02  0.33289363294E+02  0.13666544781E+03  0.15293766131E+03  0.47000000000E+01 0.  1.
        -11    1    1    2    0    0  0.38334073005E+02  0.44865029318E+02  0.92647019361E+01  0.59734468364E+02  0.00000000000E+00 0.  1.
         11    1    1    2    0    0  0.88551049426E+01 -0.37511802016E+02 -0.19635809508E+02  0.43256365880E+02  0.00000000000E+00 0. -1.
<mgrwt>
<rscale>  0 0.16418598E+03</rscale>
<asrwt>0</asrwt>
<pdfrwt beam="2">  1        2 0.17961126E-01 0.19212607E+03</pdfrwt>
<pdfrwt beam="1">  1       -2 0.30760270E-01 0.19212607E+03</pdfrwt>
<totfact> 0.30134752E+03</totfact>
</mgrwt>
</event>
<event>
 7    1  0.6095443E-006  0.1472470E+03  0.7546771E-02  0.1213458E+00
         -2   -1    0    0    0  501 -0.00000000000E+00  0.00000000000E+00  0.54801859038E+02  0.54801859038E+02  0.00000000000E+00 0.  1.
          2   -1    0    0  501    0  0.00000000000E+00 -0.00000000000E+00 -0.46373646693E+03  0.46373646693E+03  0.00000000000E+00 0. -1.
         23    2    1    2    0    0  0.67581279438E+02 -0.38591392510E+02 -0.78237046242E+02  0.16674146359E+03  0.12500062148E+03 0.  0.
          5    1    3    3  502    0  0.39980376726E+02  0.62189518480E+01 -0.10122958293E+03  0.10911747956E+03  0.47000000000E+01 0. -1.
         -5    1    3    3    0  502  0.27600902712E+02 -0.44810344358E+02  0.22992536690E+02  0.57623984030E+02  0.47000000000E+01 0. -1.
        -11    1    1    2    0    0 -0.58658636832E+02  0.12749369744E+02 -0.31416338129E+03  0.31984685750E+03  0.00000000000E+00 0. -1.
         11    1    1    2    0    0 -0.89226426067E+01  0.25842022766E+02 -0.16534180351E+02  0.31950004877E+02  0.00000000000E+00 0.  1.
<mgrwt>
<rscale>  0 0.13990420E+03</rscale>
<asrwt>0</asrwt>
<pdfrwt beam="2">  1        2 0.71344070E-01 0.14724700E+03</pdfrwt>
<pdfrwt beam="1">  1       -2 0.84310555E-02 0.14724700E+03</pdfrwt>
<totfact> 0.56934771E+03</totfact>
</mgrwt>
</event>
<event>
 7    1  0.6095443E-006  0.1364890E+03  0.7546771E-02  0.1229359E+00
         -2   -1    0    0    0  501 -0.00000000000E+00  0.00000000000E+00  0.10667459595E+03  0.10667459595E+03  0.00000000000E+00 0.  1.
          2   -1    0    0  501    0  0.00000000000E+00 -0.00000000000E+00 -0.16712606089E+03  0.16712606089E+03  0.00000000000E+00 0. -1.
         23    2    1    2    0    0  0.33021414446E+02 -0.43766122532E+02  0.21586982955E+02  0.13818552363E+03  0.12499341508E+03 0.  0.
          5    1    3    3  502    0 -0.10971140054E+02 -0.61212656571E+01 -0.46667595009E+02  0.48557082195E+02  0.47000000000E+01 0.  1.
         -5    1    3    3    0  502  0.43992554500E+02 -0.37644856875E+02  0.68254577964E+02  0.89628441432E+02  0.47000000000E+01 0.  1.
        -11    1    1    2    0    0 -0.95332004088E+01 -0.25647919015E+02 -0.47009697143E+02  0.54393099612E+02  0.00000000000E+00 0.  1.
         11    1    1    2    0    0 -0.23488214037E+02  0.69414041547E+02 -0.35028750757E+02  0.81222033600E+02  0.00000000000E+00 0. -1.
<mgrwt>
<rscale>  0 0.12872589E+03</rscale>
<asrwt>0</asrwt>
<pdfrwt beam="2">  1        2 0.25711702E-01 0.13648898E+03</pdfrwt>
<pdfrwt beam="1">  1       -2 0.16411476E-01 0.13648898E+03</pdfrwt>
<totfact> 0.58448246E+03</totfact>
</mgrwt>
</event>
<event>
 7    1  0.6095443E-006  0.1272801E+03  0.7546771E-02  0.1246405E+00
          2   -1    0    0  501    0  0.00000000000E+00  0.00000000000E+00  0.19880527623E+03  0.19880527623E+03  0.00000000000E+00 0. -1.
         -2   -1    0    0    0  501 -0.00000000000E+00 -0.00000000000E+00 -0.61970869014E+02  0.61970869014E+02  0.00000000000E+00 0.  1.
         23    2    1    2    0    0 -0.16711083213E+02 -0.17366038717E+02  0.68894768347E+02  0.14472976524E+03  0.12497750292E+03 0.  0.
          5    1    3    3  502    0  0.36359752589E+02 -0.46919689846E+02  0.10743326441E+02  0.60506181227E+02  0.47000000000E+01 0.  1.
         -5    1    3    3    0  502 -0.53070835802E+02  0.29553651129E+02  0.58151441906E+02  0.84223584010E+02  0.47000000000E+01 0.  1.
        -11    1    1    2    0    0 -0.15783091114E+02 -0.61085424161E+01  0.73637220489E+02  0.75557001641E+02  0.00000000000E+00 0. -1.
         11    1    1    2    0    0  0.32494174326E+02  0.23474581133E+02 -0.56975816161E+01  0.40489378370E+02  0.00000000000E+00 0.  1.
<mgrwt>
<rscale>  0 0.11801688E+03</rscale>
<asrwt>0</asrwt>
<pdfrwt beam="1">  1        2 0.30585427E-01 0.12728007E+03</pdfrwt>
<pdfrwt beam="2">  1       -2 0.95339799E-02 0.12728007E+03</pdfrwt>
<totfact> 0.11499073E+04</totfact>
</mgrwt>
</event>
<event>
 7    1  0.6095443E-006  0.1315729E+03  0.7546771E-02  0.1240130E+00
         -4   -1    0    0    0  501 -0.00000000000E+00  0.00000000000E+00  0.72570382240E+02  0.72570382240E+02  0.00000000000E+00 0. -1.
          4   -1    0    0  501    0  0.00000000000E+00 -0.00000000000E+00 -0.22956795667E+03  0.22956795667E+03  0.00000000000E+00 0.  1.
         23    2    1    2    0    0 -0.39319835424E+01  0.40869583628E+02 -0.17960727281E+02  0.13279309941E+03  0.12500254464E+03 0.  0.
          5    1    3    3  502    0  0.37863926059E+02 -0.29717902292E+02  0.13702547950E+01  0.48381796282E+02  0.47000000000E+01 0.  1.
         -5    1    3    3    0  502 -0.41795909602E+02  0.70587485920E+02 -0.19330982076E+02  0.84411303129E+02  0.47000000000E+01 0.  1.
        -11    1    1    2    0    0  0.24581413035E+02 -0.26370928868E+01 -0.11891880486E+03  0.12146144357E+03  0.00000000000E+00 0.  1.
         11    1    1    2    0    0 -0.20649429493E+02 -0.38232490741E+02 -0.20118042289E+02  0.47883795925E+02  0.00000000000E+00 0. -1.
<mgrwt>
<rscale>  0 0.12181654E+03</rscale>
<asrwt>0</asrwt>
<pdfrwt beam="2">  1        4 0.35318147E-01 0.13157287E+03</pdfrwt>
<pdfrwt beam="1">  1       -4 0.11164674E-01 0.13157287E+03</pdfrwt>
<totfact> 0.80267924E+02</totfact>
</mgrwt>
</event>
<event>
 7    1  0.6095443E-006  0.1412660E+03  0.7546771E-02  0.1222321E+00
          1   -1    0    0  501    0  0.00000000000E+00  0.00000000000E+00  0.46219157682E+03  0.46219157682E+03  0.00000000000E+00 0. -1.
         -1   -1    0    0    0  501 -0.00000000000E+00 -0.00000000000E+00 -0.39755070525E+02  0.39755070525E+02  0.00000000000E+00 0.  1.
         23    2    1    2    0    0 -0.26567857635E+02 -0.60220853510E+02  0.14481783903E+03  0.20230739100E+03  0.12499468668E+03 0.  0.
          5    1    3    3  502    0  0.20268471467E+02 -0.77290735969E+02  0.12505490451E+03  0.14847723039E+03  0.47000000000E+01 0.  1.
         -5    1    3    3    0  502 -0.46836329102E+02  0.17069882460E+02  0.19762934518E+02  0.53830160613E+02  0.47000000000E+01 0.  1.
        -11    1    1    2    0    0  0.34052350645E+02  0.46944685946E+02  0.27840224566E+03  0.28437857956E+03  0.00000000000E+00 0. -1.
         11    1    1    2    0    0 -0.74844930106E+01  0.13276167563E+02 -0.78357839306E+00  0.15260676784E+02  0.00000000000E+00 0.  1.
<mgrwt>
<rscale>  0 0.13352206E+03</rscale>
<asrwt>0</asrwt>
<pdfrwt beam="1">  1        1 0.71106393E-01 0.14126597E+03</pdfrwt>
<pdfrwt beam="2">  1       -1 0.61161650E-02 0.14126597E+03</pdfrwt>
<totfact> 0.62568731E+03</totfact>
</mgrwt>
</event>
<event>
 7    1  0.6095443E-006  0.1356520E+03  0.7546771E-02  0.1230988E+00
         -1   -1    0    0    0  501 -0.00000000000E+00  0.00000000000E+00  0.10356364882E+03  0.10356364882E+03  0.00000000000E+00 0.  1.
          1   -1    0    0  501    0  0.00000000000E+00 -0.00000000000E+00 -0.19696647426E+03  0.19696647426E+03  0.00000000000E+00 0. -1.
         23    2    1    2    0    0  0.19200501481E+02  0.49074547874E+02  0.28641954235E+02  0.13864278230E+03  0.12499795613E+03 0.  0.
          5    1    3    3  502    0 -0.17481572999E+02 -0.16179922284E+02 -0.33407537834E+02  0.41298291293E+02  0.47000000000E+01 0. -1.
         -5    1    3    3    0  502  0.36682074479E+02  0.65254470158E+02  0.62049492068E+02  0.97344491008E+02  0.47000000000E+01 0. -1.
        -11    1    1    2    0    0 -0.28033245635E+02 -0.67469686876E+02 -0.54008144653E+02  0.90856486818E+02  0.00000000000E+00 0.  1.
         11    1    1    2    0    0  0.88327441543E+01  0.18395139002E+02 -0.68036635024E+02  0.71030853955E+02  0.00000000000E+00 0. -1.
<mgrwt>
<rscale>  0 0.12764824E+03</rscale>
<asrwt>0</asrwt>
<pdfrwt beam="2">  1        1 0.30302534E-01 0.13565198E+03</pdfrwt>
<pdfrwt beam="1">  1       -1 0.15932869E-01 0.13565198E+03</pdfrwt>
<totfact> 0.41886313E+03</totfact>
</mgrwt>
</event>
<event>
 6    1  0.6095443E-006  0.7362543E+03  0.7546771E-02  0.1004424E+00
         -4   -1    0    0    0  501 -0.00000000000E+00  0.00000000000E+00  0.69775784169E+03  0.69775784169E+03  0.00000000000E+00 0.  1.
          4   -1    0    0  501    0  0.00000000000E+00 -0.00000000000E+00 -0.40957797185E+03  0.40957797185E+03  0.00000000000E+00 0. -1.
          5    1    1    2  502    0  0.17315239031E+03  0.31586960524E+03 -0.26116061401E+02  0.36119177240E+03  0.47000000000E+01 0. -1.
         -5    1    1    2    0  502 -0.47755182688E+02 -0.17431436000E+03  0.45797916424E+03  0.49237491656E+03  0.47000000000E+01 0.  1.
        -11    1    1    2    0    0 -0.11312120332E+03 -0.70125269423E+02 -0.69858143978E+02  0.15031340702E+03  0.00000000000E+00 0.  1.
         11    1    1    2    0    0 -0.12276004310E+02 -0.71429975815E+02 -0.73825089024E+02  0.10345571756E+03  0.00000000000E+00 0. -1.
<mgrwt>
<rscale>  0 0.53752413E+03</rscale>
<asrwt>0</asrwt>
<pdfrwt beam="2">  1        4 0.63011996E-01 0.73625427E+03</pdfrwt>
<pdfrwt beam="1">  1       -4 0.10734736E+00 0.73625427E+03</pdfrwt>
<totfact> 0.32293536E+00</totfact>
</mgrwt>
</event>
<event>
 7    1  0.6095443E-006  0.1385436E+03  0.7546771E-02  0.1226328E+00
          2   -1    0    0  501    0  0.00000000000E+00  0.00000000000E+00  0.38483300871E+03  0.38483300871E+03  0.00000000000E+00 0. -1.
         -2   -1    0    0    0  501 -0.00000000000E+00 -0.00000000000E+00 -0.56287925581E+02  0.56287925581E+02  0.00000000000E+00 0.  1.
         23    2    1    2    0    0 -0.10015783599E+01 -0.59797705416E+02  0.60070208841E+02  0.15100584644E+03  0.12497026420E+03 0.  0.
          5    1    3    3  502    0 -0.36041841296E+02  0.11770450868E+02 -0.15362845471E+02  0.41178451386E+02  0.47000000000E+01 0. -1.
         -5    1    3    3    0  502  0.35040262936E+02 -0.71568156284E+02  0.75433054312E+02  0.10982739505E+03  0.47000000000E+01 0. -1.
        -11    1    1    2    0    0 -0.18988348380E+02 -0.19820197970E+02  0.56932782682E+02  0.63203950555E+02  0.00000000000E+00 0.  1.
         11    1    1    2    0    0  0.19989926740E+02  0.79617903385E+02  0.21154209160E+03  0.22691113730E+03  0.00000000000E+00 0. -1.
<mgrwt>
<rscale>  0 0.13076281E+03</rscale>
<asrwt>0</asrwt>
<pdfrwt beam="1">  1        2 0.59205077E-01 0.13854362E+03</pdfrwt>
<pdfrwt beam="2">  1       -2 0.86596811E-02 0.13854362E+03</pdfrwt>
<totfact> 0.66529660E+03</totfact>
</mgrwt>
</event>
<event>
 7    1  0.6095443E-006  0.1228986E+03  0.7546771E-02  0.1247116E+00
          1   -1    0    0  501    0  0.00000000000E+00  0.00000000000E+00  0.82151367432E+02  0.82151367432E+02  0.00000000000E+00 0. -1.
         -1   -1    0    0    0  501 -0.00000000000E+00 -0.00000000000E+00 -0.15616477825E+03  0.15616477825E+03  0.00000000000E+00 0.  1.
         23    2    1    2    0    0 -0.32878373407E+02  0.34848535737E+02 -0.48958419162E+02  0.13229127581E+03  0.11317529310E+03 0.  0.
          5    1    3    3  502    0 -0.71313500226E+02  0.30050572329E+02 -0.11820655893E+02  0.78424933009E+02  0.47000000000E+01 0. -1.
         -5    1    3    3    0  502  0.38435126819E+02  0.47979634081E+01 -0.37137763269E+02  0.53866342804E+02  0.47000000000E+01 0.  1.
        -11    1    1    2    0    0  0.45772226870E+02 -0.90782633476E+01 -0.49652175222E+02  0.68138462870E+02  0.00000000000E+00 0.  1.
         11    1    1    2    0    0 -0.12893853463E+02 -0.25770272389E+02  0.24597183564E+02  0.37886407000E+02  0.00000000000E+00 0. -1.
<mgrwt>
<rscale>  0 0.11759599E+03</rscale>
<asrwt>0</asrwt>
<pdfrwt beam="1">  1        1 0.12638672E-01 0.12289856E+03</pdfrwt>
<pdfrwt beam="2">  1       -1 0.24025350E-01 0.12289856E+03</pdfrwt>
<totfact> 0.65573574E+03</totfact>
</mgrwt>
</event>
<event>
 7    1  0.6095443E-006  0.1345404E+03  0.7546771E-02  0.1235346E+00
         -3   -1    0    0    0  501 -0.00000000000E+00  0.00000000000E+00  0.33535347082E+02  0.33535347082E+02  0.00000000000E+00 0.  1.
          3   -1    0    0  501    0  0.00000000000E+00 -0.00000000000E+00 -0.41687738230E+03  0.41687738230E+03  0.00000000000E+00 0. -1.
         23    2    1    2    0    0  0.49715135413E+02  0.16970596861E+01 -0.18898419916E+03  0.23198309565E+03  0.12500661756E+03 0.  0.
          5    1    3    3  502    0  0.41315536449E+02 -0.10562738625E+02 -0.55080919917E+00  0.42906157951E+02  0.47000000000E+01 0. -1.
         -5    1    3    3    0  502  0.83995989641E+01  0.12259798312E+02 -0.18843338996E+03  0.18907693770E+03  0.47000000000E+01 0. -1.
        -11    1    1    2    0    0  0.13307520263E+02 -0.23793276439E+02 -0.27590926273E+02  0.38787489115E+02  0.00000000000E+00 0.  1.
         11    1    1    2    0    0 -0.63022655676E+02  0.22096216753E+02 -0.16676690978E+03  0.17964214462E+03  0.00000000000E+00 0. -1.
<mgrwt>
<rscale>  0 0.12482282E+03</rscale>
<asrwt>0</asrwt>
<pdfrwt beam="2">  1        3 0.64134976E-01 0.13454044E+03</pdfrwt>
<pdfrwt beam="1">  1       -3 0.51592846E-02 0.13454044E+03</pdfrwt>
<totfact> 0.11956676E+03</totfact>
</mgrwt>
</event>
<event>
 7    1  0.6095443E-006  0.1253313E+03  0.7546771E-02  0.1250050E+00
          2   -1    0    0  501    0  0.00000000000E+00  0.00000000000E+00  0.24368186472E+03  0.24368186472E+03  0.00000000000E+00 0. -1.
         -2   -1    0    0    0  501 -0.00000000000E+00 -0.00000000000E+00 -0.48316390138E+02  0.48316390138E+02  0.00000000000E+00 0.  1.
         23    2    1    2    0    0  0.77974190418E+01 -0.46633445030E+01  0.10877938503E+03  0.16595446162E+03  0.12500152878E+03 0.  0.
          5    1    3    3  502    0 -0.45794358350E+02 -0.39875473237E+02  0.56708112992E+02  0.83217045740E+02  0.47000000000E+01 0.  1.
         -5    1    3    3    0  502  0.53591777391E+02  0.35212128734E+02  0.52071272039E+02  0.82737415876E+02  0.47000000000E+01 0.  1.
        -11    1    1    2    0    0  0.66785691076E+01  0.42282931255E+02  0.17890258934E+02  0.46395160584E+02  0.00000000000E+00 0.  1.
         11    1    1    2    0    0 -0.14475988149E+02 -0.37619586752E+02  0.68695830621E+02  0.79648632663E+02  0.00000000000E+00 0. -1.
<mgrwt>
<rscale>  0 0.11588150E+03</rscale>
<asrwt>0</asrwt>
<pdfrwt beam="1">  1        2 0.37489517E-01 0.12533128E+03</pdfrwt>
<pdfrwt beam="2">  1       -2 0.74332909E-02 0.12533128E+03</pdfrwt>
<totfact> 0.13572880E+04</totfact>
</mgrwt>
</event>
<event>
 7    1  0.6095443E-006  0.1339430E+03  0.7546771E-02  0.1235147E+00
         -3   -1    0    0    0  501 -0.00000000000E+00  0.00000000000E+00  0.23487909115E+03  0.23487909115E+03  0.00000000000E+00 0.  1.
          3   -1    0    0  501    0  0.00000000000E+00 -0.00000000000E+00 -0.60287450867E+02  0.60287450867E+02  0.00000000000E+00 0. -1.
         23    2    1    2    0    0  0.44122253790E+02 -0.19209871786E+02  0.12069973787E+03  0.18030295613E+03  0.12499974726E+03 0.  0.
          5    1    3    3  502    0  0.53951738199E+02  0.82242614209E+01  0.13631467365E+03  0.14690884515E+03  0.47000000000E+01 0.  1.
         -5    1    3    3    0  502 -0.98294844091E+01 -0.27434133207E+02 -0.15614935785E+02  0.33394110980E+02  0.47000000000E+01 0.  1.
        -11    1    1    2    0    0 -0.21735733640E+02  0.76960433691E+01 -0.23834285366E+02  0.33162393751E+02  0.00000000000E+00 0. -1.
         11    1    1    2    0    0 -0.22386520150E+02  0.11513828417E+02  0.77726187784E+02  0.81701192137E+02  0.00000000000E+00 0.  1.
<mgrwt>
<rscale>  0 0.12495059E+03</rscale>
<asrwt>0</asrwt>
<pdfrwt beam="2">  1        3 0.92749925E-02 0.13394301E+03</pdfrwt>
<pdfrwt beam="1">  1       -3 0.36135244E-01 0.13394301E+03</pdfrwt>
<totfact> 0.14488515E+03</totfact>
</mgrwt>
</event>
<event>
 7    1  0.6095443E-006  0.1298461E+03  0.7546771E-02  0.1241526E+00
         -1   -1    0    0    0  501 -0.00000000000E+00  0.00000000000E+00  0.47810308013E+02  0.47810308013E+02  0.00000000000E+00 0.  1.
          1   -1    0    0  501    0  0.00000000000E+00 -0.00000000000E+00 -0.35861058102E+03  0.35861058102E+03  0.00000000000E+00 0. -1.
         23    2    1    2    0    0 -0.16760564194E+02  0.31150066249E+02 -0.72214081018E+02  0.14857615842E+03  0.12493501596E+03 0.  0.
          5    1    3    3  502    0 -0.54341650539E+02  0.53755059395E+02 -0.71033995128E+02  0.10445352966E+03  0.47000000000E+01 0.  1.
         -5    1    3    3    0  502  0.37581086345E+02 -0.22604993146E+02 -0.11800858897E+01  0.44122628760E+02  0.47000000000E+01 0.  1.
        -11    1    1    2    0    0  0.49618832817E+02 -0.23749660161E+02 -0.89928558333E+02  0.10541926072E+03  0.00000000000E+00 0.  1.
         11    1    1    2    0    0 -0.32858268623E+02 -0.74004060875E+01 -0.14865763366E+03  0.15242546989E+03  0.00000000000E+00 0. -1.
<mgrwt>
<rscale>  0 0.12095724E+03</rscale>
<asrwt>0</asrwt>
<pdfrwt beam="2">  1        1 0.55170857E-01 0.12984607E+03</pdfrwt>
<pdfrwt beam="1">  1       -1 0.73554322E-02 0.12984607E+03</pdfrwt>
<totfact> 0.65101249E+03</totfact>
</mgrwt>
</event>
<event>
 7    1  0.6095443E-006  0.1315856E+03  0.7546771E-02  0.1245564E+00
         -1   -1    0    0    0  501 -0.00000000000E+00  0.00000000000E+00  0.35451473561E+02  0.35451473561E+02  0.00000000000E+00 0.  1.
          1   -1    0    0  501    0  0.00000000000E+00 -0.00000000000E+00 -0.34951987060E+03  0.34951987060E+03  0.00000000000E+00 0. -1.
         23    2    1    2    0    0 -0.39898455839E+02 -0.98855994149E+01 -0.15063729559E+03  0.20001592281E+03  0.12500065080E+03 0.  0.
          5    1    3    3  502    0 -0.59326859722E+02 -0.26070564805E+02 -0.15996543181E+03  0.17265682729E+03  0.47000000000E+01 0. -1.
         -5    1    3    3    0  502  0.19428403883E+02  0.16184965390E+02  0.93281362269E+01  0.27359095519E+02  0.47000000000E+01 0. -1.
        -11    1    1    2    0    0 -0.62229221814E+01  0.32624650116E+02 -0.84050188973E+02  0.90374370383E+02  0.00000000000E+00 0. -1.
         11    1    1    2    0    0  0.46121378020E+02 -0.22739050701E+02 -0.79380912483E+02  0.94581050977E+02  0.00000000000E+00 0.  1.
<mgrwt>
<rscale>  0 0.11851687E+03</rscale>
<asrwt>0</asrwt>
<pdfrwt beam="2">  1        1 0.53772285E-01 0.13158562E+03</pdfrwt>
<pdfrwt beam="1">  1       -1 0.54540731E-02 0.13158562E+03</pdfrwt>
<totfact> 0.10510921E+04</totfact>
</mgrwt>
</event>
<event>
 7    1  0.6095443E-006  0.1435301E+03  0.7546771E-02  0.1218694E+00
          2   -1    0    0  501    0  0.00000000000E+00  0.00000000000E+00  0.39124238518E+02  0.39124238518E+02  0.00000000000E+00 0.  1.
         -2   -1    0    0    0  501 -0.00000000000E+00 -0.00000000000E+00 -0.45068137460E+03  0.45068137460E+03  0.00000000000E+00 0. -1.
         23    2    1    2    0    0 -0.14845563550E+01  0.70540411241E+02 -0.27834044199E+03  0.31316814549E+03  0.12499092838E+03 0.  0.
          5    1    3    3  502    0 -0.15219695254E+02  0.35381775763E+02 -0.73138631938E+01  0.39485336197E+02  0.47000000000E+01 0.  1.
         -5    1    3    3    0  502  0.13735138899E+02  0.35158635478E+02 -0.27102657879E+03  0.27368280929E+03  0.47000000000E+01 0.  1.
        -11    1    1    2    0    0 -0.21519032309E+02 -0.11319507685E+02 -0.10382912349E+03  0.10663811181E+03  0.00000000000E+00 0. -1.
         11    1    1    2    0    0  0.23003588664E+02 -0.59220903556E+02 -0.29387570610E+02  0.69999355824E+02  0.00000000000E+00 0.  1.
<mgrwt>
<rscale>  0 0.13608619E+03</rscale>
<asrwt>0</asrwt>
<pdfrwt beam="1">  1        2 0.60191136E-02 0.14353009E+03</pdfrwt>
<pdfrwt beam="2">  1       -2 0.69335596E-01 0.14353009E+03</pdfrwt>
<totfact> 0.23083810E+03</totfact>
</mgrwt>
</event>
<event>
 7    1  0.6095443E-006  0.1324015E+03  0.7546771E-02  0.1236378E+00
          2   -1    0    0  501    0  0.00000000000E+00  0.00000000000E+00  0.41182751194E+03  0.41182751194E+03  0.00000000000E+00 0. -1.
         -2   -1    0    0    0  501 -0.00000000000E+00 -0.00000000000E+00 -0.33517699080E+02  0.33517699080E+02  0.00000000000E+00 0.  1.
         23    2    1    2    0    0  0.66993607413E+01 -0.43134808687E+02  0.20495767552E+03  0.24400372616E+03  0.12499870589E+03 0.  0.
          5    1    3    3  502    0  0.61947353981E+02 -0.13967585847E+02  0.66707544272E+02  0.92220141957E+02  0.47000000000E+01 0. -1.
         -5    1    3    3    0  502 -0.55247993240E+02 -0.29167222840E+02  0.13825013125E+03  0.15178358421E+03  0.47000000000E+01 0. -1.
        -11    1    1    2    0    0 -0.13980350550E+02 -0.24134185650E+02  0.88639214852E+02  0.92923729629E+02  0.00000000000E+00 0.  1.
         11    1    1    2    0    0  0.72809898086E+01  0.67268994337E+02  0.84712922486E+02  0.10841775522E+03  0.00000000000E+00 0. -1.
<mgrwt>
<rscale>  0 0.12416621E+03</rscale>
<asrwt>0</asrwt>
<pdfrwt beam="1">  1        2 0.63358075E-01 0.13240155E+03</pdfrwt>
<pdfrwt beam="2">  1       -2 0.51565694E-02 0.13240155E+03</pdfrwt>
<totfact> 0.13612135E+04</totfact>
</mgrwt>
</event>
<event>
 7    1  0.6335669E-006  0.1868761E+03  0.7546771E-02  0.1166141E+00
          1   -1    0    0  501    0  0.00000000000E+00  0.00000000000E+00  0.57576109641E+03  0.57576109641E+03  0.00000000000E+00 0. -1.
         -1   -1    0    0    0  501 -0.00000000000E+00 -0.00000000000E+00 -0.56343090358E+02  0.56343090358E+02  0.00000000000E+00 0.  1.
         23    2    1    2    0    0 -0.93425948094E+02  0.10280818366E+03  0.21527437648E+03  0.28507148164E+03  0.12499904828E+03 0.  0.
          5    1    3    3  502    0 -0.32854463458E+02 -0.27312152227E+02  0.43088312261E+02  0.60861006251E+02  0.47000000000E+01 0.  1.
         -5    1    3    3    0  502 -0.60571484636E+02  0.13012033588E+03  0.17218606422E+03  0.22421047539E+03  0.47000000000E+01 0.  1.
        -11    1    1    2    0    0 -0.11438512484E+02 -0.46845489912E+02  0.84671577731E+02  0.97440317982E+02  0.00000000000E+00 0.  1.
         11    1    1    2    0    0  0.10486446058E+03 -0.55962693745E+02  0.21947205183E+03  0.24959238714E+03  0.00000000000E+00 0. -1.
<mgrwt>
<rscale>  0 0.18172767E+03</rscale>
<asrwt>0</asrwt>
<pdfrwt beam="1">  1        1 0.88578626E-01 0.18687614E+03</pdfrwt>
<pdfrwt beam="2">  1       -1 0.86681681E-02 0.18687614E+03</pdfrwt>
<totfact> 0.27987224E+03</totfact>
</mgrwt>
</event>
<event>
 7    1  0.6095443E-006  0.1603143E+03  0.7546771E-02  0.1196047E+00
          2   -1    0    0  501    0  0.00000000000E+00  0.00000000000E+00  0.12509569012E+03  0.12509569012E+03  0.00000000000E+00 0. -1.
         -2   -1    0    0    0  501 -0.00000000000E+00 -0.00000000000E+00 -0.27533538536E+03  0.27533538536E+03  0.00000000000E+00 0.  1.
         23    2    1    2    0    0  0.99779498515E+02  0.10592188709E+02 -0.19994927027E+03  0.25628185584E+03  0.12503014104E+03 0.  0.
          5    1    3    3  502    0  0.90269368376E+02 -0.44246198675E+02 -0.15393542130E+03  0.18391435207E+03  0.47000000000E+01 0. -1.
         -5    1    3    3    0  502  0.95101301391E+01  0.54838387384E+02 -0.46013848963E+02  0.72367503775E+02  0.47000000000E+01 0. -1.
        -11    1    1    2    0    0 -0.23939348349E+02  0.23121875356E+01 -0.26552022249E+02  0.35825249421E+02  0.00000000000E+00 0.  1.
         11    1    1    2    0    0 -0.75840150166E+02 -0.12904376244E+02  0.76261597277E+02  0.10832397021E+03  0.00000000000E+00 0. -1.
<mgrwt>
<rscale>  0 0.15365943E+03</rscale>
<asrwt>0</asrwt>
<pdfrwt beam="1">  1        2 0.19245491E-01 0.16031431E+03</pdfrwt>
<pdfrwt beam="2">  1       -2 0.42359290E-01 0.16031431E+03</pdfrwt>
<totfact> 0.15200945E+03</totfact>
</mgrwt>
</event>
<event>
 7    1  0.6095443E-006  0.1302363E+03  0.7546771E-02  0.1240699E+00
          1   -1    0    0  501    0  0.00000000000E+00  0.00000000000E+00  0.41967444685E+02  0.41967444685E+02  0.00000000000E+00 0. -1.
         -1   -1    0    0    0  501 -0.00000000000E+00 -0.00000000000E+00 -0.31427025504E+03  0.31427025504E+03  0.00000000000E+00 0.  1.
         23    2    1    2    0    0  0.22521214368E+02  0.28784854788E+02 -0.17055815953E+03  0.21459634397E+03  0.12500292837E+03 0.  0.
          5    1    3    3  502    0  0.32381654446E+01  0.77451637386E+02 -0.10338188309E+03  0.12930253517E+03  0.47000000000E+01 0.  1.
         -5    1    3    3    0  502  0.19283048923E+02 -0.48666782598E+02 -0.67176276442E+02  0.85293808807E+02  0.47000000000E+01 0.  1.
        -11    1    1    2    0    0 -0.27793695148E+02  0.18690832529E+02 -0.51584918681E+01  0.33888740740E+02  0.00000000000E+00 0. -1.
         11    1    1    2    0    0  0.52724807801E+01 -0.47475687317E+02 -0.96586158953E+02  0.10775261501E+03  0.00000000000E+00 0.  1.
<mgrwt>
<rscale>  0 0.12146558E+03</rscale>
<asrwt>0</asrwt>
<pdfrwt beam="1">  1        1 0.64565302E-02 0.13023634E+03</pdfrwt>
<pdfrwt beam="2">  1       -1 0.48349268E-01 0.13023634E+03</pdfrwt>
<totfact> 0.48594795E+03</totfact>
</mgrwt>
</event>
<event>
 6    1  0.6095443E-006  0.5228216E+03  0.7546771E-02  0.1045989E+00
          2   -1    0    0  501    0  0.00000000000E+00  0.00000000000E+00  0.11642774671E+04  0.11642774671E+04  0.00000000000E+00 0. -1.
         -2   -1    0    0    0  501 -0.00000000000E+00 -0.00000000000E+00 -0.10746603908E+03  0.10746603908E+03  0.00000000000E+00 0.  1.
          5    1    1    2  502    0  0.85953602646E+02  0.12540864516E+03  0.54692189100E+03  0.56768036336E+03  0.47000000000E+01 0. -1.
         -5    1    1    2    0  502 -0.22759796201E+03 -0.11148804182E+03  0.12198224526E+03  0.28130441508E+03  0.47000000000E+01 0.  1.
        -11    1    1    2    0    0 -0.11064833706E+02  0.68299132617E+01  0.19744676503E+02  0.23641711239E+02  0.00000000000E+00 0.  1.
         11    1    1    2    0    0  0.15270919307E+03 -0.20750516598E+02  0.36816261527E+03  0.39911701652E+03  0.00000000000E+00 0. -1.
<mgrwt>
<rscale>  0 0.39368418E+03</rscale>
<asrwt>0</asrwt>
<pdfrwt beam="1">  1        2 0.17911960E+00 0.52282159E+03</pdfrwt>
<pdfrwt beam="2">  1       -2 0.16533238E-01 0.52282159E+03</pdfrwt>
<totfact> 0.60120371E+02</totfact>
</mgrwt>
</event>
<event>
 7    1  0.6095443E-006  0.1356147E+03  0.7546771E-02  0.1231382E+00
         -1   -1    0    0    0  501 -0.00000000000E+00  0.00000000000E+00  0.63865732386E+02  0.63865732386E+02  0.00000000000E+00 0.  1.
          1   -1    0    0  501    0  0.00000000000E+00 -0.00000000000E+00 -0.27742253059E+03  0.27742253059E+03  0.00000000000E+00 0. -1.
         23    2    1    2    0    0  0.50745673556E+02 -0.13828082495E+02 -0.45935198360E+02  0.14318303782E+03  0.12500000249E+03 0.  0.
          5    1    3    3  502    0 -0.95548954477E+01 -0.32241657773E+02  0.29343042408E+02  0.44876771951E+02  0.47000000000E+01 0. -1.
         -5    1    3    3    0  502  0.60300569003E+02  0.18413575278E+02 -0.75278240768E+02  0.98306265872E+02  0.47000000000E+01 0. -1.
        -11    1    1    2    0    0 -0.32095563165E+02 -0.16551088472E+02 -0.15672244143E+03  0.16082906253E+03  0.00000000000E+00 0. -1.
         11    1    1    2    0    0 -0.18650110390E+02  0.30379170967E+02 -0.10899158413E+02  0.37276162629E+02  0.00000000000E+00 0.  1.
<mgrwt>
<rscale>  0 0.12738930E+03</rscale>
<asrwt>0</asrwt>
<pdfrwt beam="2">  1        1 0.42680389E-01 0.13561467E+03</pdfrwt>
<pdfrwt beam="1">  1       -1 0.98254975E-02 0.13561467E+03</pdfrwt>
<totfact> 0.57921933E+03</totfact>
</mgrwt>
</event>
<event>
 7    1  0.6095443E-006  0.1386644E+03  0.7546771E-02  0.1226923E+00
         -2   -1    0    0    0  501 -0.00000000000E+00  0.00000000000E+00  0.14192171668E+03  0.14192171668E+03  0.00000000000E+00 0.  1.
          2   -1    0    0  501    0  0.00000000000E+00 -0.00000000000E+00 -0.11025149544E+03  0.11025149544E+03  0.00000000000E+00 0. -1.
         23    2    1    2    0    0  0.12839033476E+02  0.58469851793E+02  0.37687076981E+02  0.14369457732E+03  0.12507698201E+03 0.  0.
          5    1    3    3  502    0  0.15157215131E+02  0.14775547149E+02  0.79854448863E+02  0.82745881875E+02  0.47000000000E+01 0.  1.
         -5    1    3    3    0  502 -0.23181816546E+01  0.43694304643E+02 -0.42167371882E+02  0.60948695440E+02  0.47000000000E+01 0.  1.
        -11    1    1    2    0    0  0.23275176237E+02  0.25176068351E+01 -0.25852513009E+02  0.34877279165E+02  0.00000000000E+00 0. -1.
         11    1    1    2    0    0 -0.36114209714E+02 -0.60987458628E+02  0.19835657264E+02  0.73601355641E+02  0.00000000000E+00 0.  1.
<mgrwt>
<rscale>  0 0.13035945E+03</rscale>
<asrwt>0</asrwt>
<pdfrwt beam="2">  1        2 0.16961768E-01 0.13866440E+03</pdfrwt>
<pdfrwt beam="1">  1       -2 0.21834110E-01 0.13866440E+03</pdfrwt>
<totfact> 0.57841922E+03</totfact>
</mgrwt>
</event>
<event>
 7    1  0.6095443E-006  0.1801737E+03  0.7546771E-02  0.1173145E+00
          4   -1    0    0  501    0  0.00000000000E+00  0.00000000000E+00  0.32082914134E+03  0.32082914134E+03  0.00000000000E+00 0. -1.
         -4   -1    0    0    0  501 -0.00000000000E+00 -0.00000000000E+00 -0.10157682222E+03  0.10157682222E+03  0.00000000000E+00 0.  1.
         23    2    1    2    0    0 -0.12893067505E+03  0.14681972019E+02  0.43201551626E+02  0.18528066641E+03  0.12499548796E+03 0.  0.
          5    1    3    3  502    0 -0.86085332572E+02 -0.39913512537E+01  0.85923760587E+02  0.12178504835E+03  0.47000000000E+01 0.  1.
         -5    1    3    3    0  502 -0.42845342480E+02  0.18673323273E+02 -0.42722208961E+02  0.63495618060E+02  0.47000000000E+01 0.  1.
        -11    1    1    2    0    0  0.71262112729E+02  0.26355498859E+02  0.45335049341E+02  0.88476933318E+02  0.00000000000E+00 0.  1.
         11    1    1    2    0    0  0.57668562324E+02 -0.41037470878E+02  0.13071571816E+03  0.14864836383E+03  0.00000000000E+00 0. -1.
<mgrwt>
<rscale>  0 0.17458941E+03</rscale>
<asrwt>0</asrwt>
<pdfrwt beam="1">  1        4 0.49358329E-01 0.18017367E+03</pdfrwt>
<pdfrwt beam="2">  1       -4 0.15627204E-01 0.18017367E+03</pdfrwt>
<totfact> 0.24435347E+02</totfact>
</mgrwt>
</event>
<event>
 7    1  0.6095443E-006  0.1475861E+03  0.7546771E-02  0.1213055E+00
         -1   -1    0    0    0  501 -0.00000000000E+00  0.00000000000E+00  0.33908044881E+02  0.33908044881E+02  0.00000000000E+00 0.  1.
          1   -1    0    0  501    0  0.00000000000E+00 -0.00000000000E+00 -0.52871340189E+03  0.52871340189E+03  0.00000000000E+00 0. -1.
         23    2    1    2    0    0 -0.78371596428E+02  0.40795696491E+01 -0.27173131397E+03  0.30922410960E+03  0.12499157151E+03 0.  0.
          5    1    3    3  502    0 -0.11031087917E+03 -0.12415460523E+02 -0.21204150355E+03  0.23938739096E+03  0.47000000000E+01 0.  1.
         -5    1    3    3    0  502  0.31939282737E+02  0.16495030172E+02 -0.59689810424E+02  0.69836718642E+02  0.47000000000E+01 0.  1.
        -11    1    1    2    0    0  0.47130297180E+01  0.17373449807E+02 -0.53946343207E+00  0.18009453854E+02  0.00000000000E+00 0.  1.
         11    1    1    2    0    0  0.73658566710E+02 -0.21453019456E+02 -0.22253457961E+03  0.23538788332E+03  0.00000000000E+00 0. -1.
<mgrwt>
<rscale>  0 0.14020408E+03</rscale>
<asrwt>0</asrwt>
<pdfrwt beam="2">  1        1 0.81340520E-01 0.14758605E+03</pdfrwt>
<pdfrwt beam="1">  1       -1 0.52166225E-02 0.14758605E+03</pdfrwt>
<totfact> 0.66695441E+03</totfact>
</mgrwt>
</event>
<event>
 7    1  0.6095443E-006  0.1318896E+03  0.7546771E-02  0.1246726E+00
         -4   -1    0    0    0  501 -0.00000000000E+00  0.00000000000E+00  0.28203798479E+03  0.28203798479E+03  0.00000000000E+00 0.  1.
          4   -1    0    0  501    0  0.00000000000E+00 -0.00000000000E+00 -0.55460627102E+02  0.55460627102E+02  0.00000000000E+00 0. -1.
         23    2    1    2    0    0 -0.29511974725E+02 -0.58772600909E+02  0.21564170905E+03  0.25277697705E+03  0.11432269317E+03 0.  0.
          5    1    3    3  502    0 -0.48657946863E+02  0.50688904370E+01  0.35454235270E+02  0.60600183512E+02  0.47000000000E+01 0. -1.
         -5    1    3    3    0  502  0.19145972138E+02 -0.63841491346E+02  0.18018747378E+03  0.19217679354E+03  0.47000000000E+01 0.  1.
        -11    1    1    2    0    0  0.61844503854E+01  0.55011913139E+02 -0.59533195626E+01  0.55677643876E+02  0.00000000000E+00 0. -1.
         11    1    1    2    0    0  0.23327524339E+02  0.37606877701E+01  0.16888968195E+02  0.29043990962E+02  0.00000000000E+00 0.  1.
<mgrwt>
<rscale>  0 0.11782685E+03</rscale>
<asrwt>0</asrwt>
<pdfrwt beam="2">  1        4 0.85324044E-02 0.13188955E+03</pdfrwt>
<pdfrwt beam="1">  1       -4 0.43390458E-01 0.13188955E+03</pdfrwt>
<totfact> 0.84291007E+02</totfact>
</mgrwt>
</event>
<event>
 7    1  0.6095443E-006  0.1424192E+03  0.7546771E-02  0.1220628E+00
          1   -1    0    0  501    0  0.00000000000E+00  0.00000000000E+00  0.12046484820E+03  0.12046484820E+03  0.00000000000E+00 0. -1.
         -1   -1    0    0    0  501 -0.00000000000E+00 -0.00000000000E+00 -0.17384190022E+03  0.17384190022E+03  0.00000000000E+00 0.  1.
         23    2    1    2    0    0  0.55042658671E+02 -0.40374098902E+02 -0.96925057065E+02  0.17227212810E+03  0.12499382903E+03 0.  0.
          5    1    3    3  502    0 -0.29759199063E+02 -0.46867147456E+02 -0.50838002229E+02  0.75423682688E+02  0.47000000000E+01 0.  1.
         -5    1    3    3    0  502  0.84801857734E+02  0.64930485546E+01 -0.46087054836E+02  0.96848445409E+02  0.47000000000E+01 0.  1.
        -11    1    1    2    0    0 -0.21121382231E+02  0.40165481060E+02 -0.20316205092E+02  0.49720487181E+02  0.00000000000E+00 0.  1.
         11    1    1    2    0    0 -0.33921276440E+02  0.20861784122E+00  0.63864210128E+02  0.72314133142E+02  0.00000000000E+00 0. -1.
<mgrwt>
<rscale>  0 0.13471087E+03</rscale>
<asrwt>0</asrwt>
<pdfrwt beam="1">  1        1 0.18533054E-01 0.14241917E+03</pdfrwt>
<pdfrwt beam="2">  1       -1 0.26744908E-01 0.14241917E+03</pdfrwt>
<totfact> 0.33840918E+03</totfact>
</mgrwt>
</event>
<event>
 7    1  0.6095443E-006  0.1370528E+03  0.7546771E-02  0.1228662E+00
         -1   -1    0    0    0  501 -0.00000000000E+00  0.00000000000E+00  0.93992342985E+02  0.93992342985E+02  0.00000000000E+00 0.  1.
          1   -1    0    0  501    0  0.00000000000E+00 -0.00000000000E+00 -0.17207965441E+03  0.17207965441E+03  0.00000000000E+00 0. -1.
         23    2    1    2    0    0 -0.44903620787E+02 -0.33216496629E+02 -0.82820941083E+01  0.13730277842E+03  0.12515506011E+03 0.  0.
          5    1    3    3  502    0  0.17930970285E+02  0.37609926256E+02  0.18111055018E+01  0.41968992738E+02  0.47000000000E+01 0.  1.
         -5    1    3    3    0  502 -0.62834591072E+02 -0.70826422884E+02 -0.10093199610E+02  0.95333785680E+02  0.47000000000E+01 0.  1.
        -11    1    1    2    0    0  0.37874819288E+02  0.10317668960E+02 -0.89518404905E+02  0.97747128068E+02  0.00000000000E+00 0. -1.
         11    1    1    2    0    0  0.70288014993E+01  0.22898827668E+02  0.19713187591E+02  0.31022090905E+02  0.00000000000E+00 0.  1.
<mgrwt>
<rscale>  0 0.12919022E+03</rscale>
<asrwt>0</asrwt>
<pdfrwt beam="2">  1        1 0.26473793E-01 0.13705276E+03</pdfrwt>
<pdfrwt beam="1">  1       -1 0.14460361E-01 0.13705276E+03</pdfrwt>
<totfact> 0.57750762E+03</totfact>
</mgrwt>
</event>
<event>
 7    1  0.6095443E-006  0.1368876E+03  0.7546771E-02  0.1228626E+00
         -3   -1    0    0    0  501 -0.00000000000E+00  0.00000000000E+00  0.16423933096E+03  0.16423933096E+03  0.00000000000E+00 0.  1.
          3   -1    0    0  501    0  0.00000000000E+00 -0.00000000000E+00 -0.10101781664E+03  0.10101781664E+03  0.00000000000E+00 0. -1.
         23    2    1    2    0    0  0.55583633763E+02 -0.49172393240E+01  0.74748222652E+02  0.15596638677E+03  0.12499798970E+03 0.  0.
          5    1    3    3  502    0 -0.71644601650E+01  0.26319711833E+02  0.80844547253E+02  0.85451667866E+02  0.47000000000E+01 0. -1.
         -5    1    3    3    0  502  0.62748093928E+02 -0.31236951157E+02 -0.60963246012E+01  0.70514718909E+02  0.47000000000E+01 0. -1.
        -11    1    1    2    0    0 -0.29007085372E+02 -0.19646078307E+02 -0.46996302513E+02  0.58617675189E+02  0.00000000000E+00 0. -1.
         11    1    1    2    0    0 -0.26576548391E+02  0.24563317631E+02  0.35469594179E+02  0.50673085643E+02  0.00000000000E+00 0.  1.
<mgrwt>
<rscale>  0 0.12921464E+03</rscale>
<asrwt>0</asrwt>
<pdfrwt beam="2">  1        3 0.15541203E-01 0.13688761E+03</pdfrwt>
<pdfrwt beam="1">  1       -3 0.25267589E-01 0.13688761E+03</pdfrwt>
<totfact> 0.11861955E+03</totfact>
</mgrwt>
</event>
<event>
 7    1  0.6095443E-006  0.1621815E+03  0.7546771E-02  0.1194049E+00
          3   -1    0    0  501    0  0.00000000000E+00  0.00000000000E+00  0.16975655988E+03  0.16975655988E+03  0.00000000000E+00 0. -1.
         -3   -1    0    0    0  501 -0.00000000000E+00 -0.00000000000E+00 -0.13658572264E+03  0.13658572264E+03  0.00000000000E+00 0.  1.
         23    2    1    2    0    0 -0.55809832779E+02 -0.86939397223E+02 -0.11753548456E+02  0.16260682750E+03  0.12501855152E+03 0.  0.
          5    1    3    3  502    0 -0.10555463736E+01 -0.21760495498E+02  0.51720245722E+02  0.56317911538E+02  0.47000000000E+01 0. -1.
         -5    1    3    3    0  502 -0.54754286405E+02 -0.65178901725E+02 -0.63473794178E+02  0.10628891597E+03  0.47000000000E+01 0. -1.
        -11    1    1    2    0    0  0.39997519079E+02  0.83186558910E+02 -0.37911811670E+01  0.92380615772E+02  0.00000000000E+00 0.  1.
         11    1    1    2    0    0  0.15812313699E+02  0.37528383136E+01  0.48715566860E+02  0.51354839251E+02  0.00000000000E+00 0. -1.
<mgrwt>
<rscale>  0 0.15535012E+03</rscale>
<asrwt>0</asrwt>
<pdfrwt beam="1">  1        3 0.26116394E-01 0.16218149E+03</pdfrwt>
<pdfrwt beam="2">  1       -3 0.21013188E-01 0.16218149E+03</pdfrwt>
<totfact> 0.67680942E+02</totfact>
</mgrwt>
</event>
<event>
 6    1  0.6095443E-006  0.2125479E+03  0.7546771E-02  0.1172459E+00
          2   -1    0    0  501    0  0.00000000000E+00  0.00000000000E+00  0.12279915037E+04  0.12279915037E+04  0.00000000000E+00 0. -1.
         -2   -1    0    0    0  501 -0.00000000000E+00 -0.00000000000E+00 -0.19674423696E+02  0.19674423696E+02  0.00000000000E+00 0.  1.
          5    1    1    2  502    0  0.18751524101E+02  0.53927203816E+02  0.83598627665E+03  0.83794684063E+03  0.47000000000E+01 0. -1.
         -5    1    1    2    0  502 -0.16160771711E+02 -0.17177879697E+02 -0.59861208036E+00  0.24056151596E+02  0.47000000000E+01 0.  1.
        -11    1    1    2    0    0 -0.30098033543E+02 -0.52729069028E+02  0.30023723369E+03  0.30631461414E+03  0.00000000000E+00 0.  1.
         11    1    1    2    0    0  0.27507281153E+02  0.15979744909E+02  0.72692181744E+02  0.79348321031E+02  0.00000000000E+00 0. -1.
<mgrwt>
<rscale>  0 0.17527187E+03</rscale>
<asrwt>0</asrwt>
<pdfrwt beam="1">  1        2 0.18892171E+00 0.21254790E+03</pdfrwt>
<pdfrwt beam="2">  1       -2 0.30268354E-02 0.21254790E+03</pdfrwt>
<totfact> 0.79733329E+03</totfact>
</mgrwt>
</event>
<event>
 7    1  0.6095443E-006  0.1271867E+03  0.7546771E-02  0.1243619E+00
          1   -1    0    0  501    0  0.00000000000E+00  0.00000000000E+00  0.25110148057E+02  0.25110148057E+02  0.00000000000E+00 0. -1.
         -1   -1    0    0    0  501 -0.00000000000E+00 -0.00000000000E+00 -0.51342197461E+03  0.51342197461E+03  0.00000000000E+00 0.  1.
         23    2    1    2    0    0  0.82318984893E+01 -0.22000895637E+02 -0.26326130767E+03  0.29237472327E+03  0.12499863650E+03 0.  0.
          5    1    3    3  502    0 -0.97943656887E+01 -0.49318418009E+02 -0.25265173970E+03  0.25764942757E+03  0.47000000000E+01 0.  1.
         -5    1    3    3    0  502  0.18026264178E+02  0.27317522372E+02 -0.10609567974E+02  0.34725295699E+02  0.47000000000E+01 0.  1.
        -11    1    1    2    0    0 -0.24235867497E+02  0.39136675196E+02 -0.21627861162E+03  0.22112325627E+03  0.00000000000E+00 0.  1.
         11    1    1    2    0    0  0.16003969007E+02 -0.17135779559E+02 -0.87719072564E+01  0.25034143125E+02  0.00000000000E+00 0. -1.
<mgrwt>
<rscale>  0 0.11968395E+03</rscale>
<asrwt>0</asrwt>
<pdfrwt beam="1">  1        1 0.38631000E-02 0.12718672E+03</pdfrwt>
<pdfrwt beam="2">  1       -1 0.78987989E-01 0.12718672E+03</pdfrwt>
<totfact> 0.38205375E+03</totfact>
</mgrwt>
</event>
<event>
 7    1  0.6095443E-006  0.1276217E+03  0.7546771E-02  0.1244744E+00
         -2   -1    0    0    0  501 -0.00000000000E+00  0.00000000000E+00  0.70721401270E+02  0.70721401270E+02  0.00000000000E+00 0.  1.
          2   -1    0    0  501    0  0.00000000000E+00 -0.00000000000E+00 -0.23268131897E+03  0.23268131897E+03  0.00000000000E+00 0. -1.
         23    2    1    2    0    0 -0.23690894012E+02  0.99942391913E+01 -0.16272171079E+02  0.12865486438E+03  0.12500458912E+03 0.  0.
          5    1    3    3  502    0 -0.53703020175E+02  0.52584547618E+02 -0.95383969017E+01  0.75909288230E+02  0.47000000000E+01 0. -1.
         -5    1    3    3    0  502  0.30012126164E+02 -0.42590308426E+02 -0.67337741776E+01  0.52745576150E+02  0.47000000000E+01 0. -1.
        -11    1    1    2    0    0  0.51352815151E+02 -0.19421991986E+02 -0.48485188339E+02  0.73247108372E+02  0.00000000000E+00 0.  1.
         11    1    1    2    0    0 -0.27661921140E+02  0.94277527947E+01 -0.97202558282E+02  0.10150074749E+03  0.00000000000E+00 0. -1.
<mgrwt>
<rscale>  0 0.11900715E+03</rscale>
<asrwt>0</asrwt>
<pdfrwt beam="2">  1        2 0.35797126E-01 0.12762167E+03</pdfrwt>
<pdfrwt beam="1">  1       -2 0.10880216E-01 0.12762167E+03</pdfrwt>
<totfact> 0.78939865E+03</totfact>
</mgrwt>
</event>
<event>
 7    1  0.6095443E-006  0.1308448E+03  0.7546771E-02  0.1239662E+00
         -2   -1    0    0    0  501 -0.00000000000E+00  0.00000000000E+00  0.32732056699E+03  0.32732056699E+03  0.00000000000E+00 0.  1.
          2   -1    0    0  501    0  0.00000000000E+00 -0.00000000000E+00 -0.43635956116E+02  0.43635956116E+02  0.00000000000E+00 0. -1.
         23    2    1    2    0    0 -0.29306814656E+02  0.25245541030E+02  0.20970258996E+03  0.24717513804E+03  0.12499658357E+03 0.  0.
          5    1    3    3  502    0  0.11368846999E+02  0.60920933447E+02  0.54207287603E+02  0.82468968973E+02  0.47000000000E+01 0. -1.
         -5    1    3    3    0  502 -0.40675661655E+02 -0.35675392418E+02  0.15549530236E+03  0.16470616907E+03  0.47000000000E+01 0. -1.
        -11    1    1    2    0    0  0.35428225818E+02  0.62980259541E+00 -0.90704561025E+01  0.36576344949E+02  0.00000000000E+00 0. -1.
         11    1    1    2    0    0 -0.61214111615E+01 -0.25875343625E+02  0.83052477016E+02  0.87205040111E+02  0.00000000000E+00 0.  1.
<mgrwt>
<rscale>  0 0.12210647E+03</rscale>
<asrwt>0</asrwt>
<pdfrwt beam="2">  1        2 0.67132242E-02 0.13084484E+03</pdfrwt>
<pdfrwt beam="1">  1       -2 0.50357009E-01 0.13084484E+03</pdfrwt>
<totfact> 0.38413641E+03</totfact>
</mgrwt>
</event>
<event>
 7    1  0.6095443E-006  0.1350963E+03  0.7546771E-02  0.1232178E+00
          1   -1    0    0  501    0  0.00000000000E+00  0.00000000000E+00  0.19214711411E+03  0.19214711411E+03  0.00000000000E+00 0. -1.
         -1   -1    0    0    0  501 -0.00000000000E+00 -0.00000000000E+00 -0.78842208011E+02  0.78842208011E+02  0.00000000000E+00 0.  1.
         23    2    1    2    0    0 -0.50935439410E+02 -0.79390634109E+01  0.33886628420E+02  0.13928141032E+03  0.12487417651E+03 0.  0.
          5    1    3    3  502    0 -0.23442473091E+02  0.42627200997E+02 -0.26608206976E+02  0.55648131037E+02  0.47000000000E+01 0.  1.
         -5    1    3    3    0  502 -0.27492966320E+02 -0.50566264408E+02  0.60494835396E+02  0.83633279278E+02  0.47000000000E+01 0.  1.
        -11    1    1    2    0    0 -0.25191168768E+02  0.72178143189E+01  0.34467361331E+02  0.43297699992E+02  0.00000000000E+00 0.  1.
         11    1    1    2    0    0  0.76126608178E+02  0.72124909200E+00  0.44950916352E+02  0.88410211819E+02  0.00000000000E+00 0. -1.
<mgrwt>
<rscale>  0 0.12686806E+03</rscale>
<asrwt>0</asrwt>
<pdfrwt beam="1">  1        1 0.29561094E-01 0.13509629E+03</pdfrwt>
<pdfrwt beam="2">  1       -1 0.12129571E-01 0.13509629E+03</pdfrwt>
<totfact> 0.66061350E+03</totfact>
</mgrwt>
</event>
<event>
 7    1  0.6095443E-006  0.2008225E+03  0.7546771E-02  0.1152213E+00
          1   -1    0    0  501    0  0.00000000000E+00  0.00000000000E+00  0.16273913457E+03  0.16273913457E+03  0.00000000000E+00 0. -1.
         -1   -1    0    0    0  501 -0.00000000000E+00 -0.00000000000E+00 -0.23167102435E+03  0.23167102435E+03  0.00000000000E+00 0.  1.
         23    2    1    2    0    0  0.13981518197E+03  0.71805321874E+02 -0.20307858281E+02  0.20184665054E+03  0.12500148747E+03 0.  0.
          5    1    3    3  502    0  0.15333914350E+03  0.55464378560E+02  0.11268153076E+02  0.16351835216E+03  0.47000000000E+01 0. -1.
         -5    1    3    3    0  502 -0.13523961532E+02  0.16340943314E+02 -0.31576011357E+02  0.38328298385E+02  0.47000000000E+01 0. -1.
        -11    1    1    2    0    0 -0.49055037248E+02 -0.63957638916E+02  0.14277461811E+02  0.81858549772E+02  0.00000000000E+00 0. -1.
         11    1    1    2    0    0 -0.90760144722E+02 -0.78476829580E+01 -0.62901493308E+02  0.11070495860E+03  0.00000000000E+00 0.  1.
<mgrwt>
<rscale>  0 0.19709521E+03</rscale>
<asrwt>0</asrwt>
<pdfrwt beam="1">  1        1 0.25036790E-01 0.20082246E+03</pdfrwt>
<pdfrwt beam="2">  1       -1 0.35641696E-01 0.20082246E+03</pdfrwt>
<totfact> 0.14358233E+03</totfact>
</mgrwt>
</event>
<event>
 7    1  0.6095443E-006  0.1507549E+03  0.7546771E-02  0.1206708E+00
         -2   -1    0    0    0  501 -0.00000000000E+00  0.00000000000E+00  0.12953384112E+03  0.12953384112E+03  0.00000000000E+00 0.  1.
          2   -1    0    0  501    0  0.00000000000E+00 -0.00000000000E+00 -0.16029884973E+03  0.16029884973E+03  0.00000000000E+00 0. -1.
         23    2    1    2    0    0  0.84379968254E+02 -0.31944104034E+02  0.17905422590E+02  0.15181449405E+03  0.12077512832E+03 0.  0.
          5    1    3    3  502    0  0.67215130049E+02  0.28452481316E+02 -0.23068951174E+02  0.76692137203E+02  0.47000000000E+01 0. -1.
         -5    1    3    3    0  502  0.17164838206E+02 -0.60396585350E+02  0.40974373764E+02  0.75122356845E+02  0.47000000000E+01 0.  1.
        -11    1    1    2    0    0 -0.40842576397E+02  0.12120673003E+02 -0.72868133068E+02  0.84408480483E+02  0.00000000000E+00 0. -1.
         11    1    1    2    0    0 -0.43537391858E+02  0.19823431031E+02  0.24197701873E+02  0.53609716317E+02  0.00000000000E+00 0.  1.
<mgrwt>
<rscale>  0 0.14503698E+03</rscale>
<asrwt>0</asrwt>
<pdfrwt beam="2">  1        2 0.24661361E-01 0.15075489E+03</pdfrwt>
<pdfrwt beam="1">  1       -2 0.19928283E-01 0.15075489E+03</pdfrwt>
<totfact> 0.44504234E+03</totfact>
</mgrwt>
</event>
<event>
 6    1  0.6095443E-006  0.1762829E+03  0.7546771E-02  0.1197025E+00
         -1   -1    0    0    0  501 -0.00000000000E+00  0.00000000000E+00  0.42400541482E+02  0.42400541482E+02  0.00000000000E+00 0.  1.
          1   -1    0    0  501    0  0.00000000000E+00 -0.00000000000E+00 -0.44971971533E+03  0.44971971533E+03  0.00000000000E+00 0. -1.
          5    1    1    2  502    0  0.72219645001E+02 -0.90415312704E+01 -0.16024936652E+03  0.17606639623E+03  0.47000000000E+01 0. -1.
         -5    1    1    2    0  502 -0.90034318370E+02 -0.25670614125E+02 -0.89302634681E+02  0.12946895178E+03  0.47000000000E+01 0.  1.
        -11    1    1    2    0    0 -0.37695701823E+02  0.13267518558E+02 -0.58485545758E+02  0.70834681104E+02  0.00000000000E+00 0.  1.
         11    1    1    2    0    0  0.55510375192E+02  0.21444626837E+02 -0.99281626887E+02  0.11575022770E+03  0.00000000000E+00 0. -1.
<mgrwt>
<rscale>  0 0.15284118E+03</rscale>
<asrwt>0</asrwt>
<pdfrwt beam="2">  1        1 0.69187647E-01 0.17628286E+03</pdfrwt>
<pdfrwt beam="1">  1       -1 0.65231604E-02 0.17628286E+03</pdfrwt>
<totfact> 0.59570989E+03</totfact>
</mgrwt>
</event>
<event>
 7    1  0.6095443E-006  0.1263293E+03  0.7546771E-02  0.1247806E+00
         -2   -1    0    0    0  501 -0.00000000000E+00  0.00000000000E+00  0.62692762122E+02  0.62692762122E+02  0.00000000000E+00 0.  1.
          2   -1    0    0  501    0  0.00000000000E+00 -0.00000000000E+00 -0.19282216084E+03  0.19282216084E+03  0.00000000000E+00 0. -1.
         23    2    1    2    0    0 -0.77717463321E+01  0.16540172126E+02 -0.73240756451E+02  0.14602501366E+03  0.12500047549E+03 0.  0.
          5    1    3    3  502    0  0.32283199148E+02 -0.27744208008E+02  0.95128541583E+01  0.43869470244E+02  0.47000000000E+01 0.  1.
         -5    1    3    3    0  502 -0.40054945480E+02  0.44284380134E+02 -0.82753610610E+02  0.10215554341E+03  0.47000000000E+01 0.  1.
        -11    1    1    2    0    0  0.39935276819E+02 -0.14635661634E+02  0.17650012614E+01  0.42569286528E+02  0.00000000000E+00 0.  1.
         11    1    1    2    0    0 -0.32163530487E+02 -0.19045104919E+01 -0.58653643532E+02  0.66920622780E+02  0.00000000000E+00 0. -1.
<mgrwt>
<rscale>  0 0.11718980E+03</rscale>
<asrwt>0</asrwt>
<pdfrwt beam="2">  1        2 0.29664948E-01 0.12632932E+03</pdfrwt>
<pdfrwt beam="1">  1       -2 0.96450403E-02 0.12632932E+03</pdfrwt>
<totfact> 0.11664411E+04</totfact>
</mgrwt>
</event>
<event>
 7    1  0.6095443E-006  0.1307287E+03  0.7546771E-02  0.1240309E+00
          1   -1    0    0  501    0  0.00000000000E+00  0.00000000000E+00  0.22438451674E+03  0.22438451674E+03  0.00000000000E+00 0. -1.
         -1   -1    0    0    0  501 -0.00000000000E+00 -0.00000000000E+00 -0.58401095594E+02  0.58401095594E+02  0.00000000000E+00 0.  1.
         23    2    1    2    0    0 -0.10721063601E+00 -0.38278099670E+02  0.93238872448E+02  0.16057232486E+03  0.12499903906E+03 0.  0.
          5    1    3    3  502    0 -0.22454429459E+02 -0.24303794536E+02 -0.23465658487E+02  0.40836294633E+02  0.47000000000E+01 0. -1.
         -5    1    3    3    0  502  0.22347218823E+02 -0.13974305133E+02  0.11670453093E+03  0.11973603022E+03  0.47000000000E+01 0. -1.
        -11    1    1    2    0    0 -0.85683007562E+01  0.54534831631E+02  0.90924210270E+01  0.55947616205E+02  0.00000000000E+00 0. -1.
         11    1    1    2    0    0  0.86755113922E+01 -0.16256731961E+02  0.63652127667E+02  0.66265671267E+02  0.00000000000E+00 0.  1.
<mgrwt>
<rscale>  0 0.12170602E+03</rscale>
<asrwt>0</asrwt>
<pdfrwt beam="1">  1        1 0.34520694E-01 0.13072867E+03</pdfrwt>
<pdfrwt beam="2">  1       -1 0.89847841E-02 0.13072867E+03</pdfrwt>
<totfact> 0.86041591E+03</totfact>
</mgrwt>
</event>
<event>
 7    1  0.6095443E-006  0.1337979E+03  0.7546771E-02  0.1228249E+00
         -2   -1    0    0    0  501 -0.00000000000E+00  0.00000000000E+00  0.28620911958E+02  0.28620911958E+02  0.00000000000E+00 0.  1.
          2   -1    0    0  501    0  0.00000000000E+00 -0.00000000000E+00 -0.57901887626E+03  0.57901887626E+03  0.00000000000E+00 0. -1.
         23    2    1    2    0    0 -0.27905206402E+02  0.68038743316E+02 -0.22537578926E+03  0.26209944653E+03  0.11177612603E+03 0.  0.
          5    1    3    3  502    0  0.20879073147E+01  0.45732566345E+01 -0.17603364472E+03  0.17616812454E+03  0.47000000000E+01 0. -1.
         -5    1    3    3    0  502 -0.29993113717E+02  0.63465486682E+02 -0.49342144540E+02  0.85931321984E+02  0.47000000000E+01 0.  1.
        -11    1    1    2    0    0  0.45112578755E+02 -0.82154608002E+02 -0.23996060649E+03  0.25761525002E+03  0.00000000000E+00 0. -1.
         11    1    1    2    0    0 -0.17207372353E+02  0.14115864686E+02 -0.85061568560E+02  0.87925091669E+02  0.00000000000E+00 0.  1.
<mgrwt>
<rscale>  0 0.12946702E+03</rscale>
<asrwt>0</asrwt>
<pdfrwt beam="2">  1        2 0.89079819E-01 0.13379788E+03</pdfrwt>
<pdfrwt beam="1">  1       -2 0.44032176E-02 0.13379788E+03</pdfrwt>
<totfact> 0.11882574E+04</totfact>
</mgrwt>
</event>
<event>
 7    1  0.6095443E-006  0.2184974E+03  0.7546771E-02  0.1138393E+00
         -1   -1    0    0    0  501 -0.00000000000E+00  0.00000000000E+00  0.31181783304E+02  0.31181783304E+02  0.00000000000E+00 0.  1.
          1   -1    0    0  501    0  0.00000000000E+00 -0.00000000000E+00 -0.14976810054E+04  0.14976810054E+04  0.00000000000E+00 0. -1.
         23    2    1    2    0    0 -0.15098018141E+03  0.96552629055E+02 -0.57971675386E+03  0.61952614206E+03  0.12499480242E+03 0.  0.
          5    1    3    3  502    0 -0.54508734213E+02  0.10428195247E+03 -0.37461157537E+03  0.39268543406E+03  0.47000000000E+01 0.  1.
         -5    1    3    3    0  502 -0.96471447193E+02 -0.77293234161E+01 -0.20510517849E+03  0.22684070800E+03  0.47000000000E+01 0.  1.
        -11    1    1    2    0    0  0.36309331123E+02 -0.51374062167E+02 -0.15554900308E+03  0.16778901677E+03  0.00000000000E+00 0.  1.
         11    1    1    2    0    0  0.11467085028E+03 -0.45178566888E+02 -0.73123346516E+03  0.74154762988E+03  0.00000000000E+00 0. -1.
<mgrwt>
<rscale>  0 0.21405729E+03</rscale>
<asrwt>0</asrwt>
<pdfrwt beam="2">  1        1 0.23041244E+00 0.21849743E+03</pdfrwt>
<pdfrwt beam="1">  1       -1 0.47971979E-02 0.21849743E+03</pdfrwt>
<totfact> 0.13483789E+03</totfact>
</mgrwt>
</event>
<event>
 6    1  0.6095443E-006  0.1797968E+03  0.7546771E-02  0.1197317E+00
         -3   -1    0    0    0  501 -0.00000000000E+00  0.00000000000E+00  0.17539511971E+03  0.17539511971E+03  0.00000000000E+00 0.  1.
          3   -1    0    0  501    0  0.00000000000E+00 -0.00000000000E+00 -0.15613229879E+03  0.15613229879E+03  0.00000000000E+00 0. -1.
          5    1    1    2  502    0 -0.44813863602E+02 -0.62358196704E+02  0.29652553943E+02  0.82451143245E+02  0.47000000000E+01 0. -1.
         -5    1    1    2    0  502  0.65084483347E+02  0.77116282240E+02  0.72448810637E+02  0.12431343902E+03  0.47000000000E+01 0.  1.
        -11    1    1    2    0    0  0.15631467956E+02 -0.59258736400E+01  0.13554955554E+02  0.21521979206E+02  0.00000000000E+00 0.  1.
         11    1    1    2    0    0 -0.35902087701E+02 -0.88322118960E+01 -0.96393499214E+02  0.10324085702E+03  0.00000000000E+00 0. -1.
<mgrwt>
<rscale>  0 0.15259789E+03</rscale>
<asrwt>0</asrwt>
<pdfrwt beam="2">  1        3 0.24020353E-01 0.17979684E+03</pdfrwt>
<pdfrwt beam="1">  1       -3 0.26983865E-01 0.17979684E+03</pdfrwt>
<totfact> 0.50846663E+02</totfact>
</mgrwt>
</event>
<event>
 7    1  0.6095443E-006  0.1518978E+03  0.7546771E-02  0.1206544E+00
          1   -1    0    0  501    0  0.00000000000E+00  0.00000000000E+00  0.46968152330E+03  0.46968152330E+03  0.00000000000E+00 0. -1.
         -1   -1    0    0    0  501 -0.00000000000E+00 -0.00000000000E+00 -0.42849705507E+02  0.42849705507E+02  0.00000000000E+00 0.  1.
         23    2    1    2    0    0 -0.58978785723E+02 -0.63011631731E+02  0.18371173499E+03  0.23837563983E+03  0.12499592471E+03 0.  0.
          5    1    3    3  502    0 -0.14724740117E+02 -0.37971510230E+02 -0.64286092984E+01  0.41497838235E+02  0.47000000000E+01 0. -1.
         -5    1    3    3    0  502 -0.44254045606E+02 -0.25040121501E+02  0.19014034428E+03  0.19687780160E+03  0.47000000000E+01 0. -1.
        -11    1    1    2    0    0  0.78899918595E+02  0.59364414722E+02  0.15530361133E+03  0.18403407994E+03  0.00000000000E+00 0.  1.
         11    1    1    2    0    0 -0.19921132872E+02  0.36472170094E+01  0.87816471483E+02  0.90121509034E+02  0.00000000000E+00 0. -1.
<mgrwt>
<rscale>  0 0.14516477E+03</rscale>
<asrwt>0</asrwt>
<pdfrwt beam="1">  1        1 0.72258692E-01 0.15189781E+03</pdfrwt>
<pdfrwt beam="2">  1       -1 0.65922627E-02 0.15189781E+03</pdfrwt>
<totfact> 0.55003023E+03</totfact>
</mgrwt>
</event>
<event>
 7    1  0.6095443E-006  0.3302035E+03  0.7546771E-02  0.1071850E+00
          1   -1    0    0  501    0  0.00000000000E+00  0.00000000000E+00  0.77098373732E+03  0.77098373732E+03  0.00000000000E+00 0. -1.
         -1   -1    0    0    0  501 -0.00000000000E+00 -0.00000000000E+00 -0.17298081121E+03  0.17298081121E+03  0.00000000000E+00 0.  1.
         23    2    1    2    0    0  0.29648265260E+03 -0.89283693692E+02  0.90498034393E+02  0.34238023876E+03  0.11472049692E+03 0.  0.
          5    1    3    3  502    0  0.57203408620E+02  0.24476294742E+02  0.35352689620E+02  0.71716257748E+02  0.47000000000E+01 0. -1.
         -5    1    3    3    0  502  0.23927924398E+03 -0.11375998843E+03  0.55145344772E+02  0.27066398101E+03  0.47000000000E+01 0.  1.
        -11    1    1    2    0    0 -0.62158930126E+02  0.41612301137E+02  0.67282788669E+02  0.10060959125E+03  0.00000000000E+00 0.  1.
         11    1    1    2    0    0 -0.23432372248E+03  0.47671392555E+02  0.44022210304E+03  0.50097471852E+03  0.00000000000E+00 0. -1.
<mgrwt>
<rscale>  0 0.32839298E+03</rscale>
<asrwt>0</asrwt>
<pdfrwt beam="1">  1        1 0.11861288E+00 0.33020347E+03</pdfrwt>
<pdfrwt beam="2">  1       -1 0.26612433E-01 0.33020347E+03</pdfrwt>
<totfact> 0.30621042E+02</totfact>
</mgrwt>
</event>
<event>
 7    1  0.6095443E-006  0.1709400E+03  0.7546771E-02  0.1182186E+00
         -1   -1    0    0    0  501 -0.00000000000E+00  0.00000000000E+00  0.35648752098E+02  0.35648752098E+02  0.00000000000E+00 0.  1.
          1   -1    0    0  501    0  0.00000000000E+00 -0.00000000000E+00 -0.80392697798E+03  0.80392697798E+03  0.00000000000E+00 0. -1.
         23    2    1    2    0    0  0.89210293822E+02 -0.75077642930E+02 -0.27779481287E+03  0.32617549444E+03  0.12500146449E+03 0.  0.
          5    1    3    3  502    0  0.55461259808E+02  0.26910576939E+02 -0.12346115197E+03  0.13807561891E+03  0.47000000000E+01 0. -1.
         -5    1    3    3    0  502  0.33749034014E+02 -0.10198821987E+03 -0.15433366090E+03  0.18809987553E+03  0.47000000000E+01 0. -1.
        -11    1    1    2    0    0 -0.30321557256E+02  0.79542383505E+02 -0.20680708421E+03  0.22364158309E+03  0.00000000000E+00 0.  1.
         11    1    1    2    0    0 -0.58888736566E+02 -0.44647405757E+01 -0.28367632881E+03  0.28975865255E+03  0.00000000000E+00 0. -1.
<mgrwt>
<rscale>  0 0.16590618E+03</rscale>
<asrwt>0</asrwt>
<pdfrwt beam="2">  1        1 0.12368107E+00 0.17094003E+03</pdfrwt>
<pdfrwt beam="1">  1       -1 0.54844237E-02 0.17094003E+03</pdfrwt>
<totfact> 0.34506685E+03</totfact>
</mgrwt>
</event>
<event>
 6    1  0.6095443E-006  0.1492433E+03  0.7546771E-02  0.1213431E+00
         -1   -1    0    0    0  501 -0.00000000000E+00  0.00000000000E+00  0.34703391066E+03  0.34703391066E+03  0.00000000000E+00 0.  1.
          1   -1    0    0  501    0  0.00000000000E+00 -0.00000000000E+00 -0.89996498170E+02  0.89996498170E+02  0.00000000000E+00 0. -1.
          5    1    1    2  502    0 -0.64313980462E+01 -0.24314826232E+02  0.14870110935E+01  0.25629569983E+02  0.47000000000E+01 0. -1.
         -5    1    1    2    0  502  0.74221587909E+02  0.43380759635E+02  0.28050062960E+03  0.29341681551E+03  0.47000000000E+01 0.  1.
        -11    1    1    2    0    0 -0.68279945845E+02  0.31331851559E+01 -0.49867054839E+02  0.84609048051E+02  0.00000000000E+00 0. -1.
         11    1    1    2    0    0  0.48975598156E+00 -0.22199118558E+02  0.24916826627E+02  0.33374975279E+02  0.00000000000E+00 0.  1.
<mgrwt>
<rscale>  0 0.13992435E+03</rscale>
<asrwt>0</asrwt>
<pdfrwt beam="2">  1        1 0.13845615E-01 0.14924331E+03</pdfrwt>
<pdfrwt beam="1">  1       -1 0.53389832E-01 0.14924331E+03</pdfrwt>
<totfact> 0.14789629E+03</totfact>
</mgrwt>
</event>
<event>
 6    1  0.6095443E-006  0.2283466E+03  0.7546771E-02  0.1143016E+00
         -1   -1    0    0    0  501 -0.00000000000E+00  0.00000000000E+00  0.56838006369E+03  0.56838006369E+03  0.00000000000E+00 0.  1.
          1   -1    0    0  501    0  0.00000000000E+00 -0.00000000000E+00 -0.54946495367E+03  0.54946495367E+03  0.00000000000E+00 0. -1.
          5    1    1    2  502    0 -0.89868769522E+02  0.56074739955E+02  0.18884715381E+03  0.21657818380E+03  0.47000000000E+01 0. -1.
         -5    1    1    2    0  502  0.10529816218E+03  0.49152601633E+02  0.34428456784E+03  0.36339735119E+03  0.47000000000E+01 0.  1.
        -11    1    1    2    0    0 -0.47429344817E+02 -0.41770372662E+02 -0.10520154720E+03  0.12272600505E+03  0.00000000000E+00 0.  1.
         11    1    1    2    0    0  0.31999952160E+02 -0.63456968925E+02 -0.40901506441E+03  0.41514347732E+03  0.00000000000E+00 0. -1.
<mgrwt>
<rscale>  0 0.20817945E+03</rscale>
<asrwt>0</asrwt>
<pdfrwt beam="2">  1        1 0.84533069E-01 0.22834664E+03</pdfrwt>
<pdfrwt beam="1">  1       -1 0.87443087E-01 0.22834664E+03</pdfrwt>
<totfact> 0.55083664E+01</totfact>
</mgrwt>
</event>
<event>
 7    1  0.6095443E-006  0.1322826E+03  0.7546771E-02  0.1236490E+00
         -1   -1    0    0    0  501 -0.00000000000E+00  0.00000000000E+00  0.22753627205E+03  0.22753627205E+03  0.00000000000E+00 0.  1.
          1   -1    0    0  501    0  0.00000000000E+00 -0.00000000000E+00 -0.60569205128E+02  0.60569205128E+02  0.00000000000E+00 0. -1.
         23    2    1    2    0    0 -0.28080357652E+02 -0.32950960751E+02  0.90938316829E+02  0.16052558561E+03  0.12499765545E+03 0.  0.
          5    1    3    3  502    0  0.23334293589E+02  0.13024946394E+01  0.95470364620E+02  0.98401556239E+02  0.47000000000E+01 0.  1.
         -5    1    3    3    0  502 -0.51414651241E+02 -0.34253455390E+02 -0.45320477908E+01  0.62124029374E+02  0.47000000000E+01 0.  1.
        -11    1    1    2    0    0 -0.29651490672E+02  0.21935999677E+02  0.81149372247E+01  0.37765740918E+02  0.00000000000E+00 0. -1.
         11    1    1    2    0    0  0.57731848324E+02  0.11014961074E+02  0.67913812869E+02  0.89814150649E+02  0.00000000000E+00 0.  1.
<mgrwt>
<rscale>  0 0.12409559E+03</rscale>
<asrwt>0</asrwt>
<pdfrwt beam="2">  1        1 0.93183393E-02 0.13228260E+03</pdfrwt>
<pdfrwt beam="1">  1       -1 0.35005580E-01 0.13228260E+03</pdfrwt>
<totfact> 0.52513637E+03</totfact>
</mgrwt>
</event>
<event>
 7    1  0.6095443E-006  0.1372534E+03  0.7546771E-02  0.1228886E+00
         -2   -1    0    0    0  501 -0.00000000000E+00  0.00000000000E+00  0.51821756802E+03  0.51821756802E+03  0.00000000000E+00 0.  1.
          2   -1    0    0  501    0  0.00000000000E+00 -0.00000000000E+00 -0.29209404953E+02  0.29209404953E+02  0.00000000000E+00 0. -1.
         23    2    1    2    0    0  0.54025408847E+02  0.17164419829E+02  0.30482820348E+03  0.33430336520E+03  0.12500057697E+03 0.  0.
          5    1    3    3  502    0  0.90493595093E+02  0.16866544935E+02  0.26261592330E+03  0.27832136867E+03  0.47000000000E+01 0.  1.
         -5    1    3    3    0  502 -0.36468186246E+02  0.29787489392E+00  0.42212280178E+02  0.55981996529E+02  0.47000000000E+01 0.  1.
        -11    1    1    2    0    0  0.22777324725E+02  0.28567699283E+01  0.18753531498E+02  0.29642243500E+02  0.00000000000E+00 0. -1.
         11    1    1    2    0    0 -0.76802733572E+02 -0.20021189757E+02  0.16542642810E+03  0.18348136428E+03  0.00000000000E+00 0.  1.
<mgrwt>
<rscale>  0 0.12904075E+03</rscale>
<asrwt>0</asrwt>
<pdfrwt beam="2">  1        2 0.44937550E-02 0.13725344E+03</pdfrwt>
<pdfrwt beam="1">  1       -2 0.79725773E-01 0.13725344E+03</pdfrwt>
<totfact> 0.24935428E+03</totfact>
</mgrwt>
</event>
<event>
 7    1  0.6095443E-006  0.1361514E+03  0.7546771E-02  0.1230619E+00
          2   -1    0    0  501    0  0.00000000000E+00  0.00000000000E+00  0.12354322462E+03  0.12354322462E+03  0.00000000000E+00 0. -1.
         -2   -1    0    0    0  501 -0.00000000000E+00 -0.00000000000E+00 -0.11930598258E+03  0.11930598258E+03  0.00000000000E+00 0.  1.
         23    2    1    2    0    0  0.50244699034E+02  0.19629168712E+02 -0.65186037731E+01  0.13630733569E+03  0.12500945374E+03 0.  0.
          5    1    3    3  502    0 -0.26050449829E+02  0.38189706947E+02 -0.28653880353E+02  0.54591341001E+02  0.47000000000E+01 0.  1.
         -5    1    3    3    0  502  0.76295148863E+02 -0.18560538235E+02  0.22135276580E+02  0.81715994694E+02  0.47000000000E+01 0.  1.
        -11    1    1    2    0    0 -0.64747943377E+02  0.42854787785E+01 -0.17061319495E+02  0.67095082702E+02  0.00000000000E+00 0.  1.
         11    1    1    2    0    0  0.14503244343E+02 -0.23914647490E+02  0.27817165312E+02  0.39446788806E+02  0.00000000000E+00 0. -1.
<mgrwt>
<rscale>  0 0.12789115E+03</rscale>
<asrwt>0</asrwt>
<pdfrwt beam="1">  1        2 0.19006650E-01 0.13615138E+03</pdfrwt>
<pdfrwt beam="2">  1       -2 0.18354767E-01 0.13615138E+03</pdfrwt>
<totfact> 0.68025837E+03</totfact>
</mgrwt>
</event>
<event>
 7    1  0.6095443E-006  0.1345412E+03  0.7546771E-02  0.1233722E+00
         -1   -1    0    0    0  501 -0.00000000000E+00  0.00000000000E+00  0.33599552279E+03  0.33599552279E+03  0.00000000000E+00 0.  1.
          1   -1    0    0  501    0  0.00000000000E+00 -0.00000000000E+00 -0.48310461404E+02  0.48310461404E+02  0.00000000000E+00 0. -1.
         23    2    1    2    0    0  0.92759525295E+01  0.48890186909E+02  0.22931194001E+03  0.26586706044E+03  0.12500013730E+03 0.  0.
          5    1    3    3  502    0  0.54362007069E+02  0.76417348005E+01  0.17671042814E+03  0.18510075456E+03  0.47000000000E+01 0.  1.
         -5    1    3    3    0  502 -0.45086054540E+02  0.41248452108E+02  0.52601511862E+02  0.80766305880E+02  0.47000000000E+01 0.  1.
        -11    1    1    2    0    0 -0.33955260550E+02 -0.10646933330E+02  0.63342042948E+02  0.72653501727E+02  0.00000000000E+00 0.  1.
         11    1    1    2    0    0  0.24679308020E+02 -0.38243253578E+02 -0.49689215703E+01  0.45785422027E+02  0.00000000000E+00 0. -1.
<mgrwt>
<rscale>  0 0.12586611E+03</rscale>
<asrwt>0</asrwt>
<pdfrwt beam="2">  1        1 0.74323789E-02 0.13454118E+03</pdfrwt>
<pdfrwt beam="1">  1       -1 0.51691617E-01 0.13454118E+03</pdfrwt>
<totfact> 0.35651571E+03</totfact>
</mgrwt>
</event>
<event>
 7    1  0.6095443E-006  0.1738083E+03  0.7546771E-02  0.1179943E+00
          1   -1    0    0  501    0  0.00000000000E+00  0.00000000000E+00  0.41962162266E+02  0.41962162266E+02  0.00000000000E+00 0. -1.
         -1   -1    0    0    0  501 -0.00000000000E+00 -0.00000000000E+00 -0.82224434147E+03  0.82224434147E+03  0.00000000000E+00 0.  1.
         23    2    1    2    0    0 -0.11767784685E+03  0.27137734528E+02 -0.61825976866E+03  0.64222617535E+03  0.12499914595E+03 0.  0.
          5    1    3    3  502    0 -0.10074210276E+03 -0.49567569715E+01 -0.21745675800E+03  0.23975627689E+03  0.47000000000E+01 0.  1.
         -5    1    3    3    0  502 -0.16935744084E+02  0.32094491499E+02 -0.40080301066E+03  0.40246989846E+03  0.47000000000E+01 0.  1.
        -11    1    1    2    0    0  0.11102650428E+03  0.20448832893E+01 -0.15593994092E+03  0.19143753910E+03  0.00000000000E+00 0.  1.
         11    1    1    2    0    0  0.66513425641E+01 -0.29182617817E+02 -0.60824696177E+01  0.30542789283E+02  0.00000000000E+00 0. -1.
<mgrwt>
<rscale>  0 0.16800626E+03</rscale>
<asrwt>0</asrwt>
<pdfrwt beam="1">  1        1 0.64557176E-02 0.17380828E+03</pdfrwt>
<pdfrwt beam="2">  1       -1 0.12649912E+00 0.17380828E+03</pdfrwt>
<totfact> 0.67614470E+02</totfact>
</mgrwt>
</event>
<event>
 7    1  0.6095443E-006  0.1676148E+03  0.7546771E-02  0.1187092E+00
         -2   -1    0    0    0  501 -0.00000000000E+00  0.00000000000E+00  0.13600291118E+03  0.13600291118E+03  0.00000000000E+00 0.  1.
          2   -1    0    0  501    0  0.00000000000E+00 -0.00000000000E+00 -0.28912156313E+03  0.28912156313E+03  0.00000000000E+00 0. -1.
         23    2    1    2    0    0  0.10639641217E+03 -0.33915734219E+02  0.51001128122E+02  0.17520230573E+03  0.12499703722E+03 0.  0.
          5    1    3    3  502    0  0.92952194013E+02 -0.88234913712E+01 -0.22571559445E+02  0.96174475135E+02  0.47000000000E+01 0. -1.
         -5    1    3    3    0  502  0.13444218159E+02 -0.25092242848E+02  0.73572687568E+02  0.79027830598E+02  0.47000000000E+01 0. -1.
        -11    1    1    2    0    0 -0.28409929395E+02  0.46762485637E+02 -0.40050616330E+02  0.67807861046E+02  0.00000000000E+00 0. -1.
         11    1    1    2    0    0 -0.77986482777E+02 -0.12846751418E+02 -0.16406916374E+03  0.18211430753E+03  0.00000000000E+00 0.  1.
<mgrwt>
<rscale>  0 0.16142930E+03</rscale>
<asrwt>0</asrwt>
<pdfrwt beam="2">  1        2 0.44480240E-01 0.16761483E+03</pdfrwt>
<pdfrwt beam="1">  1       -2 0.20923525E-01 0.16761483E+03</pdfrwt>
<totfact> 0.21737368E+03</totfact>
</mgrwt>
</event>
<event>
 7    1  0.6095443E-006  0.1445261E+03  0.7546771E-02  0.1217368E+00
          1   -1    0    0  501    0  0.00000000000E+00  0.00000000000E+00  0.86656797646E+03  0.86656797646E+03  0.00000000000E+00 0. -1.
         -1   -1    0    0    0  501 -0.00000000000E+00 -0.00000000000E+00 -0.19712987083E+02  0.19712987083E+02  0.00000000000E+00 0.  1.
         23    2    1    2    0    0 -0.25964379862E+02 -0.67739672192E+02  0.47645907993E+03  0.49789661767E+03  0.12499989933E+03 0.  0.
          5    1    3    3  502    0 -0.26644613397E+02  0.33532389117E+02  0.14852707251E+03  0.15465037281E+03  0.47000000000E+01 0.  1.
         -5    1    3    3    0  502  0.68023353492E+00 -0.10127206131E+03  0.32793200742E+03  0.34324624486E+03  0.47000000000E+01 0.  1.
        -11    1    1    2    0    0 -0.30477066068E+02  0.45770652662E+02  0.14787852013E+03  0.15777154660E+03  0.00000000000E+00 0.  1.
         11    1    1    2    0    0  0.56441445930E+02  0.21969019530E+02  0.22251738932E+03  0.23061279927E+03  0.00000000000E+00 0. -1.
<mgrwt>
<rscale>  0 0.13704031E+03</rscale>
<asrwt>0</asrwt>
<pdfrwt beam="1">  1        1 0.13331812E+00 0.14452608E+03</pdfrwt>
<pdfrwt beam="2">  1       -1 0.30327679E-02 0.14452608E+03</pdfrwt>
<totfact> 0.73138386E+03</totfact>
</mgrwt>
</event>
<event>
 7    1  0.6095443E-006  0.1455412E+03  0.7546771E-02  0.1218516E+00
          1   -1    0    0  501    0  0.00000000000E+00  0.00000000000E+00  0.27629052869E+03  0.27629052869E+03  0.00000000000E+00 0. -1.
         -1   -1    0    0    0  501 -0.00000000000E+00 -0.00000000000E+00 -0.60090557022E+02  0.60090557022E+02  0.00000000000E+00 0.  1.
         23    2    1    2    0    0 -0.59716192618E+02  0.44624688070E+02  0.13256829535E+03  0.19686691964E+03  0.12499937867E+03 0.  0.
          5    1    3    3  502    0 -0.82447612530E+02  0.39166629994E+02  0.14389480298E+03  0.17046829043E+03  0.47000000000E+01 0. -1.
         -5    1    3    3    0  502  0.22731419912E+02  0.54580580755E+01 -0.11326507624E+02  0.26398629209E+02  0.47000000000E+01 0. -1.
        -11    1    1    2    0    0  0.45601435431E+02 -0.46306809794E+02  0.99097726362E+02  0.11850810486E+03  0.00000000000E+00 0. -1.
         11    1    1    2    0    0  0.14114757187E+02  0.16821217240E+01 -0.15466050047E+02  0.21006061220E+02  0.00000000000E+00 0.  1.
<mgrwt>
<rscale>  0 0.13621422E+03</rscale>
<asrwt>0</asrwt>
<pdfrwt beam="1">  1        1 0.42506235E-01 0.14554117E+03</pdfrwt>
<pdfrwt beam="2">  1       -1 0.92447012E-02 0.14554117E+03</pdfrwt>
<totfact> 0.64157356E+03</totfact>
</mgrwt>
</event>
<event>
 7    1  0.6095443E-006  0.1432117E+03  0.7546771E-02  0.1218169E+00
          2   -1    0    0  501    0  0.00000000000E+00  0.00000000000E+00  0.47144666622E+03  0.47144666622E+03  0.00000000000E+00 0. -1.
         -2   -1    0    0    0  501 -0.00000000000E+00 -0.00000000000E+00 -0.41765565693E+02  0.41765565693E+02  0.00000000000E+00 0.  1.
         23    2    1    2    0    0 -0.69773754380E+02 -0.37713186726E+01  0.13947059339E+03  0.19990406416E+03  0.12500795496E+03 0.  0.
          5    1    3    3  502    0 -0.37069729375E+02 -0.36029532397E+02 -0.11251292163E+01  0.51919629780E+02  0.47000000000E+01 0. -1.
         -5    1    3    3    0  502 -0.32704025004E+02  0.32258213725E+02  0.14059572260E+03  0.14798443438E+03  0.47000000000E+01 0. -1.
        -11    1    1    2    0    0  0.35911692007E+02 -0.35845969603E+02  0.66723825957E+02  0.83825128153E+02  0.00000000000E+00 0.  1.
         11    1    1    2    0    0  0.33862062373E+02  0.39617288275E+02  0.22348668118E+03  0.22948303960E+03  0.00000000000E+00 0. -1.
<mgrwt>
<rscale>  0 0.13646340E+03</rscale>
<asrwt>0</asrwt>
<pdfrwt beam="1">  1        2 0.72530253E-01 0.14321169E+03</pdfrwt>
<pdfrwt beam="2">  1       -2 0.64254720E-02 0.14321169E+03</pdfrwt>
<totfact> 0.84791223E+03</totfact>
</mgrwt>
</event>
<event>
 7    1  0.6095443E-006  0.1526994E+03  0.7546771E-02  0.1205977E+00
         -2   -1    0    0    0  501 -0.00000000000E+00  0.00000000000E+00  0.48198986344E+02  0.48198986344E+02  0.00000000000E+00 0.  1.
          2   -1    0    0  501    0  0.00000000000E+00 -0.00000000000E+00 -0.42582684613E+03  0.42582684613E+03  0.00000000000E+00 0. -1.
         23    2    1    2    0    0 -0.85203262733E+02  0.20783145222E+02 -0.15185825179E+03  0.21535560262E+03  0.12500228733E+03 0.  0.
          5    1    3    3  502    0  0.32982257380E+01  0.52543290574E+02 -0.28109242487E+02  0.59865642823E+02  0.47000000000E+01 0. -1.
         -5    1    3    3    0  502 -0.88501488471E+02 -0.31760145353E+02 -0.12374900930E+03  0.15548995979E+03  0.47000000000E+01 0. -1.
        -11    1    1    2    0    0  0.61313891642E+02  0.22756131398E+02 -0.72904488305E+02  0.97940284049E+02  0.00000000000E+00 0.  1.
         11    1    1    2    0    0  0.23889371091E+02 -0.43539276620E+02 -0.15286511969E+03  0.16072994581E+03  0.00000000000E+00 0. -1.
<mgrwt>
<rscale>  0 0.14560742E+03</rscale>
<asrwt>0</asrwt>
<pdfrwt beam="2">  1        2 0.65511823E-01 0.15269940E+03</pdfrwt>
<pdfrwt beam="1">  1       -2 0.74152286E-02 0.15269940E+03</pdfrwt>
<totfact> 0.76330321E+03</totfact>
</mgrwt>
</event>
<event>
 6    1  0.6095443E-006  0.1720340E+03  0.7546771E-02  0.1184173E+00
         -1   -1    0    0    0  501 -0.00000000000E+00  0.00000000000E+00  0.16006939865E+03  0.16006939865E+03  0.00000000000E+00 0.  1.
          1   -1    0    0  501    0  0.00000000000E+00 -0.00000000000E+00 -0.22272852930E+03  0.22272852930E+03  0.00000000000E+00 0. -1.
          5    1    1    2  502    0 -0.31068736518E+02 -0.26674605797E+02 -0.21329494923E+02  0.46409463872E+02  0.47000000000E+01 0. -1.
         -5    1    1    2    0  502  0.75988878506E+02 -0.71344104092E+02  0.93668832933E+02  0.14021494609E+03  0.47000000000E+01 0.  1.
        -11    1    1    2    0    0 -0.15639682417E+01  0.98776921620E+02 -0.89162278995E+02  0.13307606185E+03  0.00000000000E+00 0.  1.
         11    1    1    2    0    0 -0.43356173746E+02 -0.75821173091E+00 -0.45836189671E+02  0.63097456134E+02  0.00000000000E+00 0. -1.
<mgrwt>
<rscale>  0 0.16407377E+03</rscale>
<asrwt>0</asrwt>
<pdfrwt beam="2">  1        1 0.34265928E-01 0.17203398E+03</pdfrwt>
<pdfrwt beam="1">  1       -1 0.24626061E-01 0.17203398E+03</pdfrwt>
<totfact> 0.18010375E+03</totfact>
</mgrwt>
</event>
<event>
 7    1  0.6095443E-006  0.1226164E+03  0.7546771E-02  0.1244265E+00
         -3   -1    0    0    0  501 -0.00000000000E+00  0.00000000000E+00  0.88647491595E+02  0.88647491595E+02  0.00000000000E+00 0.  1.
          3   -1    0    0  501    0  0.00000000000E+00 -0.00000000000E+00 -0.16395249914E+03  0.16395249914E+03  0.00000000000E+00 0. -1.
         23    2    1    2    0    0  0.38349051391E+01  0.41265924770E+02 -0.61192558808E+01  0.12276903988E+03  0.11540021151E+03 0.  0.
          5    1    3    3  502    0 -0.34069144541E+01  0.64737920039E+02 -0.43198700700E+02  0.78043725560E+02  0.47000000000E+01 0. -1.
         -5    1    3    3    0  502  0.72418195932E+01 -0.23471995269E+02  0.37079444820E+02  0.44725314321E+02  0.47000000000E+01 0.  1.
        -11    1    1    2    0    0  0.27540323822E+02  0.18215312774E+02  0.45255352357E+00  0.33022293384E+02  0.00000000000E+00 0. -1.
         11    1    1    2    0    0 -0.31375228961E+02 -0.59481237543E+02 -0.69638305193E+02  0.96808657475E+02  0.00000000000E+00 0.  1.
<mgrwt>
<rscale>  0 0.11929501E+03</rscale>
<asrwt>0</asrwt>
<pdfrwt beam="2">  1        3 0.25223461E-01 0.12261644E+03</pdfrwt>
<pdfrwt beam="1">  1       -3 0.13638076E-01 0.12261644E+03</pdfrwt>
<totfact> 0.14594966E+03</totfact>
</mgrwt>
</event>
<event>
 7    1  0.6095443E-006  0.1370088E+03  0.7546771E-02  0.1229827E+00
          1   -1    0    0  501    0  0.00000000000E+00  0.00000000000E+00  0.44017242210E+03  0.44017242210E+03  0.00000000000E+00 0. -1.
         -1   -1    0    0    0  501 -0.00000000000E+00 -0.00000000000E+00 -0.66905637062E+02  0.66905637062E+02  0.00000000000E+00 0.  1.
         23    2    1    2    0    0  0.10515062452E+02 -0.51877293086E+02  0.20164188675E+02  0.13848470184E+03  0.12637087506E+03 0.  0.
          5    1    3    3  502    0  0.11401761194E+02 -0.63604107782E+02  0.65071790608E+02  0.91825435572E+02  0.47000000000E+01 0. -1.
         -5    1    3    3    0  502 -0.88669874225E+00  0.11726814696E+02 -0.44907601933E+02  0.46659266271E+02  0.47000000000E+01 0.  1.
        -11    1    1    2    0    0 -0.20776211294E+02  0.75970198881E+02  0.28315364495E+03  0.29390323020E+03  0.00000000000E+00 0.  1.
         11    1    1    2    0    0  0.10261148842E+02 -0.24092905795E+02  0.69948951419E+02  0.74690127124E+02  0.00000000000E+00 0. -1.
<mgrwt>
<rscale>  0 0.12841471E+03</rscale>
<asrwt>0</asrwt>
<pdfrwt beam="1">  1        1 0.67718832E-01 0.13700883E+03</pdfrwt>
<pdfrwt beam="2">  1       -1 0.10293175E-01 0.13700883E+03</pdfrwt>
<totfact> 0.30313480E+03</totfact>
</mgrwt>
</event>
<event>
 7    1  0.8413507E-006  0.3220910E+03  0.7546771E-02  0.1076008E+00
          1   -1    0    0  501    0  0.00000000000E+00  0.00000000000E+00  0.19361916676E+04  0.19361916676E+04  0.00000000000E+00 0. -1.
         -1   -1    0    0    0  501 -0.00000000000E+00 -0.00000000000E+00 -0.51739815558E+02  0.51739815558E+02  0.00000000000E+00 0.  1.
         23    2    1    2    0    0 -0.22376648712E+03 -0.19505554961E+03  0.93654835928E+03  0.99038650050E+03  0.12499793162E+03 0.  0.
          5    1    3    3  502    0 -0.14634176622E+03 -0.98958642010E+02  0.36349961036E+03  0.40418162019E+03  0.47000000000E+01 0. -1.
         -5    1    3    3    0  502 -0.77424720897E+02 -0.96096907597E+02  0.57304874892E+03  0.58620488030E+03  0.47000000000E+01 0. -1.
        -11    1    1    2    0    0  0.23094207295E+03  0.18208362792E+03  0.87347805142E+03  0.92165752584E+03  0.00000000000E+00 0.  1.
         11    1    1    2    0    0 -0.71755858344E+01  0.12971921691E+02  0.74425441356E+02  0.75887456839E+02  0.00000000000E+00 0. -1.
<mgrwt>
<rscale>  0 0.31922138E+03</rscale>
<asrwt>0</asrwt>
<pdfrwt beam="1">  1        1 0.29787559E+00 0.32209097E+03</pdfrwt>
<pdfrwt beam="2">  1       -1 0.79599731E-02 0.32209097E+03</pdfrwt>
<totfact> 0.31959679E+02</totfact>
</mgrwt>
</event>
<event>
 7    1  0.6095443E-006  0.1893875E+03  0.7546771E-02  0.1163900E+00
          2   -1    0    0  501    0  0.00000000000E+00  0.00000000000E+00  0.13307364163E+04  0.13307364163E+04  0.00000000000E+00 0. -1.
         -2   -1    0    0    0  501 -0.00000000000E+00 -0.00000000000E+00 -0.27169049564E+02  0.27169049564E+02  0.00000000000E+00 0.  1.
         23    2    1    2    0    0 -0.13203353438E+03 -0.52603278728E+02  0.45823827431E+03  0.49583258376E+03  0.12517058737E+03 0.  0.
          5    1    3    3  502    0 -0.10279087027E+03 -0.60847008358E+02  0.18111603210E+03  0.21701020372E+03  0.47000000000E+01 0.  1.
         -5    1    3    3    0  502 -0.29242664116E+02  0.82437296305E+01  0.27712224221E+03  0.27882238004E+03  0.47000000000E+01 0.  1.
        -11    1    1    2    0    0  0.85941513334E+02 -0.14688883476E+02  0.40983065972E+03  0.41900223945E+03  0.00000000000E+00 0.  1.
         11    1    1    2    0    0  0.46092021048E+02  0.67292162204E+02  0.43549843274E+03  0.44307064269E+03  0.00000000000E+00 0. -1.
<mgrwt>
<rscale>  0 0.18409298E+03</rscale>
<asrwt>0</asrwt>
<pdfrwt beam="1">  1        2 0.20472863E+00 0.18938753E+03</pdfrwt>
<pdfrwt beam="2">  1       -2 0.41798548E-02 0.18938753E+03</pdfrwt>
<totfact> 0.43084942E+03</totfact>
</mgrwt>
</event>
<event>
 6    1  0.6095443E-006  0.2616646E+03  0.7546771E-02  0.1106147E+00
         -1   -1    0    0    0  501 -0.00000000000E+00  0.00000000000E+00  0.66414395940E+02  0.66414395940E+02  0.00000000000E+00 0.  1.
          1   -1    0    0  501    0  0.00000000000E+00 -0.00000000000E+00 -0.25773165222E+03  0.25773165222E+03  0.00000000000E+00 0. -1.
          5    1    1    2  502    0  0.21388470783E+02  0.22765936325E+02 -0.74436863540E+02  0.80862174055E+02  0.47000000000E+01 0. -1.
         -5    1    1    2    0  502 -0.30562949886E+02 -0.77220584798E+02  0.12973961661E+01  0.83191861735E+02  0.47000000000E+01 0.  1.
        -11    1    1    2    0    0 -0.32770155421E+02  0.28773783206E+02 -0.15569561889E+02  0.46305776570E+02  0.00000000000E+00 0.  1.
         11    1    1    2    0    0  0.41944634523E+02  0.25680865266E+02 -0.10260822702E+03  0.11378623580E+03  0.00000000000E+00 0. -1.
<mgrwt>
<rscale>  0 0.26166461E+03</rscale>
<asrwt>0</asrwt>
<pdfrwt beam="2">  1        1 0.39651023E-01 0.26166461E+03</pdfrwt>
<pdfrwt beam="1">  1       -1 0.10217600E-01 0.26166461E+03</pdfrwt>
<totfact> 0.62007815E+03</totfact>
</mgrwt>
</event>
<event>
 7    1  0.6095443E-006  0.1310688E+03  0.7546771E-02  0.1241479E+00
          3   -1    0    0  501    0  0.00000000000E+00  0.00000000000E+00  0.37250167404E+03  0.37250167404E+03  0.00000000000E+00 0. -1.
         -3   -1    0    0    0  501 -0.00000000000E+00 -0.00000000000E+00 -0.45616227911E+02  0.45616227911E+02  0.00000000000E+00 0.  1.
         23    2    1    2    0    0  0.37160940832E+01  0.39273157073E+02  0.80063433329E+02  0.15358771757E+03  0.12499137335E+03 0.  0.
          5    1    3    3  502    0  0.34111762910E+02  0.64600296599E+02  0.86401817587E+02  0.11324387300E+03  0.47000000000E+01 0. -1.
         -5    1    3    3    0  502 -0.30395668827E+02 -0.25327139526E+02 -0.63383842580E+01  0.40343844574E+02  0.47000000000E+01 0. -1.
        -11    1    1    2    0    0 -0.21693499445E+02 -0.62160759497E+02  0.16270412163E+03  0.17551979699E+03  0.00000000000E+00 0.  1.
         11    1    1    2    0    0  0.17977405362E+02  0.22887602424E+02  0.84117891167E+02  0.89010387387E+02  0.00000000000E+00 0. -1.
<mgrwt>
<rscale>  0 0.12098632E+03</rscale>
<asrwt>0</asrwt>
<pdfrwt beam="1">  1        3 0.57307948E-01 0.13106881E+03</pdfrwt>
<pdfrwt beam="2">  1       -3 0.70178815E-02 0.13106881E+03</pdfrwt>
<totfact> 0.91845740E+02</totfact>
</mgrwt>
</event>
<event>
 7    1  0.6095443E-006  0.1482541E+03  0.7546771E-02  0.1212293E+00
          2   -1    0    0  501    0  0.00000000000E+00  0.00000000000E+00  0.30002741400E+03  0.30002741400E+03  0.00000000000E+00 0. -1.
         -2   -1    0    0    0  501 -0.00000000000E+00 -0.00000000000E+00 -0.63557926857E+02  0.63557926857E+02  0.00000000000E+00 0.  1.
         23    2    1    2    0    0 -0.78929838169E+02 -0.11022154551E+02  0.88175822266E+02  0.17249424342E+03  0.12501152401E+03 0.  0.
          5    1    3    3  502    0 -0.29378075600E+02 -0.44084275895E+02  0.98417521529E+02  0.11186864284E+03  0.47000000000E+01 0.  1.
         -5    1    3    3    0  502 -0.49551762568E+02  0.33062121343E+02 -0.10241699263E+02  0.60625600576E+02  0.47000000000E+01 0.  1.
        -11    1    1    2    0    0  0.24131084048E+02 -0.38014773075E+02  0.73549378779E+02  0.86237713954E+02  0.00000000000E+00 0. -1.
         11    1    1    2    0    0  0.54798754121E+02  0.49036927626E+02  0.74744286100E+02  0.10485338349E+03  0.00000000000E+00 0.  1.
<mgrwt>
<rscale>  0 0.14077284E+03</rscale>
<asrwt>0</asrwt>
<pdfrwt beam="1">  1        2 0.46158063E-01 0.14825413E+03</pdfrwt>
<pdfrwt beam="2">  1       -2 0.97781428E-02 0.14825413E+03</pdfrwt>
<totfact> 0.72013503E+03</totfact>
</mgrwt>
</event>
<event>
 7    1  0.6095443E-006  0.1324790E+03  0.7546771E-02  0.1240381E+00
          2   -1    0    0  501    0  0.00000000000E+00  0.00000000000E+00  0.56169219820E+03  0.56169219820E+03  0.00000000000E+00 0. -1.
         -2   -1    0    0    0  501 -0.00000000000E+00 -0.00000000000E+00 -0.23412177688E+02  0.23412177688E+02  0.00000000000E+00 0.  1.
         23    2    1    2    0    0  0.33405464628E+02  0.28463799346E+02  0.26982188585E+03  0.30059030832E+03  0.12499828171E+03 0.  0.
          5    1    3    3  502    0  0.38150296971E+02  0.24293335131E+02  0.18413608660E+02  0.49058763485E+02  0.47000000000E+01 0. -1.
         -5    1    3    3    0  502 -0.47448323431E+01  0.41704642152E+01  0.25140827719E+03  0.25153154484E+03  0.47000000000E+01 0. -1.
        -11    1    1    2    0    0  0.10363867574E+02  0.21576573524E+02  0.40352512671E+02  0.46917838346E+02  0.00000000000E+00 0.  1.
         11    1    1    2    0    0 -0.43769332202E+02 -0.50040372870E+02  0.22810562199E+03  0.23759622923E+03  0.00000000000E+00 0. -1.
<mgrwt>
<rscale>  0 0.12166135E+03</rscale>
<asrwt>0</asrwt>
<pdfrwt beam="1">  1        2 0.86414174E-01 0.13247899E+03</pdfrwt>
<pdfrwt beam="2">  1       -2 0.36018739E-02 0.13247899E+03</pdfrwt>
<totfact> 0.16556873E+04</totfact>
</mgrwt>
</event>
<event>
 7    1  0.6095443E-006  0.2627145E+03  0.7546771E-02  0.1108388E+00
          2   -1    0    0  501    0  0.00000000000E+00  0.00000000000E+00  0.10526701440E+04  0.10526701440E+04  0.00000000000E+00 0. -1.
         -2   -1    0    0    0  501 -0.00000000000E+00 -0.00000000000E+00 -0.69866903897E+02  0.69866903897E+02  0.00000000000E+00 0.  1.
         23    2    1    2    0    0  0.14317071520E+03  0.18137211216E+03  0.30740380103E+03  0.40437113563E+03  0.12500088671E+03 0.  0.
          5    1    3    3  502    0  0.65062593072E+02  0.56841977478E+00  0.66287368885E+02  0.93003061197E+02  0.47000000000E+01 0.  1.
         -5    1    3    3    0  502  0.78108122129E+02  0.18080369239E+03  0.24111643215E+03  0.31136807443E+03  0.47000000000E+01 0.  1.
        -11    1    1    2    0    0 -0.13135838776E+03 -0.14877945964E+03  0.63307335818E+03  0.66345476898E+03  0.00000000000E+00 0. -1.
         11    1    1    2    0    0 -0.11812327444E+02 -0.32592652515E+02  0.42326080937E+02  0.54711143336E+02  0.00000000000E+00 0.  1.
<mgrwt>
<rscale>  0 0.25793894E+03</rscale>
<asrwt>0</asrwt>
<pdfrwt beam="1">  1        2 0.16194924E+00 0.26271452E+03</pdfrwt>
<pdfrwt beam="2">  1       -2 0.10748755E-01 0.26271452E+03</pdfrwt>
<totfact> 0.14414977E+03</totfact>
</mgrwt>
</event>
<event>
 7    1  0.6095443E-006  0.1421884E+03  0.7546771E-02  0.1215983E+00
          2   -1    0    0  501    0  0.00000000000E+00  0.00000000000E+00  0.54917151064E+03  0.54917151064E+03  0.00000000000E+00 0. -1.
         -2   -1    0    0    0  501 -0.00000000000E+00 -0.00000000000E+00 -0.33112504783E+02  0.33112504783E+02  0.00000000000E+00 0.  1.
         23    2    1    2    0    0  0.75875178795E+02  0.35959565689E+02  0.30032202526E+03  0.33228127792E+03  0.11474927311E+03 0.  0.
          5    1    3    3  502    0  0.18116734926E+02  0.11050300266E+02  0.25170906611E+03  0.25264573850E+03  0.47000000000E+01 0. -1.
         -5    1    3    3    0  502  0.57758443869E+02  0.24909265423E+02  0.48612959156E+02  0.79635539428E+02  0.47000000000E+01 0.  1.
        -11    1    1    2    0    0 -0.69291544276E+02  0.16934766273E+02  0.10285553704E+03  0.12516934895E+03  0.00000000000E+00 0. -1.
         11    1    1    2    0    0 -0.65836345189E+01 -0.52894331962E+02  0.11288144355E+03  0.12483338855E+03  0.00000000000E+00 0.  1.
<mgrwt>
<rscale>  0 0.13804589E+03</rscale>
<asrwt>0</asrwt>
<pdfrwt beam="1">  1        2 0.84487918E-01 0.14218836E+03</pdfrwt>
<pdfrwt beam="2">  1       -2 0.50942319E-02 0.14218836E+03</pdfrwt>
<totfact> 0.10178176E+04</totfact>
</mgrwt>
</event>
<event>
 7    1  0.6095443E-006  0.1262674E+03  0.7546771E-02  0.1247537E+00
         -3   -1    0    0    0  501 -0.00000000000E+00  0.00000000000E+00  0.69005745420E+02  0.69005745420E+02  0.00000000000E+00 0.  1.
          3   -1    0    0  501    0  0.00000000000E+00 -0.00000000000E+00 -0.28359348413E+03  0.28359348413E+03  0.00000000000E+00 0. -1.
         23    2    1    2    0    0 -0.17133191778E+02  0.14171153240E+02 -0.91533163613E+01  0.12659875425E+03  0.12429438254E+03 0.  0.
          5    1    3    3  502    0  0.14356547878E+02  0.64562867631E+02 -0.95462129484E+01  0.66990256943E+02  0.47000000000E+01 0. -1.
         -5    1    3    3    0  502 -0.31489739656E+02 -0.50391714391E+02  0.39289658714E+00  0.59608497302E+02  0.47000000000E+01 0.  1.
        -11    1    1    2    0    0 -0.36288474978E+02  0.65288508723E+01 -0.83381032120E+02  0.91169489564E+02  0.00000000000E+00 0.  1.
         11    1    1    2    0    0  0.53421666756E+02 -0.20700004112E+02 -0.12205339023E+03  0.13483098574E+03  0.00000000000E+00 0. -1.
<mgrwt>
<rscale>  0 0.11734829E+03</rscale>
<asrwt>0</asrwt>
<pdfrwt beam="2">  1        3 0.43629767E-01 0.12626742E+03</pdfrwt>
<pdfrwt beam="1">  1       -3 0.10616269E-01 0.12626742E+03</pdfrwt>
<totfact> 0.79949008E+02</totfact>
</mgrwt>
</event>
<event>
 7    1  0.6095443E-006  0.1253370E+03  0.7546771E-02  0.1251202E+00
         -2   -1    0    0    0  501 -0.00000000000E+00  0.00000000000E+00  0.82444861018E+03  0.82444861018E+03  0.00000000000E+00 0.  1.
          2   -1    0    0  501    0  0.00000000000E+00 -0.00000000000E+00 -0.15678077976E+02  0.15678077976E+02  0.00000000000E+00 0. -1.
         23    2    1    2    0    0 -0.42407702055E+01 -0.15424296383E+01  0.60047251630E+03  0.61341389580E+03  0.12525574440E+03 0.  0.
          5    1    3    3  502    0 -0.55012187430E+02  0.21740977741E+02  0.42717426050E+03  0.43127595540E+03  0.47000000000E+01 0.  1.
         -5    1    3    3    0  502  0.50771417225E+02 -0.23283407379E+02  0.17329825581E+03  0.18213794040E+03  0.47000000000E+01 0.  1.
        -11    1    1    2    0    0  0.21576194126E+02  0.36025583229E+02  0.15698934765E+03  0.16250855385E+03  0.00000000000E+00 0.  1.
         11    1    1    2    0    0 -0.17335423921E+02 -0.34483153591E+02  0.51308668252E+02  0.64204238504E+02  0.00000000000E+00 0. -1.
<mgrwt>
<rscale>  0 0.11521733E+03</rscale>
<asrwt>0</asrwt>
<pdfrwt beam="2">  1        2 0.24120126E-02 0.12533700E+03</pdfrwt>
<pdfrwt beam="1">  1       -2 0.12683821E+00 0.12533700E+03</pdfrwt>
<totfact> 0.19510405E+03</totfact>
</mgrwt>
</event>
<event>
 7    1  0.6095443E-006  0.1697345E+03  0.7546771E-02  0.1184264E+00
          1   -1    0    0  501    0  0.00000000000E+00  0.00000000000E+00  0.71685768738E+03  0.71685768738E+03  0.00000000000E+00 0. -1.
         -1   -1    0    0    0  501 -0.00000000000E+00 -0.00000000000E+00 -0.38322196614E+02  0.38322196614E+02  0.00000000000E+00 0.  1.
         23    2    1    2    0    0  0.10877525556E+03 -0.36804629287E+02  0.25288051078E+03  0.30456256931E+03  0.12499267550E+03 0.  0.
          5    1    3    3  502    0  0.10371185352E+03  0.62786034122E-01  0.89934869636E+02  0.13735546323E+03  0.47000000000E+01 0. -1.
         -5    1    3    3    0  502  0.50634020381E+01 -0.36867415321E+02  0.16294564115E+03  0.16720710608E+03  0.47000000000E+01 0. -1.
        -11    1    1    2    0    0 -0.67065293189E+02 -0.15135600180E+02  0.12488886641E+03  0.14256250873E+03  0.00000000000E+00 0. -1.
         11    1    1    2    0    0 -0.41709962372E+02  0.51940229468E+02  0.30076611357E+03  0.30805480595E+03  0.00000000000E+00 0.  1.
<mgrwt>
<rscale>  0 0.16399030E+03</rscale>
<asrwt>0</asrwt>
<pdfrwt beam="1">  1        1 0.11028579E+00 0.16973452E+03</pdfrwt>
<pdfrwt beam="2">  1       -1 0.58957231E-02 0.16973452E+03</pdfrwt>
<totfact> 0.36718519E+03</totfact>
</mgrwt>
</event>
<event>
 7    1  0.6095443E-006  0.1320714E+03  0.7546771E-02  0.1237582E+00
          1   -1    0    0  501    0  0.00000000000E+00  0.00000000000E+00  0.84986806720E+02  0.84986806720E+02  0.00000000000E+00 0. -1.
         -1   -1    0    0    0  501 -0.00000000000E+00 -0.00000000000E+00 -0.17020706855E+03  0.17020706855E+03  0.00000000000E+00 0.  1.
         23    2    1    2    0    0 -0.39275638308E+02 -0.16612042043E+02 -0.79941508770E+02  0.15438098754E+03  0.12499723511E+03 0.  0.
          5    1    3    3  502    0 -0.62068522967E+02 -0.25215781662E+01  0.75538452967E+01  0.62753569449E+02  0.47000000000E+01 0. -1.
         -5    1    3    3    0  502  0.22792884659E+02 -0.14090463877E+02 -0.87495354067E+02  0.91627418094E+02  0.47000000000E+01 0. -1.
        -11    1    1    2    0    0 -0.10572817319E+02 -0.14912719677E+02  0.27738052854E+02  0.33220073003E+02  0.00000000000E+00 0. -1.
         11    1    1    2    0    0  0.49848455627E+02  0.31524761720E+02 -0.33016805919E+02  0.67592814729E+02  0.00000000000E+00 0.  1.
<mgrwt>
<rscale>  0 0.12340605E+03</rscale>
<asrwt>0</asrwt>
<pdfrwt beam="1">  1        1 0.13074893E-01 0.13207136E+03</pdfrwt>
<pdfrwt beam="2">  1       -1 0.26185703E-01 0.13207136E+03</pdfrwt>
<totfact> 0.54753344E+03</totfact>
</mgrwt>
</event>
<event>
 7    1  0.6095443E-006  0.1317318E+03  0.7546771E-02  0.1237627E+00
         -2   -1    0    0    0  501 -0.00000000000E+00  0.00000000000E+00  0.32828235613E+03  0.32828235613E+03  0.00000000000E+00 0.  1.
          2   -1    0    0  501    0  0.00000000000E+00 -0.00000000000E+00 -0.48015204017E+02  0.48015204017E+02  0.00000000000E+00 0. -1.
         23    2    1    2    0    0  0.39434253865E+02 -0.13234359420E+02  0.22531778484E+03  0.26100073262E+03  0.12499227822E+03 0.  0.
          5    1    3    3  502    0  0.72071421667E+02 -0.17794357845E+02  0.21281903342E+03  0.22544391759E+03  0.47000000000E+01 0.  1.
         -5    1    3    3    0  502 -0.32637167802E+02  0.45599984247E+01  0.12498751419E+02  0.35556815027E+02  0.47000000000E+01 0.  1.
        -11    1    1    2    0    0 -0.15665094015E+01  0.29877172599E+02  0.66015431002E+02  0.72478524575E+02  0.00000000000E+00 0.  1.
         11    1    1    2    0    0 -0.37867744463E+02 -0.16642813179E+02 -0.11066063731E+02  0.42818302953E+02  0.00000000000E+00 0. -1.
<mgrwt>
<rscale>  0 0.12337726E+03</rscale>
<asrwt>0</asrwt>
<pdfrwt beam="2">  1        2 0.73869547E-02 0.13173184E+03</pdfrwt>
<pdfrwt beam="1">  1       -2 0.50504976E-01 0.13173184E+03</pdfrwt>
<totfact> 0.33842580E+03</totfact>
</mgrwt>
</event>
<event>
 7    1  0.6095443E-006  0.1315746E+03  0.7546771E-02  0.1238677E+00
         -1   -1    0    0    0  501 -0.00000000000E+00  0.00000000000E+00  0.61522780878E+02  0.61522780878E+02  0.00000000000E+00 0.  1.
          1   -1    0    0  501    0  0.00000000000E+00 -0.00000000000E+00 -0.22464170543E+03  0.22464170543E+03  0.00000000000E+00 0. -1.
         23    2    1    2    0    0  0.30102494998E+02  0.27907371215E+02 -0.66519813924E+02  0.14743394840E+03  0.12500760746E+03 0.  0.
          5    1    3    3  502    0 -0.49006121748E+02  0.10090708977E+02 -0.22729379793E+02  0.55155571634E+02  0.47000000000E+01 0.  1.
         -5    1    3    3    0  502  0.79108616746E+02  0.17816662238E+02 -0.43790434131E+02  0.92278376764E+02  0.47000000000E+01 0.  1.
        -11    1    1    2    0    0  0.15547076297E+02  0.24126400769E+02 -0.17480113513E+02  0.33605790630E+02  0.00000000000E+00 0.  1.
         11    1    1    2    0    0 -0.45649571296E+02 -0.52033771984E+02 -0.79118997117E+02  0.10512474728E+03  0.00000000000E+00 0. -1.
<mgrwt>
<rscale>  0 0.12271975E+03</rscale>
<asrwt>0</asrwt>
<pdfrwt beam="2">  1        1 0.34560262E-01 0.13157463E+03</pdfrwt>
<pdfrwt beam="1">  1       -1 0.94650432E-02 0.13157463E+03</pdfrwt>
<totfact> 0.79427263E+03</totfact>
</mgrwt>
</event>
<event>
 6    1  0.6095443E-006  0.1379952E+03  0.7546771E-02  0.1239233E+00
         -1   -1    0    0    0  501 -0.00000000000E+00  0.00000000000E+00  0.21080195975E+03  0.21080195975E+03  0.00000000000E+00 0.  1.
          1   -1    0    0  501    0  0.00000000000E+00 -0.00000000000E+00 -0.65711513348E+02  0.65711513348E+02  0.00000000000E+00 0. -1.
          5    1    1    2  502    0 -0.52410950672E+02 -0.56350983419E+02  0.70793225447E+02  0.10467144717E+03  0.47000000000E+01 0. -1.
         -5    1    1    2    0  502  0.38712340765E+02  0.46724142947E+02  0.59720751224E+02  0.85266927870E+02  0.47000000000E+01 0.  1.
        -11    1    1    2    0    0 -0.27716574274E+02  0.28492344522E+02  0.49263536199E+01  0.40053603407E+02  0.00000000000E+00 0. -1.
         11    1    1    2    0    0  0.41415184181E+02 -0.18865504050E+02  0.96501161076E+01  0.46521494652E+02  0.00000000000E+00 0.  1.
<mgrwt>
<rscale>  0 0.12237289E+03</rscale>
<asrwt>0</asrwt>
<pdfrwt beam="2">  1        1 0.10109464E-01 0.13799525E+03</pdfrwt>
<pdfrwt beam="1">  1       -1 0.32431070E-01 0.13799525E+03</pdfrwt>
<totfact> 0.53840945E+03</totfact>
</mgrwt>
</event>
<event>
 7    1  0.6095443E-006  0.1337212E+03  0.7546771E-02  0.1235269E+00
          3   -1    0    0  501    0  0.00000000000E+00  0.00000000000E+00  0.32463823380E+03  0.32463823380E+03  0.00000000000E+00 0. -1.
         -3   -1    0    0    0  501 -0.00000000000E+00 -0.00000000000E+00 -0.58172332224E+02  0.58172332224E+02  0.00000000000E+00 0.  1.
         23    2    1    2    0    0 -0.24502688337E+02  0.40690907683E+02  0.48417326425E+02  0.14221669770E+03  0.12500087960E+03 0.  0.
          5    1    3    3  502    0  0.31668453829E+02  0.26075586506E+02 -0.25184547648E+02  0.48365055771E+02  0.47000000000E+01 0. -1.
         -5    1    3    3    0  502 -0.56171142166E+02  0.14615321177E+02  0.73601874072E+02  0.93851641926E+02  0.47000000000E+01 0. -1.
        -11    1    1    2    0    0  0.46674172393E+02 -0.22591836349E+02  0.57146016720E+02  0.77165644332E+02  0.00000000000E+00 0.  1.
         11    1    1    2    0    0 -0.22171484056E+02 -0.18099071334E+02  0.16090255844E+03  0.16342822400E+03  0.00000000000E+00 0. -1.
<mgrwt>
<rscale>  0 0.12487238E+03</rscale>
<asrwt>0</asrwt>
<pdfrwt beam="1">  1        3 0.49944342E-01 0.13372117E+03</pdfrwt>
<pdfrwt beam="2">  1       -3 0.89495898E-02 0.13372117E+03</pdfrwt>
<totfact> 0.81902399E+02</totfact>
</mgrwt>
</event>
<event>
 7    1  0.6095443E-006  0.1252835E+03  0.7546771E-02  0.1249377E+00
         -4   -1    0    0    0  501 -0.00000000000E+00  0.00000000000E+00  0.14290385815E+03  0.14290385815E+03  0.00000000000E+00 0.  1.
          4   -1    0    0  501    0  0.00000000000E+00 -0.00000000000E+00 -0.83436307895E+02  0.83436307895E+02  0.00000000000E+00 0. -1.
         23    2    1    2    0    0  0.82132683759E+01  0.17704016536E+01  0.29818156548E+02  0.12878311015E+03  0.12500149959E+03 0.  0.
          5    1    3    3  502    0 -0.49042772868E+02  0.19795634795E+02 -0.13287977208E+02  0.54733180666E+02  0.47000000000E+01 0.  1.
         -5    1    3    3    0  502  0.57256041244E+02 -0.18025233142E+02  0.43106133756E+02  0.74049929481E+02  0.47000000000E+01 0.  1.
        -11    1    1    2    0    0  0.35716393165E+02 -0.10033359344E+01  0.38727782657E+02  0.52692585562E+02  0.00000000000E+00 0.  1.
         11    1    1    2    0    0 -0.43929661540E+02 -0.76706571924E+00 -0.90783889465E+01  0.44864470338E+02  0.00000000000E+00 0. -1.
<mgrwt>
<rscale>  0 0.11627170E+03</rscale>
<asrwt>0</asrwt>
<pdfrwt beam="2">  1        4 0.12836355E-01 0.12528355E+03</pdfrwt>
<pdfrwt beam="1">  1       -4 0.21985209E-01 0.12528355E+03</pdfrwt>
<totfact> 0.15187051E+03</totfact>
</mgrwt>
</event>
<event>
 7    1  0.6095443E-006  0.1274247E+03  0.7546771E-02  0.1244154E+00
          2   -1    0    0  501    0  0.00000000000E+00  0.00000000000E+00  0.42748349292E+03  0.42748349292E+03  0.00000000000E+00 0. -1.
         -2   -1    0    0    0  501 -0.00000000000E+00 -0.00000000000E+00 -0.29904558723E+02  0.29904558723E+02  0.00000000000E+00 0.  1.
         23    2    1    2    0    0  0.17349187018E+02 -0.17706245409E+02  0.20798931262E+03  0.24391924629E+03  0.12499015614E+03 0.  0.
          5    1    3    3  502    0 -0.52839077605E+02  0.24049330557E+01  0.71565837363E+02  0.89115155291E+02  0.47000000000E+01 0.  1.
         -5    1    3    3    0  502  0.70188264623E+02 -0.20111178465E+02  0.13642347525E+03  0.15480409100E+03  0.47000000000E+01 0.  1.
        -11    1    1    2    0    0  0.13162088212E+02 -0.50404682177E+01 -0.51799475461E+01  0.15015949605E+02  0.00000000000E+00 0.  1.
         11    1    1    2    0    0 -0.30511275229E+02  0.22746713626E+02  0.19476956913E+03  0.19845285575E+03  0.00000000000E+00 0. -1.
<mgrwt>
<rscale>  0 0.11936130E+03</rscale>
<asrwt>0</asrwt>
<pdfrwt beam="1">  1        2 0.65766687E-01 0.12742466E+03</pdfrwt>
<pdfrwt beam="2">  1       -2 0.46007017E-02 0.12742466E+03</pdfrwt>
<totfact> 0.15466058E+04</totfact>
</mgrwt>
</event>
<event>
 7    1  0.6095443E-006  0.1203916E+03  0.7546771E-02  0.1254910E+00
         -2   -1    0    0    0  501 -0.00000000000E+00  0.00000000000E+00  0.79013697496E+02  0.79013697496E+02  0.00000000000E+00 0.  1.
          2   -1    0    0  501    0  0.00000000000E+00 -0.00000000000E+00 -0.18316832512E+03  0.18316832512E+03  0.00000000000E+00 0. -1.
         23    2    1    2    0    0 -0.18905698252E+02  0.14623418452E+02  0.21369548075E+01  0.12041056778E+03  0.11799520526E+03 0.  0.
          5    1    3    3  502    0  0.19745875880E+02 -0.27898185514E+01 -0.49419231287E+02  0.53497973072E+02  0.47000000000E+01 0. -1.
         -5    1    3    3    0  502 -0.38651574132E+02  0.17413237004E+02  0.51556186094E+02  0.66912594707E+02  0.47000000000E+01 0.  1.
        -11    1    1    2    0    0  0.31668031624E+02 -0.46639793833E+02 -0.47947229697E+02  0.74007239047E+02  0.00000000000E+00 0. -1.
         11    1    1    2    0    0 -0.12762333372E+02  0.32016375381E+02 -0.58344352730E+02  0.67764215786E+02  0.00000000000E+00 0.  1.
<mgrwt>
<rscale>  0 0.11311369E+03</rscale>
<asrwt>0</asrwt>
<pdfrwt beam="2">  1        2 0.28179742E-01 0.12039160E+03</pdfrwt>
<pdfrwt beam="1">  1       -2 0.12155954E-01 0.12039160E+03</pdfrwt>
<totfact> 0.85256292E+03</totfact>
</mgrwt>
</event>
<event>
 7    1  0.6095443E-006  0.1666159E+03  0.7546771E-02  0.1189226E+00
          1   -1    0    0  501    0  0.00000000000E+00  0.00000000000E+00  0.29180214514E+03  0.29180214514E+03  0.00000000000E+00 0. -1.
         -1   -1    0    0    0  501 -0.00000000000E+00 -0.00000000000E+00 -0.87266250890E+02  0.87266250890E+02  0.00000000000E+00 0.  1.
         23    2    1    2    0    0  0.10961412441E+03 -0.10990144394E+02  0.58113169110E+02  0.17645961033E+03  0.12499925643E+03 0.  0.
          5    1    3    3  502    0 -0.25737494465E+02 -0.10548721263E+02  0.23390037302E+02  0.36645299652E+02  0.47000000000E+01 0. -1.
         -5    1    3    3    0  502  0.13535161888E+03 -0.44142313118E+00  0.34723131808E+02  0.13981431067E+03  0.47000000000E+01 0. -1.
        -11    1    1    2    0    0 -0.95261376436E+02  0.39658865737E+02  0.86494497964E+02  0.13464343152E+03  0.00000000000E+00 0.  1.
         11    1    1    2    0    0 -0.14352747975E+02 -0.28668721342E+02  0.59928227177E+02  0.67965354192E+02  0.00000000000E+00 0. -1.
<mgrwt>
<rscale>  0 0.15953242E+03</rscale>
<asrwt>0</asrwt>
<pdfrwt beam="1">  1        1 0.44892637E-01 0.16661589E+03</pdfrwt>
<pdfrwt beam="2">  1       -1 0.13425577E-01 0.16661589E+03</pdfrwt>
<totfact> 0.33972542E+03</totfact>
</mgrwt>
</event>
<event>
 7    1  0.6095443E-006  0.1371104E+03  0.7546771E-02  0.1228806E+00
         -1   -1    0    0    0  501 -0.00000000000E+00  0.00000000000E+00  0.18825848215E+02  0.18825848215E+02  0.00000000000E+00 0.  1.
          1   -1    0    0  501    0  0.00000000000E+00 -0.00000000000E+00 -0.79741679396E+03  0.79741679396E+03  0.00000000000E+00 0. -1.
         23    2    1    2    0    0  0.21831644457E+01  0.56299730650E+02 -0.42010244334E+03  0.44191099374E+03  0.12499935044E+03 0.  0.
          5    1    3    3  502    0 -0.17648522258E+02  0.60581919563E+02 -0.41587394466E+03  0.42066003752E+03  0.47000000000E+01 0.  1.
         -5    1    3    3    0  502  0.19831686704E+02 -0.42821889138E+01 -0.42284986800E+01  0.21250956225E+02  0.47000000000E+01 0.  1.
        -11    1    1    2    0    0 -0.44351499641E+02 -0.43796063883E+02 -0.17934414135E+03  0.18986698441E+03  0.00000000000E+00 0.  1.
         11    1    1    2    0    0  0.42168335196E+02 -0.12503666766E+02 -0.17914436105E+03  0.18446466402E+03  0.00000000000E+00 0. -1.
<mgrwt>
<rscale>  0 0.12909448E+03</rscale>
<asrwt>0</asrwt>
<pdfrwt beam="2">  1        1 0.12267954E+00 0.13711041E+03</pdfrwt>
<pdfrwt beam="1">  1       -1 0.28962835E-02 0.13711041E+03</pdfrwt>
<totfact> 0.88608891E+03</totfact>
</mgrwt>
</event>
<event>
 7    1  0.6095443E-006  0.1402949E+03  0.7546771E-02  0.1223425E+00
          2   -1    0    0  501    0  0.00000000000E+00  0.00000000000E+00  0.21853000532E+03  0.21853000532E+03  0.00000000000E+00 0.  1.
         -2   -1    0    0    0  501 -0.00000000000E+00 -0.00000000000E+00 -0.73148123217E+02  0.73148123217E+02  0.00000000000E+00 0. -1.
         23    2    1    2    0    0 -0.62716077550E+02 -0.11188041290E+02  0.84582566458E+02  0.16381961659E+03  0.12499671028E+03 0.  0.
          5    1    3    3  502    0 -0.11985759354E+02  0.20960082617E+02 -0.27301235830E+02  0.36748210412E+02  0.47000000000E+01 0.  1.
         -5    1    3    3    0  502 -0.50730318195E+02 -0.32148123907E+02  0.11188380229E+03  0.12707140618E+03  0.47000000000E+01 0.  1.
        -11    1    1    2    0    0  0.53171856478E+02 -0.78283555027E+01 -0.93509713404E+01  0.54552453072E+02  0.00000000000E+00 0. -1.
         11    1    1    2    0    0  0.95442210719E+01  0.19016396793E+02  0.70150286988E+02  0.73306058872E+02  0.00000000000E+00 0.  1.
<mgrwt>
<rscale>  0 0.13275413E+03</rscale>
<asrwt>0</asrwt>
<pdfrwt beam="1">  1        2 0.33620001E-01 0.14029489E+03</pdfrwt>
<pdfrwt beam="2">  1       -2 0.11253558E-01 0.14029489E+03</pdfrwt>
<totfact> 0.80577441E+03</totfact>
</mgrwt>
</event>
<event>
 7    1  0.6095443E-006  0.1748284E+03  0.7546771E-02  0.1178939E+00
         -2   -1    0    0    0  501 -0.00000000000E+00  0.00000000000E+00  0.20647580965E+02  0.20647580965E+02  0.00000000000E+00 0.  1.
          2   -1    0    0  501    0  0.00000000000E+00 -0.00000000000E+00 -0.13332463397E+04  0.13332463397E+04  0.00000000000E+00 0. -1.
         23    2    1    2    0    0  0.26452074367E+02 -0.11928865877E+03 -0.81073032268E+03  0.82936639167E+03  0.12504182972E+03 0.  0.
          5    1    3    3  502    0 -0.35584276921E+02 -0.78999161424E+02 -0.27053714250E+03  0.28411185076E+03  0.47000000000E+01 0.  1.
         -5    1    3    3    0  502  0.62036351288E+02 -0.40289497344E+02 -0.54019318018E+03  0.54525454091E+03  0.47000000000E+01 0.  1.
        -11    1    1    2    0    0 -0.36961982061E+02  0.96260472734E+02 -0.48038479534E+03  0.49132659029E+03  0.00000000000E+00 0. -1.
         11    1    1    2    0    0  0.10509907694E+02  0.23028186033E+02 -0.21483640689E+02  0.33200938676E+02  0.00000000000E+00 0.  1.
<mgrwt>
<rscale>  0 0.16895794E+03</rscale>
<asrwt>0</asrwt>
<pdfrwt beam="2">  1        2 0.20511479E+00 0.17482836E+03</pdfrwt>
<pdfrwt beam="1">  1       -2 0.31765514E-02 0.17482836E+03</pdfrwt>
<totfact> 0.64543575E+03</totfact>
</mgrwt>
</event>
<event>
 7    1  0.6095443E-006  0.1909248E+03  0.7546771E-02  0.1162731E+00
          2   -1    0    0  501    0  0.00000000000E+00  0.00000000000E+00  0.10270579758E+03  0.10270579758E+03  0.00000000000E+00 0.  1.
         -2   -1    0    0    0  501 -0.00000000000E+00 -0.00000000000E+00 -0.31631832453E+03  0.31631832453E+03  0.00000000000E+00 0. -1.
         23    2    1    2    0    0  0.12970702647E+03 -0.63290937602E+02 -0.11173849804E+03  0.22121883244E+03  0.12499049718E+03 0.  0.
          5    1    3    3  502    0  0.61521714152E+02  0.12802587997E+01 -0.11121674175E+03  0.12719203599E+03  0.47000000000E+01 0. -1.
         -5    1    3    3    0  502  0.68185312314E+02 -0.64571196401E+02 -0.52175628579E+00  0.94026796445E+02  0.47000000000E+01 0. -1.
        -11    1    1    2    0    0 -0.12843769979E+03  0.46124413958E+02 -0.11310939539E+03  0.17724965336E+03  0.00000000000E+00 0. -1.
         11    1    1    2    0    0 -0.12693266752E+01  0.17166523644E+02  0.11235366481E+02  0.20555636312E+02  0.00000000000E+00 0.  1.
<mgrwt>
<rscale>  0 0.18534201E+03</rscale>
<asrwt>0</asrwt>
<pdfrwt beam="1">  1        2 0.15800892E-01 0.19092480E+03</pdfrwt>
<pdfrwt beam="2">  1       -2 0.48664357E-01 0.19092480E+03</pdfrwt>
<totfact> 0.14664196E+03</totfact>
</mgrwt>
</event>
<event>
 7    1  0.6095443E-006  0.2611281E+03  0.7546771E-02  0.1108748E+00
          2   -1    0    0  501    0  0.00000000000E+00  0.00000000000E+00  0.52519453738E+03  0.52519453738E+03  0.00000000000E+00 0. -1.
         -2   -1    0    0    0  501 -0.00000000000E+00 -0.00000000000E+00 -0.13202648876E+03  0.13202648876E+03  0.00000000000E+00 0.  1.
         23    2    1    2    0    0  0.21187628510E+03  0.87587804675E+02  0.11404244522E+03  0.28494481153E+03  0.12499873037E+03 0.  0.
          5    1    3    3  502    0  0.29380893922E+02  0.26721402682E+02 -0.25330985661E+02  0.47339403498E+02  0.47000000000E+01 0.  1.
         -5    1    3    3    0  502  0.18249539118E+03  0.60866401992E+02  0.13937343088E+03  0.23760540803E+03  0.47000000000E+01 0.  1.
        -11    1    1    2    0    0 -0.52545611228E+02 -0.35792293736E+02  0.25914008187E+02  0.68656138622E+02  0.00000000000E+00 0. -1.
         11    1    1    2    0    0 -0.15933067387E+03 -0.51795510939E+02  0.25321159522E+03  0.30362007599E+03  0.00000000000E+00 0.  1.
<mgrwt>
<rscale>  0 0.25734723E+03</rscale>
<asrwt>0</asrwt>
<pdfrwt beam="1">  1        2 0.80799158E-01 0.26112806E+03</pdfrwt>
<pdfrwt beam="2">  1       -2 0.20311768E-01 0.26112806E+03</pdfrwt>
<totfact> 0.12053106E+03</totfact>
</mgrwt>
</event>
<event>
 7    1  0.6095443E-006  0.1844925E+03  0.7546771E-02  0.1171032E+00
         -2   -1    0    0    0  501 -0.00000000000E+00  0.00000000000E+00  0.96795746474E+02  0.96795746474E+02  0.00000000000E+00 0.  1.
          2   -1    0    0  501    0  0.00000000000E+00 -0.00000000000E+00 -0.30562415483E+03  0.30562415483E+03  0.00000000000E+00 0. -1.
         23    2    1    2    0    0  0.10511540381E+03  0.85749784951E+02 -0.81774507370E+02  0.20180328872E+03  0.12504088749E+03 0.  0.
          5    1    3    3  502    0  0.10432096163E+03  0.59259584724E+02 -0.10997303517E+03  0.16282112849E+03  0.47000000000E+01 0. -1.
         -5    1    3    3    0  502  0.79444218656E+00  0.26490200226E+02  0.28198527801E+02  0.38982160235E+02  0.47000000000E+01 0. -1.
        -11    1    1    2    0    0 -0.86253174626E+02 -0.22361899293E+02 -0.74354808703E+02  0.11605301483E+03  0.00000000000E+00 0. -1.
         11    1    1    2    0    0 -0.18862229188E+02 -0.63387885657E+02 -0.52699092283E+02  0.84563597757E+02  0.00000000000E+00 0.  1.
<mgrwt>
<rscale>  0 0.17670384E+03</rscale>
<asrwt>0</asrwt>
<pdfrwt beam="2">  1        2 0.47019101E-01 0.18449254E+03</pdfrwt>
<pdfrwt beam="1">  1       -2 0.14891653E-01 0.18449254E+03</pdfrwt>
<totfact> 0.36355204E+03</totfact>
</mgrwt>
</event>
<event>
 7    1  0.6095443E-006  0.1237509E+03  0.7546771E-02  0.1244660E+00
          1   -1    0    0  501    0  0.00000000000E+00  0.00000000000E+00  0.46592366818E+02  0.46592366818E+02  0.00000000000E+00 0. -1.
         -1   -1    0    0    0  501 -0.00000000000E+00 -0.00000000000E+00 -0.38989602943E+03  0.38989602943E+03  0.00000000000E+00 0.  1.
         23    2    1    2    0    0 -0.70577104736E+01  0.51820653543E+02 -0.29515474055E+03  0.32004780547E+03  0.11215652235E+03 0.  0.
          5    1    3    3  502    0 -0.11395450586E+02  0.86787765469E+02 -0.19584350335E+03  0.21456640076E+03  0.47000000000E+01 0. -1.
         -5    1    3    3    0  502  0.43377401125E+01 -0.34967111926E+02 -0.99311237196E+02  0.10548140471E+03  0.47000000000E+01 0.  1.
        -11    1    1    2    0    0 -0.36188249539E+02 -0.22716886240E+01 -0.32828107469E+02  0.48912520012E+02  0.00000000000E+00 0. -1.
         11    1    1    2    0    0  0.43245960013E+02 -0.49548964919E+02 -0.15320814594E+02  0.67528070769E+02  0.00000000000E+00 0.  1.
<mgrwt>
<rscale>  0 0.11905768E+03</rscale>
<asrwt>0</asrwt>
<pdfrwt beam="1">  1        1 0.71680566E-02 0.12375087E+03</pdfrwt>
<pdfrwt beam="2">  1       -1 0.59984003E-01 0.12375087E+03</pdfrwt>
<totfact> 0.28224352E+03</totfact>
</mgrwt>
</event>
<event>
 7    1  0.6095443E-006  0.1381124E+03  0.7546771E-02  0.1227843E+00
          2   -1    0    0  501    0  0.00000000000E+00  0.00000000000E+00  0.26961189689E+03  0.26961189689E+03  0.00000000000E+00 0. -1.
         -2   -1    0    0    0  501 -0.00000000000E+00 -0.00000000000E+00 -0.57659451477E+02  0.57659451477E+02  0.00000000000E+00 0.  1.
         23    2    1    2    0    0 -0.32258881681E+02 -0.49071472164E+02  0.90875241623E+02  0.16532795271E+03  0.12500551019E+03 0.  0.
          5    1    3    3  502    0 -0.36338558097E+02 -0.84785056153E+02  0.90153817463E+02  0.12906896356E+03  0.47000000000E+01 0. -1.
         -5    1    3    3    0  502  0.40796764159E+01  0.35713583989E+02  0.72142415997E+00  0.36258989145E+02  0.47000000000E+01 0. -1.
        -11    1    1    2    0    0  0.61506376186E+02  0.33155515542E+02  0.58795377485E+02  0.91319324001E+02  0.00000000000E+00 0.  1.
         11    1    1    2    0    0 -0.29247494505E+02  0.15915956623E+02  0.62281826310E+02  0.70624071665E+02  0.00000000000E+00 0. -1.
<mgrwt>
<rscale>  0 0.12973949E+03</rscale>
<asrwt>0</asrwt>
<pdfrwt beam="1">  1        2 0.41478753E-01 0.13811235E+03</pdfrwt>
<pdfrwt beam="2">  1       -2 0.88706850E-02 0.13811235E+03</pdfrwt>
<totfact> 0.93489777E+03</totfact>
</mgrwt>
</event>
<event>
 7    1  0.6095443E-006  0.1312150E+03  0.7546771E-02  0.1238458E+00
         -2   -1    0    0    0  501 -0.00000000000E+00  0.00000000000E+00  0.16490682383E+03  0.16490682383E+03  0.00000000000E+00 0.  1.
          2   -1    0    0  501    0  0.00000000000E+00 -0.00000000000E+00 -0.86395952658E+02  0.86395952658E+02  0.00000000000E+00 0. -1.
         23    2    1    2    0    0  0.28429555828E+02 -0.27994864325E+02  0.73357980864E+02  0.15032890162E+03  0.12500173292E+03 0.  0.
          5    1    3    3  502    0  0.21381221400E+02 -0.73650603175E-01  0.10501715724E+03  0.10727467253E+03  0.47000000000E+01 0. -1.
         -5    1    3    3    0  502  0.70483344277E+01 -0.27921213722E+02 -0.31659176372E+02  0.43054229089E+02  0.47000000000E+01 0. -1.
        -11    1    1    2    0    0  0.20992641135E+01  0.22080413444E+02  0.45154073279E+02  0.50307473614E+02  0.00000000000E+00 0.  1.
         11    1    1    2    0    0 -0.30528819941E+02  0.59144508810E+01 -0.40001182974E+02  0.50666401250E+02  0.00000000000E+00 0. -1.
<mgrwt>
<rscale>  0 0.12285657E+03</rscale>
<asrwt>0</asrwt>
<pdfrwt beam="2">  1        2 0.13291685E-01 0.13121503E+03</pdfrwt>
<pdfrwt beam="1">  1       -2 0.25370281E-01 0.13121503E+03</pdfrwt>
<totfact> 0.59112681E+03</totfact>
</mgrwt>
</event>
<event>
 7    1  0.6095443E-006  0.1919968E+03  0.7546771E-02  0.1161305E+00
          2   -1    0    0  501    0  0.00000000000E+00  0.00000000000E+00  0.29757422236E+03  0.29757422236E+03  0.00000000000E+00 0.  1.
         -2   -1    0    0    0  501 -0.00000000000E+00 -0.00000000000E+00 -0.13744253968E+03  0.13744253968E+03  0.00000000000E+00 0. -1.
         23    2    1    2    0    0 -0.47648920238E+01  0.14564858119E+03 -0.10781719143E+02  0.19229927101E+03  0.12500620291E+03 0.  0.
          5    1    3    3  502    0  0.25498111025E+02  0.10869545963E+03  0.43436350943E+02  0.11989021309E+03  0.47000000000E+01 0. -1.
         -5    1    3    3    0  502 -0.30263003049E+02  0.36953121553E+02 -0.54218070085E+02  0.72409057927E+02  0.47000000000E+01 0. -1.
        -11    1    1    2    0    0 -0.33406218552E+02 -0.98998560733E+02  0.72011498991E+02  0.12689502138E+03  0.00000000000E+00 0.  1.
         11    1    1    2    0    0  0.38171110576E+02 -0.46650020454E+02  0.98901902826E+02  0.11582246964E+03  0.00000000000E+00 0. -1.
<mgrwt>
<rscale>  0 0.18688125E+03</rscale>
<asrwt>0</asrwt>
<pdfrwt beam="1">  1        2 0.45780649E-01 0.19199678E+03</pdfrwt>
<pdfrwt beam="2">  1       -2 0.21145006E-01 0.19199678E+03</pdfrwt>
<totfact> 0.20794041E+03</totfact>
</mgrwt>
</event>
<event>
 7    1  0.6095443E-006  0.1549001E+03  0.7546771E-02  0.1202782E+00
          2   -1    0    0  501    0  0.00000000000E+00  0.00000000000E+00  0.50173990936E+03  0.50173990936E+03  0.00000000000E+00 0. -1.
         -2   -1    0    0    0  501 -0.00000000000E+00 -0.00000000000E+00 -0.52245256133E+02  0.52245256133E+02  0.00000000000E+00 0.  1.
         23    2    1    2    0    0  0.90243735904E+02 -0.15152364834E+02  0.10826404105E+03  0.18898450846E+03  0.12498206202E+03 0.  0.
          5    1    3    3  502    0  0.17546568221E+02 -0.37677049231E+02  0.10459069087E+03  0.11264432836E+03  0.47000000000E+01 0.  1.
         -5    1    3    3    0  502  0.72697167683E+02  0.22524684396E+02  0.36733501716E+01  0.76340180101E+02  0.47000000000E+01 0.  1.
        -11    1    1    2    0    0 -0.45498455540E+02  0.46435116253E+02  0.11333564690E+03  0.13065717866E+03  0.00000000000E+00 0.  1.
         11    1    1    2    0    0 -0.44745280364E+02 -0.31282751419E+02  0.22789496528E+03  0.23434347837E+03  0.00000000000E+00 0. -1.
<mgrwt>
<rscale>  0 0.14813610E+03</rscale>
<asrwt>0</asrwt>
<pdfrwt beam="1">  1        2 0.77190752E-01 0.15490010E+03</pdfrwt>
<pdfrwt beam="2">  1       -2 0.80377321E-02 0.15490010E+03</pdfrwt>
<totfact> 0.56394108E+03</totfact>
</mgrwt>
</event>
<event>
 7    1  0.6095443E-006  0.1589090E+03  0.7546771E-02  0.1197856E+00
          2   -1    0    0  501    0  0.00000000000E+00  0.00000000000E+00  0.62453597381E+03  0.62453597381E+03  0.00000000000E+00 0. -1.
         -2   -1    0    0    0  501 -0.00000000000E+00 -0.00000000000E+00 -0.37813590678E+02  0.37813590678E+02  0.00000000000E+00 0.  1.
         23    2    1    2    0    0  0.45261149450E+02 -0.87081976132E+02  0.21490678929E+03  0.26727699466E+03  0.12498088483E+03 0.  0.
          5    1    3    3  502    0 -0.17306830492E+02 -0.46304156695E+02  0.17613006176E+03  0.18299587418E+03  0.47000000000E+01 0. -1.
         -5    1    3    3    0  502  0.62567979942E+02 -0.40777819437E+02  0.38776727528E+02  0.84281120483E+02  0.47000000000E+01 0. -1.
        -11    1    1    2    0    0 -0.52963485989E+02  0.85079203316E+01  0.17410136722E+03  0.18217793945E+03  0.00000000000E+00 0. -1.
         11    1    1    2    0    0  0.77023365394E+01  0.78574055800E+02  0.19771422662E+03  0.21289463037E+03  0.00000000000E+00 0.  1.
<mgrwt>
<rscale>  0 0.15215001E+03</rscale>
<asrwt>0</asrwt>
<pdfrwt beam="1">  1        2 0.96082450E-01 0.15890898E+03</pdfrwt>
<pdfrwt beam="2">  1       -2 0.58174759E-02 0.15890898E+03</pdfrwt>
<totfact> 0.72436556E+03</totfact>
</mgrwt>
</event>
<event>
 7    1  0.6095443E-006  0.2451336E+03  0.7546771E-02  0.1119048E+00
          1   -1    0    0  501    0  0.00000000000E+00  0.00000000000E+00  0.15494370711E+04  0.15494370711E+04  0.00000000000E+00 0. -1.
         -1   -1    0    0    0  501 -0.00000000000E+00 -0.00000000000E+00 -0.36414302274E+02  0.36414302274E+02  0.00000000000E+00 0.  1.
         23    2    1    2    0    0  0.16643597680E+03  0.12947572314E+03  0.74661767028E+03  0.78582975572E+03  0.12500224856E+03 0.  0.
          5    1    3    3  502    0 -0.11647199532E+02  0.45693311544E+02  0.12009981709E+03  0.12911077431E+03  0.47000000000E+01 0.  1.
         -5    1    3    3    0  502  0.17808317633E+03  0.83782411593E+02  0.62651785318E+03  0.65671898141E+03  0.47000000000E+01 0.  1.
        -11    1    1    2    0    0 -0.14210128504E+03 -0.85808152598E+02  0.68210673186E+03  0.70201524763E+03  0.00000000000E+00 0.  1.
         11    1    1    2    0    0 -0.24334691757E+02 -0.43667570538E+02  0.84298366738E+02  0.98006370070E+02  0.00000000000E+00 0. -1.
<mgrwt>
<rscale>  0 0.24112094E+03</rscale>
<asrwt>0</asrwt>
<pdfrwt beam="1">  1        1 0.23837488E+00 0.24513355E+03</pdfrwt>
<pdfrwt beam="2">  1       -1 0.56022016E-02 0.24513355E+03</pdfrwt>
<totfact> 0.98604452E+02</totfact>
</mgrwt>
</event>
<event>
 7    1  0.6095443E-006  0.1460503E+03  0.7546771E-02  0.1214741E+00
          2   -1    0    0  501    0  0.00000000000E+00  0.00000000000E+00  0.60030212415E+03  0.60030212415E+03  0.00000000000E+00 0. -1.
         -2   -1    0    0    0  501 -0.00000000000E+00 -0.00000000000E+00 -0.30841218026E+02  0.30841218026E+02  0.00000000000E+00 0.  1.
         23    2    1    2    0    0  0.72685120371E+02  0.20506830207E+02  0.24392165023E+03  0.28430346409E+03  0.12500812547E+03 0.  0.
          5    1    3    3  502    0 -0.16666507915E+01 -0.43970473702E+02  0.49879868274E+02  0.66680368486E+02  0.47000000000E+01 0.  1.
         -5    1    3    3    0  502  0.74351771162E+02  0.64477303909E+02  0.19404178196E+03  0.21762309560E+03  0.47000000000E+01 0.  1.
        -11    1    1    2    0    0 -0.22261707665E+02  0.36766652752E+02  0.10420861919E+03  0.11272447248E+03  0.00000000000E+00 0.  1.
         11    1    1    2    0    0 -0.50423412706E+02 -0.57273482958E+02  0.22133063671E+03  0.23411540561E+03  0.00000000000E+00 0. -1.
<mgrwt>
<rscale>  0 0.13895611E+03</rscale>
<asrwt>0</asrwt>
<pdfrwt beam="1">  1        2 0.92354164E-01 0.14605029E+03</pdfrwt>
<pdfrwt beam="2">  1       -2 0.47448032E-02 0.14605029E+03</pdfrwt>
<totfact> 0.10259915E+04</totfact>
</mgrwt>
</event>
<event>
 6    1  0.6095443E-006  0.2353476E+03  0.7546771E-02  0.1150955E+00
          3   -1    0    0  501    0  0.00000000000E+00  0.00000000000E+00  0.22978406768E+03  0.22978406768E+03  0.00000000000E+00 0. -1.
         -3   -1    0    0    0  501 -0.00000000000E+00 -0.00000000000E+00 -0.14248700321E+03  0.14248700321E+03  0.00000000000E+00 0.  1.
          5    1    1    2  502    0  0.73855734838E+02  0.12900432741E+02  0.52510171157E+02  0.91654235081E+02  0.47000000000E+01 0. -1.
         -5    1    1    2    0  502 -0.12277514702E+03 -0.70228952623E+02 -0.30338474927E+02  0.14473546757E+03  0.47000000000E+01 0.  1.
        -11    1    1    2    0    0 -0.16685461759E+02  0.17614110073E+02 -0.12043257650E+02  0.27086926046E+02  0.00000000000E+00 0.  1.
         11    1    1    2    0    0  0.65604873937E+02  0.39714409809E+02  0.77168625886E+02  0.10879444219E+03  0.00000000000E+00 0. -1.
<mgrwt>
<rscale>  0 0.19856564E+03</rscale>
<asrwt>0</asrwt>
<pdfrwt beam="1">  1        3 0.35351395E-01 0.23534763E+03</pdfrwt>
<pdfrwt beam="2">  1       -3 0.21921077E-01 0.23534763E+03</pdfrwt>
<totfact> 0.37330205E+02</totfact>
</mgrwt>
</event>
<event>
 7    1  0.6095443E-006  0.1457387E+03  0.7546771E-02  0.1214884E+00
          3   -1    0    0  501    0  0.00000000000E+00  0.00000000000E+00  0.62965867630E+03  0.62965867630E+03  0.00000000000E+00 0. -1.
         -3   -1    0    0    0  501 -0.00000000000E+00 -0.00000000000E+00 -0.28615476116E+02  0.28615476116E+02  0.00000000000E+00 0.  1.
         23    2    1    2    0    0  0.68355221208E+02 -0.30672714240E+02  0.28308245355E+03  0.31839512751E+03  0.12500612005E+03 0.  0.
          5    1    3    3  502    0  0.14827623657E+02 -0.46433321261E+02  0.26314174578E+02  0.55591703791E+02  0.47000000000E+01 0.  1.
         -5    1    3    3    0  502  0.53527597551E+02  0.15760607021E+02  0.25676827897E+03  0.26280342372E+03  0.47000000000E+01 0.  1.
        -11    1    1    2    0    0 -0.34945905105E+01  0.47265137678E+02  0.83129710244E+02  0.95690930228E+02  0.00000000000E+00 0.  1.
         11    1    1    2    0    0 -0.64860630697E+02 -0.16592423438E+02  0.23483103639E+03  0.24418809468E+03  0.00000000000E+00 0. -1.
<mgrwt>
<rscale>  0 0.13885039E+03</rscale>
<asrwt>0</asrwt>
<pdfrwt beam="1">  1        3 0.96870556E-01 0.14573874E+03</pdfrwt>
<pdfrwt beam="2">  1       -3 0.44023814E-02 0.14573874E+03</pdfrwt>
<totfact> 0.63683002E+02</totfact>
</mgrwt>
</event>
<event>
 7    1  0.6095443E-006  0.1280229E+03  0.7546771E-02  0.1247993E+00
          1   -1    0    0  501    0  0.00000000000E+00  0.00000000000E+00  0.31250744230E+02  0.31250744230E+02  0.00000000000E+00 0. -1.
         -1   -1    0    0    0  501 -0.00000000000E+00 -0.00000000000E+00 -0.99067064016E+03  0.99067064016E+03  0.00000000000E+00 0.  1.
         23    2    1    2    0    0 -0.19341970796E+02  0.19822509444E+02 -0.91132354042E+03  0.92027195266E+03  0.12499131093E+03 0.  0.
          5    1    3    3  502    0 -0.71176685312E+02  0.20413240369E+02 -0.60863482476E+03  0.61314049028E+03  0.47000000000E+01 0.  1.
         -5    1    3    3    0  502  0.51834714516E+02 -0.59073092416E+00 -0.30268871567E+03  0.30713146238E+03  0.47000000000E+01 0.  1.
        -11    1    1    2    0    0 -0.53882579194E+01  0.29832014599E+02 -0.35831950791E+01  0.30525754789E+02  0.00000000000E+00 0.  1.
         11    1    1    2    0    0  0.24730228715E+02 -0.49654524043E+02 -0.44513160427E+02  0.71123676940E+02  0.00000000000E+00 0. -1.
<mgrwt>
<rscale>  0 0.11708013E+03</rscale>
<asrwt>0</asrwt>
<pdfrwt beam="1">  1        1 0.48078068E-02 0.12802293E+03</pdfrwt>
<pdfrwt beam="2">  1       -1 0.15241087E+00 0.12802293E+03</pdfrwt>
<totfact> 0.63049024E+02</totfact>
</mgrwt>
</event>
<event>
 7    1  0.6095443E-006  0.2031257E+03  0.7546771E-02  0.1151379E+00
         -2   -1    0    0    0  501 -0.00000000000E+00  0.00000000000E+00  0.56895900763E+02  0.56895900763E+02  0.00000000000E+00 0.  1.
          2   -1    0    0  501    0  0.00000000000E+00 -0.00000000000E+00 -0.66554098800E+03  0.66554098800E+03  0.00000000000E+00 0. -1.
         23    2    1    2    0    0  0.59861951683E+02 -0.14849816903E+03 -0.35963419179E+03  0.41303367299E+03  0.12499961462E+03 0.  0.
          5    1    3    3  502    0  0.48822278706E+02 -0.46950801044E+01 -0.44337074844E+02  0.66283669791E+02  0.47000000000E+01 0. -1.
         -5    1    3    3    0  502  0.11039672977E+02 -0.14380308893E+03 -0.31529711694E+03  0.34675000320E+03  0.47000000000E+01 0. -1.
        -11    1    1    2    0    0  0.33831652399E+01  0.10628094292E+03 -0.16278065798E+03  0.19443412059E+03  0.00000000000E+00 0.  1.
         11    1    1    2    0    0 -0.63245116923E+02  0.42217226107E+02 -0.86230237472E+02  0.11496909519E+03  0.00000000000E+00 0. -1.
<mgrwt>
<rscale>  0 0.19806875E+03</rscale>
<asrwt>0</asrwt>
<pdfrwt beam="2">  1        2 0.10239092E+00 0.20312573E+03</pdfrwt>
<pdfrwt beam="1">  1       -2 0.87532154E-02 0.20312573E+03</pdfrwt>
<totfact> 0.36160334E+03</totfact>
</mgrwt>
</event>
<event>
 6    1  0.6095443E-006  0.2667969E+03  0.7546771E-02  0.1105514E+00
         -2   -1    0    0    0  501 -0.00000000000E+00  0.00000000000E+00  0.14568596481E+03  0.14568596481E+03  0.00000000000E+00 0.  1.
          2   -1    0    0  501    0  0.00000000000E+00 -0.00000000000E+00 -0.47148806960E+03  0.47148806960E+03  0.00000000000E+00 0. -1.
          5    1    1    2  502    0  0.17356819392E+03  0.13429240158E+02 -0.21053521321E+03  0.27322779587E+03  0.47000000000E+01 0. -1.
         -5    1    1    2    0  502  0.41814406431E+02  0.55824473095E+02 -0.55995229758E+01  0.70130314694E+02  0.47000000000E+01 0.  1.
        -11    1    1    2    0    0 -0.59826919031E+02 -0.73461842518E+02 -0.50276422186E+02  0.10725493543E+03  0.00000000000E+00 0.  1.
         11    1    1    2    0    0 -0.15555568132E+03  0.42081292650E+01 -0.59390946414E+02  0.16656098841E+03  0.00000000000E+00 0. -1.
<mgrwt>
<rscale>  0 0.26272928E+03</rscale>
<asrwt>0</asrwt>
<pdfrwt beam="2">  1        2 0.72536625E-01 0.26679687E+03</pdfrwt>
<pdfrwt beam="1">  1       -2 0.22413226E-01 0.26679687E+03</pdfrwt>
<totfact> 0.11476088E+03</totfact>
</mgrwt>
</event>
<event>
 7    1  0.6095443E-006  0.1315718E+03  0.7546771E-02  0.1237906E+00
          3   -1    0    0  501    0  0.00000000000E+00  0.00000000000E+00  0.26115981856E+03  0.26115981856E+03  0.00000000000E+00 0. -1.
         -3   -1    0    0    0  501 -0.00000000000E+00 -0.00000000000E+00 -0.51851678782E+02  0.51851678782E+02  0.00000000000E+00 0.  1.
         23    2    1    2    0    0  0.40917526018E+02 -0.29136989994E+01  0.11978428905E+03  0.17793089055E+03  0.12501356858E+03 0.  0.
          5    1    3    3  502    0  0.69656432252E+02 -0.26760603863E+02  0.11868919478E+03  0.14027602586E+03  0.47000000000E+01 0.  1.
         -5    1    3    3    0  502 -0.28738906234E+02  0.23846904863E+02  0.10950942740E+01  0.37654864686E+02  0.47000000000E+01 0.  1.
        -11    1    1    2    0    0  0.10392695785E+02 -0.10361015252E+02 -0.13040471428E+02  0.19631929549E+02  0.00000000000E+00 0.  1.
         11    1    1    2    0    0 -0.51310221803E+02  0.13274714251E+02  0.10256432215E+03  0.11544867725E+03  0.00000000000E+00 0. -1.
<mgrwt>
<rscale>  0 0.12320218E+03</rscale>
<asrwt>0</asrwt>
<pdfrwt beam="1">  1        3 0.40178433E-01 0.13157175E+03</pdfrwt>
<pdfrwt beam="2">  1       -3 0.79771815E-02 0.13157175E+03</pdfrwt>
<totfact> 0.15092702E+03</totfact>
</mgrwt>
</event>
<event>
 7    1  0.6095443E-006  0.1355493E+03  0.7546771E-02  0.1229429E+00
          2   -1    0    0  501    0  0.00000000000E+00  0.00000000000E+00  0.12024905425E+03  0.12024905425E+03  0.00000000000E+00 0. -1.
         -2   -1    0    0    0  501 -0.00000000000E+00 -0.00000000000E+00 -0.16092151888E+03  0.16092151888E+03  0.00000000000E+00 0.  1.
         23    2    1    2    0    0  0.50155550082E+02  0.15271684439E+02 -0.87713391605E+02  0.16145354348E+03  0.12499921634E+03 0.  0.
          5    1    3    3  502    0  0.79688742228E+02 -0.23921272394E+02 -0.70752682550E+02  0.10931859402E+03  0.47000000000E+01 0.  1.
         -5    1    3    3    0  502 -0.29533192147E+02  0.39192956832E+02 -0.16960709055E+02  0.52134949461E+02  0.47000000000E+01 0.  1.
        -11    1    1    2    0    0  0.53262160934E+01 -0.85995891660E+01 -0.25914677661E+02  0.27818914967E+02  0.00000000000E+00 0.  1.
         11    1    1    2    0    0 -0.55481766175E+02 -0.66720952728E+01  0.72955604633E+02  0.91898114673E+02  0.00000000000E+00 0. -1.
<mgrwt>
<rscale>  0 0.12867900E+03</rscale>
<asrwt>0</asrwt>
<pdfrwt beam="1">  1        2 0.18499855E-01 0.13554928E+03</pdfrwt>
<pdfrwt beam="2">  1       -2 0.24757157E-01 0.13554928E+03</pdfrwt>
<totfact> 0.42076677E+03</totfact>
</mgrwt>
</event>
<event>
 7    1  0.6095443E-006  0.1327924E+03  0.7546771E-02  0.1236152E+00
         -2   -1    0    0    0  501 -0.00000000000E+00  0.00000000000E+00  0.42616770735E+02  0.42616770735E+02  0.00000000000E+00 0.  1.
          2   -1    0    0  501    0  0.00000000000E+00 -0.00000000000E+00 -0.34618887241E+03  0.34618887241E+03  0.00000000000E+00 0. -1.
         23    2    1    2    0    0  0.44382175474E+02  0.64085034222E+01 -0.12084097702E+03  0.17954488343E+03  0.12499190784E+03 0.  0.
          5    1    3    3  502    0  0.50755308136E+01 -0.30577712896E+02  0.13919865558E+02  0.34301752085E+02  0.47000000000E+01 0.  1.
         -5    1    3    3    0  502  0.39306644661E+02  0.36986216318E+02 -0.13476084257E+03  0.14524313135E+03  0.47000000000E+01 0.  1.
        -11    1    1    2    0    0  0.16798100059E+02 -0.20204201400E+02 -0.15153588053E+02  0.30331784496E+02  0.00000000000E+00 0.  1.
         11    1    1    2    0    0 -0.61180275534E+02  0.13795697978E+02 -0.16757753660E+03  0.17892897522E+03  0.00000000000E+00 0. -1.
<mgrwt>
<rscale>  0 0.12430997E+03</rscale>
<asrwt>0</asrwt>
<pdfrwt beam="2">  1        2 0.53259826E-01 0.13279241E+03</pdfrwt>
<pdfrwt beam="1">  1       -2 0.65564264E-02 0.13279241E+03</pdfrwt>
<totfact> 0.11390058E+04</totfact>
</mgrwt>
</event>
<event>
 7    1  0.6095443E-006  0.1483437E+03  0.7546771E-02  0.1210487E+00
         -1   -1    0    0    0  501 -0.00000000000E+00  0.00000000000E+00  0.83752755155E+03  0.83752755155E+03  0.00000000000E+00 0.  1.
          1   -1    0    0  501    0  0.00000000000E+00 -0.00000000000E+00 -0.93778577621E+02  0.93778577621E+02  0.00000000000E+00 0. -1.
         23    2    1    2    0    0 -0.28887495636E+02  0.81082020236E+02  0.78558859677E+03  0.79947187940E+03  0.12081829816E+03 0.  0.
          5    1    3    3  502    0  0.55485480111E+01 -0.30457599252E+02  0.14966795321E+03  0.15290859346E+03  0.47000000000E+01 0. -1.
         -5    1    3    3    0  502 -0.34436043647E+02  0.11153961949E+03  0.63592064356E+03  0.64656328594E+03  0.47000000000E+01 0.  1.
        -11    1    1    2    0    0  0.35121398724E+02 -0.71217528159E+02 -0.67130856444E+02  0.10398077155E+03  0.00000000000E+00 0. -1.
         11    1    1    2    0    0 -0.62339030877E+01 -0.98644920769E+01  0.25291233603E+02  0.27853478218E+02  0.00000000000E+00 0.  1.
<mgrwt>
<rscale>  0 0.14213323E+03</rscale>
<asrwt>0</asrwt>
<pdfrwt beam="2">  1        1 0.14427474E-01 0.14834366E+03</pdfrwt>
<pdfrwt beam="1">  1       -1 0.12885039E+00 0.14834366E+03</pdfrwt>
<totfact> 0.22122824E+02</totfact>
</mgrwt>
</event>
<event>
 7    1  0.6095443E-006  0.1408670E+03  0.7546771E-02  0.1220804E+00
          1   -1    0    0  501    0  0.00000000000E+00  0.00000000000E+00  0.10573640842E+03  0.10573640842E+03  0.00000000000E+00 0. -1.
         -1   -1    0    0    0  501 -0.00000000000E+00 -0.00000000000E+00 -0.19484723251E+03  0.19484723251E+03  0.00000000000E+00 0.  1.
         23    2    1    2    0    0 -0.72700918181E+02  0.17809311580E+02 -0.11325440335E+03  0.18074864686E+03  0.11933531907E+03 0.  0.
          5    1    3    3  502    0  0.17600557580E+02  0.72876564665E+00 -0.81325506793E+02  0.83344098661E+02  0.47000000000E+01 0. -1.
         -5    1    3    3    0  502 -0.90301475760E+02  0.17080545933E+02 -0.31928896561E+02  0.97404548197E+02  0.47000000000E+01 0.  1.
        -11    1    1    2    0    0 -0.90427715440E+01 -0.32982470931E+02  0.56536882388E+01  0.34663803839E+02  0.00000000000E+00 0.  1.
         11    1    1    2    0    0  0.81743689725E+02  0.15173159351E+02  0.18489891028E+02  0.85171190227E+02  0.00000000000E+00 0. -1.
<mgrwt>
<rscale>  0 0.13458706E+03</rscale>
<asrwt>0</asrwt>
<pdfrwt beam="1">  1        1 0.16267140E-01 0.14086701E+03</pdfrwt>
<pdfrwt beam="2">  1       -1 0.29976497E-01 0.14086701E+03</pdfrwt>
<totfact> 0.33054588E+03</totfact>
</mgrwt>
</event>
<event>
 6    1  0.6095443E-006  0.2023161E+03  0.7546771E-02  0.1218354E+00
          2   -1    0    0  501    0  0.00000000000E+00  0.00000000000E+00  0.13159003742E+03  0.13159003742E+03  0.00000000000E+00 0. -1.
         -2   -1    0    0    0  501 -0.00000000000E+00 -0.00000000000E+00 -0.11520119042E+03  0.11520119042E+03  0.00000000000E+00 0.  1.
          5    1    1    2  502    0 -0.30066381403E+02  0.73994717443E+02  0.46626565650E+02  0.92603089173E+02  0.47000000000E+01 0. -1.
         -5    1    1    2    0  502  0.43894209541E+02 -0.89464379996E+02 -0.45659401222E+02  0.10971530358E+03  0.47000000000E+01 0.  1.
        -11    1    1    2    0    0 -0.24508445168E+02  0.15173349074E+02  0.17308791053E+02  0.33622740138E+02  0.00000000000E+00 0.  1.
         11    1    1    2    0    0  0.10680617031E+02  0.29631347889E+00 -0.18871084828E+01  0.10850094943E+02  0.00000000000E+00 0. -1.
<mgrwt>
<rscale>  0 0.13633005E+03</rscale>
<asrwt>0</asrwt>
<pdfrwt beam="1">  1        2 0.20244621E-01 0.20231608E+03</pdfrwt>
<pdfrwt beam="2">  1       -2 0.17723260E-01 0.20231608E+03</pdfrwt>
<totfact> 0.68930515E+03</totfact>
</mgrwt>
</event>
<event>
 7    1  0.6095443E-006  0.1267532E+03  0.7546771E-02  0.1247142E+00
          2   -1    0    0  501    0  0.00000000000E+00  0.00000000000E+00  0.10563701050E+03  0.10563701050E+03  0.00000000000E+00 0. -1.
         -2   -1    0    0    0  501 -0.00000000000E+00 -0.00000000000E+00 -0.26931926010E+03  0.26931926010E+03  0.00000000000E+00 0.  1.
         23    2    1    2    0    0  0.16331123218E+02 -0.13268206747E+02 -0.22821575569E+03  0.26105326491E+03  0.12499450020E+03 0.  0.
          5    1    3    3  502    0  0.41787003633E+02 -0.59385464414E+02 -0.11489024784E+03  0.13599502236E+03  0.47000000000E+01 0. -1.
         -5    1    3    3    0  502 -0.25455880415E+02  0.46117257666E+02 -0.11332550785E+03  0.12505824256E+03  0.47000000000E+01 0. -1.
        -11    1    1    2    0    0 -0.29171713496E+02 -0.11036626313E+02  0.77477327517E+02  0.83519651986E+02  0.00000000000E+00 0. -1.
         11    1    1    2    0    0  0.12840590279E+02  0.24304833061E+02 -0.12943821428E+02  0.30383353698E+02  0.00000000000E+00 0.  1.
<mgrwt>
<rscale>  0 0.11758097E+03</rscale>
<asrwt>0</asrwt>
<pdfrwt beam="1">  1        2 0.16251848E-01 0.12675321E+03</pdfrwt>
<pdfrwt beam="2">  1       -2 0.41433732E-01 0.12675321E+03</pdfrwt>
<totfact> 0.19070116E+03</totfact>
</mgrwt>
</event>
<event>
 7    1  0.6095443E-006  0.1309928E+03  0.7546771E-02  0.1239637E+00
          1   -1    0    0  501    0  0.00000000000E+00  0.00000000000E+00  0.18525393726E+03  0.18525393726E+03  0.00000000000E+00 0. -1.
         -1   -1    0    0    0  501 -0.00000000000E+00 -0.00000000000E+00 -0.20048114846E+03  0.20048114846E+03  0.00000000000E+00 0.  1.
         23    2    1    2    0    0 -0.67318791590E+01  0.38589863226E+02 -0.16224034637E+03  0.20852111326E+03  0.12499851578E+03 0.  0.
          5    1    3    3  502    0  0.42955693260E+02  0.60381989319E+02 -0.11231668104E+03  0.13464138687E+03  0.47000000000E+01 0.  1.
         -5    1    3    3    0  502 -0.49687572419E+02 -0.21792126093E+02 -0.49923665325E+02  0.73879726394E+02  0.47000000000E+01 0.  1.
        -11    1    1    2    0    0  0.35512536934E+02 -0.12711902738E+02  0.16656899973E+02  0.41233300468E+02  0.00000000000E+00 0.  1.
         11    1    1    2    0    0 -0.28780657775E+02 -0.25877960488E+02  0.13035623520E+03  0.13598067199E+03  0.00000000000E+00 0. -1.
<mgrwt>
<rscale>  0 0.12212209E+03</rscale>
<asrwt>0</asrwt>
<pdfrwt beam="1">  1        1 0.28500606E-01 0.13099284E+03</pdfrwt>
<pdfrwt beam="2">  1       -1 0.30843254E-01 0.13099284E+03</pdfrwt>
<totfact> 0.15443140E+03</totfact>
</mgrwt>
</event>
<event>
 7    1  0.6095443E-006  0.1422637E+03  0.7546771E-02  0.1221373E+00
          2   -1    0    0  501    0  0.00000000000E+00  0.00000000000E+00  0.53765736621E+03  0.53765736621E+03  0.00000000000E+00 0.  1.
         -2   -1    0    0    0  501 -0.00000000000E+00 -0.00000000000E+00 -0.30204589945E+02  0.30204589945E+02  0.00000000000E+00 0. -1.
         23    2    1    2    0    0 -0.67053763107E+02  0.10944665958E+02  0.28497122992E+03  0.31850835319E+03  0.12499190499E+03 0.  0.
          5    1    3    3  502    0  0.10351391772E+02 -0.39110653785E+02  0.14679205247E+03  0.15233775376E+03  0.47000000000E+01 0. -1.
         -5    1    3    3    0  502 -0.77405154880E+02  0.50055319743E+02  0.13817917745E+03  0.16617059943E+03  0.47000000000E+01 0. -1.
        -11    1    1    2    0    0  0.41157696446E+02 -0.41057304261E+02  0.18791373673E+03  0.19670086594E+03  0.00000000000E+00 0.  1.
         11    1    1    2    0    0  0.25896066661E+02  0.30112638304E+02  0.34567809613E+02  0.52652737019E+02  0.00000000000E+00 0. -1.
<mgrwt>
<rscale>  0 0.13418595E+03</rscale>
<asrwt>0</asrwt>
<pdfrwt beam="1">  1        2 0.82716511E-01 0.14226373E+03</pdfrwt>
<pdfrwt beam="2">  1       -2 0.46468604E-02 0.14226373E+03</pdfrwt>
<totfact> 0.11964146E+04</totfact>
</mgrwt>
</event>
<event>
 7    1  0.6095443E-006  0.2115107E+03  0.7546771E-02  0.1144025E+00
          3   -1    0    0  501    0  0.00000000000E+00  0.00000000000E+00  0.37047220352E+02  0.37047220352E+02  0.00000000000E+00 0. -1.
         -3   -1    0    0    0  501 -0.00000000000E+00 -0.00000000000E+00 -0.11900936139E+04  0.11900936139E+04  0.00000000000E+00 0.  1.
         23    2    1    2    0    0  0.57665428394E+02  0.16057849828E+03 -0.76076224463E+03  0.78961761839E+03  0.12500413868E+03 0.  0.
          5    1    3    3  502    0  0.28041054763E+02  0.36648284041E+02 -0.52868183777E+02  0.70331588431E+02  0.47000000000E+01 0.  1.
         -5    1    3    3    0  502  0.29624373631E+02  0.12393021424E+03 -0.70789406085E+03  0.71928602996E+03  0.47000000000E+01 0.  1.
        -11    1    1    2    0    0 -0.47624099304E+02 -0.89075771618E+02 -0.12527453760E+03  0.16092314220E+03  0.00000000000E+00 0.  1.
         11    1    1    2    0    0 -0.10041329090E+02 -0.71502726658E+02 -0.26700961128E+03  0.27660007362E+03  0.00000000000E+00 0. -1.
<mgrwt>
<rscale>  0 0.20692391E+03</rscale>
<asrwt>0</asrwt>
<pdfrwt beam="1">  1        3 0.56995731E-02 0.21151073E+03</pdfrwt>
<pdfrwt beam="2">  1       -3 0.18309130E+00 0.21151073E+03</pdfrwt>
<totfact> 0.92531498E+01</totfact>
</mgrwt>
</event>
<event>
 7    1  0.6095443E-006  0.1323673E+03  0.7546771E-02  0.1235237E+00
          1   -1    0    0  501    0  0.00000000000E+00  0.00000000000E+00  0.41610424322E+03  0.41610424322E+03  0.00000000000E+00 0. -1.
         -1   -1    0    0    0  501 -0.00000000000E+00 -0.00000000000E+00 -0.35027191546E+02  0.35027191546E+02  0.00000000000E+00 0.  1.
         23    2    1    2    0    0  0.38527589260E+02 -0.20302655830E+02  0.17032321442E+03  0.21571065454E+03  0.12499806456E+03 0.  0.
          5    1    3    3  502    0 -0.71897996927E+01  0.32253840355E+02  0.13182126543E+03  0.13598139379E+03  0.47000000000E+01 0. -1.
         -5    1    3    3    0  502  0.45717388953E+02 -0.52556496184E+02  0.38501948985E+02  0.79729260748E+02  0.47000000000E+01 0. -1.
        -11    1    1    2    0    0 -0.63836745415E+01  0.42257078741E+02  0.18220003098E+03  0.18714503278E+03  0.00000000000E+00 0. -1.
         11    1    1    2    0    0 -0.32143914718E+02 -0.21954422911E+02  0.28553806278E+02  0.48275747449E+02  0.00000000000E+00 0.  1.
<mgrwt>
<rscale>  0 0.12489295E+03</rscale>
<asrwt>0</asrwt>
<pdfrwt beam="1">  1        1 0.64016034E-01 0.13236725E+03</pdfrwt>
<pdfrwt beam="2">  1       -1 0.53887990E-02 0.13236725E+03</pdfrwt>
<totfact> 0.86016595E+03</totfact>
</mgrwt>
</event>
<event>
 7    1  0.6095443E-006  0.1387915E+03  0.7546771E-02  0.1226448E+00
         -2   -1    0    0    0  501 -0.00000000000E+00  0.00000000000E+00  0.32163434668E+03  0.32163434668E+03  0.00000000000E+00 0.  1.
          2   -1    0    0  501    0  0.00000000000E+00 -0.00000000000E+00 -0.54087706508E+02  0.54087706508E+02  0.00000000000E+00 0. -1.
         23    2    1    2    0    0  0.59445576284E+02 -0.10198132280E+02  0.21178167149E+03  0.25320850729E+03  0.12500117336E+03 0.  0.
          5    1    3    3  502    0 -0.34879577070E+02 -0.18940450849E+02  0.37580444279E+02  0.54860781685E+02  0.47000000000E+01 0.  1.
         -5    1    3    3    0  502  0.94325153354E+02  0.87423185694E+01  0.17420122722E+03  0.19834772561E+03  0.47000000000E+01 0.  1.
        -11    1    1    2    0    0 -0.40107194794E+02  0.87886426541E+01 -0.19024014680E+02  0.45251966239E+02  0.00000000000E+00 0. -1.
         11    1    1    2    0    0 -0.19338381490E+02  0.14094896258E+01  0.74788983361E+02  0.77261579662E+02  0.00000000000E+00 0.  1.
<mgrwt>
<rscale>  0 0.13068168E+03</rscale>
<asrwt>0</asrwt>
<pdfrwt beam="2">  1        2 0.83211858E-02 0.13879147E+03</pdfrwt>
<pdfrwt beam="1">  1       -2 0.49482206E-01 0.13879147E+03</pdfrwt>
<totfact> 0.30438803E+03</totfact>
</mgrwt>
</event>
<event>
 6    1  0.6095443E-006  0.2857306E+03  0.7546771E-02  0.1098038E+00
          2   -1    0    0  501    0  0.00000000000E+00  0.00000000000E+00  0.14364407025E+04  0.14364407025E+04  0.00000000000E+00 0. -1.
         -2   -1    0    0    0  501 -0.00000000000E+00 -0.00000000000E+00 -0.75384009248E+02  0.75384009248E+02  0.00000000000E+00 0.  1.
          5    1    1    2  502    0  0.72254858902E+02  0.20782583261E+03  0.28937658385E+03  0.36355637611E+03  0.47000000000E+01 0. -1.
         -5    1    1    2    0  502 -0.16256293172E+02  0.15833440056E+02 -0.18888720331E+02  0.29897134436E+02  0.47000000000E+01 0.  1.
        -11    1    1    2    0    0  0.22743851648E+02 -0.68797488076E+02  0.38230641307E+03  0.38911254236E+03  0.00000000000E+00 0. -1.
         11    1    1    2    0    0 -0.78742417379E+02 -0.15486178459E+03  0.70826241667E+03  0.72925865883E+03  0.00000000000E+00 0.  1.
<mgrwt>
<rscale>  0 0.27574065E+03</rscale>
<asrwt>0</asrwt>
<pdfrwt beam="1">  1        2 0.22099086E+00 0.28573061E+03</pdfrwt>
<pdfrwt beam="2">  1       -2 0.11597541E-01 0.28573061E+03</pdfrwt>
<totfact> 0.77258445E+02</totfact>
</mgrwt>
</event>
<event>
 7    1  0.6095443E-006  0.1692236E+03  0.7546771E-02  0.1185464E+00
          2   -1    0    0  501    0  0.00000000000E+00  0.00000000000E+00  0.36151731071E+03  0.36151731071E+03  0.00000000000E+00 0. -1.
         -2   -1    0    0    0  501 -0.00000000000E+00 -0.00000000000E+00 -0.83293715296E+02  0.83293715296E+02  0.00000000000E+00 0.  1.
         23    2    1    2    0    0  0.60073553946E+02  0.96962328876E+02  0.54013658080E+02  0.17763475964E+03  0.12500442980E+03 0.  0.
          5    1    3    3  502    0  0.74213588435E+02  0.71412922992E+01  0.66398969723E+01  0.74998886631E+02  0.47000000000E+01 0.  1.
         -5    1    3    3    0  502 -0.14140034488E+02  0.89821036576E+02  0.47373761108E+02  0.10263587301E+03  0.47000000000E+01 0.  1.
        -11    1    1    2    0    0 -0.77032097243E+02 -0.57198665469E+02  0.18683403811E+03  0.21002997199E+03  0.00000000000E+00 0. -1.
         11    1    1    2    0    0  0.16958543297E+02 -0.39763663407E+02  0.37375899226E+02  0.57146294379E+02  0.00000000000E+00 0.  1.
<mgrwt>
<rscale>  0 0.16289758E+03</rscale>
<asrwt>0</asrwt>
<pdfrwt beam="1">  1        2 0.55618047E-01 0.16922362E+03</pdfrwt>
<pdfrwt beam="2">  1       -2 0.12814418E-01 0.16922362E+03</pdfrwt>
<totfact> 0.38650951E+03</totfact>
</mgrwt>
</event>
<event>
 7    1  0.6095443E-006  0.1520585E+03  0.7546771E-02  0.1206802E+00
         -3   -1    0    0    0  501 -0.00000000000E+00  0.00000000000E+00  0.13647272393E+03  0.13647272393E+03  0.00000000000E+00 0.  1.
          3   -1    0    0  501    0  0.00000000000E+00 -0.00000000000E+00 -0.14168585663E+03  0.14168585663E+03  0.00000000000E+00 0. -1.
         23    2    1    2    0    0  0.51472131214E+02  0.69624140185E+02  0.50032788549E+01  0.15214084056E+03  0.12499960551E+03 0.  0.
          5    1    3    3  502    0 -0.31711715275E+02  0.47029104547E+02 -0.22998035446E+02  0.61387044192E+02  0.47000000000E+01 0. -1.
         -5    1    3    3    0  502  0.83183846489E+02  0.22595035638E+02  0.28001314301E+02  0.90753796366E+02  0.47000000000E+01 0. -1.
        -11    1    1    2    0    0 -0.35601316732E+02 -0.47305319506E+02  0.38152866723E+02  0.70433573285E+02  0.00000000000E+00 0.  1.
         11    1    1    2    0    0 -0.15870814482E+02 -0.22318820679E+02 -0.48369278276E+02  0.55584166719E+02  0.00000000000E+00 0. -1.
<mgrwt>
<rscale>  0 0.14496330E+03</rscale>
<asrwt>0</asrwt>
<pdfrwt beam="2">  1        3 0.21797824E-01 0.15205855E+03</pdfrwt>
<pdfrwt beam="1">  1       -3 0.20995804E-01 0.15205855E+03</pdfrwt>
<totfact> 0.93002727E+02</totfact>
</mgrwt>
</event>
<event>
 7    1  0.6095443E-006  0.1251151E+03  0.7546771E-02  0.1250993E+00
         -3   -1    0    0    0  501 -0.00000000000E+00  0.00000000000E+00  0.29063149983E+02  0.29063149983E+02  0.00000000000E+00 0.  1.
          3   -1    0    0  501    0  0.00000000000E+00 -0.00000000000E+00 -0.40514281791E+03  0.40514281791E+03  0.00000000000E+00 0. -1.
         23    2    1    2    0    0  0.45983542399E+01  0.27883049057E+01 -0.19235609264E+03  0.22946601369E+03  0.12499946223E+03 0.  0.
          5    1    3    3  502    0 -0.30660780968E+02  0.46804065042E+02 -0.14561921673E+03  0.15606969685E+03  0.47000000000E+01 0. -1.
         -5    1    3    3    0  502  0.35259135208E+02 -0.44015760136E+02 -0.46736875910E+02  0.73396316841E+02  0.47000000000E+01 0. -1.
        -11    1    1    2    0    0  0.17774542816E+02  0.35689420829E+02 -0.12401872258E+03  0.13027015269E+03  0.00000000000E+00 0. -1.
         11    1    1    2    0    0 -0.22372897056E+02 -0.38477725734E+02 -0.59704852705E+02  0.74469801510E+02  0.00000000000E+00 0.  1.
<mgrwt>
<rscale>  0 0.11533757E+03</rscale>
<asrwt>0</asrwt>
<pdfrwt beam="2">  1        3 0.62329663E-01 0.12511509E+03</pdfrwt>
<pdfrwt beam="1">  1       -3 0.44712540E-02 0.12511509E+03</pdfrwt>
<totfact> 0.15703911E+03</totfact>
</mgrwt>
</event>
<event>
 7    1  0.6095443E-006  0.1284341E+03  0.7546771E-02  0.1245114E+00
          1   -1    0    0  501    0  0.00000000000E+00  0.00000000000E+00  0.56519948193E+03  0.56519948193E+03  0.00000000000E+00 0. -1.
         -1   -1    0    0    0  501 -0.00000000000E+00 -0.00000000000E+00 -0.21906415503E+02  0.21906415503E+02  0.00000000000E+00 0.  1.
         23    2    1    2    0    0  0.29493669518E+02  0.74474280830E+00  0.30356766748E+03  0.32961895674E+03  0.12499958687E+03 0.  0.
          5    1    3    3  502    0 -0.34789897666E+02  0.21743552222E+02  0.40065279119E+02  0.57536385303E+02  0.47000000000E+01 0.  1.
         -5    1    3    3    0  502  0.64283567184E+02 -0.20998809414E+02  0.26350238836E+03  0.27208257143E+03  0.47000000000E+01 0.  1.
        -11    1    1    2    0    0 -0.25650943206E+01  0.40533344697E+02  0.14662434825E+03  0.15214542794E+03  0.00000000000E+00 0. -1.
         11    1    1    2    0    0 -0.26928575197E+02 -0.41278087506E+02  0.93101050697E+02  0.10534151276E+03  0.00000000000E+00 0.  1.
<mgrwt>
<rscale>  0 0.11878543E+03</rscale>
<asrwt>0</asrwt>
<pdfrwt beam="1">  1        1 0.86953755E-01 0.12843414E+03</pdfrwt>
<pdfrwt beam="2">  1       -1 0.33702182E-02 0.12843414E+03</pdfrwt>
<totfact> 0.11501988E+04</totfact>
</mgrwt>
</event>
<event>
 7    1  0.6095443E-006  0.1886454E+03  0.7546771E-02  0.1165330E+00
          2   -1    0    0  501    0  0.00000000000E+00  0.00000000000E+00  0.86165160078E+03  0.86165160078E+03  0.00000000000E+00 0. -1.
         -2   -1    0    0    0  501 -0.00000000000E+00 -0.00000000000E+00 -0.36416836987E+02  0.36416836987E+02  0.00000000000E+00 0.  1.
         23    2    1    2    0    0 -0.12300312023E+03  0.69513880790E+02  0.45056958175E+03  0.48846702116E+03  0.12500054222E+03 0.  0.
          5    1    3    3  502    0 -0.12069730035E+03  0.30510950146E+01  0.26378139271E+03  0.29013765807E+03  0.47000000000E+01 0.  1.
         -5    1    3    3    0  502 -0.23058198808E+01  0.66462785776E+02  0.18678818904E+03  0.19832936309E+03  0.47000000000E+01 0.  1.
        -11    1    1    2    0    0  0.38386962083E+02 -0.44612927973E+02  0.65304591852E+02  0.87912239860E+02  0.00000000000E+00 0. -1.
         11    1    1    2    0    0  0.84616158146E+02 -0.24900952817E+02  0.30936059019E+03  0.32168917674E+03  0.00000000000E+00 0.  1.
<mgrwt>
<rscale>  0 0.18257955E+03</rscale>
<asrwt>0</asrwt>
<pdfrwt beam="1">  1        2 0.13256177E+00 0.18864539E+03</pdfrwt>
<pdfrwt beam="2">  1       -2 0.56025909E-02 0.18864539E+03</pdfrwt>
<totfact> 0.52177652E+03</totfact>
</mgrwt>
</event>
<event>
 7    1  0.6095443E-006  0.1383324E+03  0.7546771E-02  0.1227344E+00
         -2   -1    0    0    0  501 -0.00000000000E+00  0.00000000000E+00  0.29621436546E+02  0.29621436546E+02  0.00000000000E+00 0.  1.
          2   -1    0    0  501    0  0.00000000000E+00 -0.00000000000E+00 -0.51368223790E+03  0.51368223790E+03  0.00000000000E+00 0. -1.
         23    2    1    2    0    0  0.58289774509E+02  0.10440835844E+02 -0.28320467022E+03  0.31518363961E+03  0.12501652921E+03 0.  0.
          5    1    3    3  502    0 -0.55415531053E+01 -0.49146618640E+02 -0.83325936149E+02  0.97012373281E+02  0.47000000000E+01 0. -1.
         -5    1    3    3    0  502  0.63831327614E+02  0.59587454484E+02 -0.19987873407E+03  0.21817126633E+03  0.47000000000E+01 0. -1.
        -11    1    1    2    0    0  0.18150114953E+02 -0.22338622401E+02 -0.36630121996E+02  0.46585475859E+02  0.00000000000E+00 0.  1.
         11    1    1    2    0    0 -0.76439889462E+02  0.11897786557E+02 -0.16422600913E+03  0.18153455897E+03  0.00000000000E+00 0. -1.
<mgrwt>
<rscale>  0 0.13007549E+03</rscale>
<asrwt>0</asrwt>
<pdfrwt beam="2">  1        2 0.79028030E-01 0.13833236E+03</pdfrwt>
<pdfrwt beam="1">  1       -2 0.45571445E-02 0.13833236E+03</pdfrwt>
<totfact> 0.12931368E+04</totfact>
</mgrwt>
</event>
<event>
 7    1  0.6095443E-006  0.1272966E+03  0.7546771E-02  0.1237697E+00
          2   -1    0    0  501    0  0.00000000000E+00  0.00000000000E+00  0.40260247349E+03  0.40260247349E+03  0.00000000000E+00 0. -1.
         -2   -1    0    0    0  501 -0.00000000000E+00 -0.00000000000E+00 -0.36171021193E+02  0.36171021193E+02  0.00000000000E+00 0.  1.
         23    2    1    2    0    0 -0.53923561981E+02  0.33627405420E+02  0.16729412695E+03  0.21021831962E+03  0.11029897578E+03 0.  0.
          5    1    3    3  502    0 -0.76512399847E+02  0.36711965777E+02  0.16648564937E+03  0.18692639516E+03  0.47000000000E+01 0. -1.
         -5    1    3    3    0  502  0.22588837866E+02 -0.30845603576E+01  0.80847758087E+00  0.23291924453E+02  0.47000000000E+01 0.  1.
        -11    1    1    2    0    0 -0.28697002494E+01 -0.52297158148E+02  0.94480586168E+02  0.10802689060E+03  0.00000000000E+00 0. -1.
         11    1    1    2    0    0  0.56793262230E+02  0.18669752728E+02  0.10465673917E+03  0.12052828447E+03  0.00000000000E+00 0.  1.
<mgrwt>
<rscale>  0 0.12333330E+03</rscale>
<asrwt>0</asrwt>
<pdfrwt beam="1">  1        2 0.61938839E-01 0.12729657E+03</pdfrwt>
<pdfrwt beam="2">  1       -2 0.55647728E-02 0.12729657E+03</pdfrwt>
<totfact> 0.12395586E+04</totfact>
</mgrwt>
</event>
<event>
 7    1  0.6095443E-006  0.1943871E+03  0.7546771E-02  0.1158972E+00
         -1   -1    0    0    0  501 -0.00000000000E+00  0.00000000000E+00  0.87881483264E+02  0.87881483264E+02  0.00000000000E+00 0.  1.
          1   -1    0    0  501    0  0.00000000000E+00 -0.00000000000E+00 -0.39309277357E+03  0.39309277357E+03  0.00000000000E+00 0. -1.
         23    2    1    2    0    0 -0.13018326158E+03  0.72229175021E+02 -0.13539090963E+03  0.23689037715E+03  0.12498646750E+03 0.  0.
          5    1    3    3  502    0  0.43066099112E+01  0.30413922191E+02  0.11686523799E+02  0.33199674553E+02  0.47000000000E+01 0.  1.
         -5    1    3    3    0  502 -0.13448987149E+03  0.41815252830E+02 -0.14707743342E+03  0.20369070260E+03  0.47000000000E+01 0.  1.
        -11    1    1    2    0    0  0.11855713929E+02 -0.54266760589E+02 -0.57556215314E+02  0.79988481538E+02  0.00000000000E+00 0. -1.
         11    1    1    2    0    0  0.11832754765E+03 -0.17962414432E+02 -0.11226416536E+03  0.16409539814E+03  0.00000000000E+00 0.  1.
<mgrwt>
<rscale>  0 0.18943491E+03</rscale>
<asrwt>0</asrwt>
<pdfrwt beam="2">  1        1 0.60475811E-01 0.19438712E+03</pdfrwt>
<pdfrwt beam="1">  1       -1 0.13520228E-01 0.19438712E+03</pdfrwt>
<totfact> 0.23233869E+03</totfact>
</mgrwt>
</event>
<event>
 7    1  0.6095443E-006  0.1878859E+03  0.7546771E-02  0.1165312E+00
         -2   -1    0    0    0  501 -0.00000000000E+00  0.00000000000E+00  0.44814044363E+02  0.44814044363E+02  0.00000000000E+00 0. -1.
          2   -1    0    0  501    0  0.00000000000E+00 -0.00000000000E+00 -0.71045037417E+03  0.71045037417E+03  0.00000000000E+00 0.  1.
         23    2    1    2    0    0 -0.18315927146E+02 -0.13907280508E+03 -0.38464437786E+03  0.42807989552E+03  0.12499752490E+03 0.  0.
          5    1    3    3  502    0 -0.39592172399E+02 -0.15519038828E+03 -0.33977444348E+03  0.37565989828E+03  0.47000000000E+01 0. -1.
         -5    1    3    3    0  502  0.21276245253E+02  0.16117583198E+02 -0.44869934373E+02  0.52419997242E+02  0.47000000000E+01 0. -1.
        -11    1    1    2    0    0  0.30809060046E+01 -0.13352133101E+02 -0.15666357039E+02  0.20813605719E+02  0.00000000000E+00 0.  1.
         11    1    1    2    0    0  0.15235021141E+02  0.15242493818E+03 -0.26532559491E+03  0.30637091729E+03  0.00000000000E+00 0. -1.
<mgrwt>
<rscale>  0 0.18259791E+03</rscale>
<asrwt>0</asrwt>
<pdfrwt beam="2">  1        2 0.10930005E+00 0.18788587E+03</pdfrwt>
<pdfrwt beam="1">  1       -2 0.68944686E-02 0.18788587E+03</pdfrwt>
<totfact> 0.48335765E+03</totfact>
</mgrwt>
</event>
<event>
 7    1  0.6095443E-006  0.1258109E+03  0.7546771E-02  0.1246227E+00
         -1   -1    0    0    0  501 -0.00000000000E+00  0.00000000000E+00  0.17967613792E+03  0.17967613792E+03  0.00000000000E+00 0.  1.
          1   -1    0    0  501    0  0.00000000000E+00 -0.00000000000E+00 -0.81882400653E+02  0.81882400653E+02  0.00000000000E+00 0. -1.
         23    2    1    2    0    0  0.11997679186E+02 -0.77654435637E+01  0.10452131118E+03  0.16356369829E+03  0.12499652989E+03 0.  0.
          5    1    3    3  502    0  0.14797939131E+02  0.47627727035E+02  0.60628060239E+01  0.50460152615E+02  0.47000000000E+01 0.  1.
         -5    1    3    3    0  502 -0.28002599447E+01 -0.55393170599E+02  0.98458505160E+02  0.11310354567E+03  0.47000000000E+01 0.  1.
        -11    1    1    2    0    0 -0.44077845263E+02  0.31745782841E+02 -0.16494111126E+02  0.56768890011E+02  0.00000000000E+00 0.  1.
         11    1    1    2    0    0  0.32080166077E+02 -0.23980339277E+02  0.97665372127E+01  0.41225950280E+02  0.00000000000E+00 0. -1.
<mgrwt>
<rscale>  0 0.11812260E+03</rscale>
<asrwt>0</asrwt>
<pdfrwt beam="2">  1        1 0.12597292E-01 0.12581089E+03</pdfrwt>
<pdfrwt beam="1">  1       -1 0.27642483E-01 0.12581089E+03</pdfrwt>
<totfact> 0.52376515E+03</totfact>
</mgrwt>
</event>
<event>
 7    1  0.6095443E-006  0.1568397E+03  0.7546771E-02  0.1200966E+00
         -1   -1    0    0    0  501 -0.00000000000E+00  0.00000000000E+00  0.31369619974E+03  0.31369619974E+03  0.00000000000E+00 0.  1.
          1   -1    0    0  501    0  0.00000000000E+00 -0.00000000000E+00 -0.65511038132E+02  0.65511038132E+02  0.00000000000E+00 0. -1.
         23    2    1    2    0    0 -0.12600897506E+02  0.93897135146E+02  0.13915913036E+03  0.20967586894E+03  0.12499300720E+03 0.  0.
          5    1    3    3  502    0  0.23542224930E+01  0.85053986195E+02  0.17884314750E+02  0.87072737670E+02  0.47000000000E+01 0. -1.
         -5    1    3    3    0  502 -0.14955119999E+02  0.88431489511E+01  0.12127481561E+03  0.12260313127E+03  0.47000000000E+01 0. -1.
        -11    1    1    2    0    0  0.46839338169E+02 -0.29719448604E+02  0.34154573086E+02  0.65143718716E+02  0.00000000000E+00 0.  1.
         11    1    1    2    0    0 -0.34238440663E+02 -0.64177686542E+02  0.74871458163E+02  0.10438765021E+03  0.00000000000E+00 0. -1.
<mgrwt>
<rscale>  0 0.14959967E+03</rscale>
<asrwt>0</asrwt>
<pdfrwt beam="2">  1        1 0.10078621E-01 0.15683975E+03</pdfrwt>
<pdfrwt beam="1">  1       -1 0.48260953E-01 0.15683975E+03</pdfrwt>
<totfact> 0.27108343E+03</totfact>
</mgrwt>
</event>
<event>
 7    1  0.6095443E-006  0.1545854E+03  0.7546771E-02  0.1203425E+00
          2   -1    0    0  501    0  0.00000000000E+00  0.00000000000E+00  0.30750091734E+03  0.30750091734E+03  0.00000000000E+00 0. -1.
         -2   -1    0    0    0  501 -0.00000000000E+00 -0.00000000000E+00 -0.79057047692E+02  0.79057047692E+02  0.00000000000E+00 0.  1.
         23    2    1    2    0    0  0.29051748576E+02 -0.86188395979E+02  0.42183536244E+02  0.16023766923E+03  0.12499686482E+03 0.  0.
          5    1    3    3  502    0 -0.33837411323E+02 -0.84870113753E+02  0.26216442628E+02  0.95169840167E+02  0.47000000000E+01 0.  1.
         -5    1    3    3    0  502  0.62889159899E+02 -0.13182822261E+01  0.15967093616E+02  0.65067829066E+02  0.47000000000E+01 0.  1.
        -11    1    1    2    0    0 -0.50719894282E+02  0.76156017025E+02  0.17954518572E+03  0.20151605475E+03  0.00000000000E+00 0. -1.
         11    1    1    2    0    0  0.21668145706E+02  0.10032378954E+02  0.67151476829E+01  0.24804241053E+02  0.00000000000E+00 0.  1.
<mgrwt>
<rscale>  0 0.14762295E+03</rscale>
<asrwt>0</asrwt>
<pdfrwt beam="1">  1        2 0.47307833E-01 0.15458545E+03</pdfrwt>
<pdfrwt beam="2">  1       -2 0.12162623E-01 0.15458545E+03</pdfrwt>
<totfact> 0.49741427E+03</totfact>
</mgrwt>
</event>
<event>
 7    1  0.6095443E-006  0.1884513E+03  0.7546771E-02  0.1164751E+00
         -2   -1    0    0    0  501 -0.00000000000E+00  0.00000000000E+00  0.65879831226E+02  0.65879831226E+02  0.00000000000E+00 0.  1.
          2   -1    0    0  501    0  0.00000000000E+00 -0.00000000000E+00 -0.64781941569E+03  0.64781941569E+03  0.00000000000E+00 0. -1.
         23    2    1    2    0    0 -0.12397449763E+03 -0.67207959283E+02 -0.12339791958E+03  0.22525747988E+03  0.12500919897E+03 0.  0.
          5    1    3    3  502    0 -0.82657912150E+02 -0.97059544511E+02 -0.52831630275E+02  0.13808025485E+03  0.47000000000E+01 0.  1.
         -5    1    3    3    0  502 -0.41316585484E+02  0.29851585229E+02 -0.70566289309E+02  0.87177225028E+02  0.47000000000E+01 0.  1.
        -11    1    1    2    0    0  0.74308759590E+01 -0.11397057723E+02 -0.65607612810E+01  0.15104781721E+02  0.00000000000E+00 0. -1.
         11    1    1    2    0    0  0.11654362168E+03  0.78605017005E+02 -0.45198090359E+03  0.47333698531E+03  0.00000000000E+00 0.  1.
<mgrwt>
<rscale>  0 0.18318976E+03</rscale>
<asrwt>0</asrwt>
<pdfrwt beam="2">  1        2 0.99664524E-01 0.18845128E+03</pdfrwt>
<pdfrwt beam="1">  1       -2 0.10135359E-01 0.18845128E+03</pdfrwt>
<totfact> 0.29558990E+03</totfact>
</mgrwt>
</event>
<event>
 6    1  0.6095443E-006  0.1420325E+03  0.7546771E-02  0.1228362E+00
          1   -1    0    0  501    0  0.00000000000E+00  0.00000000000E+00  0.25376514282E+02  0.25376514282E+02  0.00000000000E+00 0. -1.
         -1   -1    0    0    0  501 -0.00000000000E+00 -0.00000000000E+00 -0.57099080611E+03  0.57099080611E+03  0.00000000000E+00 0.  1.
          5    1    1    2  502    0 -0.70874516528E+02  0.57717975900E+01 -0.16796839274E+03  0.18246090458E+03  0.47000000000E+01 0. -1.
         -5    1    1    2    0  502  0.56825538545E+02 -0.41763208847E+02 -0.17991106780E+03  0.19329611936E+03  0.47000000000E+01 0.  1.
        -11    1    1    2    0    0  0.49373078968E+02  0.70602910711E+01 -0.79320091637E+02  0.93697521708E+02  0.00000000000E+00 0.  1.
         11    1    1    2    0    0 -0.35324100986E+02  0.28931120186E+02 -0.11841473965E+03  0.12691277474E+03  0.00000000000E+00 0. -1.
<mgrwt>
<rscale>  0 0.12939092E+03</rscale>
<asrwt>0</asrwt>
<pdfrwt beam="1">  1        1 0.39040795E-02 0.14203247E+03</pdfrwt>
<pdfrwt beam="2">  1       -1 0.87844730E-01 0.14203247E+03</pdfrwt>
<totfact> 0.30419665E+03</totfact>
</mgrwt>
</event>
<event>
 7    1  0.6095443E-006  0.1455545E+03  0.7546771E-02  0.1215981E+00
         -3   -1    0    0    0  501 -0.00000000000E+00  0.00000000000E+00  0.24103330550E+02  0.24103330550E+02  0.00000000000E+00 0.  1.
          3   -1    0    0  501    0  0.00000000000E+00 -0.00000000000E+00 -0.71928283480E+03  0.71928283480E+03  0.00000000000E+00 0. -1.
         23    2    1    2    0    0 -0.12919713630E+01  0.74511194676E+02 -0.38005487777E+03  0.40697398860E+03  0.12503011619E+03 0.  0.
          5    1    3    3  502    0 -0.34234823119E+02 -0.30112253760E+00 -0.25607795039E+03  0.25839914951E+03  0.47000000000E+01 0.  1.
         -5    1    3    3    0  502  0.32942851756E+02  0.74812317213E+02 -0.12397692738E+03  0.14857483909E+03  0.47000000000E+01 0.  1.
        -11    1    1    2    0    0  0.27826282852E+02  0.29577188623E+00 -0.32171451637E+02  0.42536946280E+02  0.00000000000E+00 0.  1.
         11    1    1    2    0    0 -0.26534311489E+02 -0.74806966562E+02 -0.28295317484E+03  0.29387523047E+03  0.00000000000E+00 0. -1.
<mgrwt>
<rscale>  0 0.13804712E+03</rscale>
<asrwt>0</asrwt>
<pdfrwt beam="2">  1        3 0.11065890E+00 0.14555452E+03</pdfrwt>
<pdfrwt beam="1">  1       -3 0.37082046E-02 0.14555452E+03</pdfrwt>
<totfact> 0.61450002E+02</totfact>
</mgrwt>
</event>
<event>
 7    1  0.6095443E-006  0.2193285E+03  0.7546771E-02  0.1137995E+00
         -2   -1    0    0    0  501 -0.00000000000E+00  0.00000000000E+00  0.30702148487E+02  0.30702148487E+02  0.00000000000E+00 0.  1.
          2   -1    0    0  501    0  0.00000000000E+00 -0.00000000000E+00 -0.14647824080E+04  0.14647824080E+04  0.00000000000E+00 0. -1.
         23    2    1    2    0    0 -0.67218215806E+01  0.18009959142E+03 -0.84876075490E+03  0.87664121660E+03  0.12499583141E+03 0.  0.
          5    1    3    3  502    0  0.45779193067E+02  0.14783679050E+03 -0.54015941349E+03  0.56191256716E+03  0.47000000000E+01 0.  1.
         -5    1    3    3    0  502 -0.52501014647E+02  0.32262800916E+02 -0.30860134141E+03  0.31472864945E+03  0.47000000000E+01 0.  1.
        -11    1    1    2    0    0  0.19004521786E+02 -0.43085707088E+01 -0.11409270130E+03  0.11574489241E+03  0.00000000000E+00 0.  1.
         11    1    1    2    0    0 -0.12282700206E+02 -0.17579102071E+03 -0.47122680328E+03  0.50309844744E+03  0.00000000000E+00 0. -1.
<mgrwt>
<rscale>  0 0.21457356E+03</rscale>
<asrwt>0</asrwt>
<pdfrwt beam="2">  1        2 0.22535115E+00 0.21932853E+03</pdfrwt>
<pdfrwt beam="1">  1       -2 0.47234072E-02 0.21932853E+03</pdfrwt>
<totfact> 0.30401450E+03</totfact>
</mgrwt>
</event>
<event>
 7    1  0.6095443E-006  0.1491896E+03  0.7546771E-02  0.1211025E+00
          1   -1    0    0  501    0  0.00000000000E+00  0.00000000000E+00  0.12997507126E+03  0.12997507126E+03  0.00000000000E+00 0. -1.
         -1   -1    0    0    0  501 -0.00000000000E+00 -0.00000000000E+00 -0.14198113509E+03  0.14198113509E+03  0.00000000000E+00 0.  1.
         23    2    1    2    0    0 -0.63823720972E+02  0.50589361823E+02 -0.18199752476E+02  0.15029563531E+03  0.12499918446E+03 0.  0.
          5    1    3    3  502    0 -0.18820863708E+02  0.88034301146E+02 -0.15754137641E+02  0.91512545270E+02  0.47000000000E+01 0. -1.
         -5    1    3    3    0  502 -0.45002857264E+02 -0.37444939323E+02 -0.24456148356E+01  0.58783090041E+02  0.47000000000E+01 0. -1.
        -11    1    1    2    0    0 -0.16733199500E+02 -0.57305273170E+01  0.21875792311E+02  0.28131640515E+02  0.00000000000E+00 0. -1.
         11    1    1    2    0    0  0.80556920473E+02 -0.44858834506E+02 -0.15682103672E+02  0.93528930523E+02  0.00000000000E+00 0.  1.
<mgrwt>
<rscale>  0 0.14172634E+03</rscale>
<asrwt>0</asrwt>
<pdfrwt beam="1">  1        1 0.19996165E-01 0.14918963E+03</pdfrwt>
<pdfrwt beam="2">  1       -1 0.21843252E-01 0.14918963E+03</pdfrwt>
<totfact> 0.42912217E+03</totfact>
</mgrwt>
</event>
<event>
 6    1  0.6095443E-006  0.2998772E+03  0.7546771E-02  0.1099461E+00
         -2   -1    0    0    0  501 -0.00000000000E+00  0.00000000000E+00  0.92983550652E+02  0.92983550652E+02  0.00000000000E+00 0.  1.
          2   -1    0    0  501    0  0.00000000000E+00 -0.00000000000E+00 -0.70008932939E+03  0.70008932939E+03  0.00000000000E+00 0. -1.
          5    1    1    2  502    0  0.50718117707E+02  0.12178043615E+03 -0.33053328710E+03  0.35591733025E+03  0.47000000000E+01 0. -1.
         -5    1    1    2    0  502  0.71835680783E+02  0.15315533211E+02  0.19493702879E+02  0.76138197004E+02  0.47000000000E+01 0.  1.
        -11    1    1    2    0    0 -0.11550980222E+03 -0.83955332142E+02 -0.25928591424E+03  0.29600709033E+03  0.00000000000E+00 0. -1.
         11    1    1    2    0    0 -0.70439962739E+01 -0.53140637217E+02 -0.36780280281E+02  0.65010262458E+02  0.00000000000E+00 0.  1.
<mgrwt>
<rscale>  0 0.27320180E+03</rscale>
<asrwt>0</asrwt>
<pdfrwt beam="2">  1        2 0.10770605E+00 0.29987723E+03</pdfrwt>
<pdfrwt beam="1">  1       -2 0.14305161E-01 0.29987723E+03</pdfrwt>
<totfact> 0.15541930E+03</totfact>
</mgrwt>
</event>
<event>
 7    1  0.6095443E-006  0.1480932E+03  0.7546771E-02  0.1212403E+00
         -3   -1    0    0    0  501 -0.00000000000E+00  0.00000000000E+00  0.24599243598E+03  0.24599243598E+03  0.00000000000E+00 0.  1.
          3   -1    0    0  501    0  0.00000000000E+00 -0.00000000000E+00 -0.74721824691E+02  0.74721824691E+02  0.00000000000E+00 0. -1.
         23    2    1    2    0    0  0.46024687353E+02 -0.64724018436E+02  0.11553961369E+03  0.18783236703E+03  0.12499650141E+03 0.  0.
          5    1    3    3  502    0  0.80039024140E+02 -0.42705056923E+02  0.34622388455E+02  0.97215055699E+02  0.47000000000E+01 0. -1.
         -5    1    3    3    0  502 -0.34014336788E+02 -0.22018961513E+02  0.80917225232E+02  0.90617311329E+02  0.47000000000E+01 0. -1.
        -11    1    1    2    0    0 -0.42023098000E+02  0.18886111717E+02 -0.15043100452E+02  0.48465666739E+02  0.00000000000E+00 0. -1.
         11    1    1    2    0    0 -0.40015893531E+01  0.45837906719E+02  0.70774098057E+02  0.84416226909E+02  0.00000000000E+00 0.  1.
<mgrwt>
<rscale>  0 0.14069070E+03</rscale>
<asrwt>0</asrwt>
<pdfrwt beam="2">  1        3 0.11495665E-01 0.14809320E+03</pdfrwt>
<pdfrwt beam="1">  1       -3 0.37844990E-01 0.14809320E+03</pdfrwt>
<totfact> 0.94421567E+02</totfact>
</mgrwt>
</event>
<event>
 6    1  0.6095443E-006  0.1665231E+03  0.7546771E-02  0.1195086E+00
          1   -1    0    0  501    0  0.00000000000E+00  0.00000000000E+00  0.58909407729E+03  0.58909407729E+03  0.00000000000E+00 0. -1.
         -1   -1    0    0    0  501 -0.00000000000E+00 -0.00000000000E+00 -0.35676853648E+02  0.35676853648E+02  0.00000000000E+00 0.  1.
          5    1    1    2  502    0 -0.12488041034E+02 -0.86401333314E+02  0.31434806929E+03  0.32627893011E+03  0.47000000000E+01 0. -1.
         -5    1    1    2    0  502  0.37793494187E+02  0.67341092066E+01  0.12672845686E+02  0.40698740122E+02  0.47000000000E+01 0.  1.
        -11    1    1    2    0    0 -0.92758276261E+01 -0.20093969247E+02  0.36379296982E+02  0.42582412181E+02  0.00000000000E+00 0. -1.
         11    1    1    2    0    0 -0.16029625527E+02  0.99761193354E+02  0.19001701168E+03  0.21521084853E+03  0.00000000000E+00 0.  1.
<mgrwt>
<rscale>  0 0.15446983E+03</rscale>
<asrwt>0</asrwt>
<pdfrwt beam="1">  1        1 0.90629851E-01 0.16652307E+03</pdfrwt>
<pdfrwt beam="2">  1       -1 0.54887471E-02 0.16652307E+03</pdfrwt>
<totfact> 0.53811381E+03</totfact>
</mgrwt>
</event>
<event>
 7    1  0.6095443E-006  0.1372430E+03  0.7546771E-02  0.1228785E+00
         -1   -1    0    0    0  501 -0.00000000000E+00  0.00000000000E+00  0.18080815825E+03  0.18080815825E+03  0.00000000000E+00 0.  1.
          1   -1    0    0  501    0  0.00000000000E+00 -0.00000000000E+00 -0.83626104216E+02  0.83626104216E+02  0.00000000000E+00 0. -1.
         23    2    1    2    0    0  0.43454715935E+02  0.36381194472E+02  0.41484657109E+02  0.14337579345E+03  0.12499495080E+03 0.  0.
          5    1    3    3  502    0  0.28178909191E+02  0.63962519162E+02  0.71137204807E+02  0.99839104005E+02  0.47000000000E+01 0. -1.
         -5    1    3    3    0  502  0.15275806744E+02 -0.27581324690E+02 -0.29652547698E+02  0.43536689450E+02  0.47000000000E+01 0. -1.
        -11    1    1    2    0    0 -0.42726551476E+02 -0.14837470074E+01 -0.12418993979E+02  0.44519558822E+02  0.00000000000E+00 0. -1.
         11    1    1    2    0    0 -0.72816445880E+00 -0.34897447465E+02  0.68116390904E+02  0.76538910189E+02  0.00000000000E+00 0.  1.
<mgrwt>
<rscale>  0 0.12910833E+03</rscale>
<asrwt>0</asrwt>
<pdfrwt beam="2">  1        1 0.12865555E-01 0.13724300E+03</pdfrwt>
<pdfrwt beam="1">  1       -1 0.27816640E-01 0.13724300E+03</pdfrwt>
<totfact> 0.50717814E+03</totfact>
</mgrwt>
</event>
<event>
 6    1  0.6095443E-006  0.1449917E+03  0.7546771E-02  0.1226889E+00
          2   -1    0    0  501    0  0.00000000000E+00  0.00000000000E+00  0.13093130760E+03  0.13093130760E+03  0.00000000000E+00 0. -1.
         -2   -1    0    0    0  501 -0.00000000000E+00 -0.00000000000E+00 -0.13252990696E+03  0.13252990696E+03  0.00000000000E+00 0.  1.
          5    1    1    2  502    0  0.28766721542E+02 -0.35025322753E+02  0.38231031246E+02  0.59481083147E+02  0.47000000000E+01 0. -1.
         -5    1    1    2    0  502 -0.20233224811E+02  0.86055350425E+01 -0.92726661612E+02  0.95413638403E+02  0.47000000000E+01 0.  1.
        -11    1    1    2    0    0  0.83034897719E+01 -0.32412394244E+02  0.15756686447E+02  0.36983569471E+02  0.00000000000E+00 0.  1.
         11    1    1    2    0    0 -0.16836986503E+02  0.58832181954E+02  0.37140344562E+02  0.71582923537E+02  0.00000000000E+00 0. -1.
<mgrwt>
<rscale>  0 0.13038236E+03</rscale>
<asrwt>0</asrwt>
<pdfrwt beam="1">  1        2 0.20143278E-01 0.14499173E+03</pdfrwt>
<pdfrwt beam="2">  1       -2 0.20389216E-01 0.14499173E+03</pdfrwt>
<totfact> 0.53569018E+03</totfact>
</mgrwt>
</event>
<event>
 7    1  0.6095443E-006  0.2213749E+03  0.7546771E-02  0.1134897E+00
         -1   -1    0    0    0  501 -0.00000000000E+00  0.00000000000E+00  0.63591501046E+02  0.63591501046E+02  0.00000000000E+00 0.  1.
          1   -1    0    0  501    0  0.00000000000E+00 -0.00000000000E+00 -0.81982003424E+03  0.81982003424E+03  0.00000000000E+00 0. -1.
         23    2    1    2    0    0  0.17734163524E+03 -0.63963855613E+02 -0.24346839025E+03  0.32906489048E+03  0.11604057343E+03 0.  0.
          5    1    3    3  502    0  0.27268405020E+02  0.26935599662E+02 -0.16115826279E+02  0.41843784462E+02  0.47000000000E+01 0. -1.
         -5    1    3    3    0  502  0.15007323022E+03 -0.90899455275E+02 -0.22735256397E+03  0.28722110601E+03  0.47000000000E+01 0.  1.
        -11    1    1    2    0    0 -0.11948616789E+03  0.85113193549E+01 -0.38795368935E+03  0.40602641781E+03  0.00000000000E+00 0.  1.
         11    1    1    2    0    0 -0.57855467347E+02  0.55452536258E+02 -0.12480645359E+03  0.14832022700E+03  0.00000000000E+00 0. -1.
<mgrwt>
<rscale>  0 0.21864589E+03</rscale>
<asrwt>0</asrwt>
<pdfrwt beam="2">  1        1 0.12612615E+00 0.22137490E+03</pdfrwt>
<pdfrwt beam="1">  1       -1 0.97833089E-02 0.22137490E+03</pdfrwt>
<totfact> 0.13982762E+03</totfact>
</mgrwt>
</event>
<event>
 7    1  0.6095443E-006  0.1380838E+03  0.7546771E-02  0.1228001E+00
          1   -1    0    0  501    0  0.00000000000E+00  0.00000000000E+00  0.18672920964E+03  0.18672920964E+03  0.00000000000E+00 0. -1.
         -1   -1    0    0    0  501 -0.00000000000E+00 -0.00000000000E+00 -0.93951214278E+02  0.93951214278E+02  0.00000000000E+00 0.  1.
         23    2    1    2    0    0  0.47554083657E+02  0.34355565626E+02 -0.11782010773E+01  0.13808887544E+03  0.12500181439E+03 0.  0.
          5    1    3    3  502    0  0.73084998525E+02 -0.92440041989E+01  0.28703379863E+02  0.79201279274E+02  0.47000000000E+01 0. -1.
         -5    1    3    3    0  502 -0.25530914868E+02  0.43599569825E+02 -0.29881580941E+02  0.58887596168E+02  0.47000000000E+01 0. -1.
        -11    1    1    2    0    0  0.12657715815E+02 -0.35936500653E+02  0.65953845976E+02  0.76167969960E+02  0.00000000000E+00 0. -1.
         11    1    1    2    0    0 -0.60211799472E+02  0.15809350265E+01  0.28002350462E+02  0.66423578514E+02  0.00000000000E+00 0.  1.
<mgrwt>
<rscale>  0 0.12963313E+03</rscale>
<asrwt>0</asrwt>
<pdfrwt beam="1">  1        1 0.28727571E-01 0.13808385E+03</pdfrwt>
<pdfrwt beam="2">  1       -1 0.14454033E-01 0.13808385E+03</pdfrwt>
<totfact> 0.52208098E+03</totfact>
</mgrwt>
</event>
<event>
 7    1  0.6095443E-006  0.1300097E+03  0.7546771E-02  0.1241407E+00
          1   -1    0    0  501    0  0.00000000000E+00  0.00000000000E+00  0.57851648831E+02  0.57851648831E+02  0.00000000000E+00 0. -1.
         -1   -1    0    0    0  501 -0.00000000000E+00 -0.00000000000E+00 -0.24650052198E+03  0.24650052198E+03  0.00000000000E+00 0.  1.
         23    2    1    2    0    0 -0.34927569270E+01  0.35570823088E+02 -0.15209641291E+03  0.20008959664E+03  0.12500018023E+03 0.  0.
          5    1    3    3  502    0  0.46867242841E+02  0.38979212152E+02 -0.30448457756E+02  0.68301654528E+02  0.47000000000E+01 0.  1.
         -5    1    3    3    0  502 -0.50359999768E+02 -0.34083890642E+01 -0.12164795516E+03  0.13178794211E+03  0.47000000000E+01 0.  1.
        -11    1    1    2    0    0 -0.11427712228E+02 -0.35891650288E+02  0.22147145297E+02  0.43695528513E+02  0.00000000000E+00 0. -1.
         11    1    1    2    0    0  0.14920469155E+02  0.32082720033E+00 -0.58699605530E+02  0.60567045654E+02  0.00000000000E+00 0.  1.
<mgrwt>
<rscale>  0 0.12103046E+03</rscale>
<asrwt>0</asrwt>
<pdfrwt beam="1">  1        1 0.89002538E-02 0.13000972E+03</pdfrwt>
<pdfrwt beam="2">  1       -1 0.37923157E-01 0.13000972E+03</pdfrwt>
<totfact> 0.48564528E+03</totfact>
</mgrwt>
</event>
<event>
 7    1  0.6095443E-006  0.1285170E+03  0.7546771E-02  0.1242525E+00
         -4   -1    0    0    0  501 -0.00000000000E+00  0.00000000000E+00  0.30956098043E+03  0.30956098043E+03  0.00000000000E+00 0.  1.
          4   -1    0    0  501    0  0.00000000000E+00 -0.00000000000E+00 -0.41893751585E+02  0.41893751585E+02  0.00000000000E+00 0. -1.
         23    2    1    2    0    0  0.27941096964E+02 -0.10498808406E+02  0.14070069447E+03  0.19056050133E+03  0.12500275743E+03 0.  0.
          5    1    3    3  502    0  0.65706475136E+02 -0.17790316317E+02  0.32399005901E+02  0.75535566542E+02  0.47000000000E+01 0. -1.
         -5    1    3    3    0  502 -0.37765378172E+02  0.72915079112E+01  0.10830168857E+03  0.11502493479E+03  0.47000000000E+01 0. -1.
        -11    1    1    2    0    0 -0.20248812257E+02  0.34273171695E+02  0.96698440312E+01  0.40965480340E+02  0.00000000000E+00 0. -1.
         11    1    1    2    0    0 -0.76922847075E+01 -0.23774363289E+02  0.11729669034E+03  0.11992875034E+03  0.00000000000E+00 0.  1.
<mgrwt>
<rscale>  0 0.12034763E+03</rscale>
<asrwt>0</asrwt>
<pdfrwt beam="2">  1        4 0.64451927E-02 0.12851700E+03</pdfrwt>
<pdfrwt beam="1">  1       -4 0.47624765E-01 0.12851700E+03</pdfrwt>
<totfact> 0.11038248E+03</totfact>
</mgrwt>
</event>
<event>
 7    1  0.6095443E-006  0.1333743E+03  0.7546771E-02  0.1238186E+00
         -1   -1    0    0    0  501 -0.00000000000E+00  0.00000000000E+00  0.15137201073E+03  0.15137201073E+03  0.00000000000E+00 0.  1.
          1   -1    0    0  501    0  0.00000000000E+00 -0.00000000000E+00 -0.87695463109E+02  0.87695463109E+02  0.00000000000E+00 0. -1.
         23    2    1    2    0    0 -0.37878183680E+02  0.26976261363E+02  0.29145817544E+02  0.13652170823E+03  0.12500489055E+03 0.  0.
          5    1    3    3  502    0 -0.66678447058E+02  0.57105175112E+02  0.48495666571E+01  0.88048989906E+02  0.47000000000E+01 0. -1.
         -5    1    3    3    0  502  0.28800263378E+02 -0.30128913749E+02  0.24296250887E+02  0.48472718321E+02  0.47000000000E+01 0. -1.
        -11    1    1    2    0    0 -0.17029244358E+02 -0.26325898276E+02 -0.88360205258E+01  0.32574888214E+02  0.00000000000E+00 0. -1.
         11    1    1    2    0    0  0.54907428038E+02 -0.65036308672E+00  0.43366750605E+02  0.69970877399E+02  0.00000000000E+00 0.  1.
<mgrwt>
<rscale>  0 0.12302689E+03</rscale>
<asrwt>0</asrwt>
<pdfrwt beam="2">  1        1 0.13491610E-01 0.13337428E+03</pdfrwt>
<pdfrwt beam="1">  1       -1 0.23288002E-01 0.13337428E+03</pdfrwt>
<totfact> 0.63746230E+03</totfact>
</mgrwt>
</event>
<event>
 7    1  0.6095443E-006  0.1499879E+03  0.7546771E-02  0.1209716E+00
         -4   -1    0    0    0  501 -0.00000000000E+00  0.00000000000E+00  0.96379782001E+02  0.96379782001E+02  0.00000000000E+00 0. -1.
          4   -1    0    0  501    0  0.00000000000E+00 -0.00000000000E+00 -0.22007367102E+03  0.22007367102E+03  0.00000000000E+00 0.  1.
         23    2    1    2    0    0 -0.23652528827E+02  0.79423442273E+02 -0.12220236533E+02  0.15048493303E+03  0.12501542139E+03 0.  0.
          5    1    3    3  502    0 -0.60536974934E+02  0.11089373042E+02  0.21957943967E+02  0.65512905842E+02  0.47000000000E+01 0. -1.
         -5    1    3    3    0  502  0.36884446107E+02  0.68334069231E+02 -0.34178180500E+02  0.84972027189E+02  0.47000000000E+01 0. -1.
        -11    1    1    2    0    0  0.10281486086E+02  0.12938954334E+02  0.44804936385E+01  0.17123093138E+02  0.00000000000E+00 0.  1.
         11    1    1    2    0    0  0.13371042741E+02 -0.92362396607E+02 -0.11595414612E+03  0.14884542685E+03  0.00000000000E+00 0. -1.
<mgrwt>
<rscale>  0 0.14271948E+03</rscale>
<asrwt>0</asrwt>
<pdfrwt beam="2">  1        4 0.33857488E-01 0.14998794E+03</pdfrwt>
<pdfrwt beam="1">  1       -4 0.14827659E-01 0.14998794E+03</pdfrwt>
<totfact> 0.54804417E+02</totfact>
</mgrwt>
</event>
<event>
 6    1  0.6095443E-006  0.1463313E+03  0.7546771E-02  0.1222360E+00
          1   -1    0    0  501    0  0.00000000000E+00  0.00000000000E+00  0.65889435677E+02  0.65889435677E+02  0.00000000000E+00 0. -1.
         -1   -1    0    0    0  501 -0.00000000000E+00 -0.00000000000E+00 -0.25665311373E+03  0.25665311373E+03  0.00000000000E+00 0.  1.
          5    1    1    2  502    0 -0.71274271937E+01  0.40336043286E+02  0.13356956358E+02  0.43339299597E+02  0.47000000000E+01 0.  1.
         -5    1    1    2    0  502  0.72572167706E+01  0.33241789237E+01 -0.17290093759E+03  0.17314890003E+03  0.47000000000E+01 0.  1.
        -11    1    1    2    0    0  0.14797020678E+02  0.16279496209E+02  0.16909586268E+02  0.27747214735E+02  0.00000000000E+00 0.  1.
         11    1    1    2    0    0 -0.14926810255E+02 -0.59939718419E+02 -0.48129283082E+02  0.78307135042E+02  0.00000000000E+00 0. -1.
<mgrwt>
<rscale>  0 0.13349481E+03</rscale>
<asrwt>0</asrwt>
<pdfrwt beam="1">  1        1 0.10136836E-01 0.14633133E+03</pdfrwt>
<pdfrwt beam="2">  1       -1 0.39485094E-01 0.14633133E+03</pdfrwt>
<totfact> 0.38350545E+03</totfact>
</mgrwt>
</event>
<event>
 7    1  0.6095443E-006  0.1477860E+03  0.7546771E-02  0.1212082E+00
         -3   -1    0    0    0  501 -0.00000000000E+00  0.00000000000E+00  0.83325183543E+03  0.83325183543E+03  0.00000000000E+00 0.  1.
          3   -1    0    0  501    0  0.00000000000E+00 -0.00000000000E+00 -0.28089222576E+02  0.28089222576E+02  0.00000000000E+00 0. -1.
         23    2    1    2    0    0  0.27172338128E+02  0.74003425595E+02  0.63417381956E+03  0.65116599130E+03  0.12500348734E+03 0.  0.
          5    1    3    3  502    0  0.15173544327E+02 -0.27229880051E+02  0.57896814802E+02  0.65922939704E+02  0.47000000000E+01 0. -1.
         -5    1    3    3    0  502  0.11998793801E+02  0.10123330565E+03  0.57627700476E+03  0.58524305160E+03  0.47000000000E+01 0. -1.
        -11    1    1    2    0    0 -0.17782381090E+02 -0.42428842891E+02  0.11636280440E+02  0.47453375105E+02  0.00000000000E+00 0. -1.
         11    1    1    2    0    0 -0.93899570377E+01 -0.31574582704E+02  0.15935251285E+03  0.16272169160E+03  0.00000000000E+00 0.  1.
<mgrwt>
<rscale>  0 0.14093075E+03</rscale>
<asrwt>0</asrwt>
<pdfrwt beam="2">  1        3 0.43214195E-02 0.14778604E+03</pdfrwt>
<pdfrwt beam="1">  1       -3 0.12819257E+00 0.14778604E+03</pdfrwt>
<totfact> 0.34161063E+02</totfact>
</mgrwt>
</event>
<event>
 6    1  0.6095443E-006  0.2856220E+03  0.7546771E-02  0.1115849E+00
          1   -1    0    0  501    0  0.00000000000E+00  0.00000000000E+00  0.44499850209E+03  0.44499850209E+03  0.00000000000E+00 0. -1.
         -1   -1    0    0    0  501 -0.00000000000E+00 -0.00000000000E+00 -0.11161420015E+03  0.11161420015E+03  0.00000000000E+00 0.  1.
          5    1    1    2  502    0  0.58317659842E+02  0.52359430314E+02  0.29334889361E+03  0.30367436964E+03  0.47000000000E+01 0. -1.
         -5    1    1    2    0  502  0.52035494328E+02  0.12552819540E+02 -0.48610832158E+02  0.72459429693E+02  0.47000000000E+01 0.  1.
        -11    1    1    2    0    0 -0.12039122025E+03 -0.46437084302E+02  0.53847707203E+02  0.13982140137E+03  0.00000000000E+00 0.  1.
         11    1    1    2    0    0  0.10038066078E+02 -0.18475165553E+02  0.34798533278E+02  0.40657501535E+02  0.00000000000E+00 0. -1.
<mgrwt>
<rscale>  0 0.24601560E+03</rscale>
<asrwt>0</asrwt>
<pdfrwt beam="1">  1        1 0.68461307E-01 0.28562198E+03</pdfrwt>
<pdfrwt beam="2">  1       -1 0.17171416E-01 0.28562198E+03</pdfrwt>
<totfact> 0.13636096E+03</totfact>
</mgrwt>
</event>
<event>
 7    1  0.6095443E-006  0.1398003E+03  0.7546771E-02  0.1224984E+00
         -2   -1    0    0    0  501 -0.00000000000E+00  0.00000000000E+00  0.66306871951E+03  0.66306871951E+03  0.00000000000E+00 0.  1.
          2   -1    0    0  501    0  0.00000000000E+00 -0.00000000000E+00 -0.29295230814E+02  0.29295230814E+02  0.00000000000E+00 0. -1.
         23    2    1    2    0    0 -0.68167198834E+01  0.62224290186E+02  0.49984320427E+03  0.51902537906E+03  0.12500314116E+03 0.  0.
          5    1    3    3  502    0  0.54578585252E+02  0.51624847941E+02  0.31651321471E+03  0.32534082433E+03  0.47000000000E+01 0.  1.
         -5    1    3    3    0  502 -0.61395305136E+02  0.10599442244E+02  0.18332998956E+03  0.19368455473E+03  0.47000000000E+01 0.  1.
        -11    1    1    2    0    0 -0.24816812044E+02 -0.20945771907E+02  0.11249498434E+03  0.11708851790E+03  0.00000000000E+00 0.  1.
         11    1    1    2    0    0  0.31633531928E+02 -0.41278518278E+02  0.21435300080E+02  0.56250053360E+02  0.00000000000E+00 0. -1.
<mgrwt>
<rscale>  0 0.13167983E+03</rscale>
<asrwt>0</asrwt>
<pdfrwt beam="2">  1        2 0.45069591E-02 0.13980027E+03</pdfrwt>
<pdfrwt beam="1">  1       -2 0.10201056E+00 0.13980027E+03</pdfrwt>
<totfact> 0.14288368E+03</totfact>
</mgrwt>
</event>
<event>
 7    1  0.1158195E-005  0.3222197E+03  0.7546771E-02  0.1075970E+00
          3   -1    0    0  501    0  0.00000000000E+00  0.00000000000E+00  0.66894481305E+03  0.66894481305E+03  0.00000000000E+00 0. -1.
         -3   -1    0    0    0  501 -0.00000000000E+00 -0.00000000000E+00 -0.18942656982E+03  0.18942656982E+03  0.00000000000E+00 0.  1.
         23    2    1    2    0    0  0.67436932245E+02 -0.28922921406E+03  0.46719057122E+02  0.32558904265E+03  0.12499710517E+03 0.  0.
          5    1    3    3  502    0  0.63411362014E+02 -0.29063087893E+03  0.66473032224E+02  0.30484104486E+03  0.47000000000E+01 0. -1.
         -5    1    3    3    0  502  0.40255702310E+01  0.14016648657E+01 -0.19753975103E+02  0.20747997794E+02  0.47000000000E+01 0. -1.
        -11    1    1    2    0    0 -0.39493983000E+02  0.12322016632E+03  0.26597593922E+03  0.29578063548E+03  0.00000000000E+00 0.  1.
         11    1    1    2    0    0 -0.27942949245E+02  0.16600904774E+03  0.16682324689E+03  0.23700170473E+03  0.00000000000E+00 0. -1.
<mgrwt>
<rscale>  0 0.31930342E+03</rscale>
<asrwt>0</asrwt>
<pdfrwt beam="1">  1        3 0.10291459E+00 0.32221973E+03</pdfrwt>
<pdfrwt beam="2">  1       -3 0.29142550E-01 0.32221973E+03</pdfrwt>
<totfact> 0.24072806E+01</totfact>
</mgrwt>
</event>
<event>
 7    1  0.6095443E-006  0.1353991E+03  0.7546771E-02  0.1233703E+00
         -2   -1    0    0    0  501 -0.00000000000E+00  0.00000000000E+00  0.33037901951E+02  0.33037901951E+02  0.00000000000E+00 0.  1.
          2   -1    0    0  501    0  0.00000000000E+00 -0.00000000000E+00 -0.42348043695E+03  0.42348043695E+03  0.00000000000E+00 0. -1.
         23    2    1    2    0    0 -0.92985397228E+01 -0.51214568824E+02 -0.22631612101E+03  0.26372695854E+03  0.12499410838E+03 0.  0.
          5    1    3    3  502    0 -0.59136988703E+01 -0.81729875078E+02 -0.21588605428E+03  0.23096238384E+03  0.47000000000E+01 0. -1.
         -5    1    3    3    0  502 -0.33848408524E+01  0.30515306254E+02 -0.10430066731E+02  0.32764574702E+02  0.47000000000E+01 0. -1.
        -11    1    1    2    0    0  0.34328075663E+02  0.54081393063E+02 -0.68004723891E+02  0.93422996772E+02  0.00000000000E+00 0.  1.
         11    1    1    2    0    0 -0.25029535940E+02 -0.28668242387E+01 -0.96121690097E+02  0.99368383592E+02  0.00000000000E+00 0. -1.
<mgrwt>
<rscale>  0 0.12587858E+03</rscale>
<asrwt>0</asrwt>
<pdfrwt beam="2">  1        2 0.65150836E-01 0.13539912E+03</pdfrwt>
<pdfrwt beam="1">  1       -2 0.50827542E-02 0.13539912E+03</pdfrwt>
<totfact> 0.13523796E+04</totfact>
</mgrwt>
</event>
<event>
 7    1  0.6095443E-006  0.1465881E+03  0.7546771E-02  0.1223883E+00
         -2   -1    0    0    0  501 -0.00000000000E+00  0.00000000000E+00  0.11580209806E+03  0.11580209806E+03  0.00000000000E+00 0. -1.
          2   -1    0    0  501    0  0.00000000000E+00 -0.00000000000E+00 -0.12990321811E+03  0.12990321811E+03  0.00000000000E+00 0.  1.
         23    2    1    2    0    0 -0.57383022832E+02 -0.50657619206E+02 -0.19546848551E+02  0.14788555744E+03  0.12501621142E+03 0.  0.
          5    1    3    3  502    0  0.20242270828E+01 -0.79206900446E+02 -0.19808671375E+02  0.81806503624E+02  0.47000000000E+01 0. -1.
         -5    1    3    3    0  502 -0.59407249915E+02  0.28549281240E+02  0.26182282453E+00  0.66079053814E+02  0.47000000000E+01 0. -1.
        -11    1    1    2    0    0  0.23117010553E+02  0.18824193605E+02 -0.27541072243E+02  0.40586415241E+02  0.00000000000E+00 0.  1.
         11    1    1    2    0    0  0.34266012279E+02  0.31833425602E+02  0.32986800744E+02  0.57233343484E+02  0.00000000000E+00 0. -1.
<mgrwt>
<rscale>  0 0.13243784E+03</rscale>
<asrwt>0</asrwt>
<pdfrwt beam="2">  1        2 0.19985111E-01 0.14658806E+03</pdfrwt>
<pdfrwt beam="1">  1       -2 0.17815707E-01 0.14658806E+03</pdfrwt>
<totfact> 0.67889238E+03</totfact>
</mgrwt>
</event>
<event>
 7    1  0.6095443E-006  0.1309690E+03  0.7546771E-02  0.1239552E+00
          2   -1    0    0  501    0  0.00000000000E+00  0.00000000000E+00  0.85081424979E+03  0.85081424979E+03  0.00000000000E+00 0.  1.
         -2   -1    0    0    0  501 -0.00000000000E+00 -0.00000000000E+00 -0.15680795404E+02  0.15680795404E+02  0.00000000000E+00 0. -1.
         23    2    1    2    0    0  0.27824434561E+02 -0.27461030144E+02  0.51184045971E+03  0.52833088921E+03  0.12499825981E+03 0.  0.
          5    1    3    3  502    0 -0.26472189445E+02 -0.60073298096E+02  0.21867743982E+03  0.22836700866E+03  0.47000000000E+01 0.  1.
         -5    1    3    3    0  502  0.54296624007E+02  0.32612267952E+02  0.29316301990E+03  0.29996388055E+03  0.47000000000E+01 0.  1.
        -11    1    1    2    0    0  0.13717152621E+02  0.45635818820E+02  0.10642313489E+03  0.11660476780E+03  0.00000000000E+00 0.  1.
         11    1    1    2    0    0 -0.41541587183E+02 -0.18174788676E+02  0.21686985978E+03  0.22155938818E+03  0.00000000000E+00 0. -1.
<mgrwt>
<rscale>  0 0.12217494E+03</rscale>
<asrwt>0</asrwt>
<pdfrwt beam="1">  1        2 0.13089446E+00 0.13096897E+03</pdfrwt>
<pdfrwt beam="2">  1       -2 0.24124307E-02 0.13096897E+03</pdfrwt>
<totfact> 0.18204902E+04</totfact>
</mgrwt>
</event>
<event>
 7    1  0.6095443E-006  0.1910503E+03  0.7546771E-02  0.1162359E+00
         -2   -1    0    0    0  501 -0.00000000000E+00  0.00000000000E+00  0.28293768485E+03  0.28293768485E+03  0.00000000000E+00 0.  1.
          2   -1    0    0  501    0  0.00000000000E+00 -0.00000000000E+00 -0.14011363466E+03  0.14011363466E+03  0.00000000000E+00 0. -1.
         23    2    1    2    0    0 -0.14260147998E+03  0.23243713391E+02  0.16305694347E+03  0.25117282809E+03  0.12499908180E+03 0.  0.
          5    1    3    3  502    0 -0.12936998846E+03 -0.22251121008E+02  0.15451186791E+03  0.20279968842E+03  0.47000000000E+01 0. -1.
         -5    1    3    3    0  502 -0.13231491524E+02  0.45494834399E+02  0.85450755672E+01  0.48373139669E+02  0.47000000000E+01 0. -1.
        -11    1    1    2    0    0  0.59429152651E+01 -0.30607179203E+02  0.78909877093E+01  0.32161861695E+02  0.00000000000E+00 0.  1.
         11    1    1    2    0    0  0.13665856472E+03  0.73634658123E+01 -0.28123880995E+02  0.13971662972E+03  0.00000000000E+00 0. -1.
<mgrwt>
<rscale>  0 0.18574139E+03</rscale>
<asrwt>0</asrwt>
<pdfrwt beam="2">  1        2 0.21555944E-01 0.19105031E+03</pdfrwt>
<pdfrwt beam="1">  1       -2 0.43528874E-01 0.19105031E+03</pdfrwt>
<totfact> 0.12751570E+03</totfact>
</mgrwt>
</event>
<event>
 7    1  0.6095443E-006  0.1788672E+03  0.7546771E-02  0.1174336E+00
         -1   -1    0    0    0  501 -0.00000000000E+00  0.00000000000E+00  0.65484297258E+02  0.65484297258E+02  0.00000000000E+00 0.  1.
          1   -1    0    0  501    0  0.00000000000E+00 -0.00000000000E+00 -0.45206791113E+03  0.45206791113E+03  0.00000000000E+00 0. -1.
         23    2    1    2    0    0  0.70515861267E+02 -0.10675074844E+03 -0.15211784784E+03  0.23480483772E+03  0.12500105281E+03 0.  0.
          5    1    3    3  502    0  0.97167102016E+02 -0.10893641347E+03 -0.10311484531E+03  0.17878296680E+03  0.47000000000E+01 0. -1.
         -5    1    3    3    0  502 -0.26651240749E+02  0.21856650269E+01 -0.49003002523E+02  0.56021870919E+02  0.47000000000E+01 0. -1.
        -11    1    1    2    0    0  0.62929182646E+01  0.52363928392E+02 -0.13909501901E+03  0.14875821366E+03  0.00000000000E+00 0.  1.
         11    1    1    2    0    0 -0.76808779532E+02  0.54386820050E+02 -0.95370747024E+02  0.13398915701E+03  0.00000000000E+00 0. -1.
<mgrwt>
<rscale>  0 0.17341211E+03</rscale>
<asrwt>0</asrwt>
<pdfrwt beam="2">  1        1 0.69548907E-01 0.17886719E+03</pdfrwt>
<pdfrwt beam="1">  1       -1 0.10074508E-01 0.17886719E+03</pdfrwt>
<totfact> 0.30579910E+03</totfact>
</mgrwt>
</event>
<event>
 7    1  0.6095443E-006  0.1593373E+03  0.7546771E-02  0.1197381E+00
         -1   -1    0    0    0  501 -0.00000000000E+00  0.00000000000E+00  0.11204710744E+04  0.11204710744E+04  0.00000000000E+00 0.  1.
          1   -1    0    0  501    0  0.00000000000E+00 -0.00000000000E+00 -0.19796577001E+02  0.19796577001E+02  0.00000000000E+00 0. -1.
         23    2    1    2    0    0 -0.23641841638E+02  0.95936655250E+02  0.69694377732E+03  0.71492587916E+03  0.12500242180E+03 0.  0.
          5    1    3    3  502    0 -0.55745256896E+02  0.69231023506E+02  0.62732033441E+03  0.63360347240E+03  0.47000000000E+01 0.  1.
         -5    1    3    3    0  502  0.32103415257E+02  0.26705631744E+02  0.69623442911E+02  0.81322406757E+02  0.47000000000E+01 0.  1.
        -11    1    1    2    0    0  0.25486913238E+02 -0.70630060557E+01  0.25261582663E+02  0.36573437897E+02  0.00000000000E+00 0. -1.
         11    1    1    2    0    0 -0.18450716002E+01 -0.88873649194E+02  0.37846913742E+03  0.38876833435E+03  0.00000000000E+00 0.  1.
<mgrwt>
<rscale>  0 0.15254455E+03</rscale>
<asrwt>0</asrwt>
<pdfrwt beam="2">  1        1 0.30456281E-02 0.15933733E+03</pdfrwt>
<pdfrwt beam="1">  1       -1 0.17238012E+00 0.15933733E+03</pdfrwt>
<totfact> 0.85363556E+02</totfact>
</mgrwt>
</event>
<event>
 7    1  0.6095443E-006  0.1307157E+03  0.7546771E-02  0.1240016E+00
         -2   -1    0    0    0  501 -0.00000000000E+00  0.00000000000E+00  0.22848147213E+02  0.22848147213E+02  0.00000000000E+00 0.  1.
          2   -1    0    0  501    0  0.00000000000E+00 -0.00000000000E+00 -0.61235484623E+03  0.61235484623E+03  0.00000000000E+00 0. -1.
         23    2    1    2    0    0 -0.13068137470E+02  0.35938862632E+02 -0.25715513943E+03  0.28847070587E+03  0.12499681735E+03 0.  0.
          5    1    3    3  502    0  0.41362711208E+02  0.41213088144E+02 -0.20331330610E+03  0.21158398557E+03  0.47000000000E+01 0.  1.
         -5    1    3    3    0  502 -0.54430848677E+02 -0.52742255114E+01 -0.53841833329E+02  0.76886720302E+02  0.47000000000E+01 0.  1.
        -11    1    1    2    0    0 -0.31980561324E+02 -0.32465867337E+02 -0.23538430982E+03  0.23975521299E+03  0.00000000000E+00 0. -1.
         11    1    1    2    0    0  0.45048698793E+02 -0.34729952958E+01 -0.96967249769E+02  0.10697707459E+03  0.00000000000E+00 0.  1.
<mgrwt>
<rscale>  0 0.12188738E+03</rscale>
<asrwt>0</asrwt>
<pdfrwt beam="2">  1        2 0.94208431E-01 0.13071565E+03</pdfrwt>
<pdfrwt beam="1">  1       -2 0.35150998E-02 0.13071565E+03</pdfrwt>
<totfact> 0.15550990E+04</totfact>
</mgrwt>
</event>
<event>
 7    1  0.6095443E-006  0.1379426E+03  0.7546771E-02  0.1227884E+00
         -1   -1    0    0    0  501 -0.00000000000E+00  0.00000000000E+00  0.22211827876E+03  0.22211827876E+03  0.00000000000E+00 0.  1.
          1   -1    0    0  501    0  0.00000000000E+00 -0.00000000000E+00 -0.92712338461E+02  0.92712338461E+02  0.00000000000E+00 0. -1.
         23    2    1    2    0    0 -0.79160991080E+01 -0.57821291176E+02  0.15133983012E+03  0.20477281192E+03  0.12498877543E+03 0.  0.
          5    1    3    3  502    0 -0.17070810273E+02 -0.45303011004E+02  0.17186854631E+03  0.17861876323E+03  0.47000000000E+01 0.  1.
         -5    1    3    3    0  502  0.91547111646E+01 -0.12518280171E+02 -0.20528716180E+02  0.26154048692E+02  0.47000000000E+01 0.  1.
        -11    1    1    2    0    0 -0.31135986704E+02  0.31045420135E+02  0.18587215122E+02  0.47736279132E+02  0.00000000000E+00 0.  1.
         11    1    1    2    0    0  0.39052085812E+02  0.26775871041E+02 -0.40521104953E+02  0.62321526160E+02  0.00000000000E+00 0. -1.
<mgrwt>
<rscale>  0 0.12971161E+03</rscale>
<asrwt>0</asrwt>
<pdfrwt beam="2">  1        1 0.14263437E-01 0.13794260E+03</pdfrwt>
<pdfrwt beam="1">  1       -1 0.34172043E-01 0.13794260E+03</pdfrwt>
<totfact> 0.31345634E+03</totfact>
</mgrwt>
</event>
<event>
 7    1  0.6095443E-006  0.1327053E+03  0.7546771E-02  0.1242364E+00
          1   -1    0    0  501    0  0.00000000000E+00  0.00000000000E+00  0.25139854429E+03  0.25139854429E+03  0.00000000000E+00 0. -1.
         -1   -1    0    0    0  501 -0.00000000000E+00 -0.00000000000E+00 -0.51320919728E+02  0.51320919728E+02  0.00000000000E+00 0.  1.
         23    2    1    2    0    0  0.33025826576E+02 -0.29993437947E+02  0.89287336879E+02  0.15994662382E+03  0.12498152825E+03 0.  0.
          5    1    3    3  502    0  0.74988945633E+02 -0.10679726660E+02  0.23544218700E+02  0.79459541673E+02  0.47000000000E+01 0. -1.
         -5    1    3    3    0  502 -0.41963119057E+02 -0.19313711287E+02  0.65743118179E+02  0.80487082147E+02  0.47000000000E+01 0. -1.
        -11    1    1    2    0    0  0.25533733927E+02  0.11804015906E+02  0.27445107344E+02  0.39300639650E+02  0.00000000000E+00 0. -1.
         11    1    1    2    0    0 -0.58559560503E+02  0.18189422041E+02  0.83345180339E+02  0.10347220055E+03  0.00000000000E+00 0.  1.
<mgrwt>
<rscale>  0 0.12044564E+03</rscale>
<asrwt>0</asrwt>
<pdfrwt beam="1">  1        1 0.38676698E-01 0.13270529E+03</pdfrwt>
<pdfrwt beam="2">  1       -1 0.78955263E-02 0.13270529E+03</pdfrwt>
<totfact> 0.90986814E+03</totfact>
</mgrwt>
</event>
<event>
 7    1  0.6095443E-006  0.1269933E+03  0.7546771E-02  0.1247101E+00
          3   -1    0    0  501    0  0.00000000000E+00  0.00000000000E+00  0.10540753208E+03  0.10540753208E+03  0.00000000000E+00 0. -1.
         -3   -1    0    0    0  501 -0.00000000000E+00 -0.00000000000E+00 -0.11521144476E+03  0.11521144476E+03  0.00000000000E+00 0.  1.
         23    2    1    2    0    0  0.14838819003E+02  0.16700554289E+02 -0.49079714591E+01  0.12708813034E+03  0.12501282185E+03 0.  0.
          5    1    3    3  502    0  0.60380942978E+02  0.16219230890E+02 -0.35472886961E+02  0.72037055985E+02  0.47000000000E+01 0. -1.
         -5    1    3    3    0  502 -0.45542123975E+02  0.48132339863E+00  0.30564915502E+02  0.55051074358E+02  0.47000000000E+01 0. -1.
        -11    1    1    2    0    0  0.25818903429E+02  0.19263480475E+02  0.15238276857E+02  0.35635691882E+02  0.00000000000E+00 0. -1.
         11    1    1    2    0    0 -0.40657722433E+02 -0.35964034764E+02 -0.20134218073E+02  0.57895154610E+02  0.00000000000E+00 0.  1.
<mgrwt>
<rscale>  0 0.11760490E+03</rscale>
<asrwt>0</asrwt>
<pdfrwt beam="1">  1        3 0.16216544E-01 0.12699333E+03</pdfrwt>
<pdfrwt beam="2">  1       -3 0.17724837E-01 0.12699333E+03</pdfrwt>
<totfact> 0.20399751E+03</totfact>
</mgrwt>
</event>
<event>
 7    1  0.6095443E-006  0.1642947E+03  0.7546771E-02  0.1190488E+00
         -1   -1    0    0    0  501 -0.00000000000E+00  0.00000000000E+00  0.47874353120E+03  0.47874353120E+03  0.00000000000E+00 0. -1.
          1   -1    0    0  501    0  0.00000000000E+00 -0.00000000000E+00 -0.53542394628E+02  0.53542394628E+02  0.00000000000E+00 0.  1.
         23    2    1    2    0    0 -0.71884014294E+02  0.78740324602E+02  0.30403255544E+03  0.34558435533E+03  0.12500160661E+03 0.  0.
          5    1    3    3  502    0 -0.31561123128E+02  0.88784584070E+02  0.10067922147E+03  0.13797536917E+03  0.47000000000E+01 0. -1.
         -5    1    3    3    0  502 -0.40322891167E+02 -0.10044259468E+02  0.20335333396E+03  0.20760898616E+03  0.47000000000E+01 0. -1.
        -11    1    1    2    0    0  0.78036287107E+02 -0.17103459857E+02  0.73251986788E+02  0.10838839427E+03  0.00000000000E+00 0. -1.
         11    1    1    2    0    0 -0.61522728123E+01 -0.61636864745E+02  0.47916594343E+02  0.78313176221E+02  0.00000000000E+00 0.  1.
<mgrwt>
<rscale>  0 0.15842406E+03</rscale>
<asrwt>0</asrwt>
<pdfrwt beam="2">  1        1 0.82372918E-02 0.16429471E+03</pdfrwt>
<pdfrwt beam="1">  1       -1 0.73652848E-01 0.16429471E+03</pdfrwt>
<totfact> 0.15885854E+03</totfact>
</mgrwt>
</event>
<event>
 7    1  0.6095443E-006  0.1253068E+03  0.7546771E-02  0.1250658E+00
          2   -1    0    0  501    0  0.00000000000E+00  0.00000000000E+00  0.22874628335E+02  0.22874628335E+02  0.00000000000E+00 0. -1.
         -2   -1    0    0    0  501 -0.00000000000E+00 -0.00000000000E+00 -0.54690024675E+03  0.54690024675E+03  0.00000000000E+00 0.  1.
         23    2    1    2    0    0 -0.77774211746E+01  0.40831538092E+01 -0.37517907411E+03  0.39555169123E+03  0.12499856943E+03 0.  0.
          5    1    3    3  502    0  0.26576533354E+02 -0.52221303766E+02 -0.16089242637E+03  0.17129459873E+03  0.47000000000E+01 0.  1.
         -5    1    3    3    0  502 -0.34353954528E+02  0.56304457575E+02 -0.21428664775E+03  0.22425709250E+03  0.47000000000E+01 0.  1.
        -11    1    1    2    0    0 -0.64827924318E+00 -0.46816589971E+02 -0.82401143720E+02  0.94774267862E+02  0.00000000000E+00 0.  1.
         11    1    1    2    0    0  0.84257004178E+01  0.42733436162E+02 -0.66445400582E+02  0.79448915991E+02  0.00000000000E+00 0. -1.
<mgrwt>
<rscale>  0 0.11553069E+03</rscale>
<asrwt>0</asrwt>
<pdfrwt beam="1">  1        2 0.35191738E-02 0.12530683E+03</pdfrwt>
<pdfrwt beam="2">  1       -2 0.84138494E-01 0.12530683E+03</pdfrwt>
<totfact> 0.30411656E+03</totfact>
</mgrwt>
</event>
<event>
 7    1  0.6095443E-006  0.1254017E+03  0.7546771E-02  0.1251619E+00
          1   -1    0    0  501    0  0.00000000000E+00  0.00000000000E+00  0.98349357306E+02  0.98349357306E+02  0.00000000000E+00 0. -1.
         -1   -1    0    0    0  501 -0.00000000000E+00 -0.00000000000E+00 -0.15220356271E+03  0.15220356271E+03  0.00000000000E+00 0.  1.
         23    2    1    2    0    0  0.55849354883E+01  0.84641829967E+01 -0.90502749636E+02  0.15464904067E+03  0.12499097644E+03 0.  0.
          5    1    3    3  502    0  0.57216455865E+02  0.26413457935E+02 -0.74095804215E+02  0.97384145445E+02  0.47000000000E+01 0.  1.
         -5    1    3    3    0  502 -0.51631520377E+02 -0.17949274938E+02 -0.16406945421E+02  0.57264895226E+02  0.47000000000E+01 0.  1.
        -11    1    1    2    0    0  0.67101194298E+01 -0.15499603506E+02  0.63411989177E+02  0.65622738308E+02  0.00000000000E+00 0. -1.
         11    1    1    2    0    0 -0.12295054918E+02  0.70354205092E+01 -0.26763444949E+02  0.30281141040E+02  0.00000000000E+00 0.  1.
<mgrwt>
<rscale>  0 0.11497856E+03</rscale>
<asrwt>0</asrwt>
<pdfrwt beam="1">  1        1 0.15130670E-01 0.12540167E+03</pdfrwt>
<pdfrwt beam="2">  1       -1 0.23415933E-01 0.12540167E+03</pdfrwt>
<totfact> 0.54217229E+03</totfact>
</mgrwt>
</event>
<event>
 7    1  0.6095443E-006  0.1416155E+03  0.7546771E-02  0.1223181E+00
         -2   -1    0    0    0  501 -0.00000000000E+00  0.00000000000E+00  0.85056197890E+02  0.85056197890E+02  0.00000000000E+00 0.  1.
          2   -1    0    0  501    0  0.00000000000E+00 -0.00000000000E+00 -0.19715832298E+03  0.19715832298E+03  0.00000000000E+00 0. -1.
         23    2    1    2    0    0  0.18611200865E+02 -0.63892477483E+02 -0.29345454797E+02  0.14462400616E+03  0.12500528775E+03 0.  0.
          5    1    3    3  502    0 -0.50757231769E+02 -0.67782744619E+01 -0.14508597701E+02  0.53430618458E+02  0.47000000000E+01 0. -1.
         -5    1    3    3    0  502  0.69368432634E+02 -0.57114203021E+02 -0.14836857095E+02  0.91193387706E+02  0.47000000000E+01 0. -1.
        -11    1    1    2    0    0 -0.28221121805E+02  0.38218066468E+02  0.29562613630E+01  0.47600334050E+02  0.00000000000E+00 0.  1.
         11    1    1    2    0    0  0.96099209396E+01  0.25674411015E+02 -0.85712931655E+02  0.89990180655E+02  0.00000000000E+00 0. -1.
<mgrwt>
<rscale>  0 0.13292375E+03</rscale>
<asrwt>0</asrwt>
<pdfrwt beam="2">  1        2 0.30332049E-01 0.14161549E+03</pdfrwt>
<pdfrwt beam="1">  1       -2 0.13085569E-01 0.14161549E+03</pdfrwt>
<totfact> 0.70782003E+03</totfact>
</mgrwt>
</event>
<event>
 7    1  0.6095443E-006  0.1389295E+03  0.7546771E-02  0.1226968E+00
          1   -1    0    0  501    0  0.00000000000E+00  0.00000000000E+00  0.10442458892E+03  0.10442458892E+03  0.00000000000E+00 0. -1.
         -1   -1    0    0    0  501 -0.00000000000E+00 -0.00000000000E+00 -0.15679704992E+03  0.15679704992E+03  0.00000000000E+00 0.  1.
         23    2    1    2    0    0 -0.38494254452E+02  0.46888123383E+02 -0.64074120859E+02  0.15299316416E+03  0.12498444533E+03 0.  0.
          5    1    3    3  502    0  0.31093911192E+02 -0.15425710922E+02  0.67541077443E+01  0.35672003617E+02  0.47000000000E+01 0. -1.
         -5    1    3    3    0  502 -0.69588165643E+02  0.62313834305E+02 -0.70828228603E+02  0.11732116054E+03  0.47000000000E+01 0. -1.
        -11    1    1    2    0    0  0.36229291183E+02  0.17081013791E+02  0.17994994803E+02  0.43910618416E+02  0.00000000000E+00 0. -1.
         11    1    1    2    0    0  0.22649632687E+01 -0.63969137174E+02 -0.62933349492E+01  0.64317856262E+02  0.00000000000E+00 0.  1.
<mgrwt>
<rscale>  0 0.13032957E+03</rscale>
<asrwt>0</asrwt>
<pdfrwt beam="1">  1        1 0.16065321E-01 0.13892953E+03</pdfrwt>
<pdfrwt beam="2">  1       -1 0.24122623E-01 0.13892953E+03</pdfrwt>
<totfact> 0.48124595E+03</totfact>
</mgrwt>
</event>
<event>
 6    1  0.6095443E-006  0.1434323E+03  0.7546771E-02  0.1221409E+00
          1   -1    0    0  501    0  0.00000000000E+00  0.00000000000E+00  0.24315438590E+03  0.24315438590E+03  0.00000000000E+00 0. -1.
         -1   -1    0    0    0  501 -0.00000000000E+00 -0.00000000000E+00 -0.91036834708E+02  0.91036834708E+02  0.00000000000E+00 0.  1.
          5    1    1    2  502    0  0.73903621193E+01  0.94168534996E+01  0.53017495919E+02  0.54554921461E+02  0.47000000000E+01 0. -1.
         -5    1    1    2    0  502 -0.14476062850E+02 -0.66681343879E+02 -0.56834581688E+02  0.88928160292E+02  0.47000000000E+01 0.  1.
        -11    1    1    2    0    0 -0.77210770910E+01 -0.14433448336E+02  0.92199098771E+02  0.93640873962E+02  0.00000000000E+00 0.  1.
         11    1    1    2    0    0  0.14806777822E+02  0.71697938716E+02  0.63735538190E+02  0.97067264893E+02  0.00000000000E+00 0. -1.
<mgrwt>
<rscale>  0 0.13416108E+03</rscale>
<asrwt>0</asrwt>
<pdfrwt beam="1">  1        1 0.37408367E-01 0.14343230E+03</pdfrwt>
<pdfrwt beam="2">  1       -1 0.14005667E-01 0.14343230E+03</pdfrwt>
<totfact> 0.39593211E+03</totfact>
</mgrwt>
</event>
<event>
 7    1  0.6095443E-006  0.1297889E+03  0.7546771E-02  0.1241910E+00
         -1   -1    0    0    0  501 -0.00000000000E+00  0.00000000000E+00  0.58354049750E+02  0.58354049750E+02  0.00000000000E+00 0.  1.
          1   -1    0    0  501    0  0.00000000000E+00 -0.00000000000E+00 -0.22069633724E+03  0.22069633724E+03  0.00000000000E+00 0. -1.
         23    2    1    2    0    0  0.24245586883E+02 -0.25137004980E+02 -0.95085566595E+02  0.16089259959E+03  0.12500178449E+03 0.  0.
          5    1    3    3  502    0 -0.12306818390E+02 -0.58742129878E+02 -0.82645190065E+01  0.60765844649E+02  0.47000000000E+01 0.  1.
         -5    1    3    3    0  502  0.36552405273E+02  0.33605124898E+02 -0.86821047589E+02  0.10012675494E+03  0.47000000000E+01 0.  1.
        -11    1    1    2    0    0 -0.41698660055E+02  0.50997998612E+02 -0.47768986346E+02  0.81372293622E+02  0.00000000000E+00 0. -1.
         11    1    1    2    0    0  0.17453073172E+02 -0.25860993632E+02 -0.19487734552E+02  0.36785493781E+02  0.00000000000E+00 0.  1.
<mgrwt>
<rscale>  0 0.12072217E+03</rscale>
<asrwt>0</asrwt>
<pdfrwt beam="2">  1        1 0.33953283E-01 0.12978892E+03</pdfrwt>
<pdfrwt beam="1">  1       -1 0.89775461E-02 0.12978892E+03</pdfrwt>
<totfact> 0.87883061E+03</totfact>
</mgrwt>
</event>
<event>
 7    1  0.6095443E-006  0.1301545E+03  0.7546771E-02  0.1240072E+00
          2   -1    0    0  501    0  0.00000000000E+00  0.00000000000E+00  0.40614367114E+03  0.40614367114E+03  0.00000000000E+00 0. -1.
         -2   -1    0    0    0  501 -0.00000000000E+00 -0.00000000000E+00 -0.35394499413E+02  0.35394499413E+02  0.00000000000E+00 0.  1.
         23    2    1    2    0    0  0.12868180091E+02 -0.33902770286E+02  0.14625381176E+03  0.19578145243E+03  0.12500084709E+03 0.  0.
          5    1    3    3  502    0  0.15623306161E+02 -0.16450131022E+02  0.16672916438E+03  0.16833121743E+03  0.47000000000E+01 0.  1.
         -5    1    3    3    0  502 -0.27551260703E+01 -0.17452639264E+02 -0.20475352623E+02  0.27450235008E+02  0.47000000000E+01 0.  1.
        -11    1    1    2    0    0 -0.43324861714E+02  0.24835878827E+02  0.59271406113E+02  0.77504606974E+02  0.00000000000E+00 0.  1.
         11    1    1    2    0    0  0.30456681623E+02  0.90668914592E+01  0.16522395386E+03  0.16825211115E+03  0.00000000000E+00 0. -1.
<mgrwt>
<rscale>  0 0.12185256E+03</rscale>
<asrwt>0</asrwt>
<pdfrwt beam="1">  1        2 0.62483638E-01 0.13015452E+03</pdfrwt>
<pdfrwt beam="2">  1       -2 0.54453079E-02 0.13015452E+03</pdfrwt>
<totfact> 0.12710984E+04</totfact>
</mgrwt>
</event>
<event>
 7    1  0.6095443E-006  0.2841325E+03  0.7546771E-02  0.1095341E+00
         -1   -1    0    0    0  501 -0.00000000000E+00  0.00000000000E+00  0.14128211626E+03  0.14128211626E+03  0.00000000000E+00 0.  1.
          1   -1    0    0  501    0  0.00000000000E+00 -0.00000000000E+00 -0.54767417417E+03  0.54767417417E+03  0.00000000000E+00 0. -1.
         23    2    1    2    0    0 -0.20214569806E+03  0.15570317820E+03 -0.18059779253E+03  0.33667019685E+03  0.12499958333E+03 0.  0.
          5    1    3    3  502    0 -0.77463450333E+01 -0.16946417696E+02 -0.31554325606E+02  0.36945262194E+02  0.47000000000E+01 0.  1.
         -5    1    3    3    0  502 -0.19439935303E+03  0.17264959590E+03 -0.14904346692E+03  0.29972493465E+03  0.47000000000E+01 0.  1.
        -11    1    1    2    0    0  0.16957641642E+03 -0.13509988656E+03 -0.22676301716E+03  0.31373493001E+03  0.00000000000E+00 0. -1.
         11    1    1    2    0    0  0.32569281638E+02 -0.20603291647E+02  0.96875176948E+00  0.38551163576E+02  0.00000000000E+00 0.  1.
<mgrwt>
<rscale>  0 0.28063833E+03</rscale>
<asrwt>0</asrwt>
<pdfrwt beam="2">  1        1 0.84257567E-01 0.28413247E+03</pdfrwt>
<pdfrwt beam="1">  1       -1 0.21735710E-01 0.28413247E+03</pdfrwt>
<totfact> 0.70401065E+02</totfact>
</mgrwt>
</event>
<event>
 7    1  0.6095443E-006  0.1289967E+03  0.7546771E-02  0.1242949E+00
          2   -1    0    0  501    0  0.00000000000E+00  0.00000000000E+00  0.48934661022E+03  0.48934661022E+03  0.00000000000E+00 0. -1.
         -2   -1    0    0    0  501 -0.00000000000E+00 -0.00000000000E+00 -0.28203854651E+02  0.28203854651E+02  0.00000000000E+00 0.  1.
         23    2    1    2    0    0  0.79471230570E+01 -0.30791731809E+02  0.19032026305E+03  0.22991728539E+03  0.12501547137E+03 0.  0.
          5    1    3    3  502    0  0.49995698479E+02 -0.15511510795E+02  0.17448151708E+03  0.18222531832E+03  0.47000000000E+01 0.  1.
         -5    1    3    3    0  502 -0.42048575422E+02 -0.15280221014E+02  0.15838745967E+02  0.47691967070E+02  0.47000000000E+01 0.  1.
        -11    1    1    2    0    0  0.31798231543E+02  0.22484732534E+02  0.21560255061E+03  0.21909164875E+03  0.00000000000E+00 0. -1.
         11    1    1    2    0    0 -0.39745354600E+02  0.83069992754E+01  0.55219941916E+02  0.68541530728E+02  0.00000000000E+00 0.  1.
<mgrwt>
<rscale>  0 0.12008971E+03</rscale>
<asrwt>0</asrwt>
<pdfrwt beam="1">  1        2 0.75284088E-01 0.12899673E+03</pdfrwt>
<pdfrwt beam="2">  1       -2 0.43390549E-02 0.12899673E+03</pdfrwt>
<totfact> 0.14596054E+04</totfact>
</mgrwt>
</event>
<event>
 6    1  0.6095443E-006  0.3427666E+03  0.7546771E-02  0.1065624E+00
         -2   -1    0    0    0  501 -0.00000000000E+00  0.00000000000E+00  0.14355688819E+03  0.14355688819E+03  0.00000000000E+00 0.  1.
          2   -1    0    0  501    0  0.00000000000E+00 -0.00000000000E+00 -0.20460340548E+03  0.20460340548E+03  0.00000000000E+00 0. -1.
          5    1    1    2  502    0 -0.11768264818E+02  0.36077165778E+02  0.45094837335E+01  0.38502978988E+02  0.47000000000E+01 0. -1.
         -5    1    1    2    0  502 -0.93495980385E+02 -0.11164804798E+03 -0.61611590707E+01  0.14583152899E+03  0.47000000000E+01 0.  1.
        -11    1    1    2    0    0  0.66169703076E+02  0.30307111922E+01 -0.45241900865E+02  0.80214988683E+02  0.00000000000E+00 0.  1.
         11    1    1    2    0    0  0.39094542127E+02  0.72540171012E+02 -0.14152941092E+02  0.83610797007E+02  0.00000000000E+00 0. -1.
<mgrwt>
<rscale>  0 0.34276656E+03</rscale>
<asrwt>0</asrwt>
<pdfrwt beam="2">  1        2 0.31477447E-01 0.34276656E+03</pdfrwt>
<pdfrwt beam="1">  1       -2 0.22085675E-01 0.34276656E+03</pdfrwt>
<totfact> 0.29512106E+03</totfact>
</mgrwt>
</event>
<event>
 7    1  0.6095443E-006  0.1275685E+03  0.7546771E-02  0.1245501E+00
          2   -1    0    0  501    0  0.00000000000E+00  0.00000000000E+00  0.27812017294E+03  0.27812017294E+03  0.00000000000E+00 0. -1.
         -2   -1    0    0    0  501 -0.00000000000E+00 -0.00000000000E+00 -0.46697721942E+02  0.46697721942E+02  0.00000000000E+00 0.  1.
         23    2    1    2    0    0  0.22943082509E+02 -0.11127816527E+02  0.97642958053E+02  0.16064829921E+03  0.12499406165E+03 0.  0.
          5    1    3    3  502    0  0.69772192458E+02 -0.70156469108E+01  0.87670394526E+02  0.11236354488E+03  0.47000000000E+01 0.  1.
         -5    1    3    3    0  502 -0.46829109949E+02 -0.41121696163E+01  0.99725635274E+01  0.48284754332E+02  0.47000000000E+01 0.  1.
        -11    1    1    2    0    0 -0.32505012680E+02  0.15050056007E+02  0.14473901762E+03  0.14910554402E+03  0.00000000000E+00 0. -1.
         11    1    1    2    0    0  0.95619301702E+01 -0.39222394795E+01 -0.10959524674E+02  0.15064051653E+02  0.00000000000E+00 0.  1.
<mgrwt>
<rscale>  0 0.11855420E+03</rscale>
<asrwt>0</asrwt>
<pdfrwt beam="1">  1        2 0.42787718E-01 0.12756853E+03</pdfrwt>
<pdfrwt beam="2">  1       -2 0.71842651E-02 0.12756853E+03</pdfrwt>
<totfact> 0.12448275E+04</totfact>
</mgrwt>
</event>
<event>
 7    1  0.6095443E-006  0.1352435E+03  0.7546771E-02  0.1232074E+00
         -2   -1    0    0    0  501 -0.00000000000E+00  0.00000000000E+00  0.35953405877E+02  0.35953405877E+02  0.00000000000E+00 0.  1.
          2   -1    0    0  501    0  0.00000000000E+00 -0.00000000000E+00 -0.41126046454E+03  0.41126046454E+03  0.00000000000E+00 0. -1.
         23    2    1    2    0    0  0.37284714954E+02 -0.35625549118E+02 -0.17598743927E+03  0.22195131489E+03  0.12502590805E+03 0.  0.
          5    1    3    3  502    0  0.45233057174E+02  0.38379880856E+02 -0.92664915957E+02  0.11012684216E+03  0.47000000000E+01 0. -1.
         -5    1    3    3    0  502 -0.79483422198E+01 -0.74005429974E+02 -0.83322523308E+02  0.11182447272E+03  0.47000000000E+01 0. -1.
        -11    1    1    2    0    0  0.42646254487E+01  0.47572022338E+02 -0.47320704179E+02  0.67234911940E+02  0.00000000000E+00 0.  1.
         11    1    1    2    0    0 -0.41549340403E+02 -0.11946473220E+02 -0.15199891522E+03  0.15802764359E+03  0.00000000000E+00 0. -1.
<mgrwt>
<rscale>  0 0.12693604E+03</rscale>
<asrwt>0</asrwt>
<pdfrwt beam="2">  1        2 0.63270844E-01 0.13524351E+03</pdfrwt>
<pdfrwt beam="1">  1       -2 0.55312930E-02 0.13524351E+03</pdfrwt>
<totfact> 0.12285572E+04</totfact>
</mgrwt>
</event>
<event>
 6    1  0.6095443E-006  0.1550713E+03  0.7546771E-02  0.1215909E+00
         -3   -1    0    0    0  501 -0.00000000000E+00  0.00000000000E+00  0.86348025674E+02  0.86348025674E+02  0.00000000000E+00 0.  1.
          3   -1    0    0  501    0  0.00000000000E+00 -0.00000000000E+00 -0.35759651820E+03  0.35759651820E+03  0.00000000000E+00 0. -1.
          5    1    1    2  502    0 -0.24252623507E+02  0.17589345606E+02 -0.72648206933E+02  0.78723737186E+02  0.47000000000E+01 0. -1.
         -5    1    1    2    0  502 -0.18812057705E+02 -0.89109686682E+01  0.73305982174E+02  0.76348908966E+02  0.47000000000E+01 0.  1.
        -11    1    1    2    0    0  0.59202960510E+01 -0.44979413953E+02 -0.11682147239E+03  0.12532140279E+03  0.00000000000E+00 0.  1.
         11    1    1    2    0    0  0.37144385161E+02  0.36301037014E+02 -0.15508479537E+03  0.16355049493E+03  0.00000000000E+00 0. -1.
<mgrwt>
<rscale>  0 0.13809998E+03</rscale>
<asrwt>0</asrwt>
<pdfrwt beam="2">  1        3 0.55014850E-01 0.15507125E+03</pdfrwt>
<pdfrwt beam="1">  1       -3 0.13284311E-01 0.15507125E+03</pdfrwt>
<totfact> 0.35643254E+02</totfact>
</mgrwt>
</event>
<event>
 7    1  0.6095443E-006  0.1329519E+03  0.7546771E-02  0.1236872E+00
          2   -1    0    0  501    0  0.00000000000E+00  0.00000000000E+00  0.12766185240E+03  0.12766185240E+03  0.00000000000E+00 0. -1.
         -2   -1    0    0    0  501 -0.00000000000E+00 -0.00000000000E+00 -0.13082129183E+03  0.13082129183E+03  0.00000000000E+00 0.  1.
         23    2    1    2    0    0  0.20353727014E+02  0.40457600350E+02 -0.57165661114E+02  0.14472084134E+03  0.12500046991E+03 0.  0.
          5    1    3    3  502    0 -0.33035478284E+02 -0.23239949594E+02  0.47974148554E+01  0.40945613586E+02  0.47000000000E+01 0. -1.
         -5    1    3    3    0  502  0.53389205299E+02  0.63697549944E+02 -0.61963075970E+02  0.10377522775E+03  0.47000000000E+01 0. -1.
        -11    1    1    2    0    0  0.35989963530E+01 -0.64574047500E+02  0.44374453257E+02  0.78433745845E+02  0.00000000000E+00 0.  1.
         11    1    1    2    0    0 -0.23952723367E+02  0.24116447150E+02  0.96317684232E+01  0.35328557044E+02  0.00000000000E+00 0. -1.
<mgrwt>
<rscale>  0 0.12385328E+03</rscale>
<asrwt>0</asrwt>
<pdfrwt beam="1">  1        2 0.19640285E-01 0.13295191E+03</pdfrwt>
<pdfrwt beam="2">  1       -2 0.20126353E-01 0.13295191E+03</pdfrwt>
<totfact> 0.56035281E+03</totfact>
</mgrwt>
</event>
<event>
 7    1  0.6095443E-006  0.1406569E+03  0.7546771E-02  0.1223984E+00
         -1   -1    0    0    0  501 -0.00000000000E+00  0.00000000000E+00  0.21782194137E+03  0.21782194137E+03  0.00000000000E+00 0.  1.
          1   -1    0    0  501    0  0.00000000000E+00 -0.00000000000E+00 -0.87207996767E+02  0.87207996767E+02  0.00000000000E+00 0. -1.
         23    2    1    2    0    0  0.54349341733E+02  0.35238113528E+02  0.13454110754E+03  0.19464242964E+03  0.12485507682E+03 0.  0.
          5    1    3    3  502    0  0.64744882115E+01 -0.12353903873E+02 -0.20639246542E+02  0.25349683161E+02  0.47000000000E+01 0. -1.
         -5    1    3    3    0  502  0.47874853522E+02  0.47592017401E+02  0.15518035408E+03  0.16929274648E+03  0.47000000000E+01 0. -1.
        -11    1    1    2    0    0  0.47158080144E+00 -0.30717141443E+02  0.32257815252E+02  0.44545839444E+02  0.00000000000E+00 0.  1.
         11    1    1    2    0    0 -0.54820922535E+02 -0.45209720849E+01 -0.36184978189E+02  0.65841669046E+02  0.00000000000E+00 0. -1.
<mgrwt>
<rscale>  0 0.13236770E+03</rscale>
<asrwt>0</asrwt>
<pdfrwt beam="2">  1        1 0.13416615E-01 0.14065691E+03</pdfrwt>
<pdfrwt beam="1">  1       -1 0.33511068E-01 0.14065691E+03</pdfrwt>
<totfact> 0.35133146E+03</totfact>
</mgrwt>
</event>
<event>
 7    1  0.6095443E-006  0.1456851E+03  0.7546771E-02  0.1215480E+00
          2   -1    0    0  501    0  0.00000000000E+00  0.00000000000E+00  0.21911237935E+03  0.21911237935E+03  0.00000000000E+00 0. -1.
         -2   -1    0    0    0  501 -0.00000000000E+00 -0.00000000000E+00 -0.83492138924E+02  0.83492138924E+02  0.00000000000E+00 0.  1.
         23    2    1    2    0    0  0.51417528288E+02 -0.54398144337E+02  0.42571969217E+02  0.15177789987E+03  0.12498495111E+03 0.  0.
          5    1    3    3  502    0  0.16188547263E+02 -0.65616589679E+02  0.75930180787E+02  0.10175995410E+03  0.47000000000E+01 0.  1.
         -5    1    3    3    0  502  0.35228981025E+02  0.11218445342E+02 -0.33358211570E+02  0.50017945771E+02  0.47000000000E+01 0.  1.
        -11    1    1    2    0    0 -0.61195197085E+02  0.17305191335E+02  0.17279368086E+02  0.65900670367E+02  0.00000000000E+00 0.  1.
         11    1    1    2    0    0  0.97776687971E+01  0.37092953002E+02  0.75768903122E+02  0.84925948036E+02  0.00000000000E+00 0. -1.
<mgrwt>
<rscale>  0 0.13841334E+03</rscale>
<asrwt>0</asrwt>
<pdfrwt beam="1">  1        2 0.33709597E-01 0.14568513E+03</pdfrwt>
<pdfrwt beam="2">  1       -2 0.12844945E-01 0.14568513E+03</pdfrwt>
<totfact> 0.65196791E+03</totfact>
</mgrwt>
</event>
<event>
 7    1  0.6095443E-006  0.1398222E+03  0.7546771E-02  0.1225761E+00
          1   -1    0    0  501    0  0.00000000000E+00  0.00000000000E+00  0.19244732616E+03  0.19244732616E+03  0.00000000000E+00 0. -1.
         -1   -1    0    0    0  501 -0.00000000000E+00 -0.00000000000E+00 -0.91826902214E+02  0.91826902214E+02  0.00000000000E+00 0.  1.
         23    2    1    2    0    0  0.12168530710E+02 -0.61453858727E+02  0.50843430322E+01  0.13991458886E+03  0.12500236693E+03 0.  0.
          5    1    3    3  502    0 -0.29269986736E+02 -0.31196771417E+02 -0.49000483332E+02  0.65215857252E+02  0.47000000000E+01 0. -1.
         -5    1    3    3    0  502  0.41438517446E+02 -0.30257087311E+02  0.54084826365E+02  0.74698731606E+02  0.47000000000E+01 0. -1.
        -11    1    1    2    0    0 -0.25941671809E+02 -0.30109944575E+01 -0.24857678082E+01  0.26233861048E+02  0.00000000000E+00 0.  1.
         11    1    1    2    0    0  0.13773141100E+02  0.64464853185E+02  0.98021848725E+02  0.11812577847E+03  0.00000000000E+00 0. -1.
<mgrwt>
<rscale>  0 0.13114856E+03</rscale>
<asrwt>0</asrwt>
<pdfrwt beam="1">  1        1 0.29607281E-01 0.13982218E+03</pdfrwt>
<pdfrwt beam="2">  1       -1 0.14127216E-01 0.13982218E+03</pdfrwt>
<totfact> 0.52150776E+03</totfact>
</mgrwt>
</event>
<event>
 7    1  0.6095443E-006  0.1779443E+03  0.7546771E-02  0.1175576E+00
         -3   -1    0    0    0  501 -0.00000000000E+00  0.00000000000E+00  0.75129907388E+02  0.75129907388E+02  0.00000000000E+00 0.  1.
          3   -1    0    0  501    0  0.00000000000E+00 -0.00000000000E+00 -0.37208222939E+03  0.37208222939E+03  0.00000000000E+00 0. -1.
         23    2    1    2    0    0 -0.91367021002E+02 -0.87716468726E+02 -0.16913740587E+03  0.24550282746E+03  0.12498825871E+03 0.  0.
          5    1    3    3  502    0 -0.99993894387E+02 -0.11038272598E+03 -0.16127350754E+03  0.21957768408E+03  0.47000000000E+01 0.  1.
         -5    1    3    3    0  502  0.86268733851E+01  0.22666257258E+02 -0.78638983235E+01  0.25925143381E+02  0.47000000000E+01 0.  1.
        -11    1    1    2    0    0  0.46254511420E+02  0.97137257774E+02 -0.72614517627E+02  0.12979982606E+03  0.00000000000E+00 0.  1.
         11    1    1    2    0    0  0.45112509582E+02 -0.94207890481E+01 -0.55200398509E+02  0.71909483259E+02  0.00000000000E+00 0. -1.
<mgrwt>
<rscale>  0 0.17219694E+03</rscale>
<asrwt>0</asrwt>
<pdfrwt beam="2">  1        3 0.57243419E-01 0.17794431E+03</pdfrwt>
<pdfrwt beam="1">  1       -3 0.11558447E-01 0.17794431E+03</pdfrwt>
<totfact> 0.42299131E+02</totfact>
</mgrwt>
</event>
<event>
 7    1  0.6095443E-006  0.2435252E+03  0.7546771E-02  0.1120411E+00
         -2   -1    0    0    0  501 -0.00000000000E+00  0.00000000000E+00  0.12254246918E+03  0.12254246918E+03  0.00000000000E+00 0.  1.
          2   -1    0    0  501    0  0.00000000000E+00 -0.00000000000E+00 -0.48160827370E+03  0.48160827370E+03  0.00000000000E+00 0. -1.
         23    2    1    2    0    0  0.16731407112E+03  0.12523573776E+03 -0.10855620487E+03  0.26662514079E+03  0.12500611055E+03 0.  0.
          5    1    3    3  502    0 -0.17779532341E+02  0.29589425430E+02 -0.20186141162E+02  0.40264328662E+02  0.47000000000E+01 0.  1.
         -5    1    3    3    0  502  0.18509360347E+03  0.95646312327E+02 -0.88370063708E+02  0.22636081212E+03  0.47000000000E+01 0.  1.
        -11    1    1    2    0    0 -0.16907285340E+03 -0.99297429596E+02 -0.19654347204E+03  0.27762374841E+03  0.00000000000E+00 0.  1.
         11    1    1    2    0    0  0.17587822784E+01 -0.25938308161E+02 -0.53966127611E+02  0.59901853683E+02  0.00000000000E+00 0. -1.
<mgrwt>
<rscale>  0 0.23907448E+03</rscale>
<asrwt>0</asrwt>
<pdfrwt beam="2">  1        2 0.74093581E-01 0.24352519E+03</pdfrwt>
<pdfrwt beam="1">  1       -2 0.18852687E-01 0.24352519E+03</pdfrwt>
<totfact> 0.15080697E+03</totfact>
</mgrwt>
</event>
<event>
 7    1  0.6095443E-006  0.1442451E+03  0.7546771E-02  0.1217793E+00
         -3   -1    0    0    0  501 -0.00000000000E+00  0.00000000000E+00  0.47143007926E+03  0.47143007926E+03  0.00000000000E+00 0.  1.
          3   -1    0    0  501    0  0.00000000000E+00 -0.00000000000E+00 -0.36180816737E+02  0.36180816737E+02  0.00000000000E+00 0. -1.
         23    2    1    2    0    0  0.60867489808E+02 -0.38477785997E+02  0.25619804576E+03  0.29401374780E+03  0.12498501475E+03 0.  0.
          5    1    3    3  502    0  0.67406120546E+02  0.30163779603E+02  0.11399989840E+03  0.13590991694E+03  0.47000000000E+01 0. -1.
         -5    1    3    3    0  502 -0.65386307380E+01 -0.68641565599E+02  0.14219814736E+03  0.15810383086E+03  0.47000000000E+01 0. -1.
        -11    1    1    2    0    0  0.21095304586E+02 -0.51266476587E+01  0.20468151636E+02  0.29836883604E+02  0.00000000000E+00 0.  1.
         11    1    1    2    0    0 -0.81962794394E+02  0.43604433655E+02  0.15858306512E+03  0.18376026459E+03  0.00000000000E+00 0. -1.
<mgrwt>
<rscale>  0 0.13673379E+03</rscale>
<asrwt>0</asrwt>
<pdfrwt beam="2">  1        3 0.55662798E-02 0.14424509E+03</pdfrwt>
<pdfrwt beam="1">  1       -3 0.72527700E-01 0.14424509E+03</pdfrwt>
<totfact> 0.82588805E+02</totfact>
</mgrwt>
</event>
<event>
 7    1  0.6095443E-006  0.1361906E+03  0.7546771E-02  0.1229638E+00
         -1   -1    0    0    0  501 -0.00000000000E+00  0.00000000000E+00  0.49796814500E+02  0.49796814500E+02  0.00000000000E+00 0.  1.
          1   -1    0    0  501    0  0.00000000000E+00 -0.00000000000E+00 -0.30954167336E+03  0.30954167336E+03  0.00000000000E+00 0. -1.
         23    2    1    2    0    0 -0.32053179964E+02  0.50262589414E+02 -0.11225321389E+03  0.17648984746E+03  0.12245059406E+03 0.  0.
          5    1    3    3  502    0  0.11476468441E+02 -0.25077274638E+02  0.69565232047E+01  0.28828150240E+02  0.47000000000E+01 0. -1.
         -5    1    3    3    0  502 -0.43529648406E+02  0.75339864053E+02 -0.11920973710E+03  0.14766169722E+03  0.47000000000E+01 0.  1.
        -11    1    1    2    0    0 -0.25667835806E+01 -0.54725681902E+02 -0.34870153572E+02  0.64941637242E+02  0.00000000000E+00 0.  1.
         11    1    1    2    0    0  0.34619963545E+02  0.44630924877E+01 -0.11262149139E+03  0.11790700316E+03  0.00000000000E+00 0. -1.
<mgrwt>
<rscale>  0 0.12854050E+03</rscale>
<asrwt>0</asrwt>
<pdfrwt beam="2">  1        1 0.47621795E-01 0.13619061E+03</pdfrwt>
<pdfrwt beam="1">  1       -1 0.76610485E-02 0.13619061E+03</pdfrwt>
<totfact> 0.73755786E+03</totfact>
</mgrwt>
</event>
<event>
 7    1  0.6095443E-006  0.1335436E+03  0.7546771E-02  0.1237835E+00
         -2   -1    0    0    0  501 -0.00000000000E+00  0.00000000000E+00  0.14901040404E+02  0.14901040404E+02  0.00000000000E+00 0. -1.
          2   -1    0    0  501    0  0.00000000000E+00 -0.00000000000E+00 -0.89101443251E+03  0.89101443251E+03  0.00000000000E+00 0.  1.
         23    2    1    2    0    0 -0.43459101012E+02 -0.17868305076E+02 -0.51487434992E+03  0.53191116262E+03  0.12500367565E+03 0.  0.
          5    1    3    3  502    0 -0.82487247292E+02  0.12883375125E+02 -0.31860039875E+03  0.32939100079E+03  0.47000000000E+01 0.  1.
         -5    1    3    3    0  502  0.39028146280E+02 -0.30751680201E+02 -0.19627395118E+03  0.20252016183E+03  0.47000000000E+01 0.  1.
        -11    1    1    2    0    0 -0.24429004053E+02  0.13264753061E+02 -0.13121283832E+03  0.13412508659E+03  0.00000000000E+00 0.  1.
         11    1    1    2    0    0  0.67888105065E+02  0.46035520146E+01 -0.23002620386E+03  0.23987922370E+03  0.00000000000E+00 0. -1.
<mgrwt>
<rscale>  0 0.12324659E+03</rscale>
<asrwt>0</asrwt>
<pdfrwt beam="2">  1        2 0.13707917E+00 0.13354358E+03</pdfrwt>
<pdfrwt beam="1">  1       -2 0.22924673E-02 0.13354358E+03</pdfrwt>
<totfact> 0.18506245E+04</totfact>
</mgrwt>
</event>
<event>
 7    1  0.6095443E-006  0.1313359E+03  0.7546771E-02  0.1244516E+00
          1   -1    0    0  501    0  0.00000000000E+00  0.00000000000E+00  0.11971877772E+03  0.11971877772E+03  0.00000000000E+00 0. -1.
         -1   -1    0    0    0  501 -0.00000000000E+00 -0.00000000000E+00 -0.12730913554E+03  0.12730913554E+03  0.00000000000E+00 0.  1.
         23    2    1    2    0    0 -0.36581034238E+02 -0.16889522805E+02 -0.59342723749E+02  0.14412037366E+03  0.12500278075E+03 0.  0.
          5    1    3    3  502    0  0.42292402380E+02 -0.19068995236E+02 -0.42947737819E+02  0.63394574390E+02  0.47000000000E+01 0.  1.
         -5    1    3    3    0  502 -0.78873436618E+02  0.21794724304E+01 -0.16394985931E+02  0.80725799269E+02  0.47000000000E+01 0.  1.
        -11    1    1    2    0    0  0.51506891343E+02  0.25220699268E+02  0.10566694893E+02  0.58315508815E+02  0.00000000000E+00 0.  1.
         11    1    1    2    0    0 -0.14925857105E+02 -0.83311764623E+01  0.41185671035E+02  0.44592030792E+02  0.00000000000E+00 0. -1.
<mgrwt>
<rscale>  0 0.11914369E+03</rscale>
<asrwt>0</asrwt>
<pdfrwt beam="1">  1        1 0.18418273E-01 0.13133592E+03</pdfrwt>
<pdfrwt beam="2">  1       -1 0.19586021E-01 0.13133592E+03</pdfrwt>
<totfact> 0.56376583E+03</totfact>
</mgrwt>
</event>
<event>
 7    1  0.6095443E-006  0.1640587E+03  0.7546771E-02  0.1191250E+00
          2   -1    0    0  501    0  0.00000000000E+00  0.00000000000E+00  0.10672653161E+04  0.10672653161E+04  0.00000000000E+00 0. -1.
         -2   -1    0    0    0  501 -0.00000000000E+00 -0.00000000000E+00 -0.21703788764E+02  0.21703788764E+02  0.00000000000E+00 0.  1.
         23    2    1    2    0    0  0.83428629219E+02 -0.65798281939E+02  0.57417833233E+03  0.59715660987E+03  0.12500203725E+03 0.  0.
          5    1    3    3  502    0  0.67606006658E+02 -0.31097093942E+02  0.54180229446E+03  0.54690896653E+03  0.47000000000E+01 0.  1.
         -5    1    3    3    0  502  0.15822622561E+02 -0.34701187997E+02  0.32376037865E+02  0.50247643337E+02  0.47000000000E+01 0.  1.
        -11    1    1    2    0    0 -0.84550664648E+02  0.16384793192E+02  0.23418257164E+03  0.24951703990E+03  0.00000000000E+00 0.  1.
         11    1    1    2    0    0  0.11220354285E+01  0.49413488748E+02  0.23720062337E+03  0.24229545510E+03  0.00000000000E+00 0. -1.
<mgrwt>
<rscale>  0 0.15775948E+03</rscale>
<asrwt>0</asrwt>
<pdfrwt beam="1">  1        2 0.16419462E+00 0.16405871E+03</pdfrwt>
<pdfrwt beam="2">  1       -2 0.33390453E-02 0.16405871E+03</pdfrwt>
<totfact> 0.84277519E+03</totfact>
</mgrwt>
</event>
<event>
 7    1  0.6095443E-006  0.1291643E+03  0.7546771E-02  0.1242683E+00
         -2   -1    0    0    0  501 -0.00000000000E+00  0.00000000000E+00  0.58507659378E+02  0.58507659378E+02  0.00000000000E+00 0.  1.
          2   -1    0    0  501    0  0.00000000000E+00 -0.00000000000E+00 -0.22918206345E+03  0.22918206345E+03  0.00000000000E+00 0. -1.
         23    2    1    2    0    0 -0.32321266821E+02 -0.34657658356E+01 -0.66337342299E+02  0.14520350516E+03  0.12500695623E+03 0.  0.
          5    1    3    3  502    0  0.61840884175E+01  0.26232366227E+02 -0.87710817771E+02  0.91878493356E+02  0.47000000000E+01 0. -1.
         -5    1    3    3    0  502 -0.38505355238E+02 -0.29698132062E+02  0.21373475472E+02  0.53325011803E+02  0.47000000000E+01 0. -1.
        -11    1    1    2    0    0  0.14946144613E+02  0.34252394036E+02 -0.58241004630E+01  0.37822399213E+02  0.00000000000E+00 0.  1.
         11    1    1    2    0    0  0.17375122208E+02 -0.30786628201E+02 -0.98512961305E+02  0.10466381845E+03  0.00000000000E+00 0. -1.
<mgrwt>
<rscale>  0 0.12025157E+03</rscale>
<asrwt>0</asrwt>
<pdfrwt beam="2">  1        2 0.35258779E-01 0.12916429E+03</pdfrwt>
<pdfrwt beam="1">  1       -2 0.90011784E-02 0.12916429E+03</pdfrwt>
<totfact> 0.10810068E+04</totfact>
</mgrwt>
</event>
<event>
 7    1  0.6095443E-006  0.1689277E+03  0.7546771E-02  0.1185104E+00
          2   -1    0    0  501    0  0.00000000000E+00  0.00000000000E+00  0.57623394173E+03  0.57623394173E+03  0.00000000000E+00 0. -1.
         -2   -1    0    0    0  501 -0.00000000000E+00 -0.00000000000E+00 -0.43399265658E+02  0.43399265658E+02  0.00000000000E+00 0.  1.
         23    2    1    2    0    0  0.71838368097E+02  0.88039321428E+02  0.29273346006E+03  0.33797846639E+03  0.12499956741E+03 0.  0.
          5    1    3    3  502    0  0.52175573078E+02  0.85541225831E+01  0.22627173088E+03  0.23241439206E+03  0.47000000000E+01 0.  1.
         -5    1    3    3    0  502  0.19662795020E+02  0.79485198845E+02  0.66461729180E+02  0.10556407433E+03  0.47000000000E+01 0.  1.
        -11    1    1    2    0    0 -0.14617049282E+02 -0.45661397893E+02  0.18640686233E+03  0.19247373772E+03  0.00000000000E+00 0. -1.
         11    1    1    2    0    0 -0.57221318815E+02 -0.42377923535E+02  0.53694353686E+02  0.89181003290E+02  0.00000000000E+00 0.  1.
<mgrwt>
<rscale>  0 0.16322439E+03</rscale>
<asrwt>0</asrwt>
<pdfrwt beam="1">  1        2 0.88651370E-01 0.16892769E+03</pdfrwt>
<pdfrwt beam="2">  1       -2 0.66768105E-02 0.16892769E+03</pdfrwt>
<totfact> 0.64573539E+03</totfact>
</mgrwt>
</event>
<event>
 7    1  0.6095443E-006  0.1322787E+03  0.7546771E-02  0.1238102E+00
          1   -1    0    0  501    0  0.00000000000E+00  0.00000000000E+00  0.23057304315E+02  0.23057304315E+02  0.00000000000E+00 0. -1.
         -1   -1    0    0    0  501 -0.00000000000E+00 -0.00000000000E+00 -0.61258772701E+03  0.61258772701E+03  0.00000000000E+00 0.  1.
         23    2    1    2    0    0  0.10671331160E+02  0.41922324140E+02 -0.40658470256E+03  0.42756144202E+03  0.12500523100E+03 0.  0.
          5    1    3    3  502    0 -0.38899428888E+02 -0.23579376608E+02 -0.97155683486E+02  0.10738002329E+03  0.47000000000E+01 0. -1.
         -5    1    3    3    0  502  0.49570760048E+02  0.65501700748E+02 -0.30942901907E+03  0.32018141872E+03  0.47000000000E+01 0. -1.
        -11    1    1    2    0    0 -0.40716564568E+02 -0.86727601402E+01 -0.37989390269E+02  0.56358221864E+02  0.00000000000E+00 0. -1.
         11    1    1    2    0    0  0.30045233408E+02 -0.33249564000E+02 -0.14495632987E+03  0.15172536745E+03  0.00000000000E+00 0.  1.
<mgrwt>
<rscale>  0 0.12307923E+03</rscale>
<asrwt>0</asrwt>
<pdfrwt beam="1">  1        1 0.35472774E-02 0.13227874E+03</pdfrwt>
<pdfrwt beam="2">  1       -1 0.94244270E-01 0.13227874E+03</pdfrwt>
<totfact> 0.29768022E+03</totfact>
</mgrwt>
</event>
<event>
 7    1  0.6095443E-006  0.3211650E+03  0.7546771E-02  0.1087603E+00
          2   -1    0    0  501    0  0.00000000000E+00  0.00000000000E+00  0.68857356184E+03  0.68857356184E+03  0.00000000000E+00 0. -1.
         -2   -1    0    0    0  501 -0.00000000000E+00 -0.00000000000E+00 -0.11014180138E+03  0.11014180138E+03  0.00000000000E+00 0.  1.
         23    2    1    2    0    0 -0.95313718334E+02  0.16738095666E+03  0.24254912732E+03  0.33399596169E+03  0.12498853430E+03 0.  0.
          5    1    3    3  502    0 -0.11336227312E+03  0.76657407573E+02  0.14074140410E+03  0.19636088188E+03  0.47000000000E+01 0. -1.
         -5    1    3    3    0  502  0.18048554785E+02  0.90723549086E+02  0.10180772322E+03  0.13763507982E+03  0.47000000000E+01 0. -1.
        -11    1    1    2    0    0  0.12824693426E+03 -0.14077695400E+03  0.36612565442E+03  0.41269046723E+03  0.00000000000E+00 0. -1.
         11    1    1    2    0    0 -0.32933215921E+02 -0.26604002662E+02 -0.30243021278E+02  0.52028934302E+02  0.00000000000E+00 0.  1.
<mgrwt>
<rscale>  0 0.29532243E+03</rscale>
<asrwt>0</asrwt>
<pdfrwt beam="1">  1        2 0.10593439E+00 0.32116503E+03</pdfrwt>
<pdfrwt beam="2">  1       -2 0.16944893E-01 0.32116503E+03</pdfrwt>
<totfact> 0.11954939E+03</totfact>
</mgrwt>
</event>
<event>
 7    1  0.6095443E-006  0.2735615E+03  0.7546771E-02  0.1101224E+00
         -2   -1    0    0    0  501 -0.00000000000E+00  0.00000000000E+00  0.17384185080E+03  0.17384185080E+03  0.00000000000E+00 0.  1.
          2   -1    0    0  501    0  0.00000000000E+00 -0.00000000000E+00 -0.62841570223E+03  0.62841570223E+03  0.00000000000E+00 0. -1.
         23    2    1    2    0    0  0.24000875915E+03  0.40078844135E+02  0.57242100024E+01  0.27362140229E+03  0.12500154797E+03 0.  0.
          5    1    3    3  502    0  0.19131197078E+03 -0.79935824554E+01  0.41916401826E+02  0.19606948327E+03  0.47000000000E+01 0.  1.
         -5    1    3    3    0  502  0.48696788362E+02  0.48072426590E+02 -0.36192191824E+02  0.77551919023E+02  0.47000000000E+01 0.  1.
        -11    1    1    2    0    0 -0.13059501412E+03 -0.64558983255E+02 -0.22585485091E+03  0.26876259731E+03  0.00000000000E+00 0.  1.
         11    1    1    2    0    0 -0.10941374503E+03  0.24480139120E+02 -0.23444321053E+03  0.25987355343E+03  0.00000000000E+00 0. -1.
<mgrwt>
<rscale>  0 0.27009717E+03</rscale>
<asrwt>0</asrwt>
<pdfrwt beam="2">  1        2 0.96679339E-01 0.27356152E+03</pdfrwt>
<pdfrwt beam="1">  1       -2 0.26744900E-01 0.27356152E+03</pdfrwt>
<totfact> 0.60454656E+02</totfact>
</mgrwt>
</event>
<event>
 7    1  0.6095443E-006  0.1556389E+03  0.7546771E-02  0.1202803E+00
          4   -1    0    0  501    0  0.00000000000E+00  0.00000000000E+00  0.56135723432E+02  0.56135723432E+02  0.00000000000E+00 0. -1.
         -4   -1    0    0    0  501 -0.00000000000E+00 -0.00000000000E+00 -0.37542331843E+03  0.37542331843E+03  0.00000000000E+00 0.  1.
         23    2    1    2    0    0 -0.74572622805E+02  0.55137138028E+02 -0.22163180829E+03  0.27082118937E+03  0.12498911194E+03 0.  0.
          5    1    3    3  502    0 -0.25415164602E+02  0.74279196287E+02 -0.54988792203E+02  0.95964508339E+02  0.47000000000E+01 0.  1.
         -5    1    3    3    0  502 -0.49157458202E+02 -0.19142058259E+02 -0.16664301608E+03  0.17485668103E+03  0.47000000000E+01 0.  1.
        -11    1    1    2    0    0  0.36283646949E+02 -0.74194114675E+01 -0.92146203979E+02  0.99309987465E+02  0.00000000000E+00 0.  1.
         11    1    1    2    0    0  0.38288975856E+02 -0.47717726561E+02 -0.55095827341E+01  0.61427865030E+02  0.00000000000E+00 0. -1.
<mgrwt>
<rscale>  0 0.14811943E+03</rscale>
<asrwt>0</asrwt>
<pdfrwt beam="1">  1        4 0.86362652E-02 0.15563887E+03</pdfrwt>
<pdfrwt beam="2">  1       -4 0.57757433E-01 0.15563887E+03</pdfrwt>
<totfact> 0.47599938E+02</totfact>
</mgrwt>
</event>
<event>
 7    1  0.6095443E-006  0.1392065E+03  0.7546771E-02  0.1225857E+00
         -1   -1    0    0    0  501 -0.00000000000E+00  0.00000000000E+00  0.34814678098E+03  0.34814678098E+03  0.00000000000E+00 0.  1.
          1   -1    0    0  501    0  0.00000000000E+00 -0.00000000000E+00 -0.55343141422E+02  0.55343141422E+02  0.00000000000E+00 0. -1.
         23    2    1    2    0    0 -0.56783128321E+02  0.23036456186E+02  0.24965319414E+03  0.28584115260E+03  0.12499378065E+03 0.  0.
          5    1    3    3  502    0 -0.27921118428E+02  0.11375578263E+02 -0.35219340455E+01  0.30716227869E+02  0.47000000000E+01 0. -1.
         -5    1    3    3    0  502 -0.28862009894E+02  0.11660877923E+02  0.25317512818E+03  0.25512492473E+03  0.47000000000E+01 0. -1.
        -11    1    1    2    0    0  0.49602685413E+02 -0.30630406799E+02 -0.13666677065E+02  0.59878429195E+02  0.00000000000E+00 0. -1.
         11    1    1    2    0    0  0.71804429085E+01  0.75939506134E+01  0.56817122488E+02  0.57770340609E+02  0.00000000000E+00 0.  1.
<mgrwt>
<rscale>  0 0.13108362E+03</rscale>
<asrwt>0</asrwt>
<pdfrwt beam="2">  1        1 0.85143297E-02 0.13920649E+03</pdfrwt>
<pdfrwt beam="1">  1       -1 0.53561042E-01 0.13920649E+03</pdfrwt>
<totfact> 0.27875887E+03</totfact>
</mgrwt>
</event>
<event>
 7    1  0.6095443E-006  0.1453651E+03  0.7546771E-02  0.1216340E+00
          2   -1    0    0  501    0  0.00000000000E+00  0.00000000000E+00  0.20910571590E+03  0.20910571590E+03  0.00000000000E+00 0. -1.
         -2   -1    0    0    0  501 -0.00000000000E+00 -0.00000000000E+00 -0.11821751706E+03  0.11821751706E+03  0.00000000000E+00 0.  1.
         23    2    1    2    0    0 -0.42491966981E+01 -0.74081354531E+02 -0.40761892596E+02  0.15097196103E+03  0.12499959347E+03 0.  0.
          5    1    3    3  502    0  0.19452541320E+02 -0.35542349945E+02 -0.80710959111E+02  0.90432344457E+02  0.47000000000E+01 0.  1.
         -5    1    3    3    0  502 -0.23701738018E+02 -0.38539004586E+02  0.39949066515E+02  0.60539616574E+02  0.47000000000E+01 0.  1.
        -11    1    1    2    0    0  0.33538254449E+02  0.28424121954E+02  0.10906677691E+03  0.11759382231E+03  0.00000000000E+00 0. -1.
         11    1    1    2    0    0 -0.29289057751E+02  0.45657232577E+02  0.22583314538E+02  0.58757449621E+02  0.00000000000E+00 0.  1.
<mgrwt>
<rscale>  0 0.13778565E+03</rscale>
<asrwt>0</asrwt>
<pdfrwt beam="1">  1        2 0.32170110E-01 0.14536506E+03</pdfrwt>
<pdfrwt beam="2">  1       -2 0.18187310E-01 0.14536506E+03</pdfrwt>
<totfact> 0.38748507E+03</totfact>
</mgrwt>
</event>
<event>
 7    1  0.6095443E-006  0.1409339E+03  0.7546771E-02  0.1222880E+00
          2   -1    0    0  501    0  0.00000000000E+00  0.00000000000E+00  0.19366793657E+03  0.19366793657E+03  0.00000000000E+00 0. -1.
         -2   -1    0    0    0  501 -0.00000000000E+00 -0.00000000000E+00 -0.10712407173E+03  0.10712407173E+03  0.00000000000E+00 0.  1.
         23    2    1    2    0    0 -0.56085427571E+02 -0.33043921258E+02 -0.24346558262E+02  0.14302139728E+03  0.12499955705E+03 0.  0.
          5    1    3    3  502    0 -0.48682397579E+02  0.41806071100E+02 -0.20630343983E+02  0.67567925140E+02  0.47000000000E+01 0. -1.
         -5    1    3    3    0  502 -0.74030299916E+01 -0.74849992358E+02 -0.37162142796E+01  0.75453472138E+02  0.47000000000E+01 0. -1.
        -11    1    1    2    0    0  0.34784458190E+02  0.64689188744E+02  0.64851055108E+02  0.97981166662E+02  0.00000000000E+00 0. -1.
         11    1    1    2    0    0  0.21300969381E+02 -0.31645267485E+02  0.46039368001E+02  0.59789444359E+02  0.00000000000E+00 0.  1.
<mgrwt>
<rscale>  0 0.13313304E+03</rscale>
<asrwt>0</asrwt>
<pdfrwt beam="1">  1        2 0.29795067E-01 0.14093390E+03</pdfrwt>
<pdfrwt beam="2">  1       -2 0.16480626E-01 0.14093390E+03</pdfrwt>
<totfact> 0.49511663E+03</totfact>
</mgrwt>
</event>
<event>
 6    1  0.6095443E-006  0.1427751E+03  0.7546771E-02  0.1299333E+00
          1   -1    0    0  501    0  0.00000000000E+00  0.00000000000E+00  0.23973926639E+02  0.23973926639E+02  0.00000000000E+00 0. -1.
         -1   -1    0    0    0  501 -0.00000000000E+00 -0.00000000000E+00 -0.30363878591E+03  0.30363878591E+03  0.00000000000E+00 0.  1.
          5    1    1    2  502    0 -0.62737411054E+01 -0.62333058993E+02 -0.11351639210E+03  0.12974140182E+03  0.47000000000E+01 0. -1.
         -5    1    1    2    0  502 -0.10005656667E+02  0.79181249152E+02 -0.14616519973E+03  0.16660173767E+03  0.47000000000E+01 0.  1.
        -11    1    1    2    0    0  0.71436093225E+01 -0.11077892164E+02 -0.12111466966E+02  0.17900795542E+02  0.00000000000E+00 0. -1.
         11    1    1    2    0    0  0.91357884497E+01 -0.57702979943E+01 -0.78718004686E+01  0.13368777512E+02  0.00000000000E+00 0.  1.
<mgrwt>
<rscale>  0 0.91468816E+02</rscale>
<asrwt>0</asrwt>
<pdfrwt beam="1">  1        1 0.36882963E-02 0.14277509E+03</pdfrwt>
<pdfrwt beam="2">  1       -1 0.46713660E-01 0.14277509E+03</pdfrwt>
<totfact> 0.11201737E+04</totfact>
</mgrwt>
</event>
<event>
 7    1  0.6095443E-006  0.1474040E+03  0.7546771E-02  0.1212533E+00
          2   -1    0    0  501    0  0.00000000000E+00  0.00000000000E+00  0.11877921543E+04  0.11877921543E+04  0.00000000000E+00 0. -1.
         -2   -1    0    0    0  501 -0.00000000000E+00 -0.00000000000E+00 -0.15645443811E+02  0.15645443811E+02  0.00000000000E+00 0.  1.
         23    2    1    2    0    0 -0.33056953097E+02 -0.70788839848E+02  0.54785698390E+03  0.56734048064E+03  0.12499649666E+03 0.  0.
          5    1    3    3  502    0 -0.12038768792E+02  0.20502766124E+02  0.20607877175E+02  0.31813047236E+02  0.47000000000E+01 0.  1.
         -5    1    3    3    0  502 -0.21018184305E+02 -0.91291605972E+02  0.52724910672E+03  0.53552743341E+03  0.47000000000E+01 0.  1.
        -11    1    1    2    0    0 -0.26697156396E+02  0.50980179832E+02  0.34802612393E+03  0.35275189558E+03  0.00000000000E+00 0. -1.
         11    1    1    2    0    0  0.59754109493E+02  0.19808660016E+02  0.27626360267E+03  0.28334522190E+03  0.00000000000E+00 0.  1.
<mgrwt>
<rscale>  0 0.14059317E+03</rscale>
<asrwt>0</asrwt>
<pdfrwt beam="1">  1        2 0.18273718E+00 0.14740402E+03</pdfrwt>
<pdfrwt beam="2">  1       -2 0.24069923E-02 0.14740402E+03</pdfrwt>
<totfact> 0.11586624E+04</totfact>
</mgrwt>
</event>
<event>
 7    1  0.6095443E-006  0.1329104E+03  0.7546771E-02  0.1236981E+00
          2   -1    0    0  501    0  0.00000000000E+00  0.00000000000E+00  0.31539599573E+02  0.31539599573E+02  0.00000000000E+00 0. -1.
         -2   -1    0    0    0  501 -0.00000000000E+00 -0.00000000000E+00 -0.43201447990E+03  0.43201447990E+03  0.00000000000E+00 0.  1.
         23    2    1    2    0    0 -0.43222003965E+02  0.13121525544E+02 -0.24411925998E+03  0.27795574945E+03  0.12499947802E+03 0.  0.
          5    1    3    3  502    0 -0.56763186120E+02 -0.43464315087E+02 -0.16266674595E+03  0.17774635361E+03  0.47000000000E+01 0. -1.
         -5    1    3    3    0  502  0.13541182155E+02  0.56585840631E+02 -0.81452514027E+02  0.10020939584E+03  0.47000000000E+01 0. -1.
        -11    1    1    2    0    0  0.52433358466E+02 -0.24420779019E+02 -0.16036618930E+03  0.17047857988E+03  0.00000000000E+00 0.  1.
         11    1    1    2    0    0 -0.92113545012E+01  0.11299253475E+02  0.40105689494E+01  0.15119750135E+02  0.00000000000E+00 0. -1.
<mgrwt>
<rscale>  0 0.12378485E+03</rscale>
<asrwt>0</asrwt>
<pdfrwt beam="1">  1        2 0.48522465E-02 0.13291044E+03</pdfrwt>
<pdfrwt beam="2">  1       -2 0.66463760E-01 0.13291044E+03</pdfrwt>
<totfact> 0.33223533E+03</totfact>
</mgrwt>
</event>
<event>
 7    1  0.6095443E-006  0.1401083E+03  0.7546771E-02  0.1223703E+00
          1   -1    0    0  501    0  0.00000000000E+00  0.00000000000E+00  0.39743661676E+03  0.39743661676E+03  0.00000000000E+00 0. -1.
         -1   -1    0    0    0  501 -0.00000000000E+00 -0.00000000000E+00 -0.40069798109E+02  0.40069798109E+02  0.00000000000E+00 0.  1.
         23    2    1    2    0    0  0.45327052479E+02  0.44168857372E+02  0.19672738792E+03  0.24152019349E+03  0.12499963623E+03 0.  0.
          5    1    3    3  502    0  0.40584694857E+02  0.69495401141E+02  0.55471490850E+02  0.97856550795E+02  0.47000000000E+01 0. -1.
         -5    1    3    3    0  502  0.47423576211E+01 -0.25326543769E+02  0.14125589707E+03  0.14366364269E+03  0.47000000000E+01 0. -1.
        -11    1    1    2    0    0  0.24212010332E+02 -0.22719431372E+02  0.23312708963E+02  0.40569402330E+02  0.00000000000E+00 0. -1.
         11    1    1    2    0    0 -0.69539062811E+02 -0.21449425999E+02  0.13732672177E+03  0.15541681905E+03  0.00000000000E+00 0.  1.
<mgrwt>
<rscale>  0 0.13256175E+03</rscale>
<asrwt>0</asrwt>
<pdfrwt beam="1">  1        1 0.61144092E-01 0.14010831E+03</pdfrwt>
<pdfrwt beam="2">  1       -1 0.61645846E-02 0.14010831E+03</pdfrwt>
<totfact> 0.74904839E+03</totfact>
</mgrwt>
</event>
<event>
 7    1  0.6095443E-006  0.1557357E+03  0.7546771E-02  0.1203153E+00
          2   -1    0    0  501    0  0.00000000000E+00  0.00000000000E+00  0.49361929361E+03  0.49361929361E+03  0.00000000000E+00 0. -1.
         -2   -1    0    0    0  501 -0.00000000000E+00 -0.00000000000E+00 -0.40704839477E+02  0.40704839477E+02  0.00000000000E+00 0.  1.
         23    2    1    2    0    0  0.60568399198E+01 -0.92687397101E+02  0.22443183472E+03  0.27317255243E+03  0.12500382423E+03 0.  0.
          5    1    3    3  502    0 -0.15997707875E+02 -0.10900447448E+03  0.21844731540E+03  0.24470231245E+03  0.47000000000E+01 0. -1.
         -5    1    3    3    0  502  0.22054547794E+02  0.16317077383E+02  0.59845193200E+01  0.28470239975E+02  0.47000000000E+01 0. -1.
        -11    1    1    2    0    0 -0.23229074559E+02  0.26917909584E+02  0.16276667807E+03  0.16660478760E+03  0.00000000000E+00 0. -1.
         11    1    1    2    0    0  0.17172234640E+02  0.65769487518E+02  0.65715941339E+02  0.94546793055E+02  0.00000000000E+00 0.  1.
<mgrwt>
<rscale>  0 0.14783999E+03</rscale>
<asrwt>0</asrwt>
<pdfrwt beam="1">  1        2 0.75941426E-01 0.15573566E+03</pdfrwt>
<pdfrwt beam="2">  1       -2 0.62622833E-02 0.15573566E+03</pdfrwt>
<totfact> 0.84297396E+03</totfact>
</mgrwt>
</event>
<event>
 7    1  0.6095443E-006  0.1404853E+03  0.7546771E-02  0.1224251E+00
          2   -1    0    0  501    0  0.00000000000E+00  0.00000000000E+00  0.13664791760E+03  0.13664791760E+03  0.00000000000E+00 0. -1.
         -2   -1    0    0    0  501 -0.00000000000E+00 -0.00000000000E+00 -0.13188062354E+03  0.13188062354E+03  0.00000000000E+00 0.  1.
         23    2    1    2    0    0  0.31907825026E+02  0.55656392796E+02 -0.45249103516E+02  0.14759268163E+03  0.12498149841E+03 0.  0.
          5    1    3    3  502    0 -0.47478421782E+02  0.11687228647E+02 -0.21823121425E+02  0.53750632341E+02  0.47000000000E+01 0. -1.
         -5    1    3    3    0  502  0.79386246808E+02  0.43969164149E+02 -0.23425982091E+02  0.93842049291E+02  0.47000000000E+01 0. -1.
        -11    1    1    2    0    0  0.21023980629E+02 -0.14715032432E+01 -0.10904381136E+02  0.23729277512E+02  0.00000000000E+00 0.  1.
         11    1    1    2    0    0 -0.52931805656E+02 -0.54184889553E+02  0.60920778713E+02  0.97206582003E+02  0.00000000000E+00 0. -1.
<mgrwt>
<rscale>  0 0.13218379E+03</rscale>
<asrwt>0</asrwt>
<pdfrwt beam="1">  1        2 0.21022757E-01 0.14048530E+03</pdfrwt>
<pdfrwt beam="2">  1       -2 0.20289327E-01 0.14048530E+03</pdfrwt>
<totfact> 0.51371318E+03</totfact>
</mgrwt>
</event>
<event>
 7    1  0.6095443E-006  0.1609741E+03  0.7546771E-02  0.1194855E+00
         -3   -1    0    0    0  501 -0.00000000000E+00  0.00000000000E+00  0.10937849773E+03  0.10937849773E+03  0.00000000000E+00 0.  1.
          3   -1    0    0  501    0  0.00000000000E+00 -0.00000000000E+00 -0.21965022855E+03  0.21965022855E+03  0.00000000000E+00 0. -1.
         23    2    1    2    0    0 -0.97893602893E+02  0.26539892974E+02 -0.14301235182E+02  0.16160816080E+03  0.12500059561E+03 0.  0.
          5    1    3    3  502    0 -0.12948085404E+02  0.41592269328E+02 -0.51437439539E+02  0.67568261557E+02  0.47000000000E+01 0. -1.
         -5    1    3    3    0  502 -0.84945517489E+02 -0.15052376354E+02  0.37136204357E+02  0.94039899241E+02  0.47000000000E+01 0. -1.
        -11    1    1    2    0    0  0.45617396924E+02 -0.59778730555E+02 -0.50633407874E+02  0.90654208517E+02  0.00000000000E+00 0.  1.
         11    1    1    2    0    0  0.52276205968E+02  0.33238837580E+02 -0.45337087761E+02  0.76766356959E+02  0.00000000000E+00 0. -1.
<mgrwt>
<rscale>  0 0.15466518E+03</rscale>
<asrwt>0</asrwt>
<pdfrwt beam="2">  1        3 0.33792342E-01 0.16097414E+03</pdfrwt>
<pdfrwt beam="1">  1       -3 0.16827461E-01 0.16097414E+03</pdfrwt>
<totfact> 0.61942329E+02</totfact>
</mgrwt>
</event>
<event>
 7    1  0.6095443E-006  0.1444934E+03  0.7546771E-02  0.1220073E+00
         -1   -1    0    0    0  501 -0.00000000000E+00  0.00000000000E+00  0.36379210983E+02  0.36379210983E+02  0.00000000000E+00 0.  1.
          1   -1    0    0  501    0  0.00000000000E+00 -0.00000000000E+00 -0.46119015911E+03  0.46119015911E+03  0.00000000000E+00 0. -1.
         23    2    1    2    0    0  0.72411258662E+02 -0.30413290134E+01 -0.19605250181E+03  0.24354655067E+03  0.12500279522E+03 0.  0.
          5    1    3    3  502    0  0.66090605513E+02 -0.57667014699E+02 -0.10310340643E+03  0.13544687201E+03  0.47000000000E+01 0.  1.
         -5    1    3    3    0  502  0.63206531498E+01  0.54625685686E+02 -0.92949095387E+02  0.10809967866E+03  0.47000000000E+01 0.  1.
        -11    1    1    2    0    0 -0.39804905538E+02  0.37619438800E+02 -0.73558604299E+02  0.91708892409E+02  0.00000000000E+00 0.  1.
         11    1    1    2    0    0 -0.32606353125E+02 -0.34578109787E+02 -0.15519984201E+03  0.16231392701E+03  0.00000000000E+00 0. -1.
<mgrwt>
<rscale>  0 0.13510404E+03</rscale>
<asrwt>0</asrwt>
<pdfrwt beam="2">  1        1 0.70952336E-01 0.14449339E+03</pdfrwt>
<pdfrwt beam="1">  1       -1 0.55968014E-02 0.14449339E+03</pdfrwt>
<totfact> 0.71708736E+03</totfact>
</mgrwt>
</event>
<event>
 7    1  0.6095443E-006  0.1315519E+03  0.7546771E-02  0.1239012E+00
         -2   -1    0    0    0  501 -0.00000000000E+00  0.00000000000E+00  0.82602885700E+02  0.82602885700E+02  0.00000000000E+00 0.  1.
          2   -1    0    0  501    0  0.00000000000E+00 -0.00000000000E+00 -0.16525174407E+03  0.16525174407E+03  0.00000000000E+00 0. -1.
         23    2    1    2    0    0  0.33441031654E+02 -0.23735117586E+02 -0.26868883405E+02  0.13426778827E+03  0.12499697463E+03 0.  0.
          5    1    3    3  502    0  0.75170158231E+02 -0.22253767931E+02 -0.42666314267E+02  0.89377218846E+02  0.47000000000E+01 0.  1.
         -5    1    3    3    0  502 -0.41729126577E+02 -0.14813496549E+01  0.15797430862E+02  0.44890569427E+02  0.47000000000E+01 0.  1.
        -11    1    1    2    0    0  0.17684844204E+02  0.27073741245E+02 -0.53237004507E+02  0.62289002468E+02  0.00000000000E+00 0. -1.
         11    1    1    2    0    0 -0.51125875857E+02 -0.33386236586E+01 -0.25429704560E+01  0.51297839027E+02  0.00000000000E+00 0.  1.
<mgrwt>
<rscale>  0 0.12251064E+03</rscale>
<asrwt>0</asrwt>
<pdfrwt beam="2">  1        2 0.25423345E-01 0.13155190E+03</pdfrwt>
<pdfrwt beam="1">  1       -2 0.12708136E-01 0.13155190E+03</pdfrwt>
<totfact> 0.89482638E+03</totfact>
</mgrwt>
</event>
<event>
 7    1  0.6095443E-006  0.1361982E+03  0.7546771E-02  0.1228947E+00
         -1   -1    0    0    0  501 -0.00000000000E+00  0.00000000000E+00  0.39745836886E+03  0.39745836886E+03  0.00000000000E+00 0.  1.
          1   -1    0    0  501    0  0.00000000000E+00 -0.00000000000E+00 -0.40386206165E+02  0.40386206165E+02  0.00000000000E+00 0. -1.
         23    2    1    2    0    0 -0.86934604716E+01 -0.53372828510E+02  0.24958001263E+03  0.28432397522E+03  0.12500282038E+03 0.  0.
          5    1    3    3  502    0  0.26044078846E+02 -0.13364877998E+02  0.52569107753E+00  0.29652661903E+02  0.47000000000E+01 0.  1.
         -5    1    3    3    0  502 -0.34737539317E+02 -0.40007950512E+02  0.24905432156E+03  0.25467131332E+03  0.47000000000E+01 0.  1.
        -11    1    1    2    0    0 -0.40734580576E+02  0.25222386519E+02  0.27114304454E+02  0.55051433610E+02  0.00000000000E+00 0. -1.
         11    1    1    2    0    0  0.49428041048E+02  0.28150441991E+02  0.80377845602E+02  0.98469166188E+02  0.00000000000E+00 0.  1.
<mgrwt>
<rscale>  0 0.12899992E+03</rscale>
<asrwt>0</asrwt>
<pdfrwt beam="2">  1        1 0.62132628E-02 0.13619817E+03</pdfrwt>
<pdfrwt beam="1">  1       -1 0.61147439E-01 0.13619817E+03</pdfrwt>
<totfact> 0.33185424E+03</totfact>
</mgrwt>
</event>
<event>
 7    1  0.6095443E-006  0.1139067E+03  0.7546771E-02  0.1261960E+00
         -1   -1    0    0    0  501 -0.00000000000E+00  0.00000000000E+00  0.41657017827E+02  0.41657017827E+02  0.00000000000E+00 0.  1.
          1   -1    0    0  501    0  0.00000000000E+00 -0.00000000000E+00 -0.42090664491E+03  0.42090664491E+03  0.00000000000E+00 0. -1.
         23    2    1    2    0    0 -0.14140200934E+02 -0.92669543819E+01 -0.59323467341E+02  0.12842904480E+03  0.11264512438E+03 0.  0.
          5    1    3    3  502    0 -0.13282276445E+02 -0.39387697133E+02 -0.80896992186E+02  0.91072624304E+02  0.47000000000E+01 0. -1.
         -5    1    3    3    0  502 -0.85792448858E+00  0.30120742751E+02  0.21573524845E+02  0.37356420499E+02  0.47000000000E+01 0.  1.
        -11    1    1    2    0    0  0.44383701107E+02 -0.16417035153E+02 -0.99678104679E+02  0.11034109171E+03  0.00000000000E+00 0. -1.
         11    1    1    2    0    0 -0.30243500173E+02  0.25683989535E+02 -0.22024805506E+03  0.22379352623E+03  0.00000000000E+00 0.  1.
<mgrwt>
<rscale>  0 0.10925283E+03</rscale>
<asrwt>0</asrwt>
<pdfrwt beam="2">  1        1 0.64754871E-01 0.11390674E+03</pdfrwt>
<pdfrwt beam="1">  1       -1 0.64087718E-02 0.11390674E+03</pdfrwt>
<totfact> 0.64884136E+03</totfact>
</mgrwt>
</event>
<event>
 7    1  0.6095443E-006  0.1330258E+03  0.7546771E-02  0.1236623E+00
         -2   -1    0    0    0  501 -0.00000000000E+00  0.00000000000E+00  0.23820762193E+03  0.23820762193E+03  0.00000000000E+00 0. -1.
          2   -1    0    0  501    0  0.00000000000E+00 -0.00000000000E+00 -0.61707962046E+02  0.61707962046E+02  0.00000000000E+00 0.  1.
         23    2    1    2    0    0 -0.36700811116E+02  0.26883691292E+02  0.13974009582E+03  0.19293305150E+03  0.12500474226E+03 0.  0.
          5    1    3    3  502    0 -0.43487181865E+02  0.50559763834E+02  0.15123278917E+03  0.16535075211E+03  0.47000000000E+01 0. -1.
         -5    1    3    3    0  502  0.67863707494E+01 -0.23676072542E+02 -0.11492693350E+02  0.27582299386E+02  0.47000000000E+01 0. -1.
        -11    1    1    2    0    0  0.27862115716E+02 -0.44457187232E+02  0.57879836477E+02  0.78120512411E+02  0.00000000000E+00 0. -1.
         11    1    1    2    0    0  0.88386953998E+01  0.17573495940E+02 -0.21120272406E+02  0.28862020068E+02  0.00000000000E+00 0.  1.
<mgrwt>
<rscale>  0 0.12401090E+03</rscale>
<asrwt>0</asrwt>
<pdfrwt beam="2">  1        2 0.94935327E-02 0.13302582E+03</pdfrwt>
<pdfrwt beam="1">  1       -2 0.36647326E-01 0.13302582E+03</pdfrwt>
<totfact> 0.45814608E+03</totfact>
</mgrwt>
</event>
<event>
 7    1  0.6095443E-006  0.1413140E+03  0.7546771E-02  0.1224781E+00
          1   -1    0    0  501    0  0.00000000000E+00  0.00000000000E+00  0.13638378168E+03  0.13638378168E+03  0.00000000000E+00 0. -1.
         -1   -1    0    0    0  501 -0.00000000000E+00 -0.00000000000E+00 -0.11801061729E+03  0.11801061729E+03  0.00000000000E+00 0.  1.
         23    2    1    2    0    0  0.24716550134E+02  0.61105862782E+02 -0.15511117593E+02  0.14216271051E+03  0.12499922869E+03 0.  0.
          5    1    3    3  502    0 -0.48312046897E+02  0.78333192382E+01  0.47795551303E+01  0.49399887783E+02  0.47000000000E+01 0. -1.
         -5    1    3    3    0  502  0.73028597032E+02  0.53272543543E+02 -0.20290672724E+02  0.92762822723E+02  0.47000000000E+01 0. -1.
        -11    1    1    2    0    0 -0.10741634437E+02  0.19605258597E+02 -0.27067388972E+01  0.22518332765E+02  0.00000000000E+00 0.  1.
         11    1    1    2    0    0 -0.13974915697E+02 -0.80711121379E+02  0.36591020876E+02  0.89713355704E+02  0.00000000000E+00 0. -1.
<mgrwt>
<rscale>  0 0.13181934E+03</rscale>
<asrwt>0</asrwt>
<pdfrwt beam="1">  1        1 0.20982120E-01 0.14131398E+03</pdfrwt>
<pdfrwt beam="2">  1       -1 0.18155480E-01 0.14131398E+03</pdfrwt>
<totfact> 0.54164676E+03</totfact>
</mgrwt>
</event>
<event>
 7    1  0.6095443E-006  0.1333024E+03  0.7546771E-02  0.1235890E+00
          3   -1    0    0  501    0  0.00000000000E+00  0.00000000000E+00  0.16277786235E+03  0.16277786235E+03  0.00000000000E+00 0. -1.
         -3   -1    0    0    0  501 -0.00000000000E+00 -0.00000000000E+00 -0.87198080113E+02  0.87198080113E+02  0.00000000000E+00 0.  1.
         23    2    1    2    0    0 -0.39798296628E+02  0.23699609065E+02  0.21264199261E+02  0.13498772425E+03  0.12499577450E+03 0.  0.
          5    1    3    3  502    0 -0.12073092112E+02 -0.28859158765E+02 -0.39004676401E+02  0.50220169045E+02  0.47000000000E+01 0. -1.
         -5    1    3    3    0  502 -0.27725204515E+02  0.52558767830E+02  0.60268875662E+02  0.84767555201E+02  0.47000000000E+01 0. -1.
        -11    1    1    2    0    0  0.12652202951E+02 -0.40882131893E+01 -0.25319295098E+02  0.28598224260E+02  0.00000000000E+00 0.  1.
         11    1    1    2    0    0  0.27146093676E+02 -0.19611395876E+02  0.79634878070E+02  0.86389993954E+02  0.00000000000E+00 0. -1.
<mgrwt>
<rscale>  0 0.12447606E+03</rscale>
<asrwt>0</asrwt>
<pdfrwt beam="1">  1        3 0.25042748E-01 0.13330236E+03</pdfrwt>
<pdfrwt beam="2">  1       -3 0.13415089E-01 0.13330236E+03</pdfrwt>
<totfact> 0.15424969E+03</totfact>
</mgrwt>
</event>
<event>
 7    1  0.6095443E-006  0.1697285E+03  0.7546771E-02  0.1184812E+00
          2   -1    0    0  501    0  0.00000000000E+00  0.00000000000E+00  0.10058469620E+04  0.10058469620E+04  0.00000000000E+00 0. -1.
         -2   -1    0    0    0  501 -0.00000000000E+00 -0.00000000000E+00 -0.25618249607E+02  0.25618249607E+02  0.00000000000E+00 0.  1.
         23    2    1    2    0    0 -0.14484850297E+02 -0.11390888572E+03  0.43335416310E+03  0.46540689607E+03  0.12499081204E+03 0.  0.
          5    1    3    3  502    0 -0.17651786172E+02 -0.10860417052E+03  0.17391621209E+03  0.20585283636E+03  0.47000000000E+01 0.  1.
         -5    1    3    3    0  502  0.31669358752E+01 -0.53047152017E+01  0.25943795101E+03  0.25955405971E+03  0.47000000000E+01 0.  1.
        -11    1    1    2    0    0 -0.13524589355E+02  0.10492415198E+03  0.49717739478E+03  0.50830832579E+03  0.00000000000E+00 0. -1.
         11    1    1    2    0    0  0.28009439652E+02  0.89847337404E+01  0.49697154515E+02  0.57749989757E+02  0.00000000000E+00 0.  1.
<mgrwt>
<rscale>  0 0.16349006E+03</rscale>
<asrwt>0</asrwt>
<pdfrwt beam="1">  1        2 0.15474566E+00 0.16972845E+03</pdfrwt>
<pdfrwt beam="2">  1       -2 0.39412700E-02 0.16972845E+03</pdfrwt>
<totfact> 0.71716273E+03</totfact>
</mgrwt>
</event>
<event>
 7    1  0.6095443E-006  0.1526290E+03  0.7546771E-02  0.1206281E+00
          1   -1    0    0  501    0  0.00000000000E+00  0.00000000000E+00  0.23422166087E+03  0.23422166087E+03  0.00000000000E+00 0. -1.
         -1   -1    0    0    0  501 -0.00000000000E+00 -0.00000000000E+00 -0.83068579015E+02  0.83068579015E+02  0.00000000000E+00 0.  1.
         23    2    1    2    0    0 -0.24119472826E+02  0.84192131840E+02  0.71337414805E+02  0.16847738611E+03  0.12500215536E+03 0.  0.
          5    1    3    3  502    0 -0.21283287934E+02  0.10447206278E+03  0.14277363834E+02  0.10767229618E+03  0.47000000000E+01 0. -1.
         -5    1    3    3    0  502 -0.28361848924E+01 -0.20279930943E+02  0.57060050971E+02  0.60805089923E+02  0.47000000000E+01 0. -1.
        -11    1    1    2    0    0  0.84092429253E+01 -0.77783777497E+02  0.12300125046E+02  0.79198008083E+02  0.00000000000E+00 0.  1.
         11    1    1    2    0    0  0.15710229901E+02 -0.64083543434E+01  0.67515542008E+02  0.69614845698E+02  0.00000000000E+00 0. -1.
<mgrwt>
<rscale>  0 0.14536939E+03</rscale>
<asrwt>0</asrwt>
<pdfrwt beam="1">  1        1 0.36034101E-01 0.15262897E+03</pdfrwt>
<pdfrwt beam="2">  1       -1 0.12779781E-01 0.15262897E+03</pdfrwt>
<totfact> 0.47996303E+03</totfact>
</mgrwt>
</event>
<event>
 7    1  0.6095443E-006  0.4033793E+03  0.7546771E-02  0.1043476E+00
         -2   -1    0    0    0  501 -0.00000000000E+00  0.00000000000E+00  0.79747448446E+02  0.79747448446E+02  0.00000000000E+00 0. -1.
          2   -1    0    0  501    0  0.00000000000E+00 -0.00000000000E+00 -0.19909917216E+04  0.19909917216E+04  0.00000000000E+00 0.  1.
         23    2    1    2    0    0  0.17105337955E+03 -0.34326812588E+03 -0.98322923780E+03  0.10627580069E+04  0.12499032871E+03 0.  0.
          5    1    3    3  502    0  0.75026386246E+02 -0.12179837228E+03 -0.53293904249E+03  0.55182417048E+03  0.47000000000E+01 0. -1.
         -5    1    3    3    0  502  0.96026993307E+02 -0.22146975360E+03 -0.45029019532E+03  0.51093383642E+03  0.47000000000E+01 0. -1.
        -11    1    1    2    0    0 -0.87748544204E+02  0.18193526524E+03 -0.59969061088E+03  0.63279465589E+03  0.00000000000E+00 0.  1.
         11    1    1    2    0    0 -0.83304835348E+02  0.16133286064E+03 -0.32832442447E+03  0.37518650724E+03  0.00000000000E+00 0. -1.
<mgrwt>
<rscale>  0 0.40087735E+03</rscale>
<asrwt>0</asrwt>
<pdfrwt beam="2">  1        2 0.30630635E+00 0.40337928E+03</pdfrwt>
<pdfrwt beam="1">  1       -2 0.12268841E-01 0.40337928E+03</pdfrwt>
<totfact> 0.35145959E+02</totfact>
</mgrwt>
</event>
<event>
 7    1  0.6095443E-006  0.1369465E+03  0.7546771E-02  0.1232479E+00
          2   -1    0    0  501    0  0.00000000000E+00  0.00000000000E+00  0.33480681768E+03  0.33480681768E+03  0.00000000000E+00 0. -1.
         -2   -1    0    0    0  501 -0.00000000000E+00 -0.00000000000E+00 -0.42123827790E+02  0.42123827790E+02  0.00000000000E+00 0.  1.
         23    2    1    2    0    0  0.55734921896E+02  0.47412704233E+01  0.17861609285E+03  0.22507346452E+03  0.12500197855E+03 0.  0.
          5    1    3    3  502    0  0.91855186138E+02 -0.17304888400E+02  0.13351954527E+03  0.16305334511E+03  0.47000000000E+01 0.  1.
         -5    1    3    3    0  502 -0.36120264242E+02  0.22046158824E+02  0.45096547577E+02  0.62020119406E+02  0.47000000000E+01 0.  1.
        -11    1    1    2    0    0 -0.61390282050E+02  0.22589110294E+02  0.10261059282E+03  0.12168799609E+03  0.00000000000E+00 0. -1.
         11    1    1    2    0    0  0.56553601538E+01 -0.27330380718E+02  0.11456304222E+02  0.30169184859E+02  0.00000000000E+00 0.  1.
<mgrwt>
<rscale>  0 0.12667197E+03</rscale>
<asrwt>0</asrwt>
<pdfrwt beam="1">  1        2 0.51508739E-01 0.13694654E+03</pdfrwt>
<pdfrwt beam="2">  1       -2 0.64805891E-02 0.13694654E+03</pdfrwt>
<totfact> 0.12040613E+04</totfact>
</mgrwt>
</event>
<event>
 7    1  0.6095443E-006  0.1425480E+03  0.7546771E-02  0.1220595E+00
         -1   -1    0    0    0  501 -0.00000000000E+00  0.00000000000E+00  0.12393606010E+03  0.12393606010E+03  0.00000000000E+00 0.  1.
          1   -1    0    0  501    0  0.00000000000E+00 -0.00000000000E+00 -0.14855386818E+03  0.14855386818E+03  0.00000000000E+00 0. -1.
         23    2    1    2    0    0  0.35522608464E+02 -0.58582937527E+02  0.30958603030E+02  0.14587110677E+03  0.12500451354E+03 0.  0.
          5    1    3    3  502    0  0.31172861455E+02 -0.97030145146E+02  0.12636434471E+02  0.10280255753E+03  0.47000000000E+01 0.  1.
         -5    1    3    3    0  502  0.43497470092E+01  0.38447207619E+02  0.18322168560E+02  0.43068549238E+02  0.47000000000E+01 0.  1.
        -11    1    1    2    0    0 -0.19053919762E+02  0.71301098000E+02 -0.69665432666E+02  0.10148975782E+03  0.00000000000E+00 0. -1.
         11    1    1    2    0    0 -0.16468688701E+02 -0.12718160473E+02  0.14089021556E+02  0.25129063687E+02  0.00000000000E+00 0.  1.
<mgrwt>
<rscale>  0 0.13473418E+03</rscale>
<asrwt>0</asrwt>
<pdfrwt beam="2">  1        1 0.22854441E-01 0.14254804E+03</pdfrwt>
<pdfrwt beam="1">  1       -1 0.19067086E-01 0.14254804E+03</pdfrwt>
<totfact> 0.44975889E+03</totfact>
</mgrwt>
</event>
<event>
 7    1  0.6095443E-006  0.1319925E+03  0.7546771E-02  0.1237268E+00
         -1   -1    0    0    0  501 -0.00000000000E+00  0.00000000000E+00  0.10030953039E+03  0.10030953039E+03  0.00000000000E+00 0.  1.
          1   -1    0    0  501    0  0.00000000000E+00 -0.00000000000E+00 -0.13825509278E+03  0.13825509278E+03  0.00000000000E+00 0. -1.
         23    2    1    2    0    0  0.13102259160E+02  0.40337451369E+02 -0.59022451909E+01  0.13212444483E+03  0.12499301279E+03 0.  0.
          5    1    3    3  502    0 -0.43531402305E+01  0.14415068188E+02  0.58390801849E+02  0.60484045510E+02  0.47000000000E+01 0. -1.
         -5    1    3    3    0  502  0.17455399391E+02  0.25922383181E+02 -0.64293047040E+02  0.71640399324E+02  0.47000000000E+01 0. -1.
        -11    1    1    2    0    0 -0.43924257862E+01  0.12168848887E+02  0.25168873923E+02  0.28299231475E+02  0.00000000000E+00 0.  1.
         11    1    1    2    0    0 -0.87098333743E+01 -0.52506300255E+02 -0.57212191122E+02  0.78140946865E+02  0.00000000000E+00 0. -1.
<mgrwt>
<rscale>  0 0.12360360E+03</rscale>
<asrwt>0</asrwt>
<pdfrwt beam="2">  1        1 0.21270014E-01 0.13199255E+03</pdfrwt>
<pdfrwt beam="1">  1       -1 0.15432235E-01 0.13199255E+03</pdfrwt>
<totfact> 0.68522546E+03</totfact>
</mgrwt>
</event>
<event>
 7    1  0.6095443E-006  0.1616751E+03  0.7546771E-02  0.1194191E+00
          4   -1    0    0  501    0  0.00000000000E+00  0.00000000000E+00  0.22169400996E+03  0.22169400996E+03  0.00000000000E+00 0.  1.
         -4   -1    0    0    0  501 -0.00000000000E+00 -0.00000000000E+00 -0.13418521002E+03  0.13418521002E+03  0.00000000000E+00 0. -1.
         23    2    1    2    0    0  0.91022837494E+02  0.47207217042E+02 -0.42029488250E+02  0.16704886377E+03  0.12500066687E+03 0.  0.
          5    1    3    3  502    0  0.30660200084E+02  0.29864302997E+02  0.43253240062E+02  0.61031608520E+02  0.47000000000E+01 0. -1.
         -5    1    3    3    0  502  0.60362637410E+02  0.17342914045E+02 -0.85282728312E+02  0.10601725525E+03  0.47000000000E+01 0. -1.
        -11    1    1    2    0    0 -0.12137371464E+02 -0.53099936926E+02  0.75222941757E+02  0.92873085736E+02  0.00000000000E+00 0.  1.
         11    1    1    2    0    0 -0.78885466031E+02  0.58927198841E+01  0.54315346434E+02  0.95957270474E+02  0.00000000000E+00 0. -1.
<mgrwt>
<rscale>  0 0.15522914E+03</rscale>
<asrwt>0</asrwt>
<pdfrwt beam="1">  1        4 0.34106771E-01 0.16167512E+03</pdfrwt>
<pdfrwt beam="2">  1       -4 0.20643879E-01 0.16167512E+03</pdfrwt>
<totfact> 0.30407377E+02</totfact>
</mgrwt>
</event>
<event>
 7    1  0.6095443E-006  0.1366246E+03  0.7546771E-02  0.1230027E+00
         -1   -1    0    0    0  501 -0.00000000000E+00  0.00000000000E+00  0.34691103911E+02  0.34691103911E+02  0.00000000000E+00 0.  1.
          1   -1    0    0  501    0  0.00000000000E+00 -0.00000000000E+00 -0.51513796095E+03  0.51513796095E+03  0.00000000000E+00 0. -1.
         23    2    1    2    0    0 -0.45531571104E+02 -0.30993802207E+02 -0.15073289579E+03  0.20343716166E+03  0.12503012888E+03 0.  0.
          5    1    3    3  502    0  0.24653541560E+02 -0.41883245628E+02 -0.11249938743E+03  0.12263851576E+03  0.47000000000E+01 0.  1.
         -5    1    3    3    0  502 -0.70185112664E+02  0.10889443421E+02 -0.38233508357E+02  0.80798645898E+02  0.47000000000E+01 0.  1.
        -11    1    1    2    0    0  0.44632200729E+02 -0.22825218906E+02 -0.19454245865E+03  0.20089746683E+03  0.00000000000E+00 0. -1.
         11    1    1    2    0    0  0.89937037575E+00  0.53819021113E+02 -0.13517150260E+03  0.14549443637E+03  0.00000000000E+00 0.  1.
<mgrwt>
<rscale>  0 0.12828216E+03</rscale>
<asrwt>0</asrwt>
<pdfrwt beam="2">  1        1 0.79251986E-01 0.13662457E+03</pdfrwt>
<pdfrwt beam="1">  1       -1 0.53370935E-02 0.13662457E+03</pdfrwt>
<totfact> 0.66426744E+03</totfact>
</mgrwt>
</event>
<event>
 7    1  0.6095443E-006  0.1320297E+03  0.7546771E-02  0.1239947E+00
          2   -1    0    0  501    0  0.00000000000E+00  0.00000000000E+00  0.22969029892E+03  0.22969029892E+03  0.00000000000E+00 0. -1.
         -2   -1    0    0    0  501 -0.00000000000E+00 -0.00000000000E+00 -0.56987802830E+02  0.56987802830E+02  0.00000000000E+00 0.  1.
         23    2    1    2    0    0 -0.39727449501E+02  0.15103395455E+02  0.88391046041E+02  0.15888619145E+03  0.12500184804E+03 0.  0.
          5    1    3    3  502    0 -0.24562212871E+02  0.41044857249E+02  0.11101981543E+03  0.12097715498E+03  0.47000000000E+01 0. -1.
         -5    1    3    3    0  502 -0.15165236630E+02 -0.25941461794E+02 -0.22628769391E+02  0.37909036471E+02  0.47000000000E+01 0. -1.
        -11    1    1    2    0    0  0.43589827217E+02  0.26453455144E+02  0.62626971835E+02  0.80758875221E+02  0.00000000000E+00 0. -1.
         11    1    1    2    0    0 -0.38623777152E+01 -0.41556850599E+02  0.21684478211E+02  0.47033035078E+02  0.00000000000E+00 0.  1.
<mgrwt>
<rscale>  0 0.12192955E+03</rscale>
<asrwt>0</asrwt>
<pdfrwt beam="1">  1        2 0.35336969E-01 0.13202971E+03</pdfrwt>
<pdfrwt beam="2">  1       -2 0.87673544E-02 0.13202971E+03</pdfrwt>
<totfact> 0.11255185E+04</totfact>
</mgrwt>
</event>
<event>
 7    1  0.6095443E-006  0.1461601E+03  0.7546771E-02  0.1215208E+00
         -1   -1    0    0    0  501 -0.00000000000E+00  0.00000000000E+00  0.46203725646E+02  0.46203725646E+02  0.00000000000E+00 0.  1.
          1   -1    0    0  501    0  0.00000000000E+00 -0.00000000000E+00 -0.37939297313E+03  0.37939297313E+03  0.00000000000E+00 0. -1.
         23    2    1    2    0    0  0.72200686245E+02  0.22936789747E+02 -0.19589537845E+03  0.24441315126E+03  0.12499501508E+03 0.  0.
          5    1    3    3  502    0  0.15023759944E+02  0.69073320708E+02 -0.11466884212E+03  0.13478824262E+03  0.47000000000E+01 0.  1.
         -5    1    3    3    0  502  0.57176926301E+02 -0.46136530961E+02 -0.81226536332E+02  0.10962490864E+03  0.47000000000E+01 0.  1.
        -11    1    1    2    0    0 -0.24930551124E+01 -0.36409069681E+02 -0.14354032404E+02  0.39215735682E+02  0.00000000000E+00 0.  1.
         11    1    1    2    0    0 -0.69707631133E+02  0.13472279934E+02 -0.12293983664E+03  0.14196781183E+03  0.00000000000E+00 0. -1.
<mgrwt>
<rscale>  0 0.13861233E+03</rscale>
<asrwt>0</asrwt>
<pdfrwt beam="2">  1        1 0.58368153E-01 0.14616015E+03</pdfrwt>
<pdfrwt beam="1">  1       -1 0.71082651E-02 0.14616015E+03</pdfrwt>
<totfact> 0.64328132E+03</totfact>
</mgrwt>
</event>
<event>
 7    1  0.6095443E-006  0.1322834E+03  0.7546771E-02  0.1236267E+00
         -1   -1    0    0    0  501 -0.00000000000E+00  0.00000000000E+00  0.34850181746E+03  0.34850181746E+03  0.00000000000E+00 0. -1.
          1   -1    0    0  501    0  0.00000000000E+00 -0.00000000000E+00 -0.39686785835E+02  0.39686785835E+02  0.00000000000E+00 0.  1.
         23    2    1    2    0    0  0.33564860546E+02  0.27156561261E+02  0.17540260854E+03  0.21969289139E+03  0.12503924489E+03 0.  0.
          5    1    3    3  502    0  0.21574954712E+02  0.71435391278E+02  0.61512510777E+02  0.96821344651E+02  0.47000000000E+01 0. -1.
         -5    1    3    3    0  502  0.11989905834E+02 -0.44278830017E+02  0.11389009777E+03  0.12287154674E+03  0.47000000000E+01 0. -1.
        -11    1    1    2    0    0 -0.73252263855E+01 -0.42248215953E+02  0.13697618981E+02  0.45013280913E+02  0.00000000000E+00 0. -1.
         11    1    1    2    0    0 -0.26239634161E+02  0.15091654692E+02  0.11971480411E+03  0.12348243099E+03  0.00000000000E+00 0.  1.
<mgrwt>
<rscale>  0 0.12423697E+03</rscale>
<asrwt>0</asrwt>
<pdfrwt beam="2">  1        1 0.61056596E-02 0.13228338E+03</pdfrwt>
<pdfrwt beam="1">  1       -1 0.53615662E-01 0.13228338E+03</pdfrwt>
<totfact> 0.43422659E+03</totfact>
</mgrwt>
</event>
<event>
 7    1  0.6095443E-006  0.1552687E+03  0.7546771E-02  0.1202449E+00
          2   -1    0    0  501    0  0.00000000000E+00  0.00000000000E+00  0.10277801169E+04  0.10277801169E+04  0.00000000000E+00 0. -1.
         -2   -1    0    0    0  501 -0.00000000000E+00 -0.00000000000E+00 -0.20116536480E+02  0.20116536480E+02  0.00000000000E+00 0.  1.
         23    2    1    2    0    0 -0.83998925237E+02 -0.37778485051E+02  0.62022583305E+03  0.63936566900E+03  0.12500136533E+03 0.  0.
          5    1    3    3  502    0 -0.81515093538E+02  0.26334242137E+02  0.43237351322E+03  0.44080284450E+03  0.47000000000E+01 0. -1.
         -5    1    3    3    0  502 -0.24838316996E+01 -0.64112727188E+02  0.18785231983E+03  0.19856282450E+03  0.47000000000E+01 0. -1.
        -11    1    1    2    0    0  0.50402040681E+02 -0.96735900464E+01  0.75955929380E+02  0.91669227428E+02  0.00000000000E+00 0.  1.
         11    1    1    2    0    0  0.33596884557E+02  0.47452075097E+02  0.31148181801E+03  0.31686175698E+03  0.00000000000E+00 0. -1.
<mgrwt>
<rscale>  0 0.14840307E+03</rscale>
<asrwt>0</asrwt>
<pdfrwt beam="1">  1        2 0.15811998E+00 0.15526872E+03</pdfrwt>
<pdfrwt beam="2">  1       -2 0.30948526E-02 0.15526872E+03</pdfrwt>
<totfact> 0.99221857E+03</totfact>
</mgrwt>
</event>
<event>
 7    1  0.6095443E-006  0.1370775E+03  0.7546771E-02  0.1230530E+00
         -2   -1    0    0    0  501 -0.00000000000E+00  0.00000000000E+00  0.77476109412E+03  0.77476109412E+03  0.00000000000E+00 0.  1.
          2   -1    0    0  501    0  0.00000000000E+00 -0.00000000000E+00 -0.23762380653E+02  0.23762380653E+02  0.00000000000E+00 0. -1.
         23    2    1    2    0    0 -0.56249505241E+02  0.80804870123E+00  0.59788986468E+03  0.61340242011E+03  0.12500231569E+03 0.  0.
          5    1    3    3  502    0 -0.45044855604E+02 -0.56223358828E+02  0.23443817385E+03  0.24530277710E+03  0.47000000000E+01 0.  1.
         -5    1    3    3    0  502 -0.11204649637E+02  0.57031407530E+02  0.36345169083E+03  0.36809964301E+03  0.47000000000E+01 0.  1.
        -11    1    1    2    0    0  0.42173274273E+02 -0.42679552510E+01  0.16244166756E+03  0.16788119568E+03  0.00000000000E+00 0.  1.
         11    1    1    2    0    0  0.14076230968E+02  0.34599065497E+01 -0.93328187681E+01  0.17239858983E+02  0.00000000000E+00 0. -1.
<mgrwt>
<rscale>  0 0.12795008E+03</rscale>
<asrwt>0</asrwt>
<pdfrwt beam="2">  1        2 0.36557515E-02 0.13707749E+03</pdfrwt>
<pdfrwt beam="1">  1       -2 0.11919399E+00 0.13707749E+03</pdfrwt>
<totfact> 0.13050711E+03</totfact>
</mgrwt>
</event>
<event>
 7    1  0.6095443E-006  0.1477528E+03  0.7546771E-02  0.1212956E+00
         -2   -1    0    0    0  501 -0.00000000000E+00  0.00000000000E+00  0.44774485319E+02  0.44774485319E+02  0.00000000000E+00 0.  1.
          2   -1    0    0  501    0  0.00000000000E+00 -0.00000000000E+00 -0.41596271115E+03  0.41596271115E+03  0.00000000000E+00 0. -1.
         23    2    1    2    0    0 -0.48370733287E+02 -0.62164641271E+02 -0.15978565592E+03  0.21762894308E+03  0.12500692208E+03 0.  0.
          5    1    3    3  502    0  0.26463872796E+02 -0.41277455112E+02 -0.12153463368E+02  0.50734224501E+02  0.47000000000E+01 0.  1.
         -5    1    3    3    0  502 -0.74834606083E+02 -0.20887186159E+02 -0.14763219255E+03  0.16689471858E+03  0.47000000000E+01 0.  1.
        -11    1    1    2    0    0  0.64059400812E+02  0.74695652842E+02 -0.15895388828E+03  0.18694754875E+03  0.00000000000E+00 0. -1.
         11    1    1    2    0    0 -0.15688667525E+02 -0.12531011571E+02 -0.52448681639E+02  0.56160704637E+02  0.00000000000E+00 0.  1.
<mgrwt>
<rscale>  0 0.14027718E+03</rscale>
<asrwt>0</asrwt>
<pdfrwt beam="2">  1        2 0.63994268E-01 0.14775284E+03</pdfrwt>
<pdfrwt beam="1">  1       -2 0.68883819E-02 0.14775284E+03</pdfrwt>
<totfact> 0.87483771E+03</totfact>
</mgrwt>
</event>
<event>
 7    1  0.6095443E-006  0.1339143E+03  0.7546771E-02  0.1234108E+00
         -1   -1    0    0    0  501 -0.00000000000E+00  0.00000000000E+00  0.12294413426E+03  0.12294413426E+03  0.00000000000E+00 0.  1.
          1   -1    0    0  501    0  0.00000000000E+00 -0.00000000000E+00 -0.11580345180E+03  0.11580345180E+03  0.00000000000E+00 0. -1.
         23    2    1    2    0    0  0.45059358985E+02  0.16654975895E+02  0.15069516798E+02  0.13475948996E+03  0.12500118297E+03 0.  0.
          5    1    3    3  502    0  0.42530772738E+02 -0.43009069492E+02  0.36892824061E+02  0.71005754383E+02  0.47000000000E+01 0.  1.
         -5    1    3    3    0  502  0.25285862466E+01  0.59664045387E+02 -0.21823307263E+02  0.63753735578E+02  0.47000000000E+01 0.  1.
        -11    1    1    2    0    0 -0.11038017701E+02 -0.11241115656E+01 -0.47947483548E+02  0.49214455602E+02  0.00000000000E+00 0. -1.
         11    1    1    2    0    0 -0.34021341283E+02 -0.15530864329E+02  0.40018649205E+02  0.54773640501E+02  0.00000000000E+00 0.  1.
<mgrwt>
<rscale>  0 0.12561731E+03</rscale>
<asrwt>0</asrwt>
<pdfrwt beam="2">  1        1 0.17815916E-01 0.13391426E+03</pdfrwt>
<pdfrwt beam="1">  1       -1 0.18914482E-01 0.13391426E+03</pdfrwt>
<totfact> 0.62281801E+03</totfact>
</mgrwt>
</event>
<event>
 7    1  0.6095443E-006  0.1264075E+03  0.7546771E-02  0.1247206E+00
         -1   -1    0    0    0  501 -0.00000000000E+00  0.00000000000E+00  0.33346064589E+02  0.33346064589E+02  0.00000000000E+00 0.  1.
          1   -1    0    0  501    0  0.00000000000E+00 -0.00000000000E+00 -0.37649780720E+03  0.37649780720E+03  0.00000000000E+00 0. -1.
         23    2    1    2    0    0  0.43804068072E+01 -0.18328702852E+02 -0.16160279238E+03  0.20516901537E+03  0.12499493210E+03 0.  0.
          5    1    3    3  502    0  0.28943396580E+02 -0.65975876702E+02 -0.84475632425E+02  0.11112497013E+03  0.47000000000E+01 0.  1.
         -5    1    3    3    0  502 -0.24562989772E+02  0.47647173849E+02 -0.77127159958E+02  0.94044045243E+02  0.47000000000E+01 0.  1.
        -11    1    1    2    0    0  0.23787392610E+02 -0.15682754663E+02 -0.14660579231E+02  0.32042494041E+02  0.00000000000E+00 0.  1.
         11    1    1    2    0    0 -0.28167799417E+02  0.34011457515E+02 -0.16688837100E+03  0.17263236238E+03  0.00000000000E+00 0. -1.
<mgrwt>
<rscale>  0 0.11754304E+03</rscale>
<asrwt>0</asrwt>
<pdfrwt beam="2">  1        1 0.57922739E-01 0.12640752E+03</pdfrwt>
<pdfrwt beam="1">  1       -1 0.51301639E-02 0.12640752E+03</pdfrwt>
<totfact> 0.10455398E+04</totfact>
</mgrwt>
</event>
<event>
 7    1  0.6095443E-006  0.2048264E+03  0.7546771E-02  0.1149882E+00
         -1   -1    0    0    0  501 -0.00000000000E+00  0.00000000000E+00  0.44289021490E+02  0.44289021490E+02  0.00000000000E+00 0.  1.
          1   -1    0    0  501    0  0.00000000000E+00 -0.00000000000E+00 -0.86061024952E+03  0.86061024952E+03  0.00000000000E+00 0. -1.
         23    2    1    2    0    0 -0.14509146823E+03  0.72647085114E+02 -0.41951005873E+03  0.46684317634E+03  0.12499891518E+03 0.  0.
          5    1    3    3  502    0 -0.15502633430E+03  0.55487822811E+02 -0.41424773520E+03  0.44579741916E+03  0.47000000000E+01 0. -1.
         -5    1    3    3    0  502  0.99348660706E+01  0.17159262302E+02 -0.52623235241E+01  0.21045757185E+02  0.47000000000E+01 0. -1.
        -11    1    1    2    0    0  0.15670936439E+03 -0.58759859244E+02 -0.36206347323E+03  0.39887404603E+03  0.00000000000E+00 0.  1.
         11    1    1    2    0    0 -0.11617896157E+02 -0.13887225870E+02 -0.34747696068E+02  0.39182048638E+02  0.00000000000E+00 0. -1.
<mgrwt>
<rscale>  0 0.19983105E+03</rscale>
<asrwt>0</asrwt>
<pdfrwt beam="2">  1        1 0.13240157E+00 0.20482642E+03</pdfrwt>
<pdfrwt beam="1">  1       -1 0.68136959E-02 0.20482642E+03</pdfrwt>
<totfact> 0.22498221E+03</totfact>
</mgrwt>
</event>
<event>
 7    1  0.6095443E-006  0.1335892E+03  0.7546771E-02  0.1234546E+00
         -2   -1    0    0    0  501 -0.00000000000E+00  0.00000000000E+00  0.18927692152E+03  0.18927692152E+03  0.00000000000E+00 0. -1.
          2   -1    0    0  501    0  0.00000000000E+00 -0.00000000000E+00 -0.74278117855E+02  0.74278117855E+02  0.00000000000E+00 0.  1.
         23    2    1    2    0    0  0.45692867166E+02 -0.11562513415E+02  0.62310005557E+02  0.14740629285E+03  0.12499819420E+03 0.  0.
          5    1    3    3  502    0  0.56160538317E+02 -0.60231510305E+02  0.29512816103E+02  0.87606718989E+02  0.47000000000E+01 0. -1.
         -5    1    3    3    0  502 -0.10467671152E+02  0.48668996890E+02  0.32797189454E+02  0.59799573859E+02  0.47000000000E+01 0. -1.
        -11    1    1    2    0    0 -0.37532999380E+02 -0.36331523746E+02  0.14106243297E+02  0.54108148740E+02  0.00000000000E+00 0.  1.
         11    1    1    2    0    0 -0.81598677861E+01  0.47894037161E+02  0.38582554811E+02  0.62040597786E+02  0.00000000000E+00 0. -1.
<mgrwt>
<rscale>  0 0.12533566E+03</rscale>
<asrwt>0</asrwt>
<pdfrwt beam="2">  1        2 0.11427403E-01 0.13358922E+03</pdfrwt>
<pdfrwt beam="1">  1       -2 0.29119526E-01 0.13358922E+03</pdfrwt>
<totfact> 0.55587933E+03</totfact>
</mgrwt>
</event>
<event>
 7    1  0.6095443E-006  0.1943647E+03  0.7546771E-02  0.1158637E+00
          2   -1    0    0  501    0  0.00000000000E+00  0.00000000000E+00  0.42488486882E+03  0.42488486882E+03  0.00000000000E+00 0. -1.
         -2   -1    0    0    0  501 -0.00000000000E+00 -0.00000000000E+00 -0.81156643803E+02  0.81156643803E+02  0.00000000000E+00 0.  1.
         23    2    1    2    0    0  0.17690835305E+02 -0.14779522310E+03  0.18957115875E+03  0.27150479415E+03  0.12498494065E+03 0.  0.
          5    1    3    3  502    0 -0.90842741534E+01  0.10340231484E+02  0.69743159331E+02  0.71243544953E+02  0.47000000000E+01 0. -1.
         -5    1    3    3    0  502  0.26775109459E+02 -0.15813545459E+03  0.11982799942E+03  0.20026124919E+03  0.47000000000E+01 0. -1.
        -11    1    1    2    0    0 -0.50335424560E+02  0.85775192746E+02  0.12206702484E+03  0.15745284123E+03  0.00000000000E+00 0.  1.
         11    1    1    2    0    0  0.32644589254E+02  0.62020030358E+02  0.32090041426E+02  0.77083877250E+02  0.00000000000E+00 0. -1.
<mgrwt>
<rscale>  0 0.18980482E+03</rscale>
<asrwt>0</asrwt>
<pdfrwt beam="1">  1        2 0.65366901E-01 0.19436468E+03</pdfrwt>
<pdfrwt beam="2">  1       -2 0.12485638E-01 0.19436468E+03</pdfrwt>
<totfact> 0.34059649E+03</totfact>
</mgrwt>
</event>
<event>
 6    1  0.6095443E-006  0.5131245E+03  0.7546771E-02  0.1010409E+00
         -1   -1    0    0    0  501 -0.00000000000E+00  0.00000000000E+00  0.14294133260E+03  0.14294133260E+03  0.00000000000E+00 0.  1.
          1   -1    0    0  501    0  0.00000000000E+00 -0.00000000000E+00 -0.46049793583E+03  0.46049793583E+03  0.00000000000E+00 0. -1.
          5    1    1    2  502    0 -0.18549582960E+02 -0.16221040157E+02 -0.23434762019E+02  0.34329101978E+02  0.47000000000E+01 0. -1.
         -5    1    1    2    0  502 -0.83749132265E+00  0.21353165696E+03 -0.42704281809E+02  0.21781234034E+03  0.47000000000E+01 0.  1.
        -11    1    1    2    0    0 -0.63018074886E+02 -0.85913592097E+02 -0.10155489758E+03  0.14719313942E+03  0.00000000000E+00 0.  1.
         11    1    1    2    0    0  0.82405149168E+02 -0.11139702471E+03 -0.14986266182E+03  0.20410468670E+03  0.00000000000E+00 0. -1.
<mgrwt>
<rscale>  0 0.51312450E+03</rscale>
<asrwt>0</asrwt>
<pdfrwt beam="2">  1        1 0.70845838E-01 0.51312450E+03</pdfrwt>
<pdfrwt beam="1">  1       -1 0.21990974E-01 0.51312450E+03</pdfrwt>
<totfact> 0.86935338E+02</totfact>
</mgrwt>
</event>
<event>
 6    1  0.6095443E-006  0.2935148E+03  0.7546771E-02  0.1088528E+00
          1   -1    0    0  501    0  0.00000000000E+00  0.00000000000E+00  0.40752482117E+02  0.40752482117E+02  0.00000000000E+00 0. -1.
         -1   -1    0    0    0  501 -0.00000000000E+00 -0.00000000000E+00 -0.52850107986E+03  0.52850107986E+03  0.00000000000E+00 0.  1.
          5    1    1    2  502    0 -0.66676180539E+01  0.30615150145E+02 -0.22896106075E+02  0.39090487619E+02  0.47000000000E+01 0. -1.
         -5    1    1    2    0  502 -0.31636665326E+02 -0.83659857475E+02 -0.37257323338E+03  0.38318762321E+03  0.47000000000E+01 0.  1.
        -11    1    1    2    0    0  0.50139746946E+02 -0.21949382857E+01 -0.70256947573E+02  0.86341477055E+02  0.00000000000E+00 0.  1.
         11    1    1    2    0    0 -0.11835463566E+02  0.55239645615E+02 -0.22022310713E+02  0.60633974096E+02  0.00000000000E+00 0. -1.
<mgrwt>
<rscale>  0 0.29351478E+03</rscale>
<asrwt>0</asrwt>
<pdfrwt beam="1">  1        1 0.62696127E-02 0.29351478E+03</pdfrwt>
<pdfrwt beam="2">  1       -1 0.81307858E-01 0.29351478E+03</pdfrwt>
<totfact> 0.19179392E+03</totfact>
</mgrwt>
</event>
<event>
 7    1  0.6095443E-006  0.1342848E+03  0.7546771E-02  0.1233632E+00
         -3   -1    0    0    0  501 -0.00000000000E+00  0.00000000000E+00  0.34991285087E+03  0.34991285087E+03  0.00000000000E+00 0.  1.
          3   -1    0    0  501    0  0.00000000000E+00 -0.00000000000E+00 -0.66453047024E+02  0.66453047024E+02  0.00000000000E+00 0. -1.
         23    2    1    2    0    0  0.49054242074E+02  0.13852061456E+01  0.28219936453E+03  0.31252020409E+03  0.12499663659E+03 0.  0.
          5    1    3    3  502    0  0.23305245316E+02 -0.54454247958E+02  0.71422026236E+02  0.92906379822E+02  0.47000000000E+01 0. -1.
         -5    1    3    3    0  502  0.25748996758E+02  0.55839454103E+02  0.21077733830E+03  0.21961382426E+03  0.47000000000E+01 0. -1.
        -11    1    1    2    0    0 -0.21100426011E+02  0.25991906120E+02  0.37671358696E+02  0.50397801813E+02  0.00000000000E+00 0.  1.
         11    1    1    2    0    0 -0.27953816063E+02 -0.27377112265E+02 -0.36410919382E+02  0.53447891995E+02  0.00000000000E+00 0. -1.
<mgrwt>
<rscale>  0 0.12592419E+03</rscale>
<asrwt>0</asrwt>
<pdfrwt beam="2">  1        3 0.10223546E-01 0.13428476E+03</pdfrwt>
<pdfrwt beam="1">  1       -3 0.53832745E-01 0.13428476E+03</pdfrwt>
<totfact> 0.56596385E+02</totfact>
</mgrwt>
</event>
<event>
 7    1  0.6095443E-006  0.1741338E+03  0.7546771E-02  0.1179863E+00
         -2   -1    0    0    0  501 -0.00000000000E+00  0.00000000000E+00  0.13280473162E+03  0.13280473162E+03  0.00000000000E+00 0.  1.
          2   -1    0    0  501    0  0.00000000000E+00 -0.00000000000E+00 -0.20352574880E+03  0.20352574880E+03  0.00000000000E+00 0. -1.
         23    2    1    2    0    0 -0.11977826536E+03  0.18729914042E+02 -0.13325106813E+02  0.17464291257E+03  0.12499978363E+03 0.  0.
          5    1    3    3  502    0 -0.14058716243E+03  0.29906363150E+02  0.57436254993E+01  0.14392435524E+03  0.47000000000E+01 0. -1.
         -5    1    3    3    0  502  0.20808897076E+02 -0.11176449109E+02 -0.19068732313E+02  0.30718557326E+02  0.47000000000E+01 0. -1.
        -11    1    1    2    0    0  0.37334048511E+02  0.33694189512E+02 -0.35516404276E+02  0.61567398497E+02  0.00000000000E+00 0. -1.
         11    1    1    2    0    0  0.82444216847E+02 -0.52424103553E+02 -0.21879506093E+02  0.10012016936E+03  0.00000000000E+00 0.  1.
<mgrwt>
<rscale>  0 0.16808144E+03</rscale>
<asrwt>0</asrwt>
<pdfrwt beam="2">  1        2 0.31311654E-01 0.17413382E+03</pdfrwt>
<pdfrwt beam="1">  1       -2 0.20431497E-01 0.17413382E+03</pdfrwt>
<totfact> 0.33073065E+03</totfact>
</mgrwt>
</event>
<event>
 7    1  0.6095443E-006  0.1327564E+03  0.7546771E-02  0.1236316E+00
          2   -1    0    0  501    0  0.00000000000E+00  0.00000000000E+00  0.11575493333E+03  0.11575493333E+03  0.00000000000E+00 0. -1.
         -2   -1    0    0    0  501 -0.00000000000E+00 -0.00000000000E+00 -0.12111509715E+03  0.12111509715E+03  0.00000000000E+00 0.  1.
         23    2    1    2    0    0 -0.28487646898E+02  0.34480497879E+02 -0.19472379241E+02  0.13417688079E+03  0.12499524401E+03 0.  0.
          5    1    3    3  502    0  0.48820924014E+01  0.56592273900E+02  0.34644339946E+02  0.66699629547E+02  0.47000000000E+01 0.  1.
         -5    1    3    3    0  502 -0.33369739299E+02 -0.22111776021E+02 -0.54116719186E+02  0.67477251242E+02  0.47000000000E+01 0.  1.
        -11    1    1    2    0    0 -0.19414438399E+02 -0.40676153397E+02 -0.13508135631E+02  0.47052519611E+02  0.00000000000E+00 0. -1.
         11    1    1    2    0    0  0.47902085297E+02  0.61956555180E+01  0.27620351057E+02  0.55640630079E+02  0.00000000000E+00 0.  1.
<mgrwt>
<rscale>  0 0.12420583E+03</rscale>
<asrwt>0</asrwt>
<pdfrwt beam="1">  1        2 0.17808451E-01 0.13275640E+03</pdfrwt>
<pdfrwt beam="2">  1       -2 0.18633092E-01 0.13275640E+03</pdfrwt>
<totfact> 0.71326003E+03</totfact>
</mgrwt>
</event>
<event>
 6    1  0.6095443E-006  0.3882460E+03  0.7546771E-02  0.1064455E+00
          1   -1    0    0  501    0  0.00000000000E+00  0.00000000000E+00  0.14899074042E+03  0.14899074042E+03  0.00000000000E+00 0. -1.
         -1   -1    0    0    0  501 -0.00000000000E+00 -0.00000000000E+00 -0.76792659170E+03  0.76792659170E+03  0.00000000000E+00 0.  1.
          5    1    1    2  502    0 -0.27322765247E+03 -0.11408305617E+03 -0.46448957390E+03  0.55085474314E+03  0.47000000000E+01 0. -1.
         -5    1    1    2    0  502  0.54184567230E+02  0.63744618972E+02 -0.66727067034E+02  0.10711645648E+03  0.47000000000E+01 0.  1.
        -11    1    1    2    0    0  0.19389521234E+03  0.75222148055E+02 -0.79293309276E+02  0.22257842174E+03  0.00000000000E+00 0.  1.
         11    1    1    2    0    0  0.25147872897E+02 -0.24883710854E+02 -0.84259010768E+01  0.36367710762E+02  0.00000000000E+00 0. -1.
<mgrwt>
<rscale>  0 0.34555372E+03</rscale>
<asrwt>0</asrwt>
<pdfrwt beam="1">  1        1 0.22921652E-01 0.38824603E+03</pdfrwt>
<pdfrwt beam="2">  1       -1 0.11814255E+00 0.38824603E+03</pdfrwt>
<totfact> 0.14604766E+02</totfact>
</mgrwt>
</event>
<event>
 7    1  0.6095443E-006  0.1250193E+03  0.7546771E-02  0.1251929E+00
         -1   -1    0    0    0  501 -0.00000000000E+00  0.00000000000E+00  0.15368031301E+03  0.15368031301E+03  0.00000000000E+00 0.  1.
          1   -1    0    0  501    0  0.00000000000E+00 -0.00000000000E+00 -0.74437673484E+02  0.74437673484E+02  0.00000000000E+00 0. -1.
         23    2    1    2    0    0 -0.79536104167E+00  0.20428843085E+01  0.46911327279E+02  0.13353085803E+03  0.12500004577E+03 0.  0.
          5    1    3    3  502    0 -0.55493368344E+02  0.12175384018E+02 -0.50935262803E+01  0.57234499353E+02  0.47000000000E+01 0. -1.
         -5    1    3    3    0  502  0.54698007303E+02 -0.10132499709E+02  0.52004853560E+02  0.76296358675E+02  0.47000000000E+01 0. -1.
        -11    1    1    2    0    0 -0.36228355454E+02 -0.70316207594E+01  0.42087564868E+02  0.55975892542E+02  0.00000000000E+00 0.  1.
         11    1    1    2    0    0  0.37023716496E+02  0.49887364509E+01 -0.97562526196E+01  0.38611235926E+02  0.00000000000E+00 0. -1.
<mgrwt>
<rscale>  0 0.11480103E+03</rscale>
<asrwt>0</asrwt>
<pdfrwt beam="2">  1        1 0.11451950E-01 0.12501927E+03</pdfrwt>
<pdfrwt beam="1">  1       -1 0.23643125E-01 0.12501927E+03</pdfrwt>
<totfact> 0.76680653E+03</totfact>
</mgrwt>
</event>
<event>
 7    1  0.6095443E-006  0.1718355E+03  0.7546771E-02  0.1182145E+00
          2   -1    0    0  501    0  0.00000000000E+00  0.00000000000E+00  0.13764527899E+03  0.13764527899E+03  0.00000000000E+00 0. -1.
         -2   -1    0    0    0  501 -0.00000000000E+00 -0.00000000000E+00 -0.19085677057E+03  0.19085677057E+03  0.00000000000E+00 0.  1.
         23    2    1    2    0    0 -0.27847164693E+01  0.11788501543E+03 -0.50200581932E+02  0.17901821971E+03  0.12499117190E+03 0.  0.
          5    1    3    3  502    0  0.55780103408E+02  0.65460187369E+02 -0.51333752598E+02  0.10026814161E+03  0.47000000000E+01 0. -1.
         -5    1    3    3    0  502 -0.58564819877E+02  0.52424828059E+02  0.11331706667E+01  0.78750078095E+02  0.47000000000E+01 0. -1.
        -11    1    1    2    0    0  0.22841346018E+02 -0.24773059862E+02  0.33465293959E+02  0.47490604151E+02  0.00000000000E+00 0. -1.
         11    1    1    2    0    0 -0.20056629549E+02 -0.93111955566E+02 -0.36476203607E+02  0.10199322570E+03  0.00000000000E+00 0.  1.
<mgrwt>
<rscale>  0 0.16594383E+03</rscale>
<asrwt>0</asrwt>
<pdfrwt beam="1">  1        2 0.21176197E-01 0.17183546E+03</pdfrwt>
<pdfrwt beam="2">  1       -2 0.29362580E-01 0.17183546E+03</pdfrwt>
<totfact> 0.27012975E+03</totfact>
</mgrwt>
</event>
<event>
 6    1  0.6095443E-006  0.1621017E+03  0.7546771E-02  0.1197397E+00
          2   -1    0    0  501    0  0.00000000000E+00  0.00000000000E+00  0.54593591343E+03  0.54593591343E+03  0.00000000000E+00 0. -1.
         -2   -1    0    0    0  501 -0.00000000000E+00 -0.00000000000E+00 -0.46265995615E+02  0.46265995615E+02  0.00000000000E+00 0.  1.
          5    1    1    2  502    0 -0.22471248819E+01 -0.19713028124E+02  0.13379867183E+03  0.13534336936E+03  0.47000000000E+01 0. -1.
         -5    1    1    2    0  502 -0.45760860583E+01  0.85042069490E+02  0.18921774671E+02  0.87368287745E+02  0.47000000000E+01 0.  1.
        -11    1    1    2    0    0 -0.20999098513E+02  0.23833307327E+02  0.62678413530E+02  0.70267860356E+02  0.00000000000E+00 0.  1.
         11    1    1    2    0    0  0.27822309453E+02 -0.89162348693E+02  0.28427105779E+03  0.29922239158E+03  0.00000000000E+00 0. -1.
<mgrwt>
<rscale>  0 0.15253137E+03</rscale>
<asrwt>0</asrwt>
<pdfrwt beam="1">  1        2 0.83990136E-01 0.16210166E+03</pdfrwt>
<pdfrwt beam="2">  1       -2 0.71178458E-02 0.16210166E+03</pdfrwt>
<totfact> 0.62081227E+03</totfact>
</mgrwt>
</event>
<event>
 7    1  0.6095443E-006  0.1983252E+03  0.7546771E-02  0.1155755E+00
          2   -1    0    0  501    0  0.00000000000E+00  0.00000000000E+00  0.59063815058E+03  0.59063815058E+03  0.00000000000E+00 0. -1.
         -2   -1    0    0    0  501 -0.00000000000E+00 -0.00000000000E+00 -0.67697622767E+02  0.67697622767E+02  0.00000000000E+00 0.  1.
         23    2    1    2    0    0  0.73287516197E+02  0.13541341213E+03  0.16269287248E+03  0.25651875809E+03  0.12500020112E+03 0.  0.
          5    1    3    3  502    0  0.58323608537E+02  0.56655663455E+01  0.88470494164E+02  0.10622080913E+03  0.47000000000E+01 0.  1.
         -5    1    3    3    0  502  0.14963907660E+02  0.12974784579E+03  0.74222378317E+02  0.15029794896E+03  0.47000000000E+01 0.  1.
        -11    1    1    2    0    0 -0.29119320270E+02 -0.11312534714E+03  0.17748281331E+03  0.21247453494E+03  0.00000000000E+00 0. -1.
         11    1    1    2    0    0 -0.44168195927E+02 -0.22288064994E+02  0.18276484202E+03  0.18934248032E+03  0.00000000000E+00 0.  1.
<mgrwt>
<rscale>  0 0.19303193E+03</rscale>
<asrwt>0</asrwt>
<pdfrwt beam="1">  1        2 0.90867404E-01 0.19832524E+03</pdfrwt>
<pdfrwt beam="2">  1       -2 0.10415019E-01 0.19832524E+03</pdfrwt>
<totfact> 0.31567111E+03</totfact>
</mgrwt>
</event>
<event>
 7    1  0.6095443E-006  0.2346779E+03  0.7546771E-02  0.1126450E+00
         -3   -1    0    0    0  501 -0.00000000000E+00  0.00000000000E+00  0.26725853216E+03  0.26725853216E+03  0.00000000000E+00 0.  1.
          3   -1    0    0  501    0  0.00000000000E+00 -0.00000000000E+00 -0.19718981106E+03  0.19718981106E+03  0.00000000000E+00 0. -1.
         23    2    1    2    0    0  0.17446813808E+03 -0.94920499643E+02  0.76455862212E+02  0.24681815084E+03  0.12499867304E+03 0.  0.
          5    1    3    3  502    0  0.17189583465E+03 -0.78958934375E+02  0.22809020022E+02  0.19059127126E+03  0.47000000000E+01 0. -1.
         -5    1    3    3    0  502  0.25723034328E+01 -0.15961565268E+02  0.53646842190E+02  0.56226879583E+02  0.47000000000E+01 0. -1.
        -11    1    1    2    0    0 -0.16096476801E+03  0.67148514789E+02 -0.32230499732E+02  0.17736229783E+03  0.00000000000E+00 0. -1.
         11    1    1    2    0    0 -0.13503370068E+02  0.27771984854E+02  0.25843358622E+02  0.40267894541E+02  0.00000000000E+00 0.  1.
<mgrwt>
<rscale>  0 0.23026986E+03</rscale>
<asrwt>0</asrwt>
<pdfrwt beam="2">  1        3 0.30336894E-01 0.23467787E+03</pdfrwt>
<pdfrwt beam="1">  1       -3 0.41116697E-01 0.23467787E+03</pdfrwt>
<totfact> 0.15346454E+02</totfact>
</mgrwt>
</event>
<event>
 7    1  0.6095443E-006  0.1314963E+03  0.7546771E-02  0.1238523E+00
         -1   -1    0    0    0  501 -0.00000000000E+00  0.00000000000E+00  0.17120117739E+03  0.17120117739E+03  0.00000000000E+00 0.  1.
          1   -1    0    0  501    0  0.00000000000E+00 -0.00000000000E+00 -0.11563252325E+03  0.11563252325E+03  0.00000000000E+00 0. -1.
         23    2    1    2    0    0 -0.71219733038E+01 -0.40156512106E+02  0.11131831256E+03  0.17228765612E+03  0.12501200651E+03 0.  0.
          5    1    3    3  502    0 -0.33145458173E+02  0.30002040658E+02  0.96752654173E+01  0.45983090393E+02  0.47000000000E+01 0. -1.
         -5    1    3    3    0  502  0.26023484869E+02 -0.70158552765E+02  0.10164304714E+03  0.12630456573E+03  0.47000000000E+01 0. -1.
        -11    1    1    2    0    0 -0.17485676063E+02  0.15854050943E+02  0.20216524244E+02  0.31077446021E+02  0.00000000000E+00 0.  1.
         11    1    1    2    0    0  0.24607649367E+02  0.24302461163E+02 -0.75966182663E+02  0.83468598493E+02  0.00000000000E+00 0. -1.
<mgrwt>
<rscale>  0 0.12281584E+03</rscale>
<asrwt>0</asrwt>
<pdfrwt beam="2">  1        1 0.17789619E-01 0.13149627E+03</pdfrwt>
<pdfrwt beam="1">  1       -1 0.26338643E-01 0.13149627E+03</pdfrwt>
<totfact> 0.36421092E+03</totfact>
</mgrwt>
</event>
<event>
 7    1  0.6095443E-006  0.1791092E+03  0.7546771E-02  0.1174035E+00
          2   -1    0    0  501    0  0.00000000000E+00  0.00000000000E+00  0.68599542362E+03  0.68599542362E+03  0.00000000000E+00 0. -1.
         -2   -1    0    0    0  501 -0.00000000000E+00 -0.00000000000E+00 -0.41541064370E+02  0.41541064370E+02  0.00000000000E+00 0.  1.
         23    2    1    2    0    0 -0.12577730448E+03 -0.25217690862E+02  0.33578072976E+03  0.38056381466E+03  0.12499702514E+03 0.  0.
          5    1    3    3  502    0 -0.75206184101E+02 -0.71140127963E+02  0.25123772723E+03  0.27177081064E+03  0.47000000000E+01 0.  1.
         -5    1    3    3    0  502 -0.50571120376E+02  0.45922437101E+02  0.84543002534E+02  0.10879300402E+03  0.47000000000E+01 0.  1.
        -11    1    1    2    0    0  0.11370850200E+03  0.46036142959E+02  0.29453955634E+03  0.31906504060E+03  0.00000000000E+00 0. -1.
         11    1    1    2    0    0  0.12068802475E+02 -0.20818452097E+02  0.14134073148E+02  0.27907632731E+02  0.00000000000E+00 0.  1.
<mgrwt>
<rscale>  0 0.17370834E+03</rscale>
<asrwt>0</asrwt>
<pdfrwt beam="1">  1        2 0.10553775E+00 0.17910924E+03</pdfrwt>
<pdfrwt beam="2">  1       -2 0.63909335E-02 0.17910924E+03</pdfrwt>
<totfact> 0.56531512E+03</totfact>
</mgrwt>
</event>
<event>
 7    1  0.6095443E-006  0.2025831E+03  0.7546771E-02  0.1151763E+00
          1   -1    0    0  501    0  0.00000000000E+00  0.00000000000E+00  0.22635153043E+03  0.22635153043E+03  0.00000000000E+00 0. -1.
         -1   -1    0    0    0  501 -0.00000000000E+00 -0.00000000000E+00 -0.20638325640E+03  0.20638325640E+03  0.00000000000E+00 0.  1.
         23    2    1    2    0    0 -0.18319333055E+02  0.15836698160E+03 -0.86893908119E+02  0.22043242094E+03  0.12499680840E+03 0.  0.
          5    1    3    3  502    0 -0.24376191887E+02  0.53423913813E+02 -0.98292446256E+02  0.11459410233E+03  0.47000000000E+01 0.  1.
         -5    1    3    3    0  502  0.60568588324E+01  0.10494306778E+03  0.11398538138E+02  0.10583831861E+03  0.47000000000E+01 0.  1.
        -11    1    1    2    0    0 -0.14207701810E+02 -0.17442005909E+02  0.53681794266E+02  0.58204960239E+02  0.00000000000E+00 0. -1.
         11    1    1    2    0    0  0.32527034865E+02 -0.14092497569E+03  0.53180387884E+02  0.15409740564E+03  0.00000000000E+00 0.  1.
<mgrwt>
<rscale>  0 0.19761958E+03</rscale>
<asrwt>0</asrwt>
<pdfrwt beam="1">  1        1 0.34823312E-01 0.20258307E+03</pdfrwt>
<pdfrwt beam="2">  1       -1 0.31751270E-01 0.20258307E+03</pdfrwt>
<totfact> 0.11564806E+03</totfact>
</mgrwt>
</event>
<event>
 7    1  0.6095443E-006  0.1402267E+03  0.7546771E-02  0.1224103E+00
         -1   -1    0    0    0  501 -0.00000000000E+00  0.00000000000E+00  0.22044004174E+03  0.22044004174E+03  0.00000000000E+00 0.  1.
          1   -1    0    0  501    0  0.00000000000E+00 -0.00000000000E+00 -0.10749763627E+03  0.10749763627E+03  0.00000000000E+00 0. -1.
         23    2    1    2    0    0 -0.62059528141E+02 -0.13698091533E+02  0.15514870697E+03  0.20912829826E+03  0.12499800444E+03 0.  0.
          5    1    3    3  502    0  0.36342600351E+02 -0.21035469797E+00  0.66438361334E+02  0.75874730353E+02  0.47000000000E+01 0. -1.
         -5    1    3    3    0  502 -0.98402128491E+02 -0.13487736835E+02  0.88710345641E+02  0.13325356791E+03  0.47000000000E+01 0. -1.
        -11    1    1    2    0    0  0.40478866399E+02 -0.32032513892E+02  0.19786710229E+01  0.51657871716E+02  0.00000000000E+00 0. -1.
         11    1    1    2    0    0  0.21580661741E+02  0.45730605425E+02 -0.44184972524E+02  0.67151508030E+02  0.00000000000E+00 0.  1.
<mgrwt>
<rscale>  0 0.13228552E+03</rscale>
<asrwt>0</asrwt>
<pdfrwt beam="2">  1        1 0.16538098E-01 0.14022669E+03</pdfrwt>
<pdfrwt beam="1">  1       -1 0.33913853E-01 0.14022669E+03</pdfrwt>
<totfact> 0.26244659E+03</totfact>
</mgrwt>
</event>
<event>
 7    1  0.6095443E-006  0.1293774E+03  0.7546771E-02  0.1241880E+00
         -1   -1    0    0    0  501 -0.00000000000E+00  0.00000000000E+00  0.20249227788E+03  0.20249227788E+03  0.00000000000E+00 0.  1.
          1   -1    0    0  501    0  0.00000000000E+00 -0.00000000000E+00 -0.66293525070E+02  0.66293525070E+02  0.00000000000E+00 0. -1.
         23    2    1    2    0    0  0.31641801129E+02 -0.10712123260E+02  0.10237555918E+03  0.16498259514E+03  0.12499019328E+03 0.  0.
          5    1    3    3  502    0 -0.47814285067E+02  0.10871924348E+01  0.47619553276E+02  0.67654265926E+02  0.47000000000E+01 0. -1.
         -5    1    3    3    0  502  0.79456086196E+02 -0.11799315695E+02  0.54756005903E+02  0.97328329210E+02  0.47000000000E+01 0. -1.
        -11    1    1    2    0    0  0.22586832241E+02  0.29972328273E+02  0.26160363202E+02  0.45747896735E+02  0.00000000000E+00 0. -1.
         11    1    1    2    0    0 -0.54228633370E+02 -0.19260205013E+02  0.76628304286E+01  0.58055311079E+02  0.00000000000E+00 0.  1.
<mgrwt>
<rscale>  0 0.12074056E+03</rscale>
<asrwt>0</asrwt>
<pdfrwt beam="2">  1        1 0.10199004E-01 0.12937736E+03</pdfrwt>
<pdfrwt beam="1">  1       -1 0.31152658E-01 0.12937736E+03</pdfrwt>
<totfact> 0.56712927E+03</totfact>
</mgrwt>
</event>
<event>
 7    1  0.6095443E-006  0.1327310E+03  0.7546771E-02  0.1236836E+00
          3   -1    0    0  501    0  0.00000000000E+00  0.00000000000E+00  0.20348792054E+02  0.20348792054E+02  0.00000000000E+00 0. -1.
         -3   -1    0    0    0  501 -0.00000000000E+00 -0.00000000000E+00 -0.70756314607E+03  0.70756314607E+03  0.00000000000E+00 0.  1.
         23    2    1    2    0    0 -0.27759395673E+02  0.35021339101E+02 -0.47192617118E+03  0.49023650330E+03  0.12498175820E+03 0.  0.
          5    1    3    3  502    0 -0.33071185181E+02  0.21676487448E+02 -0.47338208085E+03  0.47505395258E+03  0.47000000000E+01 0. -1.
         -5    1    3    3    0  502  0.53117895088E+01  0.13344851653E+02  0.14559096629E+01  0.15182550720E+02  0.47000000000E+01 0. -1.
        -11    1    1    2    0    0 -0.30433852023E+01 -0.36657134743E+02 -0.19980280733E+03  0.20316045269E+03  0.00000000000E+00 0.  1.
         11    1    1    2    0    0  0.30802780875E+02  0.16357956423E+01 -0.15485375505E+02  0.34514982131E+02  0.00000000000E+00 0. -1.
<mgrwt>
<rscale>  0 0.12387603E+03</rscale>
<asrwt>0</asrwt>
<pdfrwt beam="1">  1        3 0.31305834E-02 0.13273100E+03</pdfrwt>
<pdfrwt beam="2">  1       -3 0.10885587E+00 0.13273100E+03</pdfrwt>
<totfact> 0.81732587E+02</totfact>
</mgrwt>
</event>
<event>
 7    1  0.6095443E-006  0.1617271E+03  0.7546771E-02  0.1193468E+00
          1   -1    0    0  501    0  0.00000000000E+00  0.00000000000E+00  0.63508283263E+02  0.63508283263E+02  0.00000000000E+00 0. -1.
         -1   -1    0    0    0  501 -0.00000000000E+00 -0.00000000000E+00 -0.36314365079E+03  0.36314365079E+03  0.00000000000E+00 0.  1.
         23    2    1    2    0    0 -0.10232448195E+03  0.77749403522E+01 -0.18819136452E+03  0.24813634102E+03  0.12499961901E+03 0.  0.
          5    1    3    3  502    0 -0.10903361842E+03  0.38115503884E+02 -0.94485053259E+02  0.14930049187E+03  0.47000000000E+01 0.  1.
         -5    1    3    3    0  502  0.67091364739E+01 -0.30340563532E+02 -0.93706311265E+02  0.98835849156E+02  0.47000000000E+01 0.  1.
        -11    1    1    2    0    0  0.37298183784E+01 -0.36034077624E+02 -0.37000933519E+02  0.51782577926E+02  0.00000000000E+00 0.  1.
         11    1    1    2    0    0  0.98594663567E+02  0.28259137272E+02 -0.74443069484E+02  0.12673301510E+03  0.00000000000E+00 0. -1.
<mgrwt>
<rscale>  0 0.15584634E+03</rscale>
<asrwt>0</asrwt>
<pdfrwt beam="1">  1        1 0.97705054E-02 0.16172710E+03</pdfrwt>
<pdfrwt beam="2">  1       -1 0.55868252E-01 0.16172710E+03</pdfrwt>
<totfact> 0.21590259E+03</totfact>
</mgrwt>
</event>
<event>
 7    1  0.6095443E-006  0.1411799E+03  0.7546771E-02  0.1223069E+00
         -2   -1    0    0    0  501 -0.00000000000E+00  0.00000000000E+00  0.12256178014E+03  0.12256178014E+03  0.00000000000E+00 0.  1.
          2   -1    0    0  501    0  0.00000000000E+00 -0.00000000000E+00 -0.13922220475E+03  0.13922220475E+03  0.00000000000E+00 0. -1.
         23    2    1    2    0    0 -0.12350862559E+02 -0.64460456069E+02  0.24347698785E+02  0.14326395413E+03  0.12499622360E+03 0.  0.
          5    1    3    3  502    0  0.53089144872E+02 -0.50110814967E+02  0.47754427746E+01  0.73310612695E+02  0.47000000000E+01 0. -1.
         -5    1    3    3    0  502 -0.65440007431E+02 -0.14349641101E+02  0.19572256010E+02  0.69953341433E+02  0.47000000000E+01 0. -1.
        -11    1    1    2    0    0  0.46985433307E+02  0.12350365957E+02 -0.19651698625E+02  0.52405646081E+02  0.00000000000E+00 0. -1.
         11    1    1    2    0    0 -0.34634570749E+02  0.52110090112E+02 -0.21356424771E+02  0.66114384678E+02  0.00000000000E+00 0.  1.
<mgrwt>
<rscale>  0 0.13300111E+03</rscale>
<asrwt>0</asrwt>
<pdfrwt beam="2">  1        2 0.21418801E-01 0.14117985E+03</pdfrwt>
<pdfrwt beam="1">  1       -2 0.18855659E-01 0.14117985E+03</pdfrwt>
<totfact> 0.56950073E+03</totfact>
</mgrwt>
</event>
<event>
 6    1  0.6095443E-006  0.3771937E+03  0.7546771E-02  0.1064796E+00
          2   -1    0    0  501    0  0.00000000000E+00  0.00000000000E+00  0.57420787034E+03  0.57420787034E+03  0.00000000000E+00 0. -1.
         -2   -1    0    0    0  501 -0.00000000000E+00 -0.00000000000E+00 -0.19190550978E+03  0.19190550978E+03  0.00000000000E+00 0.  1.
          5    1    1    2  502    0  0.13368419192E+03  0.39195827900E+02  0.21262502571E+03  0.25424253706E+03  0.47000000000E+01 0. -1.
         -5    1    1    2    0  502  0.11088451544E+03 -0.42846491471E+01 -0.89391691346E+02  0.14257173095E+03  0.47000000000E+01 0.  1.
        -11    1    1    2    0    0 -0.11782288813E+03  0.19281956131E+02  0.15959117834E+03  0.19930722768E+03  0.00000000000E+00 0. -1.
         11    1    1    2    0    0 -0.12674581923E+03 -0.54193134884E+02  0.99477847856E+02  0.16999188444E+03  0.00000000000E+00 0.  1.
<mgrwt>
<rscale>  0 0.34473679E+03</rscale>
<asrwt>0</asrwt>
<pdfrwt beam="1">  1        2 0.88339672E-01 0.37719373E+03</pdfrwt>
<pdfrwt beam="2">  1       -2 0.29523925E-01 0.37719373E+03</pdfrwt>
<totfact> 0.56012704E+02</totfact>
</mgrwt>
</event>
<event>
 7    1  0.6095443E-006  0.2180306E+03  0.7546771E-02  0.1138347E+00
         -2   -1    0    0    0  501 -0.00000000000E+00  0.00000000000E+00  0.20021645778E+03  0.20021645778E+03  0.00000000000E+00 0.  1.
          2   -1    0    0  501    0  0.00000000000E+00 -0.00000000000E+00 -0.35188469347E+03  0.35188469347E+03  0.00000000000E+00 0. -1.
         23    2    1    2    0    0 -0.16770159478E+03  0.61553535656E+02  0.90649992441E+02  0.23612446089E+03  0.12499870902E+03 0.  0.
          5    1    3    3  502    0 -0.16240529526E+02  0.33160003155E+02 -0.23742928427E+02  0.44149261135E+02  0.47000000000E+01 0.  1.
         -5    1    3    3    0  502 -0.15146106525E+03  0.28393532501E+02  0.11439292087E+03  0.19197519975E+03  0.47000000000E+01 0.  1.
        -11    1    1    2    0    0  0.14108907013E+03 -0.82092619836E+01 -0.18900474563E+03  0.23600066009E+03  0.00000000000E+00 0.  1.
         11    1    1    2    0    0  0.26612524646E+02 -0.53344273672E+02 -0.53313482496E+02  0.79976030268E+02  0.00000000000E+00 0. -1.
<mgrwt>
<rscale>  0 0.21411588E+03</rscale>
<asrwt>0</asrwt>
<pdfrwt beam="2">  1        2 0.54136106E-01 0.21803059E+03</pdfrwt>
<pdfrwt beam="1">  1       -2 0.30802532E-01 0.21803059E+03</pdfrwt>
<totfact> 0.89512462E+02</totfact>
</mgrwt>
</event>
<event>
 7    1  0.6095443E-006  0.1688488E+03  0.7546771E-02  0.1184897E+00
         -2   -1    0    0    0  501 -0.00000000000E+00  0.00000000000E+00  0.71432328080E+02  0.71432328080E+02  0.00000000000E+00 0.  1.
          2   -1    0    0  501    0  0.00000000000E+00 -0.00000000000E+00 -0.35630918444E+03  0.35630918444E+03  0.00000000000E+00 0. -1.
         23    2    1    2    0    0  0.10748251733E+03 -0.36502053150E+02 -0.12721658211E+03  0.21140951805E+03  0.12500013656E+03 0.  0.
          5    1    3    3  502    0  0.22403022860E+02  0.44118971722E+02 -0.52682153161E+02  0.72428436133E+02  0.47000000000E+01 0.  1.
         -5    1    3    3    0  502  0.85079494473E+02 -0.80621024871E+02 -0.74534428954E+02  0.13898108192E+03  0.47000000000E+01 0.  1.
        -11    1    1    2    0    0 -0.11169124277E+03  0.25692145929E+02 -0.16623003981E+03  0.20190950004E+03  0.00000000000E+00 0. -1.
         11    1    1    2    0    0  0.42087254379E+01  0.10809907220E+02  0.85697655566E+01  0.14422494431E+02  0.00000000000E+00 0.  1.
<mgrwt>
<rscale>  0 0.16341238E+03</rscale>
<asrwt>0</asrwt>
<pdfrwt beam="2">  1        2 0.54816798E-01 0.16884882E+03</pdfrwt>
<pdfrwt beam="1">  1       -2 0.10989589E-01 0.16884882E+03</pdfrwt>
<totfact> 0.50215970E+03</totfact>
</mgrwt>
</event>
<event>
 7    1  0.6095443E-006  0.1872127E+03  0.7546771E-02  0.1165814E+00
          2   -1    0    0  501    0  0.00000000000E+00  0.00000000000E+00  0.53189908468E+03  0.53189908468E+03  0.00000000000E+00 0. -1.
         -2   -1    0    0    0  501 -0.00000000000E+00 -0.00000000000E+00 -0.59687493935E+02  0.59687493935E+02  0.00000000000E+00 0.  1.
         23    2    1    2    0    0 -0.13433618312E+03 -0.37106725512E+02  0.22058224510E+03  0.28931837446E+03  0.12500190309E+03 0.  0.
          5    1    3    3  502    0 -0.10005750016E+03  0.17177842133E+02  0.64211431520E+02  0.12021555447E+03  0.47000000000E+01 0. -1.
         -5    1    3    3    0  502 -0.34278682957E+02 -0.54284567645E+02  0.15637081358E+03  0.16910281999E+03  0.47000000000E+01 0. -1.
        -11    1    1    2    0    0  0.55998533703E+02  0.12123533235E+02  0.27542525253E+02  0.63572057795E+02  0.00000000000E+00 0.  1.
         11    1    1    2    0    0  0.78337649415E+02  0.24983192277E+02  0.22408682039E+03  0.23869614636E+03  0.00000000000E+00 0. -1.
<mgrwt>
<rscale>  0 0.18207095E+03</rscale>
<asrwt>0</asrwt>
<pdfrwt beam="1">  1        2 0.81830625E-01 0.18721270E+03</pdfrwt>
<pdfrwt beam="2">  1       -2 0.91826917E-02 0.18721270E+03</pdfrwt>
<totfact> 0.43302758E+03</totfact>
</mgrwt>
</event>
<event>
 7    1  0.2956255E-005  0.3065519E+03  0.7546771E-02  0.1083489E+00
          1   -1    0    0  501    0  0.00000000000E+00  0.00000000000E+00  0.16957087585E+04  0.16957087585E+04  0.00000000000E+00 0. -1.
         -1   -1    0    0    0  501 -0.00000000000E+00 -0.00000000000E+00 -0.54515804084E+02  0.54515804084E+02  0.00000000000E+00 0.  1.
         23    2    1    2    0    0  0.59217132510E+02  0.27357350894E+03  0.70512746408E+03  0.76888152429E+03  0.12499969683E+03 0.  0.
          5    1    3    3  502    0  0.38265795752E+02  0.27336022173E+03  0.68830465749E+03  0.74160331275E+03  0.47000000000E+01 0.  1.
         -5    1    3    3    0  502  0.20951336758E+02  0.21328721527E+00  0.16822806591E+02  0.27278211543E+02  0.47000000000E+01 0.  1.
        -11    1    1    2    0    0 -0.57534173270E+02 -0.76913293585E+02  0.36189869593E+03  0.37442823336E+03  0.00000000000E+00 0. -1.
         11    1    1    2    0    0 -0.16829592394E+01 -0.19666021536E+03  0.57416679445E+03  0.60691480498E+03  0.00000000000E+00 0.  1.
<mgrwt>
<rscale>  0 0.30353074E+03</rscale>
<asrwt>0</asrwt>
<pdfrwt beam="1">  1        1 0.26087823E+00 0.30655188E+03</pdfrwt>
<pdfrwt beam="2">  1       -1 0.83870481E-02 0.30655188E+03</pdfrwt>
<totfact> 0.42447517E+02</totfact>
</mgrwt>
</event>
<event>
 7    1  0.6095443E-006  0.2983651E+03  0.7546771E-02  0.1087745E+00
          1   -1    0    0  501    0  0.00000000000E+00  0.00000000000E+00  0.78852333943E+03  0.78852333943E+03  0.00000000000E+00 0. -1.
         -1   -1    0    0    0  501 -0.00000000000E+00 -0.00000000000E+00 -0.10943161179E+03  0.10943161179E+03  0.00000000000E+00 0.  1.
         23    2    1    2    0    0 -0.22952633895E+02  0.26994974605E+03  0.29581485712E+03  0.42015256843E+03  0.12498824854E+03 0.  0.
          5    1    3    3  502    0  0.64254170245E+01  0.26840010115E+03  0.26864847867E+03  0.37983416825E+03  0.47000000000E+01 0.  1.
         -5    1    3    3    0  502 -0.29378050920E+02  0.15496449027E+01  0.27166378447E+02  0.40318400180E+02  0.47000000000E+01 0.  1.
        -11    1    1    2    0    0  0.99664038896E+01 -0.16925087943E+03  0.16271199828E+03  0.23499017805E+03  0.00000000000E+00 0.  1.
         11    1    1    2    0    0  0.12986230005E+02 -0.10069886662E+03  0.22056487224E+03  0.24281220475E+03  0.00000000000E+00 0. -1.
<mgrwt>
<rscale>  0 0.29504283E+03</rscale>
<asrwt>0</asrwt>
<pdfrwt beam="1">  1        1 0.12131128E+00 0.29836513E+03</pdfrwt>
<pdfrwt beam="2">  1       -1 0.16835633E-01 0.29836513E+03</pdfrwt>
<totfact> 0.63055123E+02</totfact>
</mgrwt>
</event>
<event>
 7    1  0.7618553E-006  0.1303749E+03  0.7546771E-02  0.1251867E+00
          1   -1    0    0  501    0  0.00000000000E+00  0.00000000000E+00  0.15487254048E+03  0.15487254048E+03  0.00000000000E+00 0.  1.
         -1   -1    0    0    0  501 -0.00000000000E+00 -0.00000000000E+00 -0.70835232821E+02  0.70835232821E+02  0.00000000000E+00 0. -1.
         23    2    1    2    0    0 -0.28176611634E+01 -0.36940725801E+02  0.43932695931E+02  0.13757797766E+03  0.12500024691E+03 0.  0.
          5    1    3    3  502    0  0.27049656169E+01 -0.78822147952E+02  0.51629777282E+02  0.94382052048E+02  0.47000000000E+01 0. -1.
         -5    1    3    3    0  502 -0.55226267803E+01  0.41881422151E+02 -0.76970813511E+01  0.43195925610E+02  0.47000000000E+01 0. -1.
        -11    1    1    2    0    0  0.26707155933E+02 -0.72069596811E+01  0.19620512928E+02  0.33914259147E+02  0.00000000000E+00 0.  1.
         11    1    1    2    0    0 -0.23889494770E+02  0.44147685482E+02  0.20484098797E+02  0.54215536493E+02  0.00000000000E+00 0. -1.
<mgrwt>
<rscale>  0 0.11483644E+03</rscale>
<asrwt>0</asrwt>
<pdfrwt beam="1">  1        1 0.23826545E-01 0.13037491E+03</pdfrwt>
<pdfrwt beam="2">  1       -1 0.10897728E-01 0.13037491E+03</pdfrwt>
<totfact> 0.10172575E+04</totfact>
</mgrwt>
</event>
<event>
 7    1  0.6095443E-006  0.1266061E+03  0.7546771E-02  0.1248405E+00
         -1   -1    0    0    0  501 -0.00000000000E+00  0.00000000000E+00  0.77427500190E+02  0.77427500190E+02  0.00000000000E+00 0.  1.
          1   -1    0    0  501    0  0.00000000000E+00 -0.00000000000E+00 -0.16265491853E+03  0.16265491853E+03  0.00000000000E+00 0. -1.
         23    2    1    2    0    0  0.18588380470E+02 -0.76625966689E+01 -0.21779674810E+02  0.12846580176E+03  0.12499945884E+03 0.  0.
          5    1    3    3  502    0 -0.43468809688E+02  0.29008699098E+02  0.17359646912E+01  0.52499005823E+02  0.47000000000E+01 0.  1.
         -5    1    3    3    0  502  0.62057190158E+02 -0.36671295767E+02 -0.23515639501E+02  0.75966795935E+02  0.47000000000E+01 0.  1.
        -11    1    1    2    0    0 -0.88677780384E+01 -0.31912934919E+02 -0.62638686297E+02  0.70856742259E+02  0.00000000000E+00 0. -1.
         11    1    1    2    0    0 -0.97206024318E+01  0.39575531588E+02 -0.80905723319E+00  0.40759874702E+02  0.00000000000E+00 0.  1.
<mgrwt>
<rscale>  0 0.11683865E+03</rscale>
<asrwt>0</asrwt>
<pdfrwt beam="2">  1        1 0.25023833E-01 0.12660611E+03</pdfrwt>
<pdfrwt beam="1">  1       -1 0.11911923E-01 0.12660611E+03</pdfrwt>
<totfact> 0.83242983E+03</totfact>
</mgrwt>
</event>
<event>
 7    1  0.6095443E-006  0.1539988E+03  0.7546771E-02  0.1204037E+00
         -1   -1    0    0    0  501 -0.00000000000E+00  0.00000000000E+00  0.58602157533E+02  0.58602157533E+02  0.00000000000E+00 0.  1.
          1   -1    0    0  501    0  0.00000000000E+00 -0.00000000000E+00 -0.36726069452E+03  0.36726069452E+03  0.00000000000E+00 0. -1.
         23    2    1    2    0    0  0.81085810149E+02  0.38811022112E+02 -0.10957740754E+03  0.18900490379E+03  0.12503775978E+03 0.  0.
          5    1    3    3  502    0 -0.25126267744E+01 -0.31385737337E+02  0.31799732112E+01  0.31993437313E+02  0.47000000000E+01 0. -1.
         -5    1    3    3    0  502  0.83598436923E+02  0.70196759449E+02 -0.11275738075E+03  0.15701146648E+03  0.47000000000E+01 0.  1.
        -11    1    1    2    0    0  0.83116891440E+01 -0.36490622858E+02 -0.76044028888E+02  0.84754610862E+02  0.00000000000E+00 0. -1.
         11    1    1    2    0    0 -0.89397499293E+02 -0.23203992541E+01 -0.12303710057E+03  0.15210333740E+03  0.00000000000E+00 0.  1.
<mgrwt>
<rscale>  0 0.14713619E+03</rscale>
<asrwt>0</asrwt>
<pdfrwt beam="2">  1        1 0.56501645E-01 0.15399885E+03</pdfrwt>
<pdfrwt beam="1">  1       -1 0.90157167E-02 0.15399885E+03</pdfrwt>
<totfact> 0.46910082E+03</totfact>
</mgrwt>
</event>
<event>
 7    1  0.6095443E-006  0.2425169E+03  0.7546771E-02  0.1120800E+00
          2   -1    0    0  501    0  0.00000000000E+00  0.00000000000E+00  0.72493141609E+02  0.72493141609E+02  0.00000000000E+00 0. -1.
         -2   -1    0    0    0  501 -0.00000000000E+00 -0.00000000000E+00 -0.75990200638E+03  0.75990200638E+03  0.00000000000E+00 0.  1.
         23    2    1    2    0    0 -0.16202245915E+03 -0.13015034664E+03 -0.34765177343E+03  0.42388227249E+03  0.12499614138E+03 0.  0.
          5    1    3    3  502    0 -0.10832610421E+03 -0.27072881077E+02 -0.98721484107E+02  0.14911575090E+03  0.47000000000E+01 0. -1.
         -5    1    3    3    0  502 -0.53696354937E+02 -0.10307746556E+03 -0.24893028932E+03  0.27476652158E+03  0.47000000000E+01 0. -1.
        -11    1    1    2    0    0 -0.30779862175E+01  0.31188865528E+02 -0.27504527298E+02  0.41697941843E+02  0.00000000000E+00 0.  1.
         11    1    1    2    0    0  0.16510044537E+03  0.98961481113E+02 -0.31225256405E+03  0.36681493366E+03  0.00000000000E+00 0. -1.
<mgrwt>
<rscale>  0 0.23849396E+03</rscale>
<asrwt>0</asrwt>
<pdfrwt beam="1">  1        2 0.11152792E-01 0.24251686E+03</pdfrwt>
<pdfrwt beam="2">  1       -2 0.11690799E+00 0.24251686E+03</pdfrwt>
<totfact> 0.33095933E+02</totfact>
</mgrwt>
</event>
<event>
 7    1  0.6095443E-006  0.1387069E+03  0.7546771E-02  0.1222081E+00
          3   -1    0    0  501    0  0.00000000000E+00  0.00000000000E+00  0.12276818331E+03  0.12276818331E+03  0.00000000000E+00 0. -1.
         -3   -1    0    0    0  501 -0.00000000000E+00 -0.00000000000E+00 -0.14265332988E+03  0.14265332988E+03  0.00000000000E+00 0.  1.
         23    2    1    2    0    0  0.67851111394E+02  0.39131643473E+02 -0.39275920321E+02  0.14416033359E+03  0.11447508474E+03 0.  0.
          5    1    3    3  502    0  0.57777039085E+02  0.70365737048E+02 -0.56034973895E+02  0.10701182876E+03  0.47000000000E+01 0. -1.
         -5    1    3    3    0  502  0.10074072309E+02 -0.31234093575E+02  0.16759053574E+02  0.37148504829E+02  0.47000000000E+01 0.  1.
        -11    1    1    2    0    0  0.50214135090E+00 -0.12554022666E+02 -0.30213934535E+02  0.32722125101E+02  0.00000000000E+00 0.  1.
         11    1    1    2    0    0 -0.68353252745E+02 -0.26577620807E+02  0.49604708286E+02  0.88539054505E+02  0.00000000000E+00 0. -1.
<mgrwt>
<rscale>  0 0.13368965E+03</rscale>
<asrwt>0</asrwt>
<pdfrwt beam="1">  1        3 0.18887413E-01 0.13870690E+03</pdfrwt>
<pdfrwt beam="2">  1       -3 0.21946666E-01 0.13870690E+03</pdfrwt>
<totfact> 0.10917132E+03</totfact>
</mgrwt>
</event>
<event>
 6    1  0.6095443E-006  0.2313282E+03  0.7546771E-02  0.1133751E+00
         -1   -1    0    0    0  501 -0.00000000000E+00  0.00000000000E+00  0.29010046853E+03  0.29010046853E+03  0.00000000000E+00 0.  1.
          1   -1    0    0  501    0  0.00000000000E+00 -0.00000000000E+00 -0.19584198704E+03  0.19584198704E+03  0.00000000000E+00 0. -1.
          5    1    1    2  502    0 -0.13441192708E+02 -0.79649228352E+01 -0.23748964203E+02  0.28813346871E+02  0.47000000000E+01 0. -1.
         -5    1    1    2    0  502  0.11955585602E+03 -0.12378021757E+03  0.18788682249E+03  0.25483071447E+03  0.47000000000E+01 0.  1.
        -11    1    1    2    0    0 -0.26824671491E+02 -0.89572035003E+01 -0.12237036307E+02  0.30814599669E+02  0.00000000000E+00 0.  1.
         11    1    1    2    0    0 -0.79289991823E+02  0.14070234391E+03 -0.57642340486E+02  0.17148379457E+03  0.00000000000E+00 0. -1.
<mgrwt>
<rscale>  0 0.22017690E+03</rscale>
<asrwt>0</asrwt>
<pdfrwt beam="2">  1        1 0.30129536E-01 0.23132816E+03</pdfrwt>
<pdfrwt beam="1">  1       -1 0.44630841E-01 0.23132816E+03</pdfrwt>
<totfact> 0.76404689E+02</totfact>
</mgrwt>
</event>
<event>
 7    1  0.6095443E-006  0.1273554E+03  0.7546771E-02  0.1246197E+00
          2   -1    0    0  501    0  0.00000000000E+00  0.00000000000E+00  0.74542433451E+03  0.74542433451E+03  0.00000000000E+00 0.  1.
         -2   -1    0    0    0  501 -0.00000000000E+00 -0.00000000000E+00 -0.17358307721E+02  0.17358307721E+02  0.00000000000E+00 0. -1.
         23    2    1    2    0    0 -0.23254462910E+02 -0.73615690864E+01  0.33060460036E+03  0.35428632808E+03  0.12499775096E+03 0.  0.
          5    1    3    3  502    0 -0.14293721236E+02 -0.65995819235E+02  0.16691757719E+03  0.18012031034E+03  0.47000000000E+01 0. -1.
         -5    1    3    3    0  502 -0.89607416739E+01  0.58634250148E+02  0.16368702317E+03  0.17416601774E+03  0.47000000000E+01 0. -1.
        -11    1    1    2    0    0  0.50417799335E+02 -0.14283930284E+02  0.30987329360E+03  0.31427288022E+03  0.00000000000E+00 0.  1.
         11    1    1    2    0    0 -0.27163336425E+02  0.21645499370E+02  0.87588132828E+02  0.94223433927E+02  0.00000000000E+00 0. -1.
<mgrwt>
<rscale>  0 0.11814030E+03</rscale>
<asrwt>0</asrwt>
<pdfrwt beam="1">  1        2 0.11468064E+00 0.12735541E+03</pdfrwt>
<pdfrwt beam="2">  1       -2 0.26705095E-02 0.12735541E+03</pdfrwt>
<totfact> 0.18449688E+04</totfact>
</mgrwt>
</event>
<event>
 7    1  0.6095443E-006  0.1318503E+03  0.7546771E-02  0.1235854E+00
         -2   -1    0    0    0  501 -0.00000000000E+00  0.00000000000E+00  0.44418702234E+02  0.44418702234E+02  0.00000000000E+00 0.  1.
          2   -1    0    0  501    0  0.00000000000E+00 -0.00000000000E+00 -0.41880265095E+03  0.41880265095E+03  0.00000000000E+00 0. -1.
         23    2    1    2    0    0 -0.14538281024E+02  0.39343590467E+02 -0.88680724770E+02  0.15889858323E+03  0.12500083632E+03 0.  0.
          5    1    3    3  502    0  0.28437717147E+02  0.37254552297E+02  0.12598140225E+02  0.48758676772E+02  0.47000000000E+01 0. -1.
         -5    1    3    3    0  502 -0.42975998171E+02  0.20890381701E+01 -0.10127886499E+03  0.11013990646E+03  0.47000000000E+01 0. -1.
        -11    1    1    2    0    0 -0.15745880065E+02 -0.48080474546E+02 -0.25620721971E+03  0.26115475145E+03  0.00000000000E+00 0. -1.
         11    1    1    2    0    0  0.30284161089E+02  0.87368840787E+01 -0.29496004233E+02  0.43168018509E+02  0.00000000000E+00 0.  1.
<mgrwt>
<rscale>  0 0.12449897E+03</rscale>
<asrwt>0</asrwt>
<pdfrwt beam="2">  1        2 0.64431177E-01 0.13185025E+03</pdfrwt>
<pdfrwt beam="1">  1       -2 0.68336465E-02 0.13185025E+03</pdfrwt>
<totfact> 0.87250105E+03</totfact>
</mgrwt>
</event>
<event>
 6    1  0.6095443E-006  0.1528705E+03  0.7546771E-02  0.1209074E+00
          2   -1    0    0  501    0  0.00000000000E+00  0.00000000000E+00  0.14380881056E+03  0.14380881056E+03  0.00000000000E+00 0.  1.
         -2   -1    0    0    0  501 -0.00000000000E+00 -0.00000000000E+00 -0.16239499403E+03  0.16239499403E+03  0.00000000000E+00 0. -1.
          5    1    1    2  502    0 -0.24616438534E+02  0.10592274723E+03 -0.58342033220E+02  0.12349688364E+03  0.47000000000E+01 0. -1.
         -5    1    1    2    0  502  0.30039088984E+02 -0.31828753698E+02 -0.22594050068E+02  0.49477242520E+02  0.47000000000E+01 0.  1.
        -11    1    1    2    0    0 -0.36948496252E+02 -0.13109558640E+01  0.29827702180E+02  0.47503702991E+02  0.00000000000E+00 0. -1.
         11    1    1    2    0    0  0.31525845802E+02 -0.72783037672E+02  0.32522197635E+02  0.85725975441E+02  0.00000000000E+00 0.  1.
<mgrwt>
<rscale>  0 0.14321007E+03</rscale>
<asrwt>0</asrwt>
<pdfrwt beam="1">  1        2 0.22124432E-01 0.15287053E+03</pdfrwt>
<pdfrwt beam="2">  1       -2 0.24983845E-01 0.15287053E+03</pdfrwt>
<totfact> 0.34054924E+03</totfact>
</mgrwt>
</event>
<event>
 7    1  0.6095443E-006  0.1288779E+03  0.7546771E-02  0.1243258E+00
          1   -1    0    0  501    0  0.00000000000E+00  0.00000000000E+00  0.26309352936E+02  0.26309352936E+02  0.00000000000E+00 0. -1.
         -1   -1    0    0    0  501 -0.00000000000E+00 -0.00000000000E+00 -0.58755407373E+03  0.58755407373E+03  0.00000000000E+00 0.  1.
         23    2    1    2    0    0  0.20247126078E+02 -0.23939223563E+02 -0.44212174890E+03  0.46052270189E+03  0.12500594213E+03 0.  0.
          5    1    3    3  502    0 -0.10549902591E+01 -0.70016756761E+02 -0.17442822388E+03  0.18801796328E+03  0.47000000000E+01 0.  1.
         -5    1    3    3    0  502  0.21302116337E+02  0.46077533198E+02 -0.26769352502E+03  0.27250473861E+03  0.47000000000E+01 0.  1.
        -11    1    1    2    0    0  0.13975596205E+02  0.31116342474E+02 -0.11275079364E+03  0.11779764652E+03  0.00000000000E+00 0.  1.
         11    1    1    2    0    0 -0.34222722282E+02 -0.71771189108E+01 -0.63721782521E+01  0.35543078257E+02  0.00000000000E+00 0. -1.
<mgrwt>
<rscale>  0 0.11990268E+03</rscale>
<asrwt>0</asrwt>
<pdfrwt beam="1">  1        1 0.40475928E-02 0.12887792E+03</pdfrwt>
<pdfrwt beam="2">  1       -1 0.90392933E-01 0.12887792E+03</pdfrwt>
<totfact> 0.27097832E+03</totfact>
</mgrwt>
</event>
<event>
 7    1  0.6095443E-006  0.1317536E+03  0.7546771E-02  0.1238094E+00
         -1   -1    0    0    0  501 -0.00000000000E+00  0.00000000000E+00  0.17972432599E+02  0.17972432599E+02  0.00000000000E+00 0.  1.
          1   -1    0    0  501    0  0.00000000000E+00 -0.00000000000E+00 -0.76036808764E+03  0.76036808764E+03  0.00000000000E+00 0. -1.
         23    2    1    2    0    0  0.12401173571E+02 -0.39697952038E+02 -0.46705888750E+03  0.48528652119E+03  0.12501714582E+03 0.  0.
          5    1    3    3  502    0  0.27687942912E+02 -0.62680282746E+02 -0.44322936884E+03  0.44851956862E+03  0.47000000000E+01 0.  1.
         -5    1    3    3    0  502 -0.15286769341E+02  0.22982330708E+02 -0.23829518657E+02  0.36766952567E+02  0.47000000000E+01 0.  1.
        -11    1    1    2    0    0  0.22539302748E+02  0.51555423096E+00 -0.14093178306E+02  0.26587659531E+02  0.00000000000E+00 0.  1.
         11    1    1    2    0    0 -0.34940476319E+02  0.39182397807E+02 -0.26124358923E+03  0.26646633952E+03  0.00000000000E+00 0. -1.
<mgrwt>
<rscale>  0 0.12308416E+03</rscale>
<asrwt>0</asrwt>
<pdfrwt beam="2">  1        1 0.11697973E+00 0.13175357E+03</pdfrwt>
<pdfrwt beam="1">  1       -1 0.27649890E-02 0.13175357E+03</pdfrwt>
<totfact> 0.10150009E+04</totfact>
</mgrwt>
</event>
<event>
 7    1  0.6095443E-006  0.1292236E+03  0.7546771E-02  0.1243879E+00
          1   -1    0    0  501    0  0.00000000000E+00  0.00000000000E+00  0.22621590778E+03  0.22621590778E+03  0.00000000000E+00 0. -1.
         -1   -1    0    0    0  501 -0.00000000000E+00 -0.00000000000E+00 -0.55447732035E+02  0.55447732035E+02  0.00000000000E+00 0.  1.
         23    2    1    2    0    0  0.16540407066E+02  0.28271253890E+02  0.10415046314E+03  0.16597001386E+03  0.12500351062E+03 0.  0.
          5    1    3    3  502    0 -0.29045711482E+02  0.44957585826E+01 -0.16999982902E+02  0.34277611051E+02  0.47000000000E+01 0.  1.
         -5    1    3    3    0  502  0.45586118548E+02  0.23775495308E+02  0.12115044604E+03  0.13169240281E+03  0.47000000000E+01 0.  1.
        -11    1    1    2    0    0  0.30340135080E+02 -0.30987436919E+02  0.14944240009E+02  0.45870201144E+02  0.00000000000E+00 0.  1.
         11    1    1    2    0    0 -0.46880542147E+02  0.27161830286E+01  0.51673472594E+02  0.69823424809E+02  0.00000000000E+00 0. -1.
<mgrwt>
<rscale>  0 0.11952714E+03</rscale>
<asrwt>0</asrwt>
<pdfrwt beam="1">  1        1 0.34802447E-01 0.12922355E+03</pdfrwt>
<pdfrwt beam="2">  1       -1 0.85304204E-02 0.12922355E+03</pdfrwt>
<totfact> 0.92058845E+03</totfact>
</mgrwt>
</event>
<event>
 7    1  0.6095443E-006  0.1338090E+03  0.7546771E-02  0.1234471E+00
         -1   -1    0    0    0  501 -0.00000000000E+00  0.00000000000E+00  0.20194411988E+02  0.20194411988E+02  0.00000000000E+00 0.  1.
          1   -1    0    0  501    0  0.00000000000E+00 -0.00000000000E+00 -0.69560740617E+03  0.69560740617E+03  0.00000000000E+00 0. -1.
         23    2    1    2    0    0 -0.46674341282E+02  0.10147920046E+02 -0.37244218025E+03  0.39574996577E+03  0.12499353328E+03 0.  0.
          5    1    3    3  502    0  0.33547368970E+02 -0.28486424311E+02 -0.13802928247E+03  0.14495197534E+03  0.47000000000E+01 0.  1.
         -5    1    3    3    0  502 -0.80221710251E+02  0.38634344357E+02 -0.23441289778E+03  0.25079799043E+03  0.47000000000E+01 0.  1.
        -11    1    1    2    0    0  0.26062156173E+02  0.32816461830E+02 -0.22345319428E+03  0.22734882051E+03  0.00000000000E+00 0. -1.
         11    1    1    2    0    0  0.20612185109E+02 -0.42964381876E+02 -0.79517619650E+02  0.92703031880E+02  0.00000000000E+00 0.  1.
<mgrwt>
<rscale>  0 0.12538378E+03</rscale>
<asrwt>0</asrwt>
<pdfrwt beam="2">  1        1 0.10701652E+00 0.13380903E+03</pdfrwt>
<pdfrwt beam="1">  1       -1 0.31068328E-02 0.13380903E+03</pdfrwt>
<totfact> 0.97556547E+03</totfact>
</mgrwt>
</event>
<event>
 7    1  0.6095443E-006  0.1577685E+03  0.7546771E-02  0.1197506E+00
          1   -1    0    0  501    0  0.00000000000E+00  0.00000000000E+00  0.24266801276E+03  0.24266801276E+03  0.00000000000E+00 0. -1.
         -1   -1    0    0    0  501 -0.00000000000E+00 -0.00000000000E+00 -0.89870842753E+02  0.89870842753E+02  0.00000000000E+00 0.  1.
         23    2    1    2    0    0 -0.29298947437E+02 -0.99044760667E+02  0.85409134485E+02  0.17940351054E+03  0.11925856953E+03 0.  0.
          5    1    3    3  502    0 -0.71466104752E+02 -0.88377406904E+02  0.56961089431E+02  0.12721881106E+03  0.47000000000E+01 0. -1.
         -5    1    3    3    0  502  0.42167157315E+02 -0.10667353763E+02  0.28448045054E+02  0.52184699479E+02  0.47000000000E+01 0.  1.
        -11    1    1    2    0    0 -0.89512196934E+01  0.44552647291E+02  0.73356492595E+02  0.86291585456E+02  0.00000000000E+00 0. -1.
         11    1    1    2    0    0  0.38250167130E+02  0.54492113377E+02 -0.59684570751E+01  0.66843759511E+02  0.00000000000E+00 0.  1.
<mgrwt>
<rscale>  0 0.15244024E+03</rscale>
<asrwt>0</asrwt>
<pdfrwt beam="1">  1        1 0.37333540E-01 0.15776850E+03</pdfrwt>
<pdfrwt beam="2">  1       -1 0.13826284E-01 0.15776850E+03</pdfrwt>
<totfact> 0.40699261E+03</totfact>
</mgrwt>
</event>
<event>
 7    1  0.6095443E-006  0.2341717E+03  0.7546771E-02  0.1126639E+00
         -1   -1    0    0    0  501 -0.00000000000E+00  0.00000000000E+00  0.12582625483E+03  0.12582625483E+03  0.00000000000E+00 0.  1.
          1   -1    0    0  501    0  0.00000000000E+00 -0.00000000000E+00 -0.82193462530E+03  0.82193462530E+03  0.00000000000E+00 0. -1.
         23    2    1    2    0    0 -0.15889449116E+03 -0.11816764939E+03 -0.17279123692E+02  0.23480832331E+03  0.12500131158E+03 0.  0.
          5    1    3    3  502    0 -0.79163263628E+02 -0.13106693915E+03 -0.84569590864E+01  0.15342416694E+03  0.47000000000E+01 0. -1.
         -5    1    3    3    0  502 -0.79731227527E+02  0.12899289753E+02 -0.88221646051E+01  0.81384156366E+02  0.47000000000E+01 0. -1.
        -11    1    1    2    0    0  0.82236206506E+02  0.73577156390E+02 -0.51470627027E+03  0.52640187714E+03  0.00000000000E+00 0. -1.
         11    1    1    2    0    0  0.76658284649E+02  0.44590493004E+02 -0.16412297650E+03  0.18655067967E+03  0.00000000000E+00 0.  1.
<mgrwt>
<rscale>  0 0.23000039E+03</rscale>
<asrwt>0</asrwt>
<pdfrwt beam="2">  1        1 0.12645148E+00 0.23417169E+03</pdfrwt>
<pdfrwt beam="1">  1       -1 0.19357885E-01 0.23417169E+03</pdfrwt>
<totfact> 0.47399604E+02</totfact>
</mgrwt>
</event>
<event>
 6    1  0.6095443E-006  0.4683545E+03  0.7546771E-02  0.1043409E+00
         -3   -1    0    0    0  501 -0.00000000000E+00  0.00000000000E+00  0.42035158104E+03  0.42035158104E+03  0.00000000000E+00 0.  1.
          3   -1    0    0  501    0  0.00000000000E+00 -0.00000000000E+00 -0.36695992373E+03  0.36695992373E+03  0.00000000000E+00 0. -1.
          5    1    1    2  502    0  0.17436960593E+03  0.11642170034E+03 -0.88418871313E+02  0.22759340629E+03  0.47000000000E+01 0. -1.
         -5    1    1    2    0  502  0.57001445629E+01  0.39101593202E+02  0.27289743343E+03  0.27578347560E+03  0.47000000000E+01 0.  1.
        -11    1    1    2    0    0 -0.12214585238E+03 -0.14476054481E+03 -0.78736645780E+02  0.20512114463E+03  0.00000000000E+00 0. -1.
         11    1    1    2    0    0 -0.57923898118E+02 -0.10762748726E+02 -0.52350259025E+02  0.78813478246E+02  0.00000000000E+00 0.  1.
<mgrwt>
<rscale>  0 0.40107189E+03</rscale>
<asrwt>0</asrwt>
<pdfrwt beam="2">  1        3 0.56455373E-01 0.46835451E+03</pdfrwt>
<pdfrwt beam="1">  1       -3 0.64669474E-01 0.46835451E+03</pdfrwt>
<totfact> 0.18595999E+01</totfact>
</mgrwt>
</event>
<event>
 7    1  0.6095443E-006  0.1279660E+03  0.7546771E-02  0.1245225E+00
         -2   -1    0    0    0  501 -0.00000000000E+00  0.00000000000E+00  0.86116660126E+02  0.86116660126E+02  0.00000000000E+00 0.  1.
          2   -1    0    0  501    0  0.00000000000E+00 -0.00000000000E+00 -0.16118433690E+03  0.16118433690E+03  0.00000000000E+00 0. -1.
         23    2    1    2    0    0 -0.91056428113E+01  0.25824124815E+02 -0.26278466242E+01  0.12799300474E+03  0.12500202210E+03 0.  0.
          5    1    3    3  502    0 -0.34496469133E+02  0.48669110089E+02  0.40887710308E+02  0.72474709477E+02  0.47000000000E+01 0.  1.
         -5    1    3    3    0  502  0.25390826322E+02 -0.22844985274E+02 -0.43515556932E+02  0.55518295260E+02  0.47000000000E+01 0.  1.
        -11    1    1    2    0    0 -0.27163627073E+02  0.87533246765E+01 -0.61812773186E+02  0.68083054115E+02  0.00000000000E+00 0. -1.
         11    1    1    2    0    0  0.36269269884E+02 -0.34577449492E+02 -0.10627056964E+02  0.51224938175E+02  0.00000000000E+00 0.  1.
<mgrwt>
<rscale>  0 0.11871950E+03</rscale>
<asrwt>0</asrwt>
<pdfrwt beam="2">  1        2 0.24797590E-01 0.12796603E+03</pdfrwt>
<pdfrwt beam="1">  1       -2 0.13248717E-01 0.12796603E+03</pdfrwt>
<totfact> 0.85828689E+03</totfact>
</mgrwt>
</event>
<event>
 6    1  0.6095443E-006  0.1437319E+03  0.7546771E-02  0.1229092E+00
         -2   -1    0    0    0  501 -0.00000000000E+00  0.00000000000E+00  0.74292890428E+02  0.74292890428E+02  0.00000000000E+00 0.  1.
          2   -1    0    0  501    0  0.00000000000E+00 -0.00000000000E+00 -0.19345835242E+03  0.19345835242E+03  0.00000000000E+00 0. -1.
          5    1    1    2  502    0 -0.49363014755E+02  0.32416729558E+02 -0.63296178839E+02  0.86695143097E+02  0.47000000000E+01 0. -1.
         -5    1    1    2    0  502  0.30729388323E+02 -0.56818086928E+02  0.12091192379E+02  0.65885334044E+02  0.47000000000E+01 0.  1.
        -11    1    1    2    0    0 -0.22382362712E+02  0.41164794626E+02 -0.46215380776E+02  0.65813158999E+02  0.00000000000E+00 0.  1.
         11    1    1    2    0    0  0.41015989143E+02 -0.16763437256E+02 -0.21745094758E+02  0.49357606709E+02  0.00000000000E+00 0. -1.
<mgrwt>
<rscale>  0 0.12890350E+03</rscale>
<asrwt>0</asrwt>
<pdfrwt beam="2">  1        2 0.29762823E-01 0.14373187E+03</pdfrwt>
<pdfrwt beam="1">  1       -2 0.11429676E-01 0.14373187E+03</pdfrwt>
<totfact> 0.89826911E+03</totfact>
</mgrwt>
</event>
<event>
 7    1  0.6095443E-006  0.1252118E+03  0.7546771E-02  0.1250143E+00
         -3   -1    0    0    0  501 -0.00000000000E+00  0.00000000000E+00  0.16715709572E+03  0.16715709572E+03  0.00000000000E+00 0.  1.
          3   -1    0    0  501    0  0.00000000000E+00 -0.00000000000E+00 -0.73653783663E+02  0.73653783663E+02  0.00000000000E+00 0. -1.
         23    2    1    2    0    0  0.69150063279E+01  0.23457820530E+01  0.78815664464E+02  0.14795234690E+03  0.12499867192E+03 0.  0.
          5    1    3    3  502    0 -0.42315577349E+02 -0.11906624590E+01 -0.12202598431E+02  0.44305972193E+02  0.47000000000E+01 0. -1.
         -5    1    3    3    0  502  0.49230583677E+02  0.35364445120E+01  0.91018262895E+02  0.10364637470E+03  0.47000000000E+01 0. -1.
        -11    1    1    2    0    0 -0.39995138644E+02  0.22842484540E+02  0.21321838190E+02  0.50754418516E+02  0.00000000000E+00 0. -1.
         11    1    1    2    0    0  0.33080132317E+02 -0.25188266593E+02 -0.66341905990E+01  0.42104113967E+02  0.00000000000E+00 0.  1.
<mgrwt>
<rscale>  0 0.11582808E+03</rscale>
<asrwt>0</asrwt>
<pdfrwt beam="2">  1        3 0.11331351E-01 0.12521177E+03</pdfrwt>
<pdfrwt beam="1">  1       -3 0.25716476E-01 0.12521177E+03</pdfrwt>
<totfact> 0.19303368E+03</totfact>
</mgrwt>
</event>
<event>
 7    1  0.6095443E-006  0.1203186E+03  0.7546771E-02  0.1250297E+00
          1   -1    0    0  501    0  0.00000000000E+00  0.00000000000E+00  0.59087080962E+02  0.59087080962E+02  0.00000000000E+00 0. -1.
         -1   -1    0    0    0  501 -0.00000000000E+00 -0.00000000000E+00 -0.21180128573E+03  0.21180128573E+03  0.00000000000E+00 0.  1.
         23    2    1    2    0    0  0.33914200540E+02 -0.31817358382E+02 -0.74171450316E+02  0.14134341319E+03  0.11096864024E+03 0.  0.
          5    1    3    3  502    0  0.59937957509E+02 -0.54233637556E+02 -0.32781236393E+02  0.87352994524E+02  0.47000000000E+01 0. -1.
         -5    1    3    3    0  502 -0.26023756969E+02  0.22416279174E+02 -0.41390213923E+02  0.53990418663E+02  0.47000000000E+01 0.  1.
        -11    1    1    2    0    0 -0.20390967574E+02 -0.31235210474E+02 -0.19403844030E+02  0.42046867840E+02  0.00000000000E+00 0. -1.
         11    1    1    2    0    0 -0.13523232966E+02  0.63052568856E+02 -0.59138910425E+02  0.87498085668E+02  0.00000000000E+00 0.  1.
<mgrwt>
<rscale>  0 0.11573878E+03</rscale>
<asrwt>0</asrwt>
<pdfrwt beam="1">  1        1 0.90903203E-02 0.12031856E+03</pdfrwt>
<pdfrwt beam="2">  1       -1 0.32584812E-01 0.12031856E+03</pdfrwt>
<totfact> 0.60901447E+03</totfact>
</mgrwt>
</event>
<event>
 7    1  0.6095443E-006  0.1276897E+03  0.7546771E-02  0.1245523E+00
          2   -1    0    0  501    0  0.00000000000E+00  0.00000000000E+00  0.62079101119E+03  0.62079101119E+03  0.00000000000E+00 0.  1.
         -2   -1    0    0    0  501 -0.00000000000E+00 -0.00000000000E+00 -0.20051473741E+02  0.20051473741E+02  0.00000000000E+00 0. -1.
         23    2    1    2    0    0  0.22101465441E+02  0.13898797989E+02  0.32114748220E+03  0.34560144881E+03  0.12499201870E+03 0.  0.
          5    1    3    3  502    0 -0.34291178722E+02  0.49270988857E+02  0.13383384734E+03  0.14675525195E+03  0.47000000000E+01 0. -1.
         -5    1    3    3    0  502  0.56392644163E+02 -0.35372190868E+02  0.18731363486E+03  0.19884619686E+03  0.47000000000E+01 0. -1.
        -11    1    1    2    0    0 -0.47398066292E+02  0.10503396129E+01  0.24636531848E+03  0.25088553177E+03  0.00000000000E+00 0.  1.
         11    1    1    2    0    0  0.25296600851E+02 -0.14949137602E+02  0.33226736773E+02  0.44355504351E+02  0.00000000000E+00 0. -1.
<mgrwt>
<rscale>  0 0.11854148E+03</rscale>
<asrwt>0</asrwt>
<pdfrwt beam="1">  1        2 0.95506295E-01 0.12768969E+03</pdfrwt>
<pdfrwt beam="2">  1       -2 0.30848426E-02 0.12768969E+03</pdfrwt>
<totfact> 0.18520465E+04</totfact>
</mgrwt>
</event>
<event>
 7    1  0.6095443E-006  0.1487758E+03  0.7546771E-02  0.1213151E+00
         -1   -1    0    0    0  501 -0.00000000000E+00  0.00000000000E+00  0.83060343604E+03  0.83060343604E+03  0.00000000000E+00 0.  1.
          1   -1    0    0  501    0  0.00000000000E+00 -0.00000000000E+00 -0.33577980332E+02  0.33577980332E+02  0.00000000000E+00 0. -1.
         23    2    1    2    0    0  0.51320906505E+02  0.62257443047E+02  0.68895162961E+03  0.70483231112E+03  0.12499765676E+03 0.  0.
          5    1    3    3  502    0 -0.32949711311E+02 -0.34307107811E+01  0.82582036478E+02  0.89102951695E+02  0.47000000000E+01 0. -1.
         -5    1    3    3    0  502  0.84270617816E+02  0.65688153828E+02  0.60636959313E+03  0.61572935943E+03  0.47000000000E+01 0. -1.
        -11    1    1    2    0    0  0.22619378181E+02 -0.12706800053E+02  0.38264833516E+02  0.46230904392E+02  0.00000000000E+00 0.  1.
         11    1    1    2    0    0 -0.73940284685E+02 -0.49550642994E+02  0.69808992576E+02  0.11311820086E+03  0.00000000000E+00 0. -1.
<mgrwt>
<rscale>  0 0.14013208E+03</rscale>
<asrwt>0</asrwt>
<pdfrwt beam="2">  1        1 0.51658438E-02 0.14877580E+03</pdfrwt>
<pdfrwt beam="1">  1       -1 0.12778513E+00 0.14877580E+03</pdfrwt>
<totfact> 0.89192650E+02</totfact>
</mgrwt>
</event>
<event>
 7    1  0.6095443E-006  0.1942935E+03  0.7546771E-02  0.1159278E+00
         -1   -1    0    0    0  501 -0.00000000000E+00  0.00000000000E+00  0.21665867500E+02  0.21665867500E+02  0.00000000000E+00 0.  1.
          1   -1    0    0  501    0  0.00000000000E+00 -0.00000000000E+00 -0.15685475533E+04  0.15685475533E+04  0.00000000000E+00 0. -1.
         23    2    1    2    0    0 -0.57629492111E+02  0.13710099413E+03 -0.79956456776E+03  0.82283258788E+03  0.12502851154E+03 0.  0.
          5    1    3    3  502    0 -0.14654112558E+02  0.11100607929E+03 -0.71948989376E+03  0.72816542755E+03  0.47000000000E+01 0.  1.
         -5    1    3    3    0  502 -0.42975379554E+02  0.26094914833E+02 -0.80074674005E+02  0.94667160330E+02  0.47000000000E+01 0.  1.
        -11    1    1    2    0    0  0.71663921705E+02 -0.57966065616E+02 -0.45335788501E+03  0.46263285047E+03  0.00000000000E+00 0.  1.
         11    1    1    2    0    0 -0.14034429593E+02 -0.79134928510E+02 -0.29395923300E+03  0.30474798242E+03  0.00000000000E+00 0. -1.
<mgrwt>
<rscale>  0 0.18909755E+03</rscale>
<asrwt>0</asrwt>
<pdfrwt beam="2">  1        1 0.24131510E+00 0.19429351E+03</pdfrwt>
<pdfrwt beam="1">  1       -1 0.33332091E-02 0.19429351E+03</pdfrwt>
<totfact> 0.20805055E+03</totfact>
</mgrwt>
</event>
<event>
 7    1  0.6095443E-006  0.1250075E+03  0.7546771E-02  0.1247628E+00
          1   -1    0    0  501    0  0.00000000000E+00  0.00000000000E+00  0.43232687134E+02  0.43232687134E+02  0.00000000000E+00 0. -1.
         -1   -1    0    0    0  501 -0.00000000000E+00 -0.00000000000E+00 -0.47192413051E+03  0.47192413051E+03  0.00000000000E+00 0.  1.
         23    2    1    2    0    0  0.12665947939E+02  0.36138588150E+02 -0.39216221118E+03  0.41160428478E+03  0.11899774609E+03 0.  0.
          5    1    3    3  502    0 -0.39413056274E+02  0.17162291538E+02 -0.55403470818E+02  0.70282059121E+02  0.47000000000E+01 0. -1.
         -5    1    3    3    0  502  0.52079004213E+02  0.18976296612E+02 -0.33675874037E+03  0.34132222565E+03  0.47000000000E+01 0.  1.
        -11    1    1    2    0    0 -0.23262905527E+02  0.24872188344E+02 -0.62600615115E+01  0.34626245778E+02  0.00000000000E+00 0. -1.
         11    1    1    2    0    0  0.10596957588E+02 -0.61010776494E+02 -0.30269170686E+02  0.68926287094E+02  0.00000000000E+00 0.  1.
<mgrwt>
<rscale>  0 0.11729462E+03</rscale>
<asrwt>0</asrwt>
<pdfrwt beam="1">  1        1 0.66511831E-02 0.12500755E+03</pdfrwt>
<pdfrwt beam="2">  1       -1 0.72603708E-01 0.12500755E+03</pdfrwt>
<totfact> 0.21564770E+03</totfact>
</mgrwt>
</event>
<event>
 7    1  0.6095443E-006  0.1870113E+03  0.7546771E-02  0.1166359E+00
          2   -1    0    0  501    0  0.00000000000E+00  0.00000000000E+00  0.10479208410E+03  0.10479208410E+03  0.00000000000E+00 0. -1.
         -2   -1    0    0    0  501 -0.00000000000E+00 -0.00000000000E+00 -0.29716366791E+03  0.29716366791E+03  0.00000000000E+00 0.  1.
         23    2    1    2    0    0 -0.13704929511E+03  0.23626922544E+02 -0.10236186935E+03  0.21319281835E+03  0.12502993538E+03 0.  0.
          5    1    3    3  502    0 -0.85147238043E+01 -0.41190455920E+02 -0.30945075310E+02  0.52429398874E+02  0.47000000000E+01 0.  1.
         -5    1    3    3    0  502 -0.12853457131E+03  0.64817378464E+02 -0.71416794038E+02  0.16076341948E+03  0.47000000000E+01 0.  1.
        -11    1    1    2    0    0  0.51216917298E+02 -0.44091945134E+01  0.13282836138E+02  0.53094701710E+02  0.00000000000E+00 0. -1.
         11    1    1    2    0    0  0.85832377814E+02 -0.19217728030E+02 -0.10329255059E+03  0.13566823195E+03  0.00000000000E+00 0.  1.
<mgrwt>
<rscale>  0 0.18149976E+03</rscale>
<asrwt>0</asrwt>
<pdfrwt beam="1">  1        2 0.16121859E-01 0.18701130E+03</pdfrwt>
<pdfrwt beam="2">  1       -2 0.45717487E-01 0.18701130E+03</pdfrwt>
<totfact> 0.16182247E+03</totfact>
</mgrwt>
</event>
<event>
 7    1  0.6095443E-006  0.1296792E+03  0.7546771E-02  0.1241542E+00
         -3   -1    0    0    0  501 -0.00000000000E+00  0.00000000000E+00  0.88801667620E+02  0.88801667620E+02  0.00000000000E+00 0.  1.
          3   -1    0    0  501    0  0.00000000000E+00 -0.00000000000E+00 -0.14609998762E+03  0.14609998762E+03  0.00000000000E+00 0. -1.
         23    2    1    2    0    0 -0.76763429764E+01 -0.33608848960E+02 -0.32049227623E+02  0.13358084591E+03  0.12501283308E+03 0.  0.
          5    1    3    3  502    0  0.23176870010E+02  0.18183356963E+02 -0.59968214588E+02  0.66978194473E+02  0.47000000000E+01 0. -1.
         -5    1    3    3    0  502 -0.30853212986E+02 -0.51792205923E+02  0.27918986966E+02  0.66602651442E+02  0.47000000000E+01 0. -1.
        -11    1    1    2    0    0  0.34869490562E+02  0.53898687847E+02 -0.16279396668E+02  0.66226646295E+02  0.00000000000E+00 0. -1.
         11    1    1    2    0    0 -0.27193147585E+02 -0.20289838887E+02 -0.89696957098E+01  0.35094163030E+02  0.00000000000E+00 0.  1.
<mgrwt>
<rscale>  0 0.12094750E+03</rscale>
<asrwt>0</asrwt>
<pdfrwt beam="2">  1        3 0.22476921E-01 0.12967918E+03</pdfrwt>
<pdfrwt beam="1">  1       -3 0.13661795E-01 0.12967918E+03</pdfrwt>
<totfact> 0.18069981E+03</totfact>
</mgrwt>
</event>
<event>
 7    1  0.6095443E-006  0.1938294E+03  0.7546771E-02  0.1159820E+00
          2   -1    0    0  501    0  0.00000000000E+00  0.00000000000E+00  0.60700971225E+03  0.60700971225E+03  0.00000000000E+00 0. -1.
         -2   -1    0    0    0  501 -0.00000000000E+00 -0.00000000000E+00 -0.10417792563E+03  0.10417792563E+03  0.00000000000E+00 0.  1.
         23    2    1    2    0    0  0.58249004278E+02 -0.13620719436E+03  0.16098655882E+02  0.19449679110E+03  0.12499795491E+03 0.  0.
          5    1    3    3  502    0  0.88048145283E+02 -0.13085713414E+03  0.30386709610E+02  0.16069072022E+03  0.47000000000E+01 0. -1.
         -5    1    3    3    0  502 -0.29799141005E+02 -0.53500602173E+01 -0.14288053728E+02  0.33806070880E+02  0.47000000000E+01 0. -1.
        -11    1    1    2    0    0  0.26821312677E+01  0.36160791319E+02  0.36426086350E+02  0.51397046839E+02  0.00000000000E+00 0.  1.
         11    1    1    2    0    0 -0.60931135545E+02  0.10004640304E+03  0.45030704439E+03  0.46529379994E+03  0.00000000000E+00 0. -1.
<mgrwt>
<rscale>  0 0.18850110E+03</rscale>
<asrwt>0</asrwt>
<pdfrwt beam="1">  1        2 0.93386107E-01 0.19382940E+03</pdfrwt>
<pdfrwt beam="2">  1       -2 0.16027374E-01 0.19382940E+03</pdfrwt>
<totfact> 0.15186852E+03</totfact>
</mgrwt>
</event>
<event>
 7    1  0.6095443E-006  0.1319753E+03  0.7546771E-02  0.1237198E+00
          1   -1    0    0  501    0  0.00000000000E+00  0.00000000000E+00  0.14316870027E+03  0.14316870027E+03  0.00000000000E+00 0. -1.
         -1   -1    0    0    0  501 -0.00000000000E+00 -0.00000000000E+00 -0.99655098186E+02  0.99655098186E+02  0.00000000000E+00 0.  1.
         23    2    1    2    0    0 -0.10236800913E+02  0.41084034924E+02 -0.61117706789E+00  0.13197670319E+03  0.12499914651E+03 0.  0.
          5    1    3    3  502    0 -0.46719278464E+02 -0.40751126183E+01  0.39302667696E+02  0.61368454527E+02  0.47000000000E+01 0. -1.
         -5    1    3    3    0  502  0.36482477551E+02  0.45159147543E+02 -0.39913844763E+02  0.70608248660E+02  0.47000000000E+01 0. -1.
        -11    1    1    2    0    0  0.34577170665E+02 -0.68579853898E+01 -0.15011976035E+02  0.38314124279E+02  0.00000000000E+00 0.  1.
         11    1    1    2    0    0 -0.24340369752E+02 -0.34226049534E+02  0.59136755187E+02  0.72532970989E+02  0.00000000000E+00 0. -1.
<mgrwt>
<rscale>  0 0.12364739E+03</rscale>
<asrwt>0</asrwt>
<pdfrwt beam="1">  1        1 0.22025954E-01 0.13197529E+03</pdfrwt>
<pdfrwt beam="2">  1       -1 0.15331554E-01 0.13197529E+03</pdfrwt>
<totfact> 0.66239573E+03</totfact>
</mgrwt>
</event>
<event>
 6    1  0.6095443E-006  0.3613531E+03  0.7546771E-02  0.1094845E+00
         -2   -1    0    0    0  501 -0.00000000000E+00  0.00000000000E+00  0.85694228390E+03  0.85694228390E+03  0.00000000000E+00 0.  1.
          2   -1    0    0  501    0  0.00000000000E+00 -0.00000000000E+00 -0.71375824032E+02  0.71375824032E+02  0.00000000000E+00 0. -1.
          5    1    1    2  502    0  0.60235219076E+01 -0.15353262234E+03  0.11235489809E+03  0.19040552004E+03  0.47000000000E+01 0. -1.
         -5    1    1    2    0  502  0.87025273291E+02  0.12841625872E+03  0.46989972433E+03  0.49486561269E+03  0.47000000000E+01 0.  1.
        -11    1    1    2    0    0  0.18723707515E+02  0.29015099348E+01  0.23848816264E+02  0.30459186138E+02  0.00000000000E+00 0. -1.
         11    1    1    2    0    0 -0.11177250271E+03  0.22214853678E+02  0.17946302118E+03  0.21258778906E+03  0.00000000000E+00 0.  1.
<mgrwt>
<rscale>  0 0.28155044E+03</rscale>
<asrwt>0</asrwt>
<pdfrwt beam="2">  1        2 0.10980897E-01 0.36135312E+03</pdfrwt>
<pdfrwt beam="1">  1       -2 0.13183727E+00 0.36135312E+03</pdfrwt>
<totfact> 0.25133567E+02</totfact>
</mgrwt>
</event>
<event>
 7    1  0.6095443E-006  0.1283071E+03  0.7546771E-02  0.1244789E+00
          1   -1    0    0  501    0  0.00000000000E+00  0.00000000000E+00  0.60527320319E+03  0.60527320319E+03  0.00000000000E+00 0. -1.
         -1   -1    0    0    0  501 -0.00000000000E+00 -0.00000000000E+00 -0.21509163051E+02  0.21509163051E+02  0.00000000000E+00 0.  1.
         23    2    1    2    0    0 -0.96603221888E+00 -0.28886473221E+02  0.26903459083E+03  0.29806430079E+03  0.12500941881E+03 0.  0.
          5    1    3    3  502    0  0.11101501383E+02  0.25014622311E+02  0.49271820775E+01  0.28201804650E+02  0.47000000000E+01 0. -1.
         -5    1    3    3    0  502 -0.12067533602E+02 -0.53901095532E+02  0.26410740875E+03  0.26986249614E+03  0.47000000000E+01 0. -1.
        -11    1    1    2    0    0  0.27972747312E+02  0.52081062263E+02  0.20542596854E+03  0.21376328073E+03  0.00000000000E+00 0.  1.
         11    1    1    2    0    0 -0.27006715093E+02 -0.23194589042E+02  0.10930348077E+03  0.11495478472E+03  0.00000000000E+00 0. -1.
<mgrwt>
<rscale>  0 0.11898002E+03</rscale>
<asrwt>0</asrwt>
<pdfrwt beam="1">  1        1 0.93118941E-01 0.12830712E+03</pdfrwt>
<pdfrwt beam="2">  1       -1 0.33091025E-02 0.12830712E+03</pdfrwt>
<totfact> 0.10769480E+04</totfact>
</mgrwt>
</event>
<event>
 7    1  0.6095443E-006  0.3494299E+03  0.7546771E-02  0.1063969E+00
         -2   -1    0    0    0  501 -0.00000000000E+00  0.00000000000E+00  0.82372343673E+03  0.82372343673E+03  0.00000000000E+00 0.  1.
          2   -1    0    0  501    0  0.00000000000E+00 -0.00000000000E+00 -0.16901147229E+03  0.16901147229E+03  0.00000000000E+00 0. -1.
         23    2    1    2    0    0 -0.10542223830E+03  0.30880759105E+03  0.52368320793E+03  0.62955967935E+03  0.12500124390E+03 0.  0.
          5    1    3    3  502    0  0.74869203430E+01 -0.15881439784E+01 -0.15234760086E+01  0.91097286824E+01  0.47000000000E+01 0.  1.
         -5    1    3    3    0  502 -0.11290915864E+03  0.31039573503E+03  0.52520668394E+03  0.62044995067E+03  0.47000000000E+01 0.  1.
        -11    1    1    2    0    0  0.96790665225E+02 -0.22603415695E+03  0.13374938772E+03  0.27990850595E+03  0.00000000000E+00 0.  1.
         11    1    1    2    0    0  0.86315730731E+01 -0.82773434099E+02 -0.27206312136E+01  0.83266723728E+02  0.00000000000E+00 0. -1.
<mgrwt>
<rscale>  0 0.34671979E+03</rscale>
<asrwt>0</asrwt>
<pdfrwt beam="2">  1        2 0.26001765E-01 0.34942995E+03</pdfrwt>
<pdfrwt beam="1">  1       -2 0.12672668E+00 0.34942995E+03</pdfrwt>
<totfact> 0.99955914E+01</totfact>
</mgrwt>
</event>
<event>
 7    1  0.6095443E-006  0.1431280E+03  0.7546771E-02  0.1219873E+00
          1   -1    0    0  501    0  0.00000000000E+00  0.00000000000E+00  0.52614218223E+03  0.52614218223E+03  0.00000000000E+00 0. -1.
         -1   -1    0    0    0  501 -0.00000000000E+00 -0.00000000000E+00 -0.45587674484E+02  0.45587674484E+02  0.00000000000E+00 0.  1.
         23    2    1    2    0    0  0.56220841159E+02  0.41226189704E+02  0.10043152340E+03  0.17484886789E+03  0.12500101604E+03 0.  0.
          5    1    3    3  502    0  0.87097205818E+02  0.71819352383E+01  0.93606313793E+02  0.12814731927E+03  0.47000000000E+01 0. -1.
         -5    1    3    3    0  502 -0.30876364659E+02  0.34044254465E+02  0.68252096043E+01  0.46701548613E+02  0.47000000000E+01 0. -1.
        -11    1    1    2    0    0 -0.39734812061E+02  0.12264171704E+02  0.67459032948E+02  0.79246364733E+02  0.00000000000E+00 0.  1.
         11    1    1    2    0    0 -0.16486029098E+02 -0.53490361407E+02  0.31266395140E+03  0.31763462409E+03  0.00000000000E+00 0. -1.
<mgrwt>
<rscale>  0 0.13524594E+03</rscale>
<asrwt>0</asrwt>
<pdfrwt beam="1">  1        1 0.80944947E-01 0.14312804E+03</pdfrwt>
<pdfrwt beam="2">  1       -1 0.70134887E-02 0.14312804E+03</pdfrwt>
<totfact> 0.43083852E+03</totfact>
</mgrwt>
</event>
<event>
 7    1  0.6095443E-006  0.1312149E+03  0.7546771E-02  0.1238554E+00
         -2   -1    0    0    0  501 -0.00000000000E+00  0.00000000000E+00  0.12587077013E+03  0.12587077013E+03  0.00000000000E+00 0. -1.
          2   -1    0    0  501    0  0.00000000000E+00 -0.00000000000E+00 -0.12011914424E+03  0.12011914424E+03  0.00000000000E+00 0.  1.
         23    2    1    2    0    0  0.17820537562E+02  0.35720058448E+02  0.43891018577E+02  0.13836106397E+03  0.12499547343E+03 0.  0.
          5    1    3    3  502    0 -0.34306873362E+02  0.62632491323E+02  0.16491237046E+02  0.73442776558E+02  0.47000000000E+01 0.  1.
         -5    1    3    3    0  502  0.52127410924E+02 -0.26912432875E+02  0.27399781531E+02  0.64918287414E+02  0.47000000000E+01 0.  1.
        -11    1    1    2    0    0 -0.34539492679E+02 -0.33089227564E+02 -0.62042896210E+02  0.78340248311E+02  0.00000000000E+00 0.  1.
         11    1    1    2    0    0  0.16718955117E+02 -0.26308308842E+01  0.23903503528E+02  0.29288602088E+02  0.00000000000E+00 0. -1.
<mgrwt>
<rscale>  0 0.12279628E+03</rscale>
<asrwt>0</asrwt>
<pdfrwt beam="2">  1        2 0.18479868E-01 0.13121495E+03</pdfrwt>
<pdfrwt beam="1">  1       -2 0.19364734E-01 0.13121495E+03</pdfrwt>
<totfact> 0.64031955E+03</totfact>
</mgrwt>
</event>
<event>
 7    1  0.6095443E-006  0.1638410E+03  0.7546771E-02  0.1191418E+00
          3   -1    0    0  501    0  0.00000000000E+00  0.00000000000E+00  0.13803040254E+03  0.13803040254E+03  0.00000000000E+00 0. -1.
         -3   -1    0    0    0  501 -0.00000000000E+00 -0.00000000000E+00 -0.24086199205E+03  0.24086199205E+03  0.00000000000E+00 0.  1.
         23    2    1    2    0    0 -0.10578079081E+03  0.54602240187E+01 -0.15847984216E+03  0.22794677060E+03  0.12499792041E+03 0.  0.
          5    1    3    3  502    0 -0.31882357319E+02 -0.42756063032E+02 -0.12032363545E+03  0.13169826453E+03  0.47000000000E+01 0. -1.
         -5    1    3    3    0  502 -0.73898433496E+02  0.48216287051E+02 -0.38156206714E+02  0.96248506071E+02  0.47000000000E+01 0. -1.
        -11    1    1    2    0    0  0.31312077272E+02  0.37809933312E+02  0.40183725595E+02  0.63441067479E+02  0.00000000000E+00 0. -1.
         11    1    1    2    0    0  0.74468713543E+02 -0.43270157331E+02  0.15464527063E+02  0.87504556507E+02  0.00000000000E+00 0.  1.
<mgrwt>
<rscale>  0 0.15761288E+03</rscale>
<asrwt>0</asrwt>
<pdfrwt beam="1">  1        3 0.21235447E-01 0.16384099E+03</pdfrwt>
<pdfrwt beam="2">  1       -3 0.37055691E-01 0.16384099E+03</pdfrwt>
<totfact> 0.34617633E+02</totfact>
</mgrwt>
</event>
<event>
 7    1  0.6095443E-006  0.1276512E+03  0.7546771E-02  0.1244323E+00
         -1   -1    0    0    0  501 -0.00000000000E+00  0.00000000000E+00  0.19276135965E+02  0.19276135965E+02  0.00000000000E+00 0.  1.
          1   -1    0    0  501    0  0.00000000000E+00 -0.00000000000E+00 -0.67606206067E+03  0.67606206067E+03  0.00000000000E+00 0. -1.
         23    2    1    2    0    0 -0.78008243827E+01 -0.24657896463E+02 -0.31212442873E+03  0.33721875122E+03  0.12500384973E+03 0.  0.
          5    1    3    3  502    0  0.38307462435E+02  0.59632534731E+00 -0.26648877044E+02  0.46904903047E+02  0.47000000000E+01 0. -1.
         -5    1    3    3    0  502 -0.46108286818E+02 -0.25254221810E+02 -0.28547555168E+03  0.29031384817E+03  0.47000000000E+01 0. -1.
        -11    1    1    2    0    0  0.13860572530E+02 -0.31666355401E+02 -0.19610737583E+03  0.19913055113E+03  0.00000000000E+00 0. -1.
         11    1    1    2    0    0 -0.60597481470E+01  0.56324251864E+02 -0.14855412014E+03  0.15898889429E+03  0.00000000000E+00 0.  1.
<mgrwt>
<rscale>  0 0.11925965E+03</rscale>
<asrwt>0</asrwt>
<pdfrwt beam="2">  1        1 0.10400953E+00 0.12765119E+03</pdfrwt>
<pdfrwt beam="1">  1       -1 0.29655598E-02 0.12765119E+03</pdfrwt>
<totfact> 0.10835061E+04</totfact>
</mgrwt>
</event>
<event>
 7    1  0.7395762E-006  0.2136033E+03  0.7546771E-02  0.1142324E+00
         -3   -1    0    0    0  501 -0.00000000000E+00  0.00000000000E+00  0.82006445580E+02  0.82006445580E+02  0.00000000000E+00 0.  1.
          3   -1    0    0  501    0  0.00000000000E+00 -0.00000000000E+00 -0.60703987646E+03  0.60703987646E+03  0.00000000000E+00 0. -1.
         23    2    1    2    0    0 -0.17585484369E+02 -0.17231178888E+03 -0.13535981756E+03  0.25288071626E+03  0.12500309834E+03 0.  0.
          5    1    3    3  502    0 -0.41925600154E+01  0.11208659109E+02  0.11619831663E+02  0.17329803415E+02  0.47000000000E+01 0. -1.
         -5    1    3    3    0  502 -0.13392924354E+02 -0.18352044799E+03 -0.14697964923E+03  0.23555091284E+03  0.47000000000E+01 0. -1.
        -11    1    1    2    0    0  0.40046037906E+02  0.63000417082E+02 -0.93368451810E+02  0.11954248407E+03  0.00000000000E+00 0.  1.
         11    1    1    2    0    0 -0.22460553537E+02  0.10931137180E+03 -0.29630516151E+03  0.31662312171E+03  0.00000000000E+00 0. -1.
<mgrwt>
<rscale>  0 0.20904520E+03</rscale>
<asrwt>0</asrwt>
<pdfrwt beam="2">  1        3 0.93390752E-01 0.21360332E+03</pdfrwt>
<pdfrwt beam="1">  1       -3 0.12616376E-01 0.21360332E+03</pdfrwt>
<totfact> 0.12987588E+02</totfact>
</mgrwt>
</event>
<event>
 7    1  0.6095443E-006  0.2445750E+03  0.7546771E-02  0.1119269E+00
          1   -1    0    0  501    0  0.00000000000E+00  0.00000000000E+00  0.85770124869E+03  0.85770124869E+03  0.00000000000E+00 0. -1.
         -1   -1    0    0    0  501 -0.00000000000E+00 -0.00000000000E+00 -0.72327171283E+02  0.72327171283E+02  0.00000000000E+00 0.  1.
         23    2    1    2    0    0 -0.94255610608E+02  0.18790383935E+03  0.26188572518E+03  0.35833091044E+03  0.12499974139E+03 0.  0.
          5    1    3    3  502    0  0.35981070179E+01 -0.15727501510E+02  0.85396330856E+01  0.18849827880E+02  0.47000000000E+01 0. -1.
         -5    1    3    3    0  502 -0.97853717626E+02  0.20363134086E+03  0.25334609210E+03  0.33948108256E+03  0.47000000000E+01 0. -1.
        -11    1    1    2    0    0 -0.47507545087E+01 -0.48457116375E+02  0.19934813673E+03  0.20520804422E+03  0.00000000000E+00 0. -1.
         11    1    1    2    0    0  0.99006365117E+02 -0.13944672298E+03  0.32414021550E+03  0.36648946531E+03  0.00000000000E+00 0.  1.
<mgrwt>
<rscale>  0 0.24078873E+03</rscale>
<asrwt>0</asrwt>
<pdfrwt beam="1">  1        1 0.13195403E+00 0.24457495E+03</pdfrwt>
<pdfrwt beam="2">  1       -1 0.11127258E-01 0.24457495E+03</pdfrwt>
<totfact> 0.10669683E+03</totfact>
</mgrwt>
</event>
<event>
 7    1  0.7016445E-006  0.1304820E+03  0.7546771E-02  0.1240519E+00
          1   -1    0    0  501    0  0.00000000000E+00  0.00000000000E+00  0.69843591675E+02  0.69843591675E+02  0.00000000000E+00 0. -1.
         -1   -1    0    0    0  501 -0.00000000000E+00 -0.00000000000E+00 -0.21070066469E+03  0.21070066469E+03  0.00000000000E+00 0.  1.
         23    2    1    2    0    0 -0.37343802426E+02 -0.23628994774E+01 -0.12544019308E+03  0.18099944324E+03  0.12500165415E+03 0.  0.
          5    1    3    3  502    0 -0.16834933232E+02  0.34383062592E+02 -0.13256367651E+03  0.13806095864E+03  0.47000000000E+01 0. -1.
         -5    1    3    3    0  502 -0.20508869194E+02 -0.36745962070E+02  0.71234834248E+01  0.42938484605E+02  0.47000000000E+01 0. -1.
        -11    1    1    2    0    0  0.19974446467E+02  0.46543450273E+02 -0.11304752419E+02  0.51894784923E+02  0.00000000000E+00 0.  1.
         11    1    1    2    0    0  0.17369355960E+02 -0.44180550796E+02 -0.41121275160E+01  0.47650028203E+02  0.00000000000E+00 0. -1.
<mgrwt>
<rscale>  0 0.12157651E+03</rscale>
<asrwt>0</asrwt>
<pdfrwt beam="1">  1        1 0.10745168E-01 0.13048202E+03</pdfrwt>
<pdfrwt beam="2">  1       -1 0.32415487E-01 0.13048202E+03</pdfrwt>
<totfact> 0.49526549E+03</totfact>
</mgrwt>
</event>
<event>
 7    1  0.6095443E-006  0.1823776E+03  0.7546771E-02  0.1170948E+00
         -3   -1    0    0    0  501 -0.00000000000E+00  0.00000000000E+00  0.10453838951E+04  0.10453838951E+04  0.00000000000E+00 0.  1.
          3   -1    0    0  501    0  0.00000000000E+00 -0.00000000000E+00 -0.42652899329E+02  0.42652899329E+02  0.00000000000E+00 0. -1.
         23    2    1    2    0    0  0.13174760610E+03  0.16738629866E+02  0.83822677290E+03  0.85783781391E+03  0.12499591486E+03 0.  0.
          5    1    3    3  502    0  0.14088141062E+03 -0.20889654806E+02  0.62129206106E+03  0.63742439919E+03  0.47000000000E+01 0. -1.
         -5    1    3    3    0  502 -0.91338045229E+01  0.37628284671E+02  0.21693471183E+03  0.22041341472E+03  0.47000000000E+01 0. -1.
        -11    1    1    2    0    0 -0.56583747942E+02  0.21757560110E+01  0.10220045346E+02  0.57540453355E+02  0.00000000000E+00 0. -1.
         11    1    1    2    0    0 -0.75163858155E+02 -0.18914385877E+02  0.15428417750E+03  0.17265852714E+03  0.00000000000E+00 0.  1.
<mgrwt>
<rscale>  0 0.17678842E+03</rscale>
<asrwt>0</asrwt>
<pdfrwt beam="2">  1        3 0.65619853E-02 0.18237761E+03</pdfrwt>
<pdfrwt beam="1">  1       -3 0.16082827E+00 0.18237761E+03</pdfrwt>
<totfact> 0.10240248E+02</totfact>
</mgrwt>
</event>
<event>
 7    1  0.6095443E-006  0.1841371E+03  0.7546771E-02  0.1169053E+00
          1   -1    0    0  501    0  0.00000000000E+00  0.00000000000E+00  0.11821503430E+03  0.11821503430E+03  0.00000000000E+00 0. -1.
         -1   -1    0    0    0  501 -0.00000000000E+00 -0.00000000000E+00 -0.25980367843E+03  0.25980367843E+03  0.00000000000E+00 0.  1.
         23    2    1    2    0    0  0.12958810458E+03  0.38591155099E+02 -0.99494296658E+02  0.20929787560E+03  0.12499652620E+03 0.  0.
          5    1    3    3  502    0  0.10462852448E+03  0.68037649780E+02 -0.28123125960E+02  0.12802050671E+03  0.47000000000E+01 0.  1.
         -5    1    3    3    0  502  0.24959580092E+02 -0.29446494681E+02 -0.71371170698E+02  0.81277368893E+02  0.47000000000E+01 0.  1.
        -11    1    1    2    0    0 -0.12765930594E+03 -0.16913601044E+02 -0.89701725175E+01  0.12908691757E+03  0.00000000000E+00 0. -1.
         11    1    1    2    0    0 -0.19287986404E+01 -0.21677554055E+02 -0.33124174957E+02  0.39633919571E+02  0.00000000000E+00 0.  1.
<mgrwt>
<rscale>  0 0.17871432E+03</rscale>
<asrwt>0</asrwt>
<pdfrwt beam="1">  1        1 0.18186928E-01 0.18413714E+03</pdfrwt>
<pdfrwt beam="2">  1       -1 0.39969797E-01 0.18413714E+03</pdfrwt>
<totfact> 0.17639271E+03</totfact>
</mgrwt>
</event>
<event>
 6    1  0.6095443E-006  0.3010765E+03  0.7546771E-02  0.1089320E+00
          1   -1    0    0  501    0  0.00000000000E+00  0.00000000000E+00  0.79499897724E+03  0.79499897724E+03  0.00000000000E+00 0. -1.
         -1   -1    0    0    0  501 -0.00000000000E+00 -0.00000000000E+00 -0.12250912170E+03  0.12250912170E+03  0.00000000000E+00 0.  1.
          5    1    1    2  502    0 -0.42427973866E+01  0.28299550405E+02  0.10625153655E+01  0.29018697795E+02  0.47000000000E+01 0. -1.
         -5    1    1    2    0  502  0.22520667525E+03 -0.14573792567E+03  0.16133161723E+03  0.31306160779E+03  0.47000000000E+01 0.  1.
        -11    1    1    2    0    0 -0.20062392011E+02  0.14913990952E+02  0.13849290938E+03  0.14073099391E+03  0.00000000000E+00 0.  1.
         11    1    1    2    0    0 -0.20090148585E+03  0.10252438431E+03  0.37160281357E+03  0.43469679945E+03  0.00000000000E+00 0. -1.
<mgrwt>
<rscale>  0 0.29198019E+03</rscale>
<asrwt>0</asrwt>
<pdfrwt beam="1">  1        1 0.12230753E+00 0.30107654E+03</pdfrwt>
<pdfrwt beam="2">  1       -1 0.18847558E-01 0.30107654E+03</pdfrwt>
<totfact> 0.51856051E+02</totfact>
</mgrwt>
</event>
<event>
 7    1  0.6095443E-006  0.1559746E+03  0.7546771E-02  0.1201366E+00
         -1   -1    0    0    0  501 -0.00000000000E+00  0.00000000000E+00  0.51084288975E+02  0.51084288975E+02  0.00000000000E+00 0.  1.
          1   -1    0    0  501    0  0.00000000000E+00 -0.00000000000E+00 -0.40277487222E+03  0.40277487222E+03  0.00000000000E+00 0. -1.
         23    2    1    2    0    0 -0.67854193750E+02  0.63913739055E+02 -0.19556344557E+03  0.25014622579E+03  0.12505564915E+03 0.  0.
          5    1    3    3  502    0 -0.38357383054E+02 -0.29795213759E+02 -0.29149237288E+02  0.56840228994E+02  0.47000000000E+01 0. -1.
         -5    1    3    3    0  502 -0.29496810697E+02  0.93708952814E+02 -0.16641420828E+03  0.19330599680E+03  0.47000000000E+01 0. -1.
        -11    1    1    2    0    0  0.54644243067E+02 -0.80347821202E+00 -0.11475345917E+03  0.12710230237E+03  0.00000000000E+00 0.  1.
         11    1    1    2    0    0  0.13209950683E+02 -0.63110260843E+02 -0.41373678509E+02  0.76610633036E+02  0.00000000000E+00 0. -1.
<mgrwt>
<rscale>  0 0.14927557E+03</rscale>
<asrwt>0</asrwt>
<pdfrwt beam="2">  1        1 0.61965366E-01 0.15597459E+03</pdfrwt>
<pdfrwt beam="1">  1       -1 0.78591212E-02 0.15597459E+03</pdfrwt>
<totfact> 0.51458883E+03</totfact>
</mgrwt>
</event>
<event>
 7    1  0.6095443E-006  0.1489519E+03  0.7546771E-02  0.1210838E+00
         -1   -1    0    0    0  501 -0.00000000000E+00  0.00000000000E+00  0.41516971915E+02  0.41516971915E+02  0.00000000000E+00 0. -1.
          1   -1    0    0  501    0  0.00000000000E+00 -0.00000000000E+00 -0.52141878700E+03  0.52141878700E+03  0.00000000000E+00 0.  1.
         23    2    1    2    0    0 -0.32963592439E+02 -0.73980644381E+02 -0.15174188719E+03  0.21263176315E+03  0.12500772856E+03 0.  0.
          5    1    3    3  502    0  0.45020269617E+02 -0.42073521629E+02 -0.44429705848E+02  0.76112381781E+02  0.47000000000E+01 0. -1.
         -5    1    3    3    0  502 -0.77983862056E+02 -0.31907122752E+02 -0.10731218134E+03  0.13651938136E+03  0.47000000000E+01 0. -1.
        -11    1    1    2    0    0 -0.10098151772E+02  0.15463714112E+02 -0.50786831485E+01  0.19154428884E+02  0.00000000000E+00 0. -1.
         11    1    1    2    0    0  0.43061744211E+02  0.58516930269E+02 -0.32308124475E+03  0.33114956689E+03  0.00000000000E+00 0.  1.
<mgrwt>
<rscale>  0 0.14186738E+03</rscale>
<asrwt>0</asrwt>
<pdfrwt beam="2">  1        1 0.80218268E-01 0.14895189E+03</pdfrwt>
<pdfrwt beam="1">  1       -1 0.63872270E-02 0.14895189E+03</pdfrwt>
<totfact> 0.50259370E+03</totfact>
</mgrwt>
</event>
<event>
 7    1  0.6095443E-006  0.2576870E+03  0.7546771E-02  0.1110860E+00
         -2   -1    0    0    0  501 -0.00000000000E+00  0.00000000000E+00  0.86534068357E+02  0.86534068357E+02  0.00000000000E+00 0.  1.
          2   -1    0    0  501    0  0.00000000000E+00 -0.00000000000E+00 -0.11971897540E+04  0.11971897540E+04  0.00000000000E+00 0. -1.
         23    2    1    2    0    0 -0.17581126812E+03 -0.14095743154E+03 -0.16180325838E+03  0.30427439202E+03  0.12499604679E+03 0.  0.
          5    1    3    3  502    0 -0.51690793126E+02  0.18460436227E+02 -0.27030011093E+02  0.61363159137E+02  0.47000000000E+01 0.  1.
         -5    1    3    3    0  502 -0.12412047499E+03 -0.15941786777E+03 -0.13477324729E+03  0.24291123288E+03  0.47000000000E+01 0.  1.
        -11    1    1    2    0    0  0.32031291291E+02 -0.10781903260E+02 -0.13995657306E+03  0.14397949647E+03  0.00000000000E+00 0.  1.
         11    1    1    2    0    0  0.14377997682E+03  0.15173933480E+03 -0.80889585417E+03  0.83546993384E+03  0.00000000000E+00 0. -1.
<mgrwt>
<rscale>  0 0.25390788E+03</rscale>
<asrwt>0</asrwt>
<pdfrwt beam="2">  1        2 0.18418305E+00 0.25768704E+03</pdfrwt>
<pdfrwt beam="1">  1       -2 0.13312933E-01 0.25768704E+03</pdfrwt>
<totfact> 0.83949117E+02</totfact>
</mgrwt>
</event>
<event>
 7    1  0.6095443E-006  0.1897333E+03  0.7546771E-02  0.1163714E+00
         -2   -1    0    0    0  501 -0.00000000000E+00  0.00000000000E+00  0.25433180213E+02  0.25433180213E+02  0.00000000000E+00 0.  1.
          2   -1    0    0  501    0  0.00000000000E+00 -0.00000000000E+00 -0.12806936563E+04  0.12806936563E+04  0.00000000000E+00 0. -1.
         23    2    1    2    0    0  0.80908103809E+02  0.11759809991E+03 -0.73777418315E+03  0.76178046792E+03  0.12499320628E+03 0.  0.
          5    1    3    3  502    0  0.60581137144E+02  0.10874487585E+03 -0.72528165437E+03  0.73590154937E+03  0.47000000000E+01 0.  1.
         -5    1    3    3    0  502  0.20326966665E+02  0.88532240544E+01 -0.12492528785E+02  0.25878918552E+02  0.47000000000E+01 0.  1.
        -11    1    1    2    0    0 -0.26870536482E+02 -0.70178055695E+02 -0.12923456402E+03  0.14949434026E+03  0.00000000000E+00 0.  1.
         11    1    1    2    0    0 -0.54037567327E+02 -0.47420044211E+02 -0.38825172895E+03  0.39485202837E+03  0.00000000000E+00 0. -1.
<mgrwt>
<rscale>  0 0.18429058E+03</rscale>
<asrwt>0</asrwt>
<pdfrwt beam="2">  1        2 0.19702986E+00 0.18973333E+03</pdfrwt>
<pdfrwt beam="1">  1       -2 0.39127957E-02 0.18973333E+03</pdfrwt>
<totfact> 0.50660460E+03</totfact>
</mgrwt>
</event>
<event>
 7    1  0.6095443E-006  0.1441146E+03  0.7546771E-02  0.1218147E+00
          3   -1    0    0  501    0  0.00000000000E+00  0.00000000000E+00  0.32293587214E+03  0.32293587214E+03  0.00000000000E+00 0. -1.
         -3   -1    0    0    0  501 -0.00000000000E+00 -0.00000000000E+00 -0.52414121919E+02  0.52414121919E+02  0.00000000000E+00 0.  1.
         23    2    1    2    0    0 -0.15161327479E+02  0.70095585575E+02  0.14309494047E+03  0.20308907591E+03  0.12500301515E+03 0.  0.
          5    1    3    3  502    0  0.19678516827E+02 -0.29461789283E+02  0.20143842276E+02  0.41025667988E+02  0.47000000000E+01 0.  1.
         -5    1    3    3    0  502 -0.34839844306E+02  0.99557374858E+02  0.12295109820E+03  0.16206340792E+03  0.47000000000E+01 0.  1.
        -11    1    1    2    0    0  0.18143127475E+02 -0.90291435446E+02  0.11823902972E+03  0.14987389546E+03  0.00000000000E+00 0. -1.
         11    1    1    2    0    0 -0.29817999968E+01  0.20195849870E+02  0.91877800254E+01  0.22387022692E+02  0.00000000000E+00 0.  1.
<mgrwt>
<rscale>  0 0.13647893E+03</rscale>
<asrwt>0</asrwt>
<pdfrwt beam="1">  1        3 0.49682441E-01 0.14411458E+03</pdfrwt>
<pdfrwt beam="2">  1       -3 0.80637113E-02 0.14411458E+03</pdfrwt>
<totfact> 0.99258777E+02</totfact>
</mgrwt>
</event>
<event>
 7    1  0.6095443E-006  0.1463651E+03  0.7546771E-02  0.1214760E+00
          2   -1    0    0  501    0  0.00000000000E+00  0.00000000000E+00  0.55471883511E+03  0.55471883511E+03  0.00000000000E+00 0. -1.
         -2   -1    0    0    0  501 -0.00000000000E+00 -0.00000000000E+00 -0.33332860764E+02  0.33332860764E+02  0.00000000000E+00 0.  1.
         23    2    1    2    0    0  0.61706791207E+02 -0.44596232371E+02  0.22169442521E+03  0.26565232235E+03  0.12500474461E+03 0.  0.
          5    1    3    3  502    0 -0.28319727698E+02 -0.61117468363E+01  0.12337909061E+03  0.12682212120E+03  0.47000000000E+01 0.  1.
         -5    1    3    3    0  502  0.90026518904E+02 -0.38484485534E+02  0.98315334608E+02  0.13883020115E+03  0.47000000000E+01 0.  1.
        -11    1    1    2    0    0  0.15050374216E+02 -0.14999477520E+02  0.43936345300E+02  0.48804718299E+02  0.00000000000E+00 0.  1.
         11    1    1    2    0    0 -0.76757165422E+02  0.59595709890E+02  0.25575520383E+03  0.27359465522E+03  0.00000000000E+00 0. -1.
<mgrwt>
<rscale>  0 0.13894144E+03</rscale>
<asrwt>0</asrwt>
<pdfrwt beam="1">  1        2 0.85341352E-01 0.14636509E+03</pdfrwt>
<pdfrwt beam="2">  1       -2 0.51281328E-02 0.14636509E+03</pdfrwt>
<totfact> 0.99833170E+03</totfact>
</mgrwt>
</event>
<event>
 7    1  0.6095443E-006  0.1796987E+03  0.7546771E-02  0.1173425E+00
          1   -1    0    0  501    0  0.00000000000E+00  0.00000000000E+00  0.53005900613E+03  0.53005900613E+03  0.00000000000E+00 0. -1.
         -1   -1    0    0    0  501 -0.00000000000E+00 -0.00000000000E+00 -0.59109812959E+02  0.59109812959E+02  0.00000000000E+00 0.  1.
         23    2    1    2    0    0 -0.10053540242E+03 -0.80995512497E+02  0.16328891470E+03  0.24280626294E+03  0.12499588583E+03 0.  0.
          5    1    3    3  502    0 -0.20501638721E+02 -0.46693130845E+02 -0.68050957438E+01  0.51662026542E+02  0.47000000000E+01 0. -1.
         -5    1    3    3    0  502 -0.80033763702E+02 -0.34302381652E+02  0.17009401044E+03  0.19114423640E+03  0.47000000000E+01 0. -1.
        -11    1    1    2    0    0  0.51685055763E+02  0.12334131548E+02  0.21345267420E+03  0.21996708825E+03  0.00000000000E+00 0. -1.
         11    1    1    2    0    0  0.48850346659E+02  0.68661380949E+02  0.94207604267E+02  0.12639546789E+03  0.00000000000E+00 0.  1.
<mgrwt>
<rscale>  0 0.17431101E+03</rscale>
<asrwt>0</asrwt>
<pdfrwt beam="1">  1        1 0.81547536E-01 0.17969867E+03</pdfrwt>
<pdfrwt beam="2">  1       -1 0.90938177E-02 0.17969867E+03</pdfrwt>
<totfact> 0.29040922E+03</totfact>
</mgrwt>
</event>
<event>
 6    1  0.6095443E-006  0.2933219E+03  0.7546771E-02  0.1104474E+00
          2   -1    0    0  501    0  0.00000000000E+00  0.00000000000E+00  0.56203783233E+03  0.56203783233E+03  0.00000000000E+00 0. -1.
         -2   -1    0    0    0  501 -0.00000000000E+00 -0.00000000000E+00 -0.11206302804E+03  0.11206302804E+03  0.00000000000E+00 0.  1.
          5    1    1    2  502    0  0.26514695826E+02 -0.31598798693E+01  0.19570434715E+03  0.19757351905E+03  0.47000000000E+01 0. -1.
         -5    1    1    2    0  502  0.12443846088E+03  0.85676200444E+02 -0.68129257686E+01  0.15130713078E+03  0.47000000000E+01 0.  1.
        -11    1    1    2    0    0 -0.85768694682E+02 -0.83653608652E+02  0.11885711558E+03  0.16876376729E+03  0.00000000000E+00 0. -1.
         11    1    1    2    0    0 -0.65184462023E+02  0.11372880769E+01  0.14222626734E+03  0.15645644325E+03  0.00000000000E+00 0.  1.
<mgrwt>
<rscale>  0 0.26449175E+03</rscale>
<asrwt>0</asrwt>
<pdfrwt beam="1">  1        2 0.86467357E-01 0.29332190E+03</pdfrwt>
<pdfrwt beam="2">  1       -2 0.17240466E-01 0.29332190E+03</pdfrwt>
<totfact> 0.14762912E+03</totfact>
</mgrwt>
</event>
<event>
 7    1  0.6095443E-006  0.1525132E+03  0.7546771E-02  0.1205879E+00
          2   -1    0    0  501    0  0.00000000000E+00  0.00000000000E+00  0.45265903306E+02  0.45265903306E+02  0.00000000000E+00 0. -1.
         -2   -1    0    0    0  501 -0.00000000000E+00 -0.00000000000E+00 -0.43515101850E+03  0.43515101850E+03  0.00000000000E+00 0.  1.
         23    2    1    2    0    0 -0.27594455419E+02 -0.82914124025E+02 -0.23474579277E+03  0.27993905848E+03  0.12499633317E+03 0.  0.
          5    1    3    3  502    0 -0.62312630347E+02 -0.52429636836E+01 -0.13431353603E+03  0.14823146943E+03  0.47000000000E+01 0.  1.
         -5    1    3    3    0  502  0.34718174928E+02 -0.77671160341E+02 -0.10043225674E+03  0.13170758905E+03  0.47000000000E+01 0.  1.
        -11    1    1    2    0    0  0.22114725956E+02  0.43289807464E+02 -0.15286910654E+03  0.16041207021E+03  0.00000000000E+00 0.  1.
         11    1    1    2    0    0  0.54797294629E+01  0.39624316561E+02 -0.22702158844E+01  0.40065793116E+02  0.00000000000E+00 0. -1.
<mgrwt>
<rscale>  0 0.14568403E+03</rscale>
<asrwt>0</asrwt>
<pdfrwt beam="1">  1        2 0.69639853E-02 0.15251324E+03</pdfrwt>
<pdfrwt beam="2">  1       -2 0.66946309E-01 0.15251324E+03</pdfrwt>
<totfact> 0.20692159E+03</totfact>
</mgrwt>
</event>
<event>
 7    1  0.6095443E-006  0.2553832E+03  0.7546771E-02  0.1112378E+00
         -1   -1    0    0    0  501 -0.00000000000E+00  0.00000000000E+00  0.19144379821E+03  0.19144379821E+03  0.00000000000E+00 0.  1.
          1   -1    0    0  501    0  0.00000000000E+00 -0.00000000000E+00 -0.12471907007E+04  0.12471907007E+04  0.00000000000E+00 0. -1.
         23    2    1    2    0    0 -0.10736621392E+03  0.19511497533E+03  0.87876846778E+02  0.27007950575E+03  0.12499296675E+03 0.  0.
          5    1    3    3  502    0  0.23153681826E+02  0.17281175741E+02 -0.66908922756E+01  0.30026489247E+02  0.47000000000E+01 0.  1.
         -5    1    3    3    0  502 -0.13051989575E+03  0.17783379959E+03  0.94567739054E+02  0.24005301651E+03  0.47000000000E+01 0.  1.
        -11    1    1    2    0    0  0.40977700910E+02 -0.16631111606E+02 -0.13339868200E+03  0.14053815925E+03  0.00000000000E+00 0.  1.
         11    1    1    2    0    0  0.66388513014E+02 -0.17848386373E+03 -0.10102250673E+04  0.10280168340E+04  0.00000000000E+00 0. -1.
<mgrwt>
<rscale>  0 0.25147219E+03</rscale>
<asrwt>0</asrwt>
<pdfrwt beam="2">  1        1 0.19187550E+00 0.25538324E+03</pdfrwt>
<pdfrwt beam="1">  1       -1 0.29452891E-01 0.25538324E+03</pdfrwt>
<totfact> 0.11362226E+02</totfact>
</mgrwt>
</event>
<event>
 7    1  0.6095443E-006  0.1328937E+03  0.7546771E-02  0.1236490E+00
          1   -1    0    0  501    0  0.00000000000E+00  0.00000000000E+00  0.22337444742E+03  0.22337444742E+03  0.00000000000E+00 0. -1.
         -1   -1    0    0    0  501 -0.00000000000E+00 -0.00000000000E+00 -0.69345835769E+02  0.69345835769E+02  0.00000000000E+00 0.  1.
         23    2    1    2    0    0 -0.41720631962E+02 -0.17189093566E+02  0.36678425434E+02  0.13786238262E+03  0.12499861431E+03 0.  0.
          5    1    3    3  502    0 -0.59525084920E+02  0.36283036956E+02 -0.10516965496E+01  0.69877682926E+02  0.47000000000E+01 0.  1.
         -5    1    3    3    0  502  0.17804452957E+02 -0.53472130522E+02  0.37730121984E+02  0.67984699694E+02  0.47000000000E+01 0.  1.
        -11    1    1    2    0    0  0.55140873947E+01 -0.30764217948E+02  0.11809204834E+02  0.33411069791E+02  0.00000000000E+00 0. -1.
         11    1    1    2    0    0  0.36206544568E+02  0.47953311514E+02  0.10554098139E+03  0.12144683078E+03  0.00000000000E+00 0.  1.
<mgrwt>
<rscale>  0 0.12409547E+03</rscale>
<asrwt>0</asrwt>
<pdfrwt beam="1">  1        1 0.34365299E-01 0.13289368E+03</pdfrwt>
<pdfrwt beam="2">  1       -1 0.10668590E-01 0.13289368E+03</pdfrwt>
<totfact> 0.66681897E+03</totfact>
</mgrwt>
</event>
<event>
 7    1  0.6095443E-006  0.1312784E+03  0.7546771E-02  0.1237730E+00
         -2   -1    0    0    0  501 -0.00000000000E+00  0.00000000000E+00  0.38158778682E+02  0.38158778682E+02  0.00000000000E+00 0.  1.
          2   -1    0    0  501    0  0.00000000000E+00 -0.00000000000E+00 -0.35988624518E+03  0.35988624518E+03  0.00000000000E+00 0. -1.
         23    2    1    2    0    0 -0.22062528297E+02  0.33480203882E+02 -0.16349350999E+03  0.20967627149E+03  0.12500532713E+03 0.  0.
          5    1    3    3  502    0  0.51323035069E+02  0.58560371647E+01 -0.53538468429E+02  0.74543978306E+02  0.47000000000E+01 0. -1.
         -5    1    3    3    0  502 -0.73385563366E+02  0.27624166718E+02 -0.10995504156E+03  0.13513229319E+03  0.47000000000E+01 0. -1.
        -11    1    1    2    0    0 -0.33758765034E+02 -0.29518119680E+02 -0.86039689333E+02  0.97024748114E+02  0.00000000000E+00 0. -1.
         11    1    1    2    0    0  0.55821293331E+02 -0.39620842024E+01 -0.72194267175E+02  0.91344004255E+02  0.00000000000E+00 0.  1.
<mgrwt>
<rscale>  0 0.12331259E+03</rscale>
<asrwt>0</asrwt>
<pdfrwt beam="2">  1        2 0.55367116E-01 0.13127837E+03</pdfrwt>
<pdfrwt beam="1">  1       -2 0.58705812E-02 0.13127837E+03</pdfrwt>
<totfact> 0.12914734E+04</totfact>
</mgrwt>
</event>
<event>
 7    1  0.6095443E-006  0.1259953E+03  0.7546771E-02  0.1247828E+00
          3   -1    0    0  501    0  0.00000000000E+00  0.00000000000E+00  0.44829433980E+02  0.44829433980E+02  0.00000000000E+00 0. -1.
         -3   -1    0    0    0  501 -0.00000000000E+00 -0.00000000000E+00 -0.35725370315E+03  0.35725370315E+03  0.00000000000E+00 0.  1.
         23    2    1    2    0    0 -0.14237205062E+02 -0.56936630108E+01 -0.27153121307E+03  0.29933929135E+03  0.12505876966E+03 0.  0.
          5    1    3    3  502    0 -0.27265166354E+01  0.59397087560E+02 -0.13404567307E+03  0.14671666699E+03  0.47000000000E+01 0.  1.
         -5    1    3    3    0  502 -0.11510688427E+02 -0.65090750570E+02 -0.13748554000E+03  0.15262262436E+03  0.47000000000E+01 0.  1.
        -11    1    1    2    0    0  0.10233110207E+02 -0.43450674627E+02 -0.23586263654E+02  0.50487518291E+02  0.00000000000E+00 0.  1.
         11    1    1    2    0    0  0.40040948554E+01  0.49144337637E+02 -0.17306792440E+02  0.52256327483E+02  0.00000000000E+00 0. -1.
<mgrwt>
<rscale>  0 0.11717693E+03</rscale>
<asrwt>0</asrwt>
<pdfrwt beam="1">  1        3 0.68968357E-02 0.12599528E+03</pdfrwt>
<pdfrwt beam="2">  1       -3 0.54962110E-01 0.12599528E+03</pdfrwt>
<totfact> 0.10209401E+03</totfact>
</mgrwt>
</event>
<event>
 7    1  0.6095443E-006  0.1381537E+03  0.7546771E-02  0.1227475E+00
          2   -1    0    0  501    0  0.00000000000E+00  0.00000000000E+00  0.11065629406E+03  0.11065629406E+03  0.00000000000E+00 0. -1.
         -2   -1    0    0    0  501 -0.00000000000E+00 -0.00000000000E+00 -0.13783646747E+03  0.13783646747E+03  0.00000000000E+00 0.  1.
         23    2    1    2    0    0  0.48682227355E+02 -0.33020389030E+02 -0.68052392922E+01  0.13832122113E+03  0.12500457424E+03 0.  0.
          5    1    3    3  502    0 -0.18328749241E+02  0.14116315860E+02 -0.42668217214E+02  0.48763512819E+02  0.47000000000E+01 0. -1.
         -5    1    3    3    0  502  0.67010976596E+02 -0.47136704890E+02  0.35862977922E+02  0.89557708310E+02  0.47000000000E+01 0. -1.
        -11    1    1    2    0    0 -0.36129978823E+02  0.57956485250E+01  0.32791740428E+02  0.49135151896E+02  0.00000000000E+00 0. -1.
         11    1    1    2    0    0 -0.12552248533E+02  0.27224740505E+02 -0.53166674554E+02  0.61036388507E+02  0.00000000000E+00 0.  1.
<mgrwt>
<rscale>  0 0.12998704E+03</rscale>
<asrwt>0</asrwt>
<pdfrwt beam="1">  1        2 0.17024045E-01 0.13815371E+03</pdfrwt>
<pdfrwt beam="2">  1       -2 0.21205610E-01 0.13815371E+03</pdfrwt>
<totfact> 0.60532075E+03</totfact>
</mgrwt>
</event>
<event>
 7    1  0.6095443E-006  0.1847693E+03  0.7546771E-02  0.1168387E+00
         -1   -1    0    0    0  501 -0.00000000000E+00  0.00000000000E+00  0.12966636793E+03  0.12966636793E+03  0.00000000000E+00 0.  1.
          1   -1    0    0  501    0  0.00000000000E+00 -0.00000000000E+00 -0.23482402492E+03  0.23482402492E+03  0.00000000000E+00 0. -1.
         23    2    1    2    0    0  0.85153293533E+02 -0.10611375072E+03 -0.53797050709E+02  0.19244175993E+03  0.12501398644E+03 0.  0.
          5    1    3    3  502    0  0.15745788670E+02 -0.22951486889E+02 -0.76610272665E+02  0.81645113075E+02  0.47000000000E+01 0.  1.
         -5    1    3    3    0  502  0.69407504863E+02 -0.83162263834E+02  0.22813221956E+02  0.11079664685E+03  0.47000000000E+01 0.  1.
        -11    1    1    2    0    0 -0.63092712469E+02  0.10063195833E+03 -0.74020682117E+02  0.13995193027E+03  0.00000000000E+00 0. -1.
         11    1    1    2    0    0 -0.22060581064E+02  0.54817923882E+01  0.22660075831E+02  0.32096702655E+02  0.00000000000E+00 0.  1.
<mgrwt>
<rscale>  0 0.17939820E+03</rscale>
<asrwt>0</asrwt>
<pdfrwt beam="2">  1        1 0.36126773E-01 0.18476934E+03</pdfrwt>
<pdfrwt beam="1">  1       -1 0.19948672E-01 0.18476934E+03</pdfrwt>
<totfact> 0.23836584E+03</totfact>
</mgrwt>
</event>
<event>
 6    1  0.6095443E-006  0.8100098E+03  0.7546771E-02  0.9834914E-01
         -2   -1    0    0    0  501 -0.00000000000E+00  0.00000000000E+00  0.23890224208E+03  0.23890224208E+03  0.00000000000E+00 0.  1.
          2   -1    0    0  501    0  0.00000000000E+00 -0.00000000000E+00 -0.13421544305E+04  0.13421544305E+04  0.00000000000E+00 0. -1.
          5    1    1    2  502    0  0.31023154674E+03 -0.20094740495E+03 -0.65001142412E+03  0.74777029470E+03  0.47000000000E+01 0. -1.
         -5    1    1    2    0  502 -0.29133061517E+03 -0.90925807377E+02 -0.24321200814E+02  0.30619379580E+03  0.47000000000E+01 0.  1.
        -11    1    1    2    0    0  0.29420878405E+02  0.20284263235E+03 -0.29311892596E+03  0.35767223312E+03  0.00000000000E+00 0. -1.
         11    1    1    2    0    0 -0.48321809979E+02  0.89030579974E+02 -0.13580063751E+03  0.16942034895E+03  0.00000000000E+00 0.  1.
<mgrwt>
<rscale>  0 0.63522069E+03</rscale>
<asrwt>0</asrwt>
<pdfrwt beam="2">  1        2 0.20648529E+00 0.81000976E+03</pdfrwt>
<pdfrwt beam="1">  1       -2 0.36754192E-01 0.81000976E+03</pdfrwt>
<totfact> 0.11015168E+02</totfact>
</mgrwt>
</event>
<event>
 7    1  0.6773291E-006  0.2364998E+03  0.7546771E-02  0.1125036E+00
          3   -1    0    0  501    0  0.00000000000E+00  0.00000000000E+00  0.40566554796E+03  0.40566554796E+03  0.00000000000E+00 0. -1.
         -3   -1    0    0    0  501 -0.00000000000E+00 -0.00000000000E+00 -0.13815957359E+03  0.13815957359E+03  0.00000000000E+00 0.  1.
         23    2    1    2    0    0  0.18557691180E+03  0.76608911852E+02  0.66334252671E+02  0.24562648697E+03  0.12499768980E+03 0.  0.
          5    1    3    3  502    0  0.10968343643E+03 -0.12022746759E+02  0.66365807530E+02  0.12884685901E+03  0.47000000000E+01 0. -1.
         -5    1    3    3    0  502  0.75893475369E+02  0.88631658611E+02 -0.31554859254E-01  0.11677962796E+03  0.47000000000E+01 0. -1.
        -11    1    1    2    0    0 -0.50626313284E+02 -0.18636662889E+02  0.65043161821E+01  0.54338337566E+02  0.00000000000E+00 0.  1.
         11    1    1    2    0    0 -0.13495059852E+03 -0.57972248963E+02  0.19466740551E+03  0.24386029701E+03  0.00000000000E+00 0. -1.
<mgrwt>
<rscale>  0 0.23229369E+03</rscale>
<asrwt>0</asrwt>
<pdfrwt beam="1">  1        3 0.62410084E-01 0.23649976E+03</pdfrwt>
<pdfrwt beam="2">  1       -3 0.21255319E-01 0.23649976E+03</pdfrwt>
<totfact> 0.12669730E+02</totfact>
</mgrwt>
</event>
<event>
 7    1  0.6095443E-006  0.1821787E+03  0.7546771E-02  0.1170796E+00
          2   -1    0    0  501    0  0.00000000000E+00  0.00000000000E+00  0.19111640966E+03  0.19111640966E+03  0.00000000000E+00 0. -1.
         -2   -1    0    0    0  501 -0.00000000000E+00 -0.00000000000E+00 -0.16385172677E+03  0.16385172677E+03  0.00000000000E+00 0.  1.
         23    2    1    2    0    0  0.12201834103E+03  0.51721675634E+02  0.55422330564E+02  0.19042241815E+03  0.12500182131E+03 0.  0.
          5    1    3    3  502    0  0.12650915184E+03  0.61254403542E+02  0.81047790596E+02  0.16231913570E+03  0.47000000000E+01 0.  1.
         -5    1    3    3    0  502 -0.44908108071E+01 -0.95327279079E+01 -0.25625460032E+02  0.28103282458E+02  0.47000000000E+01 0.  1.
        -11    1    1    2    0    0 -0.97281953703E+02 -0.51184441170E+02  0.18749514864E+02  0.11151309269E+03  0.00000000000E+00 0. -1.
         11    1    1    2    0    0 -0.24736387331E+02 -0.53723446353E+00 -0.46907162539E+02  0.53032625586E+02  0.00000000000E+00 0.  1.
<mgrwt>
<rscale>  0 0.17694216E+03</rscale>
<asrwt>0</asrwt>
<pdfrwt beam="1">  1        2 0.29402525E-01 0.18217866E+03</pdfrwt>
<pdfrwt beam="2">  1       -2 0.25207958E-01 0.18217866E+03</pdfrwt>
<totfact> 0.24664223E+03</totfact>
</mgrwt>
</event>
<event>
 6    1  0.6095443E-006  0.5017774E+03  0.7546771E-02  0.1049407E+00
          1   -1    0    0  501    0  0.00000000000E+00  0.00000000000E+00  0.18010810533E+03  0.18010810533E+03  0.00000000000E+00 0. -1.
         -1   -1    0    0    0  501 -0.00000000000E+00 -0.00000000000E+00 -0.71687205352E+03  0.71687205352E+03  0.00000000000E+00 0.  1.
          5    1    1    2  502    0 -0.17626402161E+03 -0.68471234135E+02 -0.18201750908E+03  0.26250672149E+03  0.47000000000E+01 0. -1.
         -5    1    1    2    0  502  0.23830061527E+03  0.20158742194E+03 -0.33981910088E+03  0.46143665139E+03  0.47000000000E+01 0.  1.
        -11    1    1    2    0    0  0.16770193422E+02 -0.27115183908E+02 -0.25075146304E+02  0.40561503275E+02  0.00000000000E+00 0.  1.
         11    1    1    2    0    0 -0.78806787079E+02 -0.10600100389E+03  0.10147808079E+02  0.13247528269E+03  0.00000000000E+00 0. -1.
<mgrwt>
<rscale>  0 0.38416025E+03</rscale>
<asrwt>0</asrwt>
<pdfrwt beam="1">  1        1 0.27708939E-01 0.50177740E+03</pdfrwt>
<pdfrwt beam="2">  1       -1 0.11028801E+00 0.50177740E+03</pdfrwt>
<totfact> 0.13322142E+02</totfact>
</mgrwt>
</event>
<event>
 7    1  0.6095443E-006  0.1814694E+03  0.7546771E-02  0.1173028E+00
         -2   -1    0    0    0  501 -0.00000000000E+00  0.00000000000E+00  0.65387152384E+02  0.65387152384E+02  0.00000000000E+00 0.  1.
          2   -1    0    0  501    0  0.00000000000E+00 -0.00000000000E+00 -0.46023731529E+03  0.46023731529E+03  0.00000000000E+00 0. -1.
         23    2    1    2    0    0 -0.69616391359E+02 -0.11162115305E+03 -0.15037183024E+03  0.23567529189E+03  0.12500172848E+03 0.  0.
          5    1    3    3  502    0 -0.11223248711E+02 -0.61440368140E+02 -0.14547335738E+03  0.15838392550E+03  0.47000000000E+01 0. -1.
         -5    1    3    3    0  502 -0.58393142648E+02 -0.50180784908E+02 -0.48984728618E+01  0.77291366392E+02  0.47000000000E+01 0. -1.
        -11    1    1    2    0    0  0.33421537266E+01  0.80281213062E+02 -0.10329417607E+03  0.13086607647E+03  0.00000000000E+00 0.  1.
         11    1    1    2    0    0  0.66274237633E+02  0.31339939986E+02 -0.14118415660E+03  0.15908309931E+03  0.00000000000E+00 0. -1.
<mgrwt>
<rscale>  0 0.17470500E+03</rscale>
<asrwt>0</asrwt>
<pdfrwt beam="2">  1        2 0.70805741E-01 0.18146944E+03</pdfrwt>
<pdfrwt beam="1">  1       -2 0.10059562E-01 0.18146944E+03</pdfrwt>
<totfact> 0.43968786E+03</totfact>
</mgrwt>
</event>
<event>
 7    1  0.6095443E-006  0.1271202E+03  0.7546771E-02  0.1246766E+00
         -4   -1    0    0    0  501 -0.00000000000E+00  0.00000000000E+00  0.15217277546E+03  0.15217277546E+03  0.00000000000E+00 0.  1.
          4   -1    0    0  501    0  0.00000000000E+00 -0.00000000000E+00 -0.80160587067E+02  0.80160587067E+02  0.00000000000E+00 0. -1.
         23    2    1    2    0    0  0.15284100779E+02 -0.17351250849E+02  0.42917984729E+02  0.13416962632E+03  0.12499946229E+03 0.  0.
          5    1    3    3  502    0  0.59822649486E+02 -0.38812942550E+02  0.49136440400E+01  0.71633984942E+02  0.47000000000E+01 0. -1.
         -5    1    3    3    0  502 -0.44538548707E+02  0.21461691701E+02  0.38004340689E+02  0.62535641380E+02  0.47000000000E+01 0. -1.
        -11    1    1    2    0    0 -0.25139477158E+02  0.29504968854E+02  0.55365228707E+02  0.67585834674E+02  0.00000000000E+00 0.  1.
         11    1    1    2    0    0  0.98553763790E+01 -0.12153718005E+02 -0.26271025046E+02  0.30577901528E+02  0.00000000000E+00 0. -1.
<mgrwt>
<rscale>  0 0.11780324E+03</rscale>
<asrwt>0</asrwt>
<pdfrwt beam="2">  1        4 0.12332398E-01 0.12712016E+03</pdfrwt>
<pdfrwt beam="1">  1       -4 0.23411196E-01 0.12712016E+03</pdfrwt>
<totfact> 0.14554682E+03</totfact>
</mgrwt>
</event>
<event>
 7    1  0.1010272E-005  0.1786041E+03  0.7546771E-02  0.1174925E+00
          1   -1    0    0  501    0  0.00000000000E+00  0.00000000000E+00  0.79081734666E+02  0.79081734666E+02  0.00000000000E+00 0. -1.
         -1   -1    0    0    0  501 -0.00000000000E+00 -0.00000000000E+00 -0.40473210296E+03  0.40473210296E+03  0.00000000000E+00 0.  1.
         23    2    1    2    0    0  0.16768118664E+01  0.12756123340E+03 -0.25662785253E+03  0.31266162482E+03  0.12499902790E+03 0.  0.
          5    1    3    3  502    0 -0.32875651522E+01  0.12785055464E+02 -0.16511775005E+03  0.16571127635E+03  0.47000000000E+01 0.  1.
         -5    1    3    3    0  502  0.49643770186E+01  0.11477617793E+03 -0.91510102488E+02  0.14695034848E+03  0.47000000000E+01 0.  1.
        -11    1    1    2    0    0 -0.44076291791E+02 -0.71680876214E+02 -0.22921331532E+02  0.87213846103E+02  0.00000000000E+00 0.  1.
         11    1    1    2    0    0  0.42399479924E+02 -0.55880357184E+02 -0.46101184229E+02  0.83938366700E+02  0.00000000000E+00 0. -1.
<mgrwt>
<rscale>  0 0.17283375E+03</rscale>
<asrwt>0</asrwt>
<pdfrwt beam="1">  1        1 0.12166421E-01 0.17860413E+03</pdfrwt>
<pdfrwt beam="2">  1       -1 0.62266478E-01 0.17860413E+03</pdfrwt>
<totfact> 0.13171617E+03</totfact>
</mgrwt>
</event>
<event>
 7    1  0.9967046E-006  0.1742119E+03  0.7546771E-02  0.1179661E+00
         -1   -1    0    0    0  501 -0.00000000000E+00  0.00000000000E+00  0.30872780835E+03  0.30872780835E+03  0.00000000000E+00 0.  1.
          1   -1    0    0  501    0  0.00000000000E+00 -0.00000000000E+00 -0.87842713710E+02  0.87842713710E+02  0.00000000000E+00 0. -1.
         23    2    1    2    0    0  0.85130440702E+02  0.86477756460E+02  0.14671216554E+03  0.22775921463E+03  0.12499682411E+03 0.  0.
          5    1    3    3  502    0  0.24717729022E+02  0.55442170283E+01  0.12062235934E+03  0.12334321239E+03  0.47000000000E+01 0.  1.
         -5    1    3    3    0  502  0.60412711680E+02  0.80933539432E+02  0.26089806199E+02  0.10441600225E+03  0.47000000000E+01 0.  1.
        -11    1    1    2    0    0 -0.52539051137E+02 -0.49135980833E+02  0.91423247396E+02  0.11633102196E+03  0.00000000000E+00 0.  1.
         11    1    1    2    0    0 -0.32591389565E+02 -0.37341775627E+02 -0.17250318293E+02  0.52480285460E+02  0.00000000000E+00 0. -1.
<mgrwt>
<rscale>  0 0.16827287E+03</rscale>
<asrwt>0</asrwt>
<pdfrwt beam="2">  1        1 0.13514264E-01 0.17421194E+03</pdfrwt>
<pdfrwt beam="1">  1       -1 0.47496585E-01 0.17421194E+03</pdfrwt>
<totfact> 0.19020364E+03</totfact>
</mgrwt>
</event>
<event>
 7    1  0.6095443E-006  0.1257503E+03  0.7546771E-02  0.1249253E+00
         -2   -1    0    0    0  501 -0.00000000000E+00  0.00000000000E+00  0.55896879717E+02  0.55896879717E+02  0.00000000000E+00 0.  1.
          2   -1    0    0  501    0  0.00000000000E+00 -0.00000000000E+00 -0.21372306548E+03  0.21372306548E+03  0.00000000000E+00 0. -1.
         23    2    1    2    0    0 -0.53641003828E+01 -0.12613166697E+02 -0.10172868815E+03  0.16174628014E+03  0.12500107039E+03 0.  0.
          5    1    3    3  502    0  0.24387222160E+02  0.83170329804E+01 -0.11853976596E+03  0.12139882930E+03  0.47000000000E+01 0. -1.
         -5    1    3    3    0  502 -0.29751322543E+02 -0.20930199677E+02  0.16811077808E+02  0.40347450832E+02  0.47000000000E+01 0. -1.
        -11    1    1    2    0    0 -0.39081963112E+02  0.17169226562E+01 -0.52576431154E+01  0.39471388058E+02  0.00000000000E+00 0.  1.
         11    1    1    2    0    0  0.44446063494E+02  0.10896244041E+02 -0.50839854500E+02  0.68402277008E+02  0.00000000000E+00 0. -1.
<mgrwt>
<rscale>  0 0.11634397E+03</rscale>
<asrwt>0</asrwt>
<pdfrwt beam="2">  1        2 0.32880472E-01 0.12575028E+03</pdfrwt>
<pdfrwt beam="1">  1       -2 0.85995199E-02 0.12575028E+03</pdfrwt>
<totfact> 0.12477158E+04</totfact>
</mgrwt>
</event>
<event>
 7    1  0.6095443E-006  0.1273638E+03  0.7546771E-02  0.1245046E+00
          2   -1    0    0  501    0  0.00000000000E+00  0.00000000000E+00  0.18944675469E+03  0.18944675469E+03  0.00000000000E+00 0. -1.
         -2   -1    0    0    0  501 -0.00000000000E+00 -0.00000000000E+00 -0.66188222275E+02  0.66188222275E+02  0.00000000000E+00 0.  1.
         23    2    1    2    0    0  0.15346264381E+02 -0.18974657945E+02  0.73833247984E+02  0.14721710312E+03  0.12500392581E+03 0.  0.
          5    1    3    3  502    0  0.47073689094E+02  0.91195287789E+01  0.89620817164E+02  0.10175008049E+03  0.47000000000E+01 0.  1.
         -5    1    3    3    0  502 -0.31727424713E+02 -0.28094186723E+02 -0.15787569180E+02  0.45467022634E+02  0.47000000000E+01 0.  1.
        -11    1    1    2    0    0 -0.36339689507E+02 -0.23539283183E+02  0.42190761137E+02  0.60454372973E+02  0.00000000000E+00 0.  1.
         11    1    1    2    0    0  0.20993425125E+02  0.42513941128E+02  0.72345232975E+01  0.47963500873E+02  0.00000000000E+00 0. -1.
<mgrwt>
<rscale>  0 0.11882623E+03</rscale>
<asrwt>0</asrwt>
<pdfrwt beam="1">  1        2 0.29145654E-01 0.12736376E+03</pdfrwt>
<pdfrwt beam="2">  1       -2 0.10182804E-01 0.12736376E+03</pdfrwt>
<totfact> 0.10927699E+04</totfact>
</mgrwt>
</event>
<event>
 7    1  0.6095443E-006  0.1431930E+03  0.7546771E-02  0.1217829E+00
          2   -1    0    0  501    0  0.00000000000E+00  0.00000000000E+00  0.85304999442E+03  0.85304999442E+03  0.00000000000E+00 0. -1.
         -2   -1    0    0    0  501 -0.00000000000E+00 -0.00000000000E+00 -0.20166632621E+02  0.20166632621E+02  0.00000000000E+00 0.  1.
         23    2    1    2    0    0  0.68739409178E+02 -0.12425060377E+02  0.47045731730E+03  0.49176652562E+03  0.12499895928E+03 0.  0.
          5    1    3    3  502    0  0.94212982955E+02  0.13898900774E+02  0.23792134449E+03  0.25631605834E+03  0.47000000000E+01 0.  1.
         -5    1    3    3    0  502 -0.25473573776E+02 -0.26323961151E+02  0.23253597281E+03  0.23545046728E+03  0.47000000000E+01 0.  1.
        -11    1    1    2    0    0 -0.11985700032E+02  0.37836128240E+02  0.55158348764E+02  0.67953462339E+02  0.00000000000E+00 0.  1.
         11    1    1    2    0    0 -0.56753709147E+02 -0.25411067863E+02  0.30726769573E+03  0.31349663907E+03  0.00000000000E+00 0. -1.
<mgrwt>
<rscale>  0 0.13670732E+03</rscale>
<asrwt>0</asrwt>
<pdfrwt beam="1">  1        2 0.13123843E+00 0.14319298E+03</pdfrwt>
<pdfrwt beam="2">  1       -2 0.31025595E-02 0.14319298E+03</pdfrwt>
<totfact> 0.12626325E+04</totfact>
</mgrwt>
</event>
<event>
 7    1  0.6095443E-006  0.1433433E+03  0.7546771E-02  0.1218956E+00
          3   -1    0    0  501    0  0.00000000000E+00  0.00000000000E+00  0.16869794267E+02  0.16869794267E+02  0.00000000000E+00 0. -1.
         -3   -1    0    0    0  501 -0.00000000000E+00 -0.00000000000E+00 -0.10648474054E+04  0.10648474054E+04  0.00000000000E+00 0.  1.
         23    2    1    2    0    0 -0.21062695428E+02 -0.66937670448E+02 -0.71356787239E+03  0.72782306495E+03  0.12499206578E+03 0.  0.
          5    1    3    3  502    0 -0.46662628316E+02  0.21055598312E+02 -0.27360902119E+03  0.27839670540E+03  0.47000000000E+01 0. -1.
         -5    1    3    3    0  502  0.25599932888E+02 -0.87993268760E+02 -0.43995885120E+03  0.44942635955E+03  0.47000000000E+01 0. -1.
        -11    1    1    2    0    0 -0.15997954742E+02  0.59351488430E+02 -0.10733973029E+03  0.12369458934E+03  0.00000000000E+00 0. -1.
         11    1    1    2    0    0  0.37060650170E+02  0.75861820180E+01 -0.22707000847E+03  0.23019954538E+03  0.00000000000E+00 0.  1.
<mgrwt>
<rscale>  0 0.13589907E+03</rscale>
<asrwt>0</asrwt>
<pdfrwt beam="1">  1        3 0.25953527E-02 0.14334331E+03</pdfrwt>
<pdfrwt beam="2">  1       -3 0.16382269E+00 0.14334331E+03</pdfrwt>
<totfact> 0.40974049E+02</totfact>
</mgrwt>
</event>
<event>
 7    1  0.6095443E-006  0.1413121E+03  0.7546771E-02  0.1222161E+00
          1   -1    0    0  501    0  0.00000000000E+00  0.00000000000E+00  0.10661679412E+03  0.10661679412E+03  0.00000000000E+00 0. -1.
         -1   -1    0    0    0  501 -0.00000000000E+00 -0.00000000000E+00 -0.16182503493E+03  0.16182503493E+03  0.00000000000E+00 0.  1.
         23    2    1    2    0    0  0.63517452760E+02 -0.17592537974E+02 -0.63914763588E+02  0.15509417391E+03  0.12500056631E+03 0.  0.
          5    1    3    3  502    0 -0.33004740489E+02 -0.22793879499E+02 -0.24726949866E+01  0.40460821271E+02  0.47000000000E+01 0.  1.
         -5    1    3    3    0  502  0.96522193249E+02  0.52013415256E+01 -0.61442068601E+02  0.11463335264E+03  0.47000000000E+01 0.  1.
        -11    1    1    2    0    0 -0.27267677834E+02  0.35241637144E+02  0.41869000022E+02  0.61143375814E+02  0.00000000000E+00 0. -1.
         11    1    1    2    0    0 -0.36249774925E+02 -0.17649099170E+02 -0.33162477238E+02  0.52204279329E+02  0.00000000000E+00 0.  1.
<mgrwt>
<rscale>  0 0.13363381E+03</rscale>
<asrwt>0</asrwt>
<pdfrwt beam="1">  1        1 0.16402584E-01 0.14131209E+03</pdfrwt>
<pdfrwt beam="2">  1       -1 0.24896159E-01 0.14131209E+03</pdfrwt>
<totfact> 0.44534044E+03</totfact>
</mgrwt>
</event>
<event>
 7    1  0.6095443E-006  0.1734014E+03  0.7546771E-02  0.1180486E+00
          2   -1    0    0  501    0  0.00000000000E+00  0.00000000000E+00  0.12307549843E+04  0.12307549843E+04  0.00000000000E+00 0. -1.
         -2   -1    0    0    0  501 -0.00000000000E+00 -0.00000000000E+00 -0.21801370469E+02  0.21801370469E+02  0.00000000000E+00 0.  1.
         23    2    1    2    0    0 -0.64212452116E+02  0.10158772384E+03  0.55761459919E+03  0.58395383893E+03  0.12499896051E+03 0.  0.
          5    1    3    3  502    0 -0.67737127169E+02  0.60170884452E+02  0.15830700594E+03  0.18246109685E+03  0.47000000000E+01 0.  1.
         -5    1    3    3    0  502  0.35246750530E+01  0.41416839391E+02  0.39930759325E+03  0.40149274208E+03  0.47000000000E+01 0.  1.
        -11    1    1    2    0    0 -0.23331850875E+02 -0.17181518892E+02  0.10784543539E+03  0.11167012936E+03  0.00000000000E+00 0.  1.
         11    1    1    2    0    0  0.87544302991E+02 -0.84406204951E+02  0.54349357921E+03  0.55693238643E+03  0.00000000000E+00 0. -1.
<mgrwt>
<rscale>  0 0.16749425E+03</rscale>
<asrwt>0</asrwt>
<pdfrwt beam="1">  1        2 0.18934687E+00 0.17340140E+03</pdfrwt>
<pdfrwt beam="2">  1       -2 0.33540580E-02 0.17340140E+03</pdfrwt>
<totfact> 0.67737918E+03</totfact>
</mgrwt>
</event>
<event>
 7    1  0.6095443E-006  0.1338902E+03  0.7546771E-02  0.1234782E+00
         -1   -1    0    0    0  501 -0.00000000000E+00  0.00000000000E+00  0.22151151039E+03  0.22151151039E+03  0.00000000000E+00 0.  1.
          1   -1    0    0  501    0  0.00000000000E+00 -0.00000000000E+00 -0.80232837890E+02  0.80232837890E+02  0.00000000000E+00 0. -1.
         23    2    1    2    0    0 -0.27068606843E+02 -0.39629200291E+02  0.14754070346E+03  0.19923567575E+03  0.12499364912E+03 0.  0.
          5    1    3    3  502    0 -0.68705930918E+02  0.39607045447E+01  0.52899295951E+02  0.86928807860E+02  0.47000000000E+01 0.  1.
         -5    1    3    3    0  502  0.41637324075E+02 -0.43589904836E+02  0.94641407508E+02  0.11230686789E+03  0.47000000000E+01 0.  1.
        -11    1    1    2    0    0  0.58443091968E+02  0.39788703949E+02 -0.10886188324E+01  0.70710119867E+02  0.00000000000E+00 0.  1.
         11    1    1    2    0    0 -0.31374485125E+02 -0.15950365758E+00 -0.51734121294E+01  0.31798552661E+02  0.00000000000E+00 0. -1.
<mgrwt>
<rscale>  0 0.12518401E+03</rscale>
<asrwt>0</asrwt>
<pdfrwt beam="2">  1        1 0.12343514E-01 0.13389024E+03</pdfrwt>
<pdfrwt beam="1">  1       -1 0.34078694E-01 0.13389024E+03</pdfrwt>
<totfact> 0.37966287E+03</totfact>
</mgrwt>
</event>
<event>
 7    1  0.6095443E-006  0.1291182E+03  0.7546771E-02  0.1243052E+00
          2   -1    0    0  501    0  0.00000000000E+00  0.00000000000E+00  0.37137870362E+03  0.37137870362E+03  0.00000000000E+00 0.  1.
         -2   -1    0    0    0  501 -0.00000000000E+00 -0.00000000000E+00 -0.34912967430E+02  0.34912967430E+02  0.00000000000E+00 0. -1.
         23    2    1    2    0    0 -0.17166505254E+02  0.27386445198E+02  0.22002826928E+03  0.25511557705E+03  0.12500724815E+03 0.  0.
          5    1    3    3  502    0 -0.70114096860E+01  0.31278805160E+02  0.23432144008E+03  0.23655052483E+03  0.47000000000E+01 0.  1.
         -5    1    3    3    0  502 -0.10155095568E+02 -0.38923599628E+01 -0.14293170805E+02  0.18565052215E+02  0.47000000000E+01 0.  1.
        -11    1    1    2    0    0  0.38181786582E+02 -0.22756204261E+02  0.14145865313E+02  0.46645462420E+02  0.00000000000E+00 0. -1.
         11    1    1    2    0    0 -0.21015281328E+02 -0.46302409369E+01  0.10229160161E+03  0.10453063158E+03  0.00000000000E+00 0.  1.
<mgrwt>
<rscale>  0 0.12002751E+03</rscale>
<asrwt>0</asrwt>
<pdfrwt beam="1">  1        2 0.57135183E-01 0.12911823E+03</pdfrwt>
<pdfrwt beam="2">  1       -2 0.53712260E-02 0.12911823E+03</pdfrwt>
<totfact> 0.14263697E+04</totfact>
</mgrwt>
</event>
<event>
 7    1  0.6095443E-006  0.1276211E+03  0.7546771E-02  0.1245569E+00
          1   -1    0    0  501    0  0.00000000000E+00  0.00000000000E+00  0.60053680398E+03  0.60053680398E+03  0.00000000000E+00 0. -1.
         -1   -1    0    0    0  501 -0.00000000000E+00 -0.00000000000E+00 -0.21360519128E+02  0.21360519128E+02  0.00000000000E+00 0.  1.
         23    2    1    2    0    0  0.23008655985E+02 -0.11482465157E+02  0.27318395748E+03  0.30152381058E+03  0.12500355381E+03 0.  0.
          5    1    3    3  502    0  0.46580386545E+02  0.68717505613E+01  0.29050930198E+02  0.55524768454E+02  0.47000000000E+01 0. -1.
         -5    1    3    3    0  502 -0.23571730560E+02 -0.18354215718E+02  0.24413302729E+03  0.24599904213E+03  0.47000000000E+01 0. -1.
        -11    1    1    2    0    0 -0.36584494029E+02 -0.31625503414E+02  0.13106065866E+03  0.13969786654E+03  0.00000000000E+00 0.  1.
         11    1    1    2    0    0  0.13575838044E+02  0.43107968571E+02  0.17493166871E+03  0.18067564599E+03  0.00000000000E+00 0. -1.
<mgrwt>
<rscale>  0 0.11851398E+03</rscale>
<asrwt>0</asrwt>
<pdfrwt beam="1">  1        1 0.92390264E-01 0.12762106E+03</pdfrwt>
<pdfrwt beam="2">  1       -1 0.32862342E-02 0.12762106E+03</pdfrwt>
<totfact> 0.10991516E+04</totfact>
</mgrwt>
</event>
<event>
 7    1  0.6095443E-006  0.1596021E+03  0.7546771E-02  0.1197020E+00
          1   -1    0    0  501    0  0.00000000000E+00  0.00000000000E+00  0.16973166149E+03  0.16973166149E+03  0.00000000000E+00 0. -1.
         -1   -1    0    0    0  501 -0.00000000000E+00 -0.00000000000E+00 -0.15762829642E+03  0.15762829642E+03  0.00000000000E+00 0.  1.
         23    2    1    2    0    0  0.97927508927E+02  0.16081708264E+02 -0.65251282640E+02  0.17242554586E+03  0.12499768252E+03 0.  0.
          5    1    3    3  502    0 -0.16474078538E+00  0.51097688802E+02 -0.39192993511E+01  0.51463111525E+02  0.47000000000E+01 0. -1.
         -5    1    3    3    0  502  0.98092249713E+02 -0.35015980539E+02 -0.61331983289E+02  0.12096243434E+03  0.47000000000E+01 0. -1.
        -11    1    1    2    0    0 -0.77900870680E+02 -0.50781436769E+02  0.63238057026E+02  0.11245599953E+03  0.00000000000E+00 0. -1.
         11    1    1    2    0    0 -0.20026638247E+02  0.34699728506E+02  0.14116590677E+02  0.42478412520E+02  0.00000000000E+00 0.  1.
<mgrwt>
<rscale>  0 0.15284497E+03</rscale>
<asrwt>0</asrwt>
<pdfrwt beam="1">  1        1 0.26112563E-01 0.15960213E+03</pdfrwt>
<pdfrwt beam="2">  1       -1 0.24250507E-01 0.15960213E+03</pdfrwt>
<totfact> 0.25889973E+03</totfact>
</mgrwt>
</event>
<event>
 7    1  0.6095443E-006  0.1635629E+03  0.7546771E-02  0.1192053E+00
         -2   -1    0    0    0  501 -0.00000000000E+00  0.00000000000E+00  0.25051310853E+02  0.25051310853E+02  0.00000000000E+00 0.  1.
          2   -1    0    0  501    0  0.00000000000E+00 -0.00000000000E+00 -0.91819537124E+03  0.91819537124E+03  0.00000000000E+00 0. -1.
         23    2    1    2    0    0  0.86098562629E+02 -0.60955511982E+02 -0.45078590082E+03  0.47954223382E+03  0.12499715482E+03 0.  0.
          5    1    3    3  502    0  0.96281738774E+02 -0.89965387119E+02 -0.34749812328E+03  0.37167321639E+03  0.47000000000E+01 0. -1.
         -5    1    3    3    0  502 -0.10183176146E+02  0.29009875137E+02 -0.10328777754E+03  0.10786901743E+03  0.47000000000E+01 0. -1.
        -11    1    1    2    0    0 -0.15801088668E+02  0.63955032684E+01 -0.55540416338E+01  0.17928308443E+02  0.00000000000E+00 0.  1.
         11    1    1    2    0    0 -0.70297473961E+02  0.54560008713E+02 -0.43680411794E+03  0.44577613983E+03  0.00000000000E+00 0. -1.
<mgrwt>
<rscale>  0 0.15706293E+03</rscale>
<asrwt>0</asrwt>
<pdfrwt beam="2">  1        2 0.14126082E+00 0.16356291E+03</pdfrwt>
<pdfrwt beam="1">  1       -2 0.38540479E-02 0.16356291E+03</pdfrwt>
<totfact> 0.83804620E+03</totfact>
</mgrwt>
</event>
<event>
 7    1  0.6095443E-006  0.1278976E+03  0.7546771E-02  0.1246955E+00
         -2   -1    0    0    0  501 -0.00000000000E+00  0.00000000000E+00  0.54769451936E+02  0.54769451936E+02  0.00000000000E+00 0.  1.
          2   -1    0    0  501    0  0.00000000000E+00 -0.00000000000E+00 -0.22568606708E+03  0.22568606708E+03  0.00000000000E+00 0. -1.
         23    2    1    2    0    0 -0.15026815479E+02  0.22341641935E+02 -0.77480668459E+02  0.14953608280E+03  0.12503132378E+03 0.  0.
          5    1    3    3  502    0 -0.54483306570E+02 -0.27322556434E+02 -0.54530692530E+02  0.81918491275E+02  0.47000000000E+01 0. -1.
         -5    1    3    3    0  502  0.39456491091E+02  0.49664198369E+02 -0.22949975929E+02  0.67617591528E+02  0.47000000000E+01 0. -1.
        -11    1    1    2    0    0  0.39008221713E+02 -0.23882466227E+02 -0.96405927136E+02  0.10670574652E+03  0.00000000000E+00 0. -1.
         11    1    1    2    0    0 -0.23981406234E+02  0.15408242920E+01  0.29699804521E+01  0.24213689689E+02  0.00000000000E+00 0.  1.
<mgrwt>
<rscale>  0 0.11769114E+03</rscale>
<asrwt>0</asrwt>
<pdfrwt beam="2">  1        2 0.34720932E-01 0.12789756E+03</pdfrwt>
<pdfrwt beam="1">  1       -2 0.84260698E-02 0.12789756E+03</pdfrwt>
<totfact> 0.12164862E+04</totfact>
</mgrwt>
</event>
<event>
 7    1  0.6095443E-006  0.2137020E+03  0.7546771E-02  0.1142178E+00
          2   -1    0    0  501    0  0.00000000000E+00  0.00000000000E+00  0.10993686225E+04  0.10993686225E+04  0.00000000000E+00 0.  1.
         -2   -1    0    0    0  501 -0.00000000000E+00 -0.00000000000E+00 -0.40504458759E+02  0.40504458759E+02  0.00000000000E+00 0. -1.
         23    2    1    2    0    0  0.15917790638E+03 -0.68574226208E+02  0.41588469169E+03  0.46757739515E+03  0.12501405241E+03 0.  0.
          5    1    3    3  502    0  0.48368563184E+02 -0.56445508435E+02  0.28979247358E+03  0.29921126495E+03  0.47000000000E+01 0. -1.
         -5    1    3    3    0  502  0.11080934319E+03 -0.12128717774E+02  0.12609221811E+03  0.16836613021E+03  0.47000000000E+01 0. -1.
        -11    1    1    2    0    0 -0.84470039543E+02 -0.13319342351E+02  0.28017977272E+03  0.29293906790E+03  0.00000000000E+00 0.  1.
         11    1    1    2    0    0 -0.74707866836E+02  0.81893568559E+02  0.36279969931E+03  0.37935661818E+03  0.00000000000E+00 0. -1.
<mgrwt>
<rscale>  0 0.20922906E+03</rscale>
<asrwt>0</asrwt>
<pdfrwt beam="1">  1        2 0.16913361E+00 0.21370200E+03</pdfrwt>
<pdfrwt beam="2">  1       -2 0.62314560E-02 0.21370200E+03</pdfrwt>
<totfact> 0.31764746E+03</totfact>
</mgrwt>
</event>
<event>
 7    1  0.6095443E-006  0.2077559E+03  0.7546771E-02  0.1146899E+00
          1   -1    0    0  501    0  0.00000000000E+00  0.00000000000E+00  0.33353551319E+03  0.33353551319E+03  0.00000000000E+00 0. -1.
         -1   -1    0    0    0  501 -0.00000000000E+00 -0.00000000000E+00 -0.13276849423E+03  0.13276849423E+03  0.00000000000E+00 0.  1.
         23    2    1    2    0    0 -0.60347097797E+02 -0.15459651770E+03  0.29484664179E+02  0.20983774197E+03  0.12498270694E+03 0.  0.
          5    1    3    3  502    0 -0.89257073873E+02 -0.97870662641E+02 -0.12959484457E+02  0.13317481023E+03  0.47000000000E+01 0.  1.
         -5    1    3    3    0  502  0.28909976076E+02 -0.56725855064E+02  0.42444148636E+02  0.76662931739E+02  0.47000000000E+01 0.  1.
        -11    1    1    2    0    0 -0.13179671117E+02  0.53453718957E+02  0.16477908398E+02  0.57467601884E+02  0.00000000000E+00 0.  1.
         11    1    1    2    0    0  0.73526768914E+02  0.10114279875E+03  0.15480444638E+03  0.19899866357E+03  0.00000000000E+00 0. -1.
<mgrwt>
<rscale>  0 0.20340348E+03</rscale>
<asrwt>0</asrwt>
<pdfrwt beam="1">  1        1 0.51313155E-01 0.20775594E+03</pdfrwt>
<pdfrwt beam="2">  1       -1 0.20425922E-01 0.20775594E+03</pdfrwt>
<totfact> 0.14831684E+03</totfact>
</mgrwt>
</event>
<event>
 7    1  0.6095443E-006  0.1299614E+03  0.7546771E-02  0.1240333E+00
         -1   -1    0    0    0  501 -0.00000000000E+00  0.00000000000E+00  0.18183144559E+02  0.18183144559E+02  0.00000000000E+00 0.  1.
          1   -1    0    0  501    0  0.00000000000E+00 -0.00000000000E+00 -0.73875434042E+03  0.73875434042E+03  0.00000000000E+00 0. -1.
         23    2    1    2    0    0  0.24381438376E+02  0.25888257171E+02 -0.35823757006E+03  0.38108281955E+03  0.12500120941E+03 0.  0.
          5    1    3    3  502    0 -0.23172826831E+02 -0.21350605255E+01 -0.29914073688E+03  0.30008133706E+03  0.47000000000E+01 0.  1.
         -5    1    3    3    0  502  0.47554265207E+02  0.28023317697E+02 -0.59096833175E+02  0.81001482489E+02  0.47000000000E+01 0.  1.
        -11    1    1    2    0    0 -0.26749853442E+02 -0.53917302228E+02 -0.31576378635E+03  0.32144890560E+03  0.00000000000E+00 0.  1.
         11    1    1    2    0    0  0.23684150668E+01  0.28029045056E+02 -0.46569839450E+02  0.54405759834E+02  0.00000000000E+00 0. -1.
<mgrwt>
<rscale>  0 0.12169084E+03</rscale>
<asrwt>0</asrwt>
<pdfrwt beam="2">  1        1 0.11365451E+00 0.12996137E+03</pdfrwt>
<pdfrwt beam="1">  1       -1 0.27974068E-02 0.12996137E+03</pdfrwt>
<totfact> 0.10400544E+04</totfact>
</mgrwt>
</event>
<event>
 6    1  0.6095443E-006  0.5256690E+03  0.7546771E-02  0.1058188E+00
         -1   -1    0    0    0  501 -0.00000000000E+00  0.00000000000E+00  0.12463703347E+03  0.12463703347E+03  0.00000000000E+00 0.  1.
          1   -1    0    0  501    0  0.00000000000E+00 -0.00000000000E+00 -0.84526542145E+03  0.84526542145E+03  0.00000000000E+00 0. -1.
          5    1    1    2  502    0 -0.14681894686E+03  0.23636846813E+03 -0.40512689975E+03  0.49150356131E+03  0.47000000000E+01 0. -1.
         -5    1    1    2    0  502  0.15235922337E+03 -0.16230862388E+03 -0.12631560639E+03  0.25599832958E+03  0.47000000000E+01 0.  1.
        -11    1    1    2    0    0 -0.38748615526E+02 -0.67590645056E+02 -0.15898831258E+03  0.17705150109E+03  0.00000000000E+00 0.  1.
         11    1    1    2    0    0  0.33208339022E+02 -0.64691991911E+01 -0.30197569263E+02  0.45349062925E+02  0.00000000000E+00 0. -1.
<mgrwt>
<rscale>  0 0.36100083E+03</rscale>
<asrwt>0</asrwt>
<pdfrwt beam="2">  1        1 0.13004084E+00 0.52566904E+03</pdfrwt>
<pdfrwt beam="1">  1       -1 0.19174927E-01 0.52566904E+03</pdfrwt>
<totfact> 0.45143532E+02</totfact>
</mgrwt>
</event>
<event>
 7    1  0.6095443E-006  0.1429221E+03  0.7546771E-02  0.1219360E+00
          1   -1    0    0  501    0  0.00000000000E+00  0.00000000000E+00  0.50807260697E+03  0.50807260697E+03  0.00000000000E+00 0. -1.
         -1   -1    0    0    0  501 -0.00000000000E+00 -0.00000000000E+00 -0.54428843474E+02  0.54428843474E+02  0.00000000000E+00 0.  1.
         23    2    1    2    0    0 -0.54733924104E+02  0.42506408123E+02  0.65089697447E+02  0.15704586445E+03  0.12499655054E+03 0.  0.
          5    1    3    3  502    0  0.32143126584E+02  0.99664007600E+01  0.53579009216E+02  0.63445330477E+02  0.47000000000E+01 0. -1.
         -5    1    3    3    0  502 -0.86877050689E+02  0.32540007363E+02  0.11510688231E+02  0.93600533968E+02  0.47000000000E+01 0. -1.
        -11    1    1    2    0    0  0.53113088527E+02 -0.68933412355E+02  0.32836528642E+03  0.33970071657E+03  0.00000000000E+00 0. -1.
         11    1    1    2    0    0  0.16208355767E+01  0.26427004231E+02  0.60188779632E+02  0.65754869433E+02  0.00000000000E+00 0.  1.
<mgrwt>
<rscale>  0 0.13561057E+03</rscale>
<asrwt>0</asrwt>
<pdfrwt beam="1">  1        1 0.78165013E-01 0.14292213E+03</pdfrwt>
<pdfrwt beam="2">  1       -1 0.83736686E-02 0.14292213E+03</pdfrwt>
<totfact> 0.34530239E+03</totfact>
</mgrwt>
</event>
<event>
 7    1  0.6095443E-006  0.1431908E+03  0.7546771E-02  0.1218746E+00
          1   -1    0    0  501    0  0.00000000000E+00  0.00000000000E+00  0.21431471787E+02  0.21431471787E+02  0.00000000000E+00 0. -1.
         -1   -1    0    0    0  501 -0.00000000000E+00 -0.00000000000E+00 -0.80331371802E+03  0.80331371802E+03  0.00000000000E+00 0.  1.
         23    2    1    2    0    0 -0.28190568002E+02 -0.63904033041E+02 -0.48695592578E+03  0.50757233610E+03  0.12500067666E+03 0.  0.
          5    1    3    3  502    0 -0.69048811525E+02 -0.33823008870E+02 -0.17120520786E+03  0.18773664400E+03  0.47000000000E+01 0.  1.
         -5    1    3    3    0  502  0.40858243523E+02 -0.30081024170E+02 -0.31575071792E+03  0.31983569210E+03  0.47000000000E+01 0.  1.
        -11    1    1    2    0    0  0.40269365499E+02  0.62227329477E+01 -0.20927918438E+03  0.21320910210E+03  0.00000000000E+00 0.  1.
         11    1    1    2    0    0 -0.12078797497E+02  0.57681300093E+02 -0.85647136077E+02  0.10396375160E+03  0.00000000000E+00 0. -1.
<mgrwt>
<rscale>  0 0.13604946E+03</rscale>
<asrwt>0</asrwt>
<pdfrwt beam="1">  1        1 0.32971493E-02 0.14319079E+03</pdfrwt>
<pdfrwt beam="2">  1       -1 0.12358673E+00 0.14319079E+03</pdfrwt>
<totfact> 0.17912438E+03</totfact>
</mgrwt>
</event>
<event>
 7    1  0.6095443E-006  0.1328352E+03  0.7546771E-02  0.1237280E+00
         -1   -1    0    0    0  501 -0.00000000000E+00  0.00000000000E+00  0.68953153454E+03  0.68953153454E+03  0.00000000000E+00 0. -1.
          1   -1    0    0  501    0  0.00000000000E+00 -0.00000000000E+00 -0.19698520739E+02  0.19698520739E+02  0.00000000000E+00 0.  1.
         23    2    1    2    0    0 -0.92905958401E+01  0.43969817606E+02  0.40970860638E+03  0.43070446493E+03  0.12500213573E+03 0.  0.
          5    1    3    3  502    0 -0.61173594134E+02  0.51618531984E+02  0.24835135594E+03  0.26097349953E+03  0.47000000000E+01 0.  1.
         -5    1    3    3    0  502  0.51882998294E+02 -0.76487143779E+01  0.16135725044E+03  0.16973096540E+03  0.47000000000E+01 0.  1.
        -11    1    1    2    0    0  0.34941632698E+02 -0.39848291554E+01  0.19367133856E+03  0.19683847169E+03  0.00000000000E+00 0. -1.
         11    1    1    2    0    0 -0.25651036857E+02 -0.39984988451E+02  0.66453068862E+02  0.81687118657E+02  0.00000000000E+00 0.  1.
<mgrwt>
<rscale>  0 0.12359587E+03</rscale>
<asrwt>0</asrwt>
<pdfrwt beam="2">  1        1 0.30305422E-02 0.13283521E+03</pdfrwt>
<pdfrwt beam="1">  1       -1 0.10608176E+00 0.13283521E+03</pdfrwt>
<totfact> 0.28535009E+03</totfact>
</mgrwt>
</event>
<event>
 7    1  0.6095443E-006  0.1315309E+03  0.7546771E-02  0.1238378E+00
         -1   -1    0    0    0  501 -0.00000000000E+00  0.00000000000E+00  0.94894621592E+02  0.94894621592E+02  0.00000000000E+00 0.  1.
          1   -1    0    0  501    0  0.00000000000E+00 -0.00000000000E+00 -0.14769140749E+03  0.14769140749E+03  0.00000000000E+00 0. -1.
         23    2    1    2    0    0  0.24871180021E+02  0.32501242549E+02 -0.53276676804E+01  0.13163878059E+03  0.12500191259E+03 0.  0.
          5    1    3    3  502    0  0.71618280133E+02  0.19053695655E+01 -0.18295113332E+02  0.74091900059E+02  0.47000000000E+01 0. -1.
         -5    1    3    3    0  502 -0.46747100113E+02  0.30595872984E+02  0.12967445652E+02  0.57546880535E+02  0.47000000000E+01 0. -1.
        -11    1    1    2    0    0 -0.30504676390E+02  0.79656475248E+01  0.16084525852E+02  0.35393485192E+02  0.00000000000E+00 0.  1.
         11    1    1    2    0    0  0.56334963691E+01 -0.40466890074E+02 -0.63553644069E+02  0.75553763295E+02  0.00000000000E+00 0. -1.
<mgrwt>
<rscale>  0 0.12290624E+03</rscale>
<asrwt>0</asrwt>
<pdfrwt beam="2">  1        1 0.22721755E-01 0.13153093E+03</pdfrwt>
<pdfrwt beam="1">  1       -1 0.14599173E-01 0.13153093E+03</pdfrwt>
<totfact> 0.68746590E+03</totfact>
</mgrwt>
</event>
<event>
 7    1  0.6095443E-006  0.1562759E+03  0.7546771E-02  0.1201051E+00
         -2   -1    0    0    0  501 -0.00000000000E+00  0.00000000000E+00  0.65879667159E+02  0.65879667159E+02  0.00000000000E+00 0.  1.
          2   -1    0    0  501    0  0.00000000000E+00 -0.00000000000E+00 -0.31325600067E+03  0.31325600067E+03  0.00000000000E+00 0. -1.
         23    2    1    2    0    0 -0.76018634141E+02 -0.54946586039E+02 -0.13117842345E+03  0.20403416671E+03  0.12499680937E+03 0.  0.
          5    1    3    3  502    0 -0.43757964036E+02 -0.86586103478E+02 -0.45940842311E+02  0.10744563148E+03  0.47000000000E+01 0. -1.
         -5    1    3    3    0  502 -0.32260670105E+02  0.31639517440E+02 -0.85237581140E+02  0.96588535231E+02  0.47000000000E+01 0. -1.
        -11    1    1    2    0    0 -0.18938054049E+02  0.23810858788E+02 -0.20116116707E+02  0.36472798614E+02  0.00000000000E+00 0. -1.
         11    1    1    2    0    0  0.94956688191E+02  0.31135727250E+02 -0.96081793351E+02  0.13862870250E+03  0.00000000000E+00 0.  1.
<mgrwt>
<rscale>  0 0.14953030E+03</rscale>
<asrwt>0</asrwt>
<pdfrwt beam="2">  1        2 0.48193231E-01 0.15627592E+03</pdfrwt>
<pdfrwt beam="1">  1       -2 0.10135333E-01 0.15627592E+03</pdfrwt>
<totfact> 0.65221247E+03</totfact>
</mgrwt>
</event>
<event>
 7    1  0.6095443E-006  0.1415348E+03  0.7546771E-02  0.1221035E+00
         -4   -1    0    0    0  501 -0.00000000000E+00  0.00000000000E+00  0.21425795402E+03  0.21425795402E+03  0.00000000000E+00 0.  1.
          4   -1    0    0  501    0  0.00000000000E+00 -0.00000000000E+00 -0.77132056401E+02  0.77132056401E+02  0.00000000000E+00 0. -1.
         23    2    1    2    0    0 -0.65698357592E+02 -0.93518812865E+01  0.83749117648E+02  0.16445676593E+03  0.12501352438E+03 0.  0.
          5    1    3    3  502    0 -0.81333335497E+02  0.77194822959E+00  0.30789540966E+01  0.81530836654E+02  0.47000000000E+01 0. -1.
         -5    1    3    3    0  502  0.15634977905E+02 -0.10123829516E+02  0.80670163552E+02  0.82925929272E+02  0.47000000000E+01 0. -1.
        -11    1    1    2    0    0  0.51854180001E+02  0.46174771136E+02  0.53401489136E+02  0.87593861172E+02  0.00000000000E+00 0.  1.
         11    1    1    2    0    0  0.13844177591E+02 -0.36822889849E+02 -0.24709160928E-01  0.39339383327E+02  0.00000000000E+00 0. -1.
<mgrwt>
<rscale>  0 0.13442425E+03</rscale>
<asrwt>0</asrwt>
<pdfrwt beam="2">  1        4 0.11866470E-01 0.14153485E+03</pdfrwt>
<pdfrwt beam="1">  1       -4 0.32962762E-01 0.14153485E+03</pdfrwt>
<totfact> 0.83845193E+02</totfact>
</mgrwt>
</event>
<event>
 7    1  0.6095443E-006  0.2217633E+03  0.7546771E-02  0.1135960E+00
          2   -1    0    0  501    0  0.00000000000E+00  0.00000000000E+00  0.24705730439E+03  0.24705730439E+03  0.00000000000E+00 0. -1.
         -2   -1    0    0    0  501 -0.00000000000E+00 -0.00000000000E+00 -0.19347655937E+03  0.19347655937E+03  0.00000000000E+00 0.  1.
         23    2    1    2    0    0  0.72138426824E+02  0.16837287256E+03 -0.21862688953E+02  0.22283837850E+03  0.12500235568E+03 0.  0.
          5    1    3    3  502    0  0.62435060202E+02  0.15415306976E+03 -0.63067661829E+02  0.17793517254E+03  0.47000000000E+01 0. -1.
         -5    1    3    3    0  502  0.97033666224E+01  0.14219802798E+02  0.41204972875E+02  0.44903205955E+02  0.47000000000E+01 0. -1.
        -11    1    1    2    0    0 -0.61403517055E+02 -0.17106217285E+03  0.47815362996E+02  0.18793341327E+03  0.00000000000E+00 0.  1.
         11    1    1    2    0    0 -0.10734909769E+02  0.26893002880E+01  0.27628070973E+02  0.29762071996E+02  0.00000000000E+00 0. -1.
<mgrwt>
<rscale>  0 0.21723699E+03</rscale>
<asrwt>0</asrwt>
<pdfrwt beam="1">  1        2 0.38008816E-01 0.22176331E+03</pdfrwt>
<pdfrwt beam="2">  1       -2 0.29765625E-01 0.22176331E+03</pdfrwt>
<totfact> 0.13948676E+03</totfact>
</mgrwt>
</event>
<event>
 7    1  0.6095443E-006  0.1291966E+03  0.7546771E-02  0.1242726E+00
         -2   -1    0    0    0  501 -0.00000000000E+00  0.00000000000E+00  0.39872442220E+02  0.39872442220E+02  0.00000000000E+00 0.  1.
          2   -1    0    0  501    0  0.00000000000E+00 -0.00000000000E+00 -0.32612408746E+03  0.32612408746E+03  0.00000000000E+00 0. -1.
         23    2    1    2    0    0 -0.12239969743E+02  0.30308572649E+02 -0.13935338625E+03  0.19002929427E+03  0.12499335977E+03 0.  0.
          5    1    3    3  502    0  0.19553512649E+02  0.42511960719E+02 -0.54986173975E+00  0.47031893530E+02  0.47000000000E+01 0. -1.
         -5    1    3    3    0  502 -0.31793482393E+02 -0.12203388069E+02 -0.13880352451E+03  0.14299740074E+03  0.47000000000E+01 0. -1.
        -11    1    1    2    0    0  0.25825709357E+02 -0.91835755802E+01 -0.48391422523E+00  0.27414220711E+02  0.00000000000E+00 0.  1.
         11    1    1    2    0    0 -0.13585739614E+02 -0.21124997069E+02 -0.14641434477E+03  0.14855301470E+03  0.00000000000E+00 0. -1.
<mgrwt>
<rscale>  0 0.12022500E+03</rscale>
<asrwt>0</asrwt>
<pdfrwt beam="2">  1        2 0.50172938E-01 0.12919662E+03</pdfrwt>
<pdfrwt beam="1">  1       -2 0.61342217E-02 0.12919662E+03</pdfrwt>
<totfact> 0.13396030E+04</totfact>
</mgrwt>
</event>
<event>
 7    1  0.6095443E-006  0.1421235E+03  0.7546771E-02  0.1220083E+00
          2   -1    0    0  501    0  0.00000000000E+00  0.00000000000E+00  0.39554796313E+03  0.39554796313E+03  0.00000000000E+00 0. -1.
         -2   -1    0    0    0  501 -0.00000000000E+00 -0.00000000000E+00 -0.48613357979E+02  0.48613357979E+02  0.00000000000E+00 0.  1.
         23    2    1    2    0    0  0.48612226556E+02  0.51437081605E+02  0.10786540614E+03  0.17842098117E+03  0.12324844318E+03 0.  0.
          5    1    3    3  502    0 -0.15591014118E+02  0.60787531115E+02  0.14417904487E+02  0.64561363292E+02  0.47000000000E+01 0. -1.
         -5    1    3    3    0  502  0.64203240674E+02 -0.93504495099E+01  0.93447501653E+02  0.11385961788E+03  0.47000000000E+01 0.  1.
        -11    1    1    2    0    0  0.11855295558E+02 -0.20331710783E+01 -0.21312569269E+01  0.12215730576E+02  0.00000000000E+00 0.  1.
         11    1    1    2    0    0 -0.60467522114E+02 -0.49403910527E+02  0.24120045594E+03  0.25352460936E+03  0.00000000000E+00 0. -1.
<mgrwt>
<rscale>  0 0.13509698E+03</rscale>
<asrwt>0</asrwt>
<pdfrwt beam="1">  1        2 0.60853531E-01 0.14212354E+03</pdfrwt>
<pdfrwt beam="2">  1       -2 0.74789784E-02 0.14212354E+03</pdfrwt>
<totfact> 0.81172065E+03</totfact>
</mgrwt>
</event>
<event>
 7    1  0.6095443E-006  0.1409593E+03  0.7546771E-02  0.1222956E+00
          2   -1    0    0  501    0  0.00000000000E+00  0.00000000000E+00  0.10371997042E+03  0.10371997042E+03  0.00000000000E+00 0. -1.
         -2   -1    0    0    0  501 -0.00000000000E+00 -0.00000000000E+00 -0.17789245727E+03  0.17789245727E+03  0.00000000000E+00 0.  1.
         23    2    1    2    0    0  0.46641185919E+02  0.45484527313E+02 -0.91843067532E+02  0.16823995756E+03  0.12500116726E+03 0.  0.
          5    1    3    3  502    0  0.23354342271E+02  0.88357598658E+02 -0.53452125171E+02  0.10597976330E+03  0.47000000000E+01 0.  1.
         -5    1    3    3    0  502  0.23286843649E+02 -0.42873071345E+02 -0.38390942361E+02  0.62260194258E+02  0.47000000000E+01 0.  1.
        -11    1    1    2    0    0 -0.43589302369E+02 -0.17572518302E+02 -0.31620378253E+02  0.56645114541E+02  0.00000000000E+00 0.  1.
         11    1    1    2    0    0 -0.30518835498E+01 -0.27912009011E+02  0.49290958933E+02  0.56727355594E+02  0.00000000000E+00 0. -1.
<mgrwt>
<rscale>  0 0.13307982E+03</rscale>
<asrwt>0</asrwt>
<pdfrwt beam="1">  1        2 0.15956919E-01 0.14095934E+03</pdfrwt>
<pdfrwt beam="2">  1       -2 0.27368070E-01 0.14095934E+03</pdfrwt>
<totfact> 0.41930788E+03</totfact>
</mgrwt>
</event>
<event>
 7    1  0.6095443E-006  0.1300043E+03  0.7546771E-02  0.1241296E+00
          2   -1    0    0  501    0  0.00000000000E+00  0.00000000000E+00  0.11024696392E+03  0.11024696392E+03  0.00000000000E+00 0.  1.
         -2   -1    0    0    0  501 -0.00000000000E+00 -0.00000000000E+00 -0.12898375841E+03  0.12898375841E+03  0.00000000000E+00 0. -1.
         23    2    1    2    0    0  0.29776929200E+02  0.19732441436E+02 -0.45540552385E+02  0.13774997914E+03  0.12500032033E+03 0.  0.
          5    1    3    3  502    0  0.14244907010E+01  0.23938717393E+02 -0.85175443778E+02  0.88611723756E+02  0.47000000000E+01 0. -1.
         -5    1    3    3    0  502  0.28352438499E+02 -0.42062759572E+01  0.39634891393E+02  0.49138255382E+02  0.47000000000E+01 0. -1.
        -11    1    1    2    0    0 -0.20571906748E+02 -0.95617368949E+01  0.60760800757E+02  0.64857575258E+02  0.00000000000E+00 0.  1.
         11    1    1    2    0    0 -0.92050224517E+01 -0.10170704541E+02 -0.33957042866E+02  0.36623167932E+02  0.00000000000E+00 0. -1.
<mgrwt>
<rscale>  0 0.12109839E+03</rscale>
<asrwt>0</asrwt>
<pdfrwt beam="1">  1        2 0.16961071E-01 0.13000429E+03</pdfrwt>
<pdfrwt beam="2">  1       -2 0.19843655E-01 0.13000429E+03</pdfrwt>
<totfact> 0.67749212E+03</totfact>
</mgrwt>
</event>
<event>
 7    1  0.6095443E-006  0.1346801E+03  0.7546771E-02  0.1233638E+00
         -4   -1    0    0    0  501 -0.00000000000E+00  0.00000000000E+00  0.85163189537E+02  0.85163189537E+02  0.00000000000E+00 0.  1.
          4   -1    0    0  501    0  0.00000000000E+00 -0.00000000000E+00 -0.16728247852E+03  0.16728247852E+03  0.00000000000E+00 0. -1.
         23    2    1    2    0    0 -0.39871279600E+02  0.30408818342E+02 -0.34378148540E+02  0.13899851306E+03  0.12499725743E+03 0.  0.
          5    1    3    3  502    0 -0.55503517721E+02 -0.25133490963E+02 -0.50087287395E+02  0.79013664679E+02  0.47000000000E+01 0.  1.
         -5    1    3    3    0  502  0.15632238120E+02  0.55542309305E+02  0.15709138854E+02  0.59984848380E+02  0.47000000000E+01 0.  1.
        -11    1    1    2    0    0  0.67585215063E+02 -0.15465391535E+02 -0.43058668225E+02  0.81614879401E+02  0.00000000000E+00 0. -1.
         11    1    1    2    0    0 -0.27713935462E+02 -0.14943426807E+02 -0.46824722164E+01  0.31832275595E+02  0.00000000000E+00 0.  1.
<mgrwt>
<rscale>  0 0.12592005E+03</rscale>
<asrwt>0</asrwt>
<pdfrwt beam="2">  1        4 0.25735766E-01 0.13468010E+03</pdfrwt>
<pdfrwt beam="1">  1       -4 0.13102029E-01 0.13468010E+03</pdfrwt>
<totfact> 0.11160088E+03</totfact>
</mgrwt>
</event>
<event>
 7    1  0.6095443E-006  0.1384376E+03  0.7546771E-02  0.1225853E+00
          1   -1    0    0  501    0  0.00000000000E+00  0.00000000000E+00  0.57068372048E+02  0.57068372048E+02  0.00000000000E+00 0. -1.
         -1   -1    0    0    0  501 -0.00000000000E+00 -0.00000000000E+00 -0.32633232282E+03  0.32633232282E+03  0.00000000000E+00 0.  1.
         23    2    1    2    0    0 -0.44879141541E+02 -0.39086050759E+02 -0.22385125588E+03  0.26320023720E+03  0.12499249335E+03 0.  0.
          5    1    3    3  502    0  0.43632364175E+01  0.33698706054E+02 -0.13039316890E+03  0.13482992664E+03  0.47000000000E+01 0. -1.
         -5    1    3    3    0  502 -0.49242377958E+02 -0.72784756812E+02 -0.93458086984E+02  0.12837031056E+03  0.47000000000E+01 0. -1.
        -11    1    1    2    0    0 -0.16301466770E+02  0.19559999853E+02 -0.49693421830E+02  0.55836973291E+02  0.00000000000E+00 0.  1.
         11    1    1    2    0    0  0.61180608310E+02  0.19526050906E+02  0.42807269472E+01  0.64363484371E+02  0.00000000000E+00 0. -1.
<mgrwt>
<rscale>  0 0.13108600E+03</rscale>
<asrwt>0</asrwt>
<pdfrwt beam="1">  1        1 0.87797496E-02 0.13843764E+03</pdfrwt>
<pdfrwt beam="2">  1       -1 0.50204972E-01 0.13843764E+03</pdfrwt>
<totfact> 0.30129164E+03</totfact>
</mgrwt>
</event>
<event>
 7    1  0.6095443E-006  0.1302272E+03  0.7546771E-02  0.1240968E+00
          4   -1    0    0  501    0  0.00000000000E+00  0.00000000000E+00  0.92478257816E+02  0.92478257816E+02  0.00000000000E+00 0. -1.
         -4   -1    0    0    0  501 -0.00000000000E+00 -0.00000000000E+00 -0.20216003831E+03  0.20216003831E+03  0.00000000000E+00 0.  1.
         23    2    1    2    0    0  0.11018917019E+02 -0.34824067558E+02 -0.14080167862E+03  0.19179218507E+03  0.12499998935E+03 0.  0.
          5    1    3    3  502    0  0.11734239690E+02 -0.78415380414E+02 -0.11834043753E+03  0.14252443096E+03  0.47000000000E+01 0. -1.
         -5    1    3    3    0  502 -0.71532267138E+00  0.43591312856E+02 -0.22461241084E+02  0.49267754101E+02  0.47000000000E+01 0. -1.
        -11    1    1    2    0    0 -0.31435581458E+02  0.45615275145E+02 -0.94170253169E+01  0.56192788452E+02  0.00000000000E+00 0. -1.
         11    1    1    2    0    0  0.20416664440E+02 -0.10791207587E+02  0.40536923442E+02  0.46653322606E+02  0.00000000000E+00 0.  1.
<mgrwt>
<rscale>  0 0.12129989E+03</rscale>
<asrwt>0</asrwt>
<pdfrwt beam="1">  1        4 0.14227424E-01 0.13022722E+03</pdfrwt>
<pdfrwt beam="2">  1       -4 0.31101544E-01 0.13022722E+03</pdfrwt>
<totfact> 0.67381208E+02</totfact>
</mgrwt>
</event>
<event>
 7    1  0.6095443E-006  0.1305526E+03  0.7546771E-02  0.1239530E+00
         -1   -1    0    0    0  501 -0.00000000000E+00  0.00000000000E+00  0.47790582634E+02  0.47790582634E+02  0.00000000000E+00 0.  1.
          1   -1    0    0  501    0  0.00000000000E+00 -0.00000000000E+00 -0.28950458014E+03  0.28950458014E+03  0.00000000000E+00 0. -1.
         23    2    1    2    0    0 -0.11675091704E+02  0.35804483093E+02 -0.10353255817E+03  0.16662227747E+03  0.12500289585E+03 0.  0.
          5    1    3    3  502    0  0.58175650455E+00 -0.11423393055E+02  0.25637483134E+02  0.28464063149E+02  0.47000000000E+01 0. -1.
         -5    1    3    3    0  502 -0.12256848208E+02  0.47227876148E+02 -0.12917004130E+03  0.13815821432E+03  0.47000000000E+01 0. -1.
        -11    1    1    2    0    0  0.38489238149E+02  0.10616191017E+02 -0.30013538079E+02  0.49949348675E+02  0.00000000000E+00 0.  1.
         11    1    1    2    0    0 -0.26814146445E+02 -0.46420674110E+02 -0.10816790126E+03  0.12072353663E+03  0.00000000000E+00 0. -1.
<mgrwt>
<rscale>  0 0.12218829E+03</rscale>
<asrwt>0</asrwt>
<pdfrwt beam="2">  1        1 0.44539167E-01 0.13055264E+03</pdfrwt>
<pdfrwt beam="1">  1       -1 0.73523973E-02 0.13055264E+03</pdfrwt>
<totfact> 0.84981536E+03</totfact>
</mgrwt>
</event>
<event>
 7    1  0.6095443E-006  0.1296416E+03  0.7546771E-02  0.1240894E+00
          2   -1    0    0  501    0  0.00000000000E+00  0.00000000000E+00  0.34398189330E+03  0.34398189330E+03  0.00000000000E+00 0. -1.
         -2   -1    0    0    0  501 -0.00000000000E+00 -0.00000000000E+00 -0.66035218973E+02  0.66035218973E+02  0.00000000000E+00 0.  1.
         23    2    1    2    0    0 -0.16769026029E+02  0.30008505128E+02  0.17012928057E+02  0.13075318343E+03  0.12500097857E+03 0.  0.
          5    1    3    3  502    0  0.30237461918E+02  0.22665124523E+02 -0.40749099189E+02  0.55772673037E+02  0.47000000000E+01 0.  1.
         -5    1    3    3    0  502 -0.47006487947E+02  0.73433806052E+01  0.57762027246E+02  0.74980510397E+02  0.47000000000E+01 0.  1.
        -11    1    1    2    0    0  0.20569726289E+02 -0.62544147755E+02  0.15565975482E+03  0.16901137041E+03  0.00000000000E+00 0.  1.
         11    1    1    2    0    0 -0.38007002598E+01  0.32535642627E+02  0.10527399145E+03  0.11025255843E+03  0.00000000000E+00 0. -1.
<mgrwt>
<rscale>  0 0.12134540E+03</rscale>
<asrwt>0</asrwt>
<pdfrwt beam="1">  1        2 0.52920290E-01 0.12964164E+03</pdfrwt>
<pdfrwt beam="2">  1       -2 0.10159265E-01 0.12964164E+03</pdfrwt>
<totfact> 0.58169801E+03</totfact>
</mgrwt>
</event>
<event>
 7    1  0.6095443E-006  0.1386585E+03  0.7546771E-02  0.1242163E+00
          2   -1    0    0  501    0  0.00000000000E+00  0.00000000000E+00  0.32729242562E+02  0.32729242562E+02  0.00000000000E+00 0. -1.
         -2   -1    0    0    0  501 -0.00000000000E+00 -0.00000000000E+00 -0.36900791423E+03  0.36900791423E+03  0.00000000000E+00 0.  1.
         23    2    1    2    0    0  0.17215810178E+02 -0.57487498102E+02 -0.23835052001E+03  0.27574833127E+03  0.12499990100E+03 0.  0.
          5    1    3    3  502    0 -0.32252459366E+01 -0.18554287954E+02 -0.22990829219E+03  0.23072619407E+03  0.47000000000E+01 0. -1.
         -5    1    3    3    0  502  0.20441056115E+02 -0.38933210147E+02 -0.84422278226E+01  0.45022137200E+02  0.47000000000E+01 0. -1.
        -11    1    1    2    0    0 -0.23574970565E+02  0.24641416140E+02 -0.16355034297E+02  0.37821498825E+02  0.00000000000E+00 0.  1.
         11    1    1    2    0    0  0.63591603865E+01  0.32846081961E+02 -0.81573117367E+02  0.88167326703E+02  0.00000000000E+00 0. -1.
<mgrwt>
<rscale>  0 0.12056825E+03</rscale>
<asrwt>0</asrwt>
<pdfrwt beam="1">  1        2 0.50352681E-02 0.13865847E+03</pdfrwt>
<pdfrwt beam="2">  1       -2 0.56770448E-01 0.13865847E+03</pdfrwt>
<totfact> 0.43963346E+03</totfact>
</mgrwt>
</event>
<event>
 7    1  0.6095443E-006  0.1309727E+03  0.7546771E-02  0.1239830E+00
          1   -1    0    0  501    0  0.00000000000E+00  0.00000000000E+00  0.21721415548E+03  0.21721415548E+03  0.00000000000E+00 0. -1.
         -1   -1    0    0    0  501 -0.00000000000E+00 -0.00000000000E+00 -0.60680596374E+02  0.60680596374E+02  0.00000000000E+00 0.  1.
         23    2    1    2    0    0  0.38662540169E+02 -0.54657685041E+01  0.87084050521E+02  0.15728156997E+03  0.12501677391E+03 0.  0.
          5    1    3    3  502    0  0.35908606100E+01 -0.44053738996E+02 -0.11274374868E+02  0.45856599614E+02  0.47000000000E+01 0. -1.
         -5    1    3    3    0  502  0.35071679559E+02  0.38587970492E+02  0.98358425389E+02  0.11142497036E+03  0.47000000000E+01 0. -1.
        -11    1    1    2    0    0  0.47143280219E+01  0.12669500741E+02 -0.18130083326E+02  0.22615062660E+02  0.00000000000E+00 0.  1.
         11    1    1    2    0    0 -0.43376868191E+02 -0.72037322372E+01  0.87579591907E+02  0.97998119221E+02  0.00000000000E+00 0. -1.
<mgrwt>
<rscale>  0 0.12200230E+03</rscale>
<asrwt>0</asrwt>
<pdfrwt beam="1">  1        1 0.33417562E-01 0.13097275E+03</pdfrwt>
<pdfrwt beam="2">  1       -1 0.93354765E-02 0.13097275E+03</pdfrwt>
<totfact> 0.84526527E+03</totfact>
</mgrwt>
</event>
<event>
 7    1  0.6095443E-006  0.1636520E+03  0.7546771E-02  0.1191764E+00
          2   -1    0    0  501    0  0.00000000000E+00  0.00000000000E+00  0.28002837975E+03  0.28002837975E+03  0.00000000000E+00 0. -1.
         -2   -1    0    0    0  501 -0.00000000000E+00 -0.00000000000E+00 -0.82184278421E+02  0.82184278421E+02  0.00000000000E+00 0.  1.
         23    2    1    2    0    0 -0.98327400586E+02  0.38582664596E+02  0.10893232676E+03  0.19659154454E+03  0.12500033543E+03 0.  0.
          5    1    3    3  502    0 -0.11371439931E+03  0.54287439633E+02  0.53879451168E+02  0.13712467309E+03  0.47000000000E+01 0. -1.
         -5    1    3    3    0  502  0.15386998723E+02 -0.15704775037E+02  0.55052875592E+02  0.59466871446E+02  0.47000000000E+01 0. -1.
        -11    1    1    2    0    0  0.46165814017E+02  0.22699613644E+02  0.90313992685E+01  0.52231417903E+02  0.00000000000E+00 0.  1.
         11    1    1    2    0    0  0.52161586569E+02 -0.61282278239E+02  0.79880375300E+02  0.11338969573E+03  0.00000000000E+00 0. -1.
<mgrwt>
<rscale>  0 0.15731316E+03</rscale>
<asrwt>0</asrwt>
<pdfrwt beam="1">  1        2 0.43081289E-01 0.16365202E+03</pdfrwt>
<pdfrwt beam="2">  1       -2 0.12643735E-01 0.16365202E+03</pdfrwt>
<totfact> 0.51793652E+03</totfact>
</mgrwt>
</event>
<event>
 7    1  0.6095443E-006  0.1573710E+03  0.7546771E-02  0.1198924E+00
         -2   -1    0    0    0  501 -0.00000000000E+00  0.00000000000E+00  0.15929550793E+02  0.15929550793E+02  0.00000000000E+00 0. -1.
          2   -1    0    0  501    0  0.00000000000E+00 -0.00000000000E+00 -0.13406479007E+04  0.13406479007E+04  0.00000000000E+00 0.  1.
         23    2    1    2    0    0  0.75380661077E+02 -0.58820884304E+02 -0.75637603612E+03  0.77257383336E+03  0.12499391782E+03 0.  0.
          5    1    3    3  502    0 -0.20178283208E+02  0.14651833237E+02 -0.28053060782E+03  0.28167596854E+03  0.47000000000E+01 0. -1.
         -5    1    3    3    0  502  0.95558944285E+02 -0.73472717542E+02 -0.47584542830E+03  0.49089786482E+03  0.47000000000E+01 0. -1.
        -11    1    1    2    0    0 -0.84613529111E+02  0.12330754668E+02 -0.40473537299E+03  0.41366921443E+03  0.00000000000E+00 0.  1.
         11    1    1    2    0    0  0.92328680338E+01  0.46490129636E+02 -0.16360694085E+03  0.17033440375E+03  0.00000000000E+00 0. -1.
<mgrwt>
<rscale>  0 0.15126721E+03</rscale>
<asrwt>0</asrwt>
<pdfrwt beam="2">  1        2 0.20625357E+00 0.15737096E+03</pdfrwt>
<pdfrwt beam="1">  1       -2 0.24506995E-02 0.15737096E+03</pdfrwt>
<totfact> 0.93376728E+03</totfact>
</mgrwt>
</event>
<event>
 7    1  0.6612735E-006  0.1642101E+03  0.7546771E-02  0.1190769E+00
          1   -1    0    0  501    0  0.00000000000E+00  0.00000000000E+00  0.65643779942E+02  0.65643779942E+02  0.00000000000E+00 0. -1.
         -1   -1    0    0    0  501 -0.00000000000E+00 -0.00000000000E+00 -0.37015888635E+03  0.37015888635E+03  0.00000000000E+00 0.  1.
         23    2    1    2    0    0  0.97040103686E+02 -0.43856010007E+02 -0.20620617500E+03  0.26360186518E+03  0.12499930152E+03 0.  0.
          5    1    3    3  502    0 -0.14495938735E+02 -0.50110370095E+02 -0.63701447424E+02  0.82469059863E+02  0.47000000000E+01 0. -1.
         -5    1    3    3    0  502  0.11153604242E+03  0.62543600880E+01 -0.14250472758E+03  0.18113280531E+03  0.47000000000E+01 0. -1.
        -11    1    1    2    0    0 -0.41248511666E+02  0.22924252074E+02 -0.10211347366E+03  0.11249054427E+03  0.00000000000E+00 0.  1.
         11    1    1    2    0    0 -0.55791592020E+02  0.20931757933E+02  0.38045422547E+01  0.59710256841E+02  0.00000000000E+00 0. -1.
<mgrwt>
<rscale>  0 0.15817846E+03</rscale>
<asrwt>0</asrwt>
<pdfrwt beam="1">  1        1 0.10099043E-01 0.16421010E+03</pdfrwt>
<pdfrwt beam="2">  1       -1 0.56947522E-01 0.16421010E+03</pdfrwt>
<totfact> 0.19940833E+03</totfact>
</mgrwt>
</event>
<event>
 7    1  0.6095443E-006  0.3735748E+03  0.7546771E-02  0.1054257E+00
          2   -1    0    0  501    0  0.00000000000E+00  0.00000000000E+00  0.69780740716E+03  0.69780740716E+03  0.00000000000E+00 0. -1.
         -2   -1    0    0    0  501 -0.00000000000E+00 -0.00000000000E+00 -0.19516462997E+03  0.19516462997E+03  0.00000000000E+00 0.  1.
         23    2    1    2    0    0  0.67337894323E+02 -0.34553920088E+03  0.23729329268E+03  0.44256776841E+03  0.12500556599E+03 0.  0.
          5    1    3    3  502    0  0.46182881556E+02 -0.14758011455E+03  0.34831376772E+02  0.15858140990E+03  0.47000000000E+01 0. -1.
         -5    1    3    3    0  502  0.21155012766E+02 -0.19795908633E+03  0.20246191590E+03  0.28398635851E+03  0.47000000000E+01 0. -1.
        -11    1    1    2    0    0 -0.43515891045E+02  0.51161341702E+02  0.34247518462E+02  0.75392361543E+02  0.00000000000E+00 0.  1.
         11    1    1    2    0    0 -0.23822003278E+02  0.29437785918E+03  0.23110196605E+03  0.37501190718E+03  0.00000000000E+00 0. -1.
<mgrwt>
<rscale>  0 0.37114291E+03</rscale>
<asrwt>0</asrwt>
<pdfrwt beam="1">  1        2 0.10735498E+00 0.37357479E+03</pdfrwt>
<pdfrwt beam="2">  1       -2 0.30025328E-01 0.37357479E+03</pdfrwt>
<totfact> 0.42998540E+02</totfact>
</mgrwt>
</event>
<event>
 7    1  0.6095443E-006  0.1328572E+03  0.7546771E-02  0.1238547E+00
          2   -1    0    0  501    0  0.00000000000E+00  0.00000000000E+00  0.54422587015E+03  0.54422587015E+03  0.00000000000E+00 0. -1.
         -2   -1    0    0    0  501 -0.00000000000E+00 -0.00000000000E+00 -0.26574406158E+02  0.26574406158E+02  0.00000000000E+00 0.  1.
         23    2    1    2    0    0  0.32290709046E+02  0.31364382597E+02  0.21252723254E+03  0.25063689296E+03  0.12499845260E+03 0.  0.
          5    1    3    3  502    0 -0.65623157588E+01 -0.25231161171E+02  0.16475232314E+03  0.16686849152E+03  0.47000000000E+01 0.  1.
         -5    1    3    3    0  502  0.38853024805E+02  0.56595543768E+02  0.47774909404E+02  0.83768401438E+02  0.47000000000E+01 0.  1.
        -11    1    1    2    0    0 -0.30260709589E+02 -0.50608351509E+02  0.28906215925E+03  0.29501499572E+03  0.00000000000E+00 0. -1.
         11    1    1    2    0    0 -0.20299994578E+01  0.19243968912E+02  0.16062072198E+02  0.25148387634E+02  0.00000000000E+00 0.  1.
<mgrwt>
<rscale>  0 0.12280093E+03</rscale>
<asrwt>0</asrwt>
<pdfrwt beam="1">  1        2 0.83727049E-01 0.13285717E+03</pdfrwt>
<pdfrwt beam="2">  1       -2 0.40883706E-02 0.13285717E+03</pdfrwt>
<totfact> 0.14217341E+04</totfact>
</mgrwt>
</event>
<event>
 7    1  0.6095443E-006  0.1338333E+03  0.7546771E-02  0.1232542E+00
          2   -1    0    0  501    0  0.00000000000E+00  0.00000000000E+00  0.19638573955E+03  0.19638573955E+03  0.00000000000E+00 0. -1.
         -2   -1    0    0    0  501 -0.00000000000E+00 -0.00000000000E+00 -0.95025797545E+02  0.95025797545E+02  0.00000000000E+00 0.  1.
         23    2    1    2    0    0 -0.36611737819E+02  0.30758406136E+02 -0.13185570773E+02  0.13448125661E+03  0.12499940084E+03 0.  0.
          5    1    3    3  502    0  0.45258741898E+02  0.24004954686E+02 -0.24898907810E+01  0.51506127051E+02  0.47000000000E+01 0.  1.
         -5    1    3    3    0  502 -0.81870479717E+02  0.67534514496E+01 -0.10695679992E+02  0.82975129563E+02  0.47000000000E+01 0.  1.
        -11    1    1    2    0    0 -0.64212335885E+01 -0.55647319726E+02  0.47368023841E+02  0.73359294681E+02  0.00000000000E+00 0.  1.
         11    1    1    2    0    0  0.43032971407E+02  0.24888913590E+02  0.67177488937E+02  0.83570985801E+02  0.00000000000E+00 0. -1.
<mgrwt>
<rscale>  0 0.12663120E+03</rscale>
<asrwt>0</asrwt>
<pdfrwt beam="1">  1        2 0.30213190E-01 0.13383329E+03</pdfrwt>
<pdfrwt beam="2">  1       -2 0.14619354E-01 0.13383329E+03</pdfrwt>
<totfact> 0.59176996E+03</totfact>
</mgrwt>
</event>
<event>
 7    1  0.6095443E-006  0.1154668E+03  0.7546771E-02  0.1260291E+00
          1   -1    0    0  501    0  0.00000000000E+00  0.00000000000E+00  0.31235799175E+03  0.31235799175E+03  0.00000000000E+00 0. -1.
         -1   -1    0    0    0  501 -0.00000000000E+00 -0.00000000000E+00 -0.37125300933E+02  0.37125300933E+02  0.00000000000E+00 0.  1.
         23    2    1    2    0    0  0.23490358512E+02  0.18110886194E+02  0.11552861912E+03  0.16333846505E+03  0.11159207493E+03 0.  0.
          5    1    3    3  502    0 -0.44958491146E+02  0.37600250144E+01  0.46561998793E+02  0.65003949464E+02  0.47000000000E+01 0. -1.
         -5    1    3    3    0  502  0.68448849658E+02  0.14350861180E+02  0.68966620325E+02  0.98334515584E+02  0.47000000000E+01 0.  1.
        -11    1    1    2    0    0 -0.56752004942E+02 -0.15944278113E+02  0.12400622524E+03  0.13730460287E+03  0.00000000000E+00 0. -1.
         11    1    1    2    0    0  0.33261646430E+02 -0.21666080806E+01  0.35697846453E+02  0.48840224766E+02  0.00000000000E+00 0.  1.
<mgrwt>
<rscale>  0 0.11015089E+03</rscale>
<asrwt>0</asrwt>
<pdfrwt beam="1">  1        1 0.48055074E-01 0.11546685E+03</pdfrwt>
<pdfrwt beam="2">  1       -1 0.57115850E-02 0.11546685E+03</pdfrwt>
<totfact> 0.11166864E+04</totfact>
</mgrwt>
</event>
<event>
 7    1  0.6095443E-006  0.1342817E+03  0.7546771E-02  0.1233757E+00
         -1   -1    0    0    0  501 -0.00000000000E+00  0.00000000000E+00  0.24845366806E+03  0.24845366806E+03  0.00000000000E+00 0.  1.
          1   -1    0    0  501    0  0.00000000000E+00 -0.00000000000E+00 -0.63395956391E+02  0.63395956391E+02  0.00000000000E+00 0. -1.
         23    2    1    2    0    0 -0.31443623029E+02 -0.37626304127E+02  0.15267654167E+03  0.20332660518E+03  0.12500856693E+03 0.  0.
          5    1    3    3  502    0 -0.20459425595E+01 -0.29727586917E+02  0.16675428217E+03  0.16946089793E+03  0.47000000000E+01 0.  1.
         -5    1    3    3    0  502 -0.29397680469E+02 -0.78987172095E+01 -0.14077740495E+02  0.33865707256E+02  0.47000000000E+01 0.  1.
        -11    1    1    2    0    0 -0.16075071028E+01 -0.28920689347E+02  0.53442629800E+01  0.29454227170E+02  0.00000000000E+00 0. -1.
         11    1    1    2    0    0  0.33051130131E+02  0.66546993474E+02  0.27036907021E+02  0.79068792103E+02  0.00000000000E+00 0.  1.
<mgrwt>
<rscale>  0 0.12584359E+03</rscale>
<asrwt>0</asrwt>
<pdfrwt beam="2">  1        1 0.97532242E-02 0.13428173E+03</pdfrwt>
<pdfrwt beam="1">  1       -1 0.38223641E-01 0.13428173E+03</pdfrwt>
<totfact> 0.42503364E+03</totfact>
</mgrwt>
</event>
<event>
 7    1  0.6095443E-006  0.2199808E+03  0.7546771E-02  0.1137194E+00
          2   -1    0    0  501    0  0.00000000000E+00  0.00000000000E+00  0.70028775105E+03  0.70028775105E+03  0.00000000000E+00 0. -1.
         -2   -1    0    0    0  501 -0.00000000000E+00 -0.00000000000E+00 -0.86579625260E+02  0.86579625260E+02  0.00000000000E+00 0.  1.
         23    2    1    2    0    0 -0.75964678525E+02 -0.16431087957E+03  0.11460012993E+03  0.24804182084E+03  0.12499143002E+03 0.  0.
          5    1    3    3  502    0 -0.76585598471E+02 -0.17117263709E+03  0.13157570139E+03  0.22912808815E+03  0.47000000000E+01 0. -1.
         -5    1    3    3    0  502  0.62091994676E+00  0.68617575224E+01 -0.16975571464E+02  0.18913732693E+02  0.47000000000E+01 0. -1.
        -11    1    1    2    0    0  0.44683668479E+02  0.55226001473E+02  0.92221107280E+02  0.11640993985E+03  0.00000000000E+00 0. -1.
         11    1    1    2    0    0  0.31281010046E+02  0.10908487810E+03  0.40688688858E+03  0.42241561562E+03  0.00000000000E+00 0.  1.
<mgrwt>
<rscale>  0 0.21561680E+03</rscale>
<asrwt>0</asrwt>
<pdfrwt beam="1">  1        2 0.10773657E+00 0.21998081E+03</pdfrwt>
<pdfrwt beam="2">  1       -2 0.13319943E-01 0.21998081E+03</pdfrwt>
<totfact> 0.17417291E+03</totfact>
</mgrwt>
</event>
<event>
 7    1  0.1031801E-005  0.1254003E+03  0.7546771E-02  0.1256513E+00
         -1   -1    0    0    0  501 -0.00000000000E+00  0.00000000000E+00  0.40189622179E+03  0.40189622179E+03  0.00000000000E+00 0.  1.
          1   -1    0    0  501    0  0.00000000000E+00 -0.00000000000E+00 -0.27534343300E+02  0.27534343300E+02  0.00000000000E+00 0. -1.
         23    2    1    2    0    0  0.30747446889E+01 -0.95113569029E+01  0.26978764527E+03  0.29750733608E+03  0.12500128605E+03 0.  0.
          5    1    3    3  502    0 -0.55798649067E+02  0.19829341769E+02  0.13203087967E+03  0.14477891842E+03  0.47000000000E+01 0.  1.
         -5    1    3    3    0  502  0.58873393756E+02 -0.29340698671E+02  0.13775676561E+03  0.15272841766E+03  0.47000000000E+01 0.  1.
        -11    1    1    2    0    0  0.11698983283E+02  0.20583497507E+02 -0.20013861694E+01  0.23760305681E+02  0.00000000000E+00 0. -1.
         11    1    1    2    0    0 -0.14773727972E+02 -0.11072140604E+02  0.10657561939E+03  0.10816292333E+03  0.00000000000E+00 0.  1.
<mgrwt>
<rscale>  0 0.11221993E+03</rscale>
<asrwt>0</asrwt>
<pdfrwt beam="2">  1        1 0.42360531E-02 0.12540032E+03</pdfrwt>
<pdfrwt beam="1">  1       -1 0.61830184E-01 0.12540032E+03</pdfrwt>
<totfact> 0.54483046E+03</totfact>
</mgrwt>
</event>
<event>
 6    1  0.6095443E-006  0.2170531E+03  0.7546771E-02  0.1163788E+00
          2   -1    0    0  501    0  0.00000000000E+00  0.00000000000E+00  0.18569324801E+03  0.18569324801E+03  0.00000000000E+00 0. -1.
         -2   -1    0    0    0  501 -0.00000000000E+00 -0.00000000000E+00 -0.15824861981E+03  0.15824861981E+03  0.00000000000E+00 0.  1.
          5    1    1    2  502    0 -0.12176664356E+03  0.17233810403E+02  0.67328393551E+01  0.12325396883E+03  0.47000000000E+01 0. -1.
         -5    1    1    2    0  502  0.64303556793E+02 -0.61719312707E+02 -0.33975497551E+02  0.95502070192E+02  0.47000000000E+01 0.  1.
        -11    1    1    2    0    0  0.31032541287E+02 -0.22868505070E+02  0.29613593247E+02  0.48610205182E+02  0.00000000000E+00 0. -1.
         11    1    1    2    0    0  0.26430545485E+02  0.67354007374E+02  0.25073693152E+02  0.76575623616E+02  0.00000000000E+00 0.  1.
<mgrwt>
<rscale>  0 0.18421194E+03</rscale>
<asrwt>0</asrwt>
<pdfrwt beam="1">  1        2 0.28568192E-01 0.21705309E+03</pdfrwt>
<pdfrwt beam="2">  1       -2 0.24345942E-01 0.21705309E+03</pdfrwt>
<totfact> 0.27248666E+03</totfact>
</mgrwt>
</event>
<event>
 7    1  0.6095443E-006  0.1316048E+03  0.7546771E-02  0.1238092E+00
          3   -1    0    0  501    0  0.00000000000E+00  0.00000000000E+00  0.10822764395E+03  0.10822764395E+03  0.00000000000E+00 0. -1.
         -3   -1    0    0    0  501 -0.00000000000E+00 -0.00000000000E+00 -0.13148548117E+03  0.13148548117E+03  0.00000000000E+00 0.  1.
         23    2    1    2    0    0 -0.24677752590E+02  0.32957406483E+02  0.13996652433E+02  0.13234697648E+03  0.12499853514E+03 0.  0.
          5    1    3    3  502    0  0.72071020368E+01  0.75369712054E+02  0.20765595820E+02  0.78650084454E+02  0.47000000000E+01 0.  1.
         -5    1    3    3    0  502 -0.31884854627E+02 -0.42412305571E+02 -0.67689433871E+01  0.53696892023E+02  0.47000000000E+01 0.  1.
        -11    1    1    2    0    0  0.83286298883E+01  0.21110929263E+02 -0.44954001946E+02  0.50357717394E+02  0.00000000000E+00 0.  1.
         11    1    1    2    0    0  0.16349122702E+02 -0.54068335746E+02  0.76995122913E+01  0.57008431245E+02  0.00000000000E+00 0. -1.
<mgrwt>
<rscale>  0 0.12308533E+03</rscale>
<asrwt>0</asrwt>
<pdfrwt beam="1">  1        3 0.16650407E-01 0.13160477E+03</pdfrwt>
<pdfrwt beam="2">  1       -3 0.20228536E-01 0.13160477E+03</pdfrwt>
<totfact> 0.15569335E+03</totfact>
</mgrwt>
</event>
<event>
 7    1  0.6095443E-006  0.1306817E+03  0.7546771E-02  0.1239524E+00
         -1   -1    0    0    0  501 -0.00000000000E+00  0.00000000000E+00  0.40319860027E+02  0.40319860027E+02  0.00000000000E+00 0.  1.
          1   -1    0    0  501    0  0.00000000000E+00 -0.00000000000E+00 -0.39610490630E+03  0.39610490630E+03  0.00000000000E+00 0. -1.
         23    2    1    2    0    0 -0.36330742755E+02 -0.91959236999E+01 -0.10893960976E+03  0.17013389200E+03  0.12519271045E+03 0.  0.
          5    1    3    3  502    0  0.39180305488E+02 -0.32800677324E+02 -0.46308136434E+02  0.69119565038E+02  0.47000000000E+01 0.  1.
         -5    1    3    3    0  502 -0.75511048243E+02  0.23604753624E+02 -0.62631473328E+02  0.10101432696E+03  0.47000000000E+01 0.  1.
        -11    1    1    2    0    0 -0.17066150345E+02  0.21518970256E+02 -0.22964659055E+02  0.35800770019E+02  0.00000000000E+00 0.  1.
         11    1    1    2    0    0  0.53396893100E+02 -0.12323046556E+02 -0.22388077746E+03  0.23049010431E+03  0.00000000000E+00 0. -1.
<mgrwt>
<rscale>  0 0.12219188E+03</rscale>
<asrwt>0</asrwt>
<pdfrwt beam="2">  1        1 0.60939215E-01 0.13068168E+03</pdfrwt>
<pdfrwt beam="1">  1       -1 0.62030555E-02 0.13068168E+03</pdfrwt>
<totfact> 0.74192778E+03</totfact>
</mgrwt>
</event>
<event>
 7    1  0.6095443E-006  0.1342721E+03  0.7546771E-02  0.1233893E+00
          3   -1    0    0  501    0  0.00000000000E+00  0.00000000000E+00  0.14149784588E+03  0.14149784588E+03  0.00000000000E+00 0. -1.
         -3   -1    0    0    0  501 -0.00000000000E+00 -0.00000000000E+00 -0.10560282315E+03  0.10560282315E+03  0.00000000000E+00 0.  1.
         23    2    1    2    0    0  0.11208574087E+02  0.47764894062E+02 -0.87436388274E+01  0.13455643842E+03  0.12498746602E+03 0.  0.
          5    1    3    3  502    0 -0.38711233256E+02 -0.18608284280E+02 -0.24826672160E+02  0.49832534298E+02  0.47000000000E+01 0. -1.
         -5    1    3    3    0  502  0.49919807343E+02  0.66373178342E+02  0.16083033332E+02  0.84723904121E+02  0.47000000000E+01 0. -1.
        -11    1    1    2    0    0 -0.12520467436E+02 -0.74476356962E+02  0.39797717992E+02  0.85365966336E+02  0.00000000000E+00 0.  1.
         11    1    1    2    0    0  0.13118933490E+01  0.26711462899E+02  0.48409435722E+01  0.27178264276E+02  0.00000000000E+00 0. -1.
<mgrwt>
<rscale>  0 0.12575581E+03</rscale>
<asrwt>0</asrwt>
<pdfrwt beam="1">  1        3 0.21768899E-01 0.13427205E+03</pdfrwt>
<pdfrwt beam="2">  1       -3 0.16246588E-01 0.13427205E+03</pdfrwt>
<totfact> 0.14313041E+03</totfact>
</mgrwt>
</event>
<event>
 6    1  0.6095443E-006  0.2740903E+03  0.7546771E-02  0.1110697E+00
          1   -1    0    0  501    0  0.00000000000E+00  0.00000000000E+00  0.47998691690E+03  0.47998691690E+03  0.00000000000E+00 0. -1.
         -1   -1    0    0    0  501 -0.00000000000E+00 -0.00000000000E+00 -0.18321193993E+03  0.18321193993E+03  0.00000000000E+00 0.  1.
          5    1    1    2  502    0  0.27871026823E+02  0.66932528145E+02  0.73173054050E+02  0.10311713388E+03  0.47000000000E+01 0. -1.
         -5    1    1    2    0  502  0.13631233233E+03 -0.53579729882E+01 -0.10621994192E+03  0.17295816223E+03  0.47000000000E+01 0.  1.
        -11    1    1    2    0    0 -0.24893880132E+02  0.55348899233E+01  0.31315183697E+01  0.25693319789E+02  0.00000000000E+00 0.  1.
         11    1    1    2    0    0 -0.13928947902E+03 -0.67109445080E+02  0.32669034648E+03  0.36143024094E+03  0.00000000000E+00 0. -1.
<mgrwt>
<rscale>  0 0.25417153E+03</rscale>
<asrwt>0</asrwt>
<pdfrwt beam="1">  1        1 0.73844141E-01 0.27409026E+03</pdfrwt>
<pdfrwt beam="2">  1       -1 0.28186452E-01 0.27409026E+03</pdfrwt>
<totfact> 0.54477995E+02</totfact>
</mgrwt>
</event>
<event>
 7    1  0.6095443E-006  0.1272362E+03  0.7546771E-02  0.1247255E+00
         -1   -1    0    0    0  501 -0.00000000000E+00  0.00000000000E+00  0.89016948648E+02  0.89016948648E+02  0.00000000000E+00 0.  1.
          1   -1    0    0  501    0  0.00000000000E+00 -0.00000000000E+00 -0.14960900321E+03  0.14960900321E+03  0.00000000000E+00 0. -1.
         23    2    1    2    0    0 -0.22691554553E+02  0.71374074791E+01  0.13327629986E+01  0.12724315743E+03  0.12499278228E+03 0.  0.
          5    1    3    3  502    0 -0.16800070717E+02  0.38396780442E+02 -0.50779361410E+02  0.66009004458E+02  0.47000000000E+01 0. -1.
         -5    1    3    3    0  502 -0.58914838357E+01 -0.31259372963E+02  0.52112124408E+02  0.61234152971E+02  0.47000000000E+01 0. -1.
        -11    1    1    2    0    0  0.43081202767E+02  0.93685959043E+01  0.46035835619E-01  0.44088124709E+02  0.00000000000E+00 0.  1.
         11    1    1    2    0    0 -0.20389648214E+02 -0.16506003383E+02 -0.61970853393E+02  0.67294669717E+02  0.00000000000E+00 0. -1.
<mgrwt>
<rscale>  0 0.11751403E+03</rscale>
<asrwt>0</asrwt>
<pdfrwt beam="2">  1        1 0.23016770E-01 0.12723618E+03</pdfrwt>
<pdfrwt beam="1">  1       -1 0.13694915E-01 0.12723618E+03</pdfrwt>
<totfact> 0.74542669E+03</totfact>
</mgrwt>
</event>
<event>
 7    1  0.6095443E-006  0.1376715E+03  0.7546771E-02  0.1228515E+00
         -1   -1    0    0    0  501 -0.00000000000E+00  0.00000000000E+00  0.46528188105E+03  0.46528188105E+03  0.00000000000E+00 0.  1.
          1   -1    0    0  501    0  0.00000000000E+00 -0.00000000000E+00 -0.32719702313E+02  0.32719702313E+02  0.00000000000E+00 0. -1.
         23    2    1    2    0    0  0.31171146065E+02  0.48577142332E+02  0.21134123815E+03  0.25222722571E+03  0.12498830083E+03 0.  0.
          5    1    3    3  502    0  0.31314276899E+02 -0.38452669215E+02  0.89398499052E+02  0.10233950039E+03  0.47000000000E+01 0. -1.
         -5    1    3    3    0  502 -0.14313083419E+00  0.87029811547E+02  0.12194273910E+03  0.14988772532E+03  0.47000000000E+01 0. -1.
        -11    1    1    2    0    0  0.17542580456E+02 -0.60690011386E+01  0.38043537307E+01  0.18948562246E+02  0.00000000000E+00 0. -1.
         11    1    1    2    0    0 -0.48713726521E+02 -0.42508141194E+02  0.21741658686E+03  0.22682579540E+03  0.00000000000E+00 0.  1.
<mgrwt>
<rscale>  0 0.12928889E+03</rscale>
<asrwt>0</asrwt>
<pdfrwt beam="2">  1        1 0.50338007E-02 0.13767155E+03</pdfrwt>
<pdfrwt beam="1">  1       -1 0.71581823E-01 0.13767155E+03</pdfrwt>
<totfact> 0.32551347E+03</totfact>
</mgrwt>
</event>
<event>
 7    1  0.6095443E-006  0.1443013E+03  0.7546771E-02  0.1217838E+00
         -1   -1    0    0    0  501 -0.00000000000E+00  0.00000000000E+00  0.57997217383E+03  0.57997217383E+03  0.00000000000E+00 0.  1.
          1   -1    0    0  501    0  0.00000000000E+00 -0.00000000000E+00 -0.37171947116E+02  0.37171947116E+02  0.00000000000E+00 0. -1.
         23    2    1    2    0    0  0.77065623340E+01  0.71652163225E+02  0.43616787921E+03  0.45941841764E+03  0.12501775880E+03 0.  0.
          5    1    3    3  502    0 -0.39229130301E+02  0.78010585777E+02  0.19663258591E+03  0.21520000000E+03  0.47000000000E+01 0.  1.
         -5    1    3    3    0  502  0.46935692635E+02 -0.63584225514E+01  0.23953529330E+03  0.24421841764E+03  0.47000000000E+01 0.  1.
        -11    1    1    2    0    0  0.70409065191E+01 -0.15651694679E+02  0.97622021190E+02  0.99119165312E+02  0.00000000000E+00 0. -1.
         11    1    1    2    0    0 -0.14747468853E+02 -0.56000468546E+02  0.90103263117E+01  0.58606537990E+02  0.00000000000E+00 0.  1.
<mgrwt>
<rscale>  0 0.13670119E+03</rscale>
<asrwt>0</asrwt>
<pdfrwt beam="2">  1        1 0.57187615E-02 0.14430129E+03</pdfrwt>
<pdfrwt beam="1">  1       -1 0.89226482E-01 0.14430129E+03</pdfrwt>
<totfact> 0.17452284E+03</totfact>
</mgrwt>
</event>
<event>
 7    1  0.6095443E-006  0.1359493E+03  0.7546771E-02  0.1223371E+00
          1   -1    0    0  501    0  0.00000000000E+00  0.00000000000E+00  0.10611109306E+04  0.10611109306E+04  0.00000000000E+00 0. -1.
         -1   -1    0    0    0  501 -0.00000000000E+00 -0.00000000000E+00 -0.15968431541E+02  0.15968431541E+02  0.00000000000E+00 0.  1.
         23    2    1    2    0    0  0.23887725457E+02  0.74568901618E+02  0.50934454862E+03  0.52717557623E+03  0.11113538789E+03 0.  0.
          5    1    3    3  502    0  0.55323290363E+02  0.32955322350E+02  0.14041354247E+03  0.15454699168E+03  0.47000000000E+01 0. -1.
         -5    1    3    3    0  502 -0.31435564906E+02  0.41613579268E+02  0.36893100616E+03  0.37262858455E+03  0.47000000000E+01 0.  1.
        -11    1    1    2    0    0 -0.12898031295E+02  0.12421151509E+02  0.20586685839E+02  0.27284718249E+02  0.00000000000E+00 0.  1.
         11    1    1    2    0    0 -0.10989694163E+02 -0.86990053126E+02  0.51521126459E+03  0.52261906766E+03  0.00000000000E+00 0. -1.
<mgrwt>
<rscale>  0 0.13279186E+03</rscale>
<asrwt>0</asrwt>
<pdfrwt beam="1">  1        1 0.16324778E+00 0.13594932E+03</pdfrwt>
<pdfrwt beam="2">  1       -1 0.24566826E-02 0.13594932E+03</pdfrwt>
<totfact> 0.70899775E+03</totfact>
</mgrwt>
</event>
<event>
 7    1  0.6095443E-006  0.1293880E+03  0.7546771E-02  0.1269727E+00
         -1   -1    0    0    0  501 -0.00000000000E+00  0.00000000000E+00  0.77550440690E+02  0.77550440690E+02  0.00000000000E+00 0.  1.
          1   -1    0    0  501    0  0.00000000000E+00 -0.00000000000E+00 -0.12835928331E+03  0.12835928331E+03  0.00000000000E+00 0. -1.
         23    2    1    2    0    0 -0.15825738458E+02  0.29391994932E+02  0.74958717571E+00  0.12939017377E+03  0.12500764706E+03 0.  0.
          5    1    3    3  502    0 -0.54234672664E+02  0.58228563209E+02  0.97274315169E+01  0.80303662533E+02  0.47000000000E+01 0.  1.
         -5    1    3    3    0  502  0.38408934206E+02 -0.28836568276E+02 -0.89778443412E+01  0.49086511241E+02  0.47000000000E+01 0.  1.
        -11    1    1    2    0    0  0.18989100608E+02  0.62487500955E+01 -0.24720697004E+02  0.31792226723E+02  0.00000000000E+00 0. -1.
         11    1    1    2    0    0 -0.31633621495E+01 -0.35640745028E+02 -0.26837732786E+02  0.44727323498E+02  0.00000000000E+00 0.  1.
<mgrwt>
<rscale>  0 0.10519929E+03</rscale>
<asrwt>0</asrwt>
<pdfrwt beam="2">  1        1 0.19747582E-01 0.12938800E+03</pdfrwt>
<pdfrwt beam="1">  1       -1 0.11930837E-01 0.12938800E+03</pdfrwt>
<totfact> 0.11213671E+04</totfact>
</mgrwt>
</event>
<event>
 7    1  0.7978554E-006  0.1322457E+03  0.7546771E-02  0.1254904E+00
         -3   -1    0    0    0  501 -0.00000000000E+00  0.00000000000E+00  0.16605351917E+03  0.16605351917E+03  0.00000000000E+00 0.  1.
          3   -1    0    0  501    0  0.00000000000E+00 -0.00000000000E+00 -0.62997847896E+02  0.62997847896E+02  0.00000000000E+00 0. -1.
         23    2    1    2    0    0  0.31227349991E+02 -0.29808233274E+02  0.80200689280E+02  0.15466439766E+03  0.12500098874E+03 0.  0.
          5    1    3    3  502    0  0.27901084597E+02 -0.71572835915E+02  0.17204103466E+02  0.78861984116E+02  0.47000000000E+01 0.  1.
         -5    1    3    3    0  502  0.33262653933E+01  0.41764602641E+02  0.62996585815E+02  0.75802413547E+02  0.47000000000E+01 0.  1.
        -11    1    1    2    0    0  0.59150050715E+01  0.27627639504E+02 -0.39527311824E+01  0.28528894710E+02  0.00000000000E+00 0. -1.
         11    1    1    2    0    0 -0.37142355062E+02  0.21805937696E+01  0.26807713175E+02  0.45858074691E+02  0.00000000000E+00 0.  1.
<mgrwt>
<rscale>  0 0.11311690E+03</rscale>
<asrwt>0</asrwt>
<pdfrwt beam="2">  1        3 0.96919767E-02 0.13224570E+03</pdfrwt>
<pdfrwt beam="1">  1       -3 0.25546695E-01 0.13224570E+03</pdfrwt>
<totfact> 0.25562164E+03</totfact>
</mgrwt>
</event>
<event>
 6    1  0.6095443E-006  0.5364968E+03  0.7546771E-02  0.1044602E+00
         -2   -1    0    0    0  501 -0.00000000000E+00  0.00000000000E+00  0.39095471838E+03  0.39095471838E+03  0.00000000000E+00 0.  1.
          2   -1    0    0  501    0  0.00000000000E+00 -0.00000000000E+00 -0.33685953674E+03  0.33685953674E+03  0.00000000000E+00 0. -1.
          5    1    1    2  502    0 -0.10113241185E+01 -0.41642923672E+02 -0.27674001761E+03  0.27989691534E+03  0.47000000000E+01 0. -1.
         -5    1    1    2    0  502  0.10377478419E+03 -0.44692511734E+02  0.23237456823E+03  0.25843114441E+03  0.47000000000E+01 0.  1.
        -11    1    1    2    0    0 -0.36124735268E+02  0.33074506486E+01 -0.98739488262E+01  0.37595619337E+02  0.00000000000E+00 0. -1.
         11    1    1    2    0    0 -0.66638724807E+02  0.83027984757E+02  0.10833457985E+03  0.15189057603E+03  0.00000000000E+00 0.  1.
<mgrwt>
<rscale>  0 0.39763518E+03</rscale>
<asrwt>0</asrwt>
<pdfrwt beam="2">  1        2 0.51824544E-01 0.53649679E+03</pdfrwt>
<pdfrwt beam="1">  1       -2 0.60146880E-01 0.53649679E+03</pdfrwt>
<totfact> 0.25238946E+02</totfact>
</mgrwt>
</event>
<event>
 7    1  0.6095443E-006  0.1350590E+03  0.7546771E-02  0.1232362E+00
          2   -1    0    0  501    0  0.00000000000E+00  0.00000000000E+00  0.24353608459E+03  0.24353608459E+03  0.00000000000E+00 0. -1.
         -2   -1    0    0    0  501 -0.00000000000E+00 -0.00000000000E+00 -0.59354565605E+02  0.59354565605E+02  0.00000000000E+00 0.  1.
         23    2    1    2    0    0  0.15524780989E+02  0.48753415379E+02  0.11460706260E+03  0.17713192972E+03  0.12499210933E+03 0.  0.
          5    1    3    3  502    0 -0.16749115209E+02 -0.35538374517E+02  0.14201412615E+02  0.42039018112E+02  0.47000000000E+01 0.  1.
         -5    1    3    3    0  502  0.32273896198E+02  0.84291789896E+02  0.10040564998E+03  0.13509291161E+03  0.47000000000E+01 0.  1.
        -11    1    1    2    0    0 -0.24579307833E+02  0.48775156266E+01  0.66746494906E+02  0.71295351283E+02  0.00000000000E+00 0. -1.
         11    1    1    2    0    0  0.90545268446E+01 -0.53630931006E+02  0.28279614806E+01  0.54463369186E+02  0.00000000000E+00 0.  1.
<mgrwt>
<rscale>  0 0.12674813E+03</rscale>
<asrwt>0</asrwt>
<pdfrwt beam="1">  1        2 0.37467089E-01 0.13505903E+03</pdfrwt>
<pdfrwt beam="2">  1       -2 0.91314718E-02 0.13505903E+03</pdfrwt>
<totfact> 0.99414347E+03</totfact>
</mgrwt>
</event>
<event>
 7    1  0.6095443E-006  0.1372810E+03  0.7546771E-02  0.1226295E+00
          1   -1    0    0  501    0  0.00000000000E+00  0.00000000000E+00  0.98741901728E+02  0.98741901728E+02  0.00000000000E+00 0. -1.
         -1   -1    0    0    0  501 -0.00000000000E+00 -0.00000000000E+00 -0.17586599862E+03  0.17586599862E+03  0.00000000000E+00 0.  1.
         23    2    1    2    0    0  0.52703242140E+02  0.21056472123E+02 -0.84636599720E+02  0.16127434938E+03  0.12500022002E+03 0.  0.
          5    1    3    3  502    0  0.46084932755E+02  0.50111862982E+02 -0.10474818142E+03  0.12501716422E+03  0.47000000000E+01 0.  1.
         -5    1    3    3    0  502  0.66183093850E+01 -0.29055390859E+02  0.20111581704E+02  0.36257185160E+02  0.47000000000E+01 0.  1.
        -11    1    1    2    0    0 -0.37822121464E+02 -0.48996088873E+02 -0.26088731465E+02  0.67169572771E+02  0.00000000000E+00 0.  1.
         11    1    1    2    0    0 -0.14881120677E+02  0.27939616750E+02  0.33601234293E+02  0.46163978194E+02  0.00000000000E+00 0. -1.
<mgrwt>
<rscale>  0 0.13078511E+03</rscale>
<asrwt>0</asrwt>
<pdfrwt beam="1">  1        1 0.15191062E-01 0.13728096E+03</pdfrwt>
<pdfrwt beam="2">  1       -1 0.27056307E-01 0.13728096E+03</pdfrwt>
<totfact> 0.42788919E+03</totfact>
</mgrwt>
</event>
<event>
 7    1  0.6095443E-006  0.1293231E+03  0.7546771E-02  0.1244416E+00
          1   -1    0    0  501    0  0.00000000000E+00  0.00000000000E+00  0.96992338868E+02  0.96992338868E+02  0.00000000000E+00 0. -1.
         -1   -1    0    0    0  501 -0.00000000000E+00 -0.00000000000E+00 -0.12816919013E+03  0.12816919013E+03  0.00000000000E+00 0.  1.
         23    2    1    2    0    0  0.15791124927E+02  0.29199657449E+02 -0.12199307135E+02  0.12989717956E+03  0.12498989776E+03 0.  0.
          5    1    3    3  502    0 -0.12291549324E+02  0.72877464474E+02  0.68845814590E+01  0.74375362015E+02  0.47000000000E+01 0. -1.
         -5    1    3    3    0  502  0.28082674250E+02 -0.43677807025E+02 -0.19083888594E+02  0.55521817545E+02  0.47000000000E+01 0. -1.
        -11    1    1    2    0    0 -0.17231486814E+02 -0.53073092859E+02 -0.35553947124E+02  0.66164646750E+02  0.00000000000E+00 0.  1.
         11    1    1    2    0    0  0.14403618871E+01  0.23873435409E+02  0.16576402993E+02  0.29099702693E+02  0.00000000000E+00 0. -1.
<mgrwt>
<rscale>  0 0.11920414E+03</rscale>
<asrwt>0</asrwt>
<pdfrwt beam="1">  1        1 0.14921898E-01 0.12932306E+03</pdfrwt>
<pdfrwt beam="2">  1       -1 0.19718337E-01 0.12932306E+03</pdfrwt>
<totfact> 0.73011876E+03</totfact>
</mgrwt>
</event>
<event>
 7    1  0.6095443E-006  0.1688209E+03  0.7546771E-02  0.1189498E+00
          1   -1    0    0  501    0  0.00000000000E+00  0.00000000000E+00  0.74170328053E+03  0.74170328053E+03  0.00000000000E+00 0. -1.
         -1   -1    0    0    0  501 -0.00000000000E+00 -0.00000000000E+00 -0.31855821723E+02  0.31855821723E+02  0.00000000000E+00 0.  1.
         23    2    1    2    0    0  0.22659465354E+02  0.11117624758E+03  0.32713646345E+03  0.36812871073E+03  0.12500748999E+03 0.  0.
          5    1    3    3  502    0  0.70398626651E+02  0.88912118374E+02  0.19240949364E+03  0.22339390026E+03  0.47000000000E+01 0. -1.
         -5    1    3    3    0  502 -0.47739161297E+02  0.22264129207E+02  0.13472696981E+03  0.14473481048E+03  0.47000000000E+01 0. -1.
        -11    1    1    2    0    0 -0.33493400077E+02 -0.39606014026E+02  0.23846359428E+03  0.24403960743E+03  0.00000000000E+00 0. -1.
         11    1    1    2    0    0  0.10833934723E+02 -0.71570233554E+02  0.14424740108E+03  0.16139078409E+03  0.00000000000E+00 0.  1.
<mgrwt>
<rscale>  0 0.15929227E+03</rscale>
<asrwt>0</asrwt>
<pdfrwt beam="1">  1        1 0.11410818E+00 0.16882086E+03</pdfrwt>
<pdfrwt beam="2">  1       -1 0.49008962E-02 0.16882086E+03</pdfrwt>
<totfact> 0.46012192E+03</totfact>
</mgrwt>
</event>
<event>
 7    1  0.6095443E-006  0.1284078E+03  0.7546771E-02  0.1242000E+00
         -2   -1    0    0    0  501 -0.00000000000E+00  0.00000000000E+00  0.42183406922E+03  0.42183406922E+03  0.00000000000E+00 0.  1.
          2   -1    0    0  501    0  0.00000000000E+00 -0.00000000000E+00 -0.31028368426E+02  0.31028368426E+02  0.00000000000E+00 0. -1.
         23    2    1    2    0    0 -0.29325705324E+02 -0.18330643093E+01  0.23042372298E+03  0.26378711883E+03  0.12500077931E+03 0.  0.
          5    1    3    3  502    0 -0.71301673794E+02  0.15175512877E+02  0.88591776011E+02  0.11482516124E+03  0.47000000000E+01 0. -1.
         -5    1    3    3    0  502  0.41975968469E+02 -0.17008577187E+02  0.14183194697E+03  0.14896195759E+03  0.47000000000E+01 0. -1.
        -11    1    1    2    0    0 -0.16883393247E+02 -0.35492038147E+02  0.48721945044E+02  0.62598415861E+02  0.00000000000E+00 0. -1.
         11    1    1    2    0    0  0.46209098571E+02  0.37325102456E+02  0.11166003277E+03  0.12647690296E+03  0.00000000000E+00 0.  1.
<mgrwt>
<rscale>  0 0.12066751E+03</rscale>
<asrwt>0</asrwt>
<pdfrwt beam="2">  1        2 0.47735955E-02 0.12840776E+03</pdfrwt>
<pdfrwt beam="1">  1       -2 0.64897545E-01 0.12840776E+03</pdfrwt>
<totfact> 0.35586739E+03</totfact>
</mgrwt>
</event>
<event>
 7    1  0.6095443E-006  0.1312728E+03  0.7546771E-02  0.1239354E+00
         -1   -1    0    0    0  501 -0.00000000000E+00  0.00000000000E+00  0.27688102474E+02  0.27688102474E+02  0.00000000000E+00 0.  1.
          1   -1    0    0  501    0  0.00000000000E+00 -0.00000000000E+00 -0.54149697559E+03  0.54149697559E+03  0.00000000000E+00 0. -1.
         23    2    1    2    0    0  0.39369671852E+02  0.75753139801E+01 -0.19247439226E+03  0.23297839325E+03  0.12500073440E+03 0.  0.
          5    1    3    3  502    0 -0.70318411170E+00 -0.26323294306E+02  0.61797744316E+01  0.27453413323E+02  0.47000000000E+01 0. -1.
         -5    1    3    3    0  502  0.40072855963E+02  0.33898608286E+02 -0.19865416669E+03  0.20552497993E+03  0.47000000000E+01 0. -1.
        -11    1    1    2    0    0 -0.17366331434E+01  0.25760533073E+02 -0.26065691784E+02  0.36688434786E+02  0.00000000000E+00 0.  1.
         11    1    1    2    0    0 -0.37633038708E+02 -0.33335847053E+02 -0.29526878907E+03  0.29951825002E+03  0.00000000000E+00 0. -1.
<mgrwt>
<rscale>  0 0.12229769E+03</rscale>
<asrwt>0</asrwt>
<pdfrwt beam="2">  1        1 0.83307230E-01 0.13127277E+03</pdfrwt>
<pdfrwt beam="1">  1       -1 0.42597079E-02 0.13127277E+03</pdfrwt>
<totfact> 0.86551709E+03</totfact>
</mgrwt>
</event>
<event>
 7    1  0.6095443E-006  0.1465887E+03  0.7546771E-02  0.1215385E+00
         -2   -1    0    0    0  501 -0.00000000000E+00  0.00000000000E+00  0.47837151479E+02  0.47837151479E+02  0.00000000000E+00 0.  1.
          2   -1    0    0  501    0  0.00000000000E+00 -0.00000000000E+00 -0.37216599239E+03  0.37216599239E+03  0.00000000000E+00 0. -1.
         23    2    1    2    0    0 -0.26992898798E+02  0.71655810950E+02 -0.14630363066E+03  0.20710622818E+03  0.12500026231E+03 0.  0.
          5    1    3    3  502    0 -0.44126607084E+01  0.10399100315E+03 -0.12243908191E+03  0.16077008145E+03  0.47000000000E+01 0. -1.
         -5    1    3    3    0  502 -0.22580238090E+02 -0.32335192198E+02 -0.23864548742E+02  0.46336146725E+02  0.47000000000E+01 0. -1.
        -11    1    1    2    0    0 -0.14877720034E+02 -0.18294319567E+02 -0.12389068077E+03  0.12611474721E+03  0.00000000000E+00 0. -1.
         11    1    1    2    0    0  0.41870618833E+02 -0.53361491384E+02 -0.54134529486E+02  0.86782168484E+02  0.00000000000E+00 0.  1.
<mgrwt>
<rscale>  0 0.13848277E+03</rscale>
<asrwt>0</asrwt>
<pdfrwt beam="2">  1        2 0.57256305E-01 0.14658867E+03</pdfrwt>
<pdfrwt beam="1">  1       -2 0.73595619E-02 0.14658867E+03</pdfrwt>
<totfact> 0.88983961E+03</totfact>
</mgrwt>
</event>
<event>
 7    1  0.6095443E-006  0.1267986E+03  0.7546771E-02  0.1246546E+00
          2   -1    0    0  501    0  0.00000000000E+00  0.00000000000E+00  0.47956513117E+03  0.47956513117E+03  0.00000000000E+00 0. -1.
         -2   -1    0    0    0  501 -0.00000000000E+00 -0.00000000000E+00 -0.26764759939E+02  0.26764759939E+02  0.00000000000E+00 0.  1.
         23    2    1    2    0    0  0.13540039856E+02  0.16442882211E+02  0.20574107294E+03  0.24167598986E+03  0.12499677567E+03 0.  0.
          5    1    3    3  502    0 -0.22313237259E+02  0.19954925174E+02 -0.23923421008E+01  0.30395606531E+02  0.47000000000E+01 0. -1.
         -5    1    3    3    0  502  0.35853277115E+02 -0.35120429623E+01  0.20813341504E+03  0.21128038333E+03  0.47000000000E+01 0. -1.
        -11    1    1    2    0    0 -0.40767744272E+02  0.21765419033E+02  0.14796275835E+03  0.15501200049E+03  0.00000000000E+00 0. -1.
         11    1    1    2    0    0  0.27227704416E+02 -0.38208301244E+02  0.99096539953E+02  0.10964190076E+03  0.00000000000E+00 0.  1.
<mgrwt>
<rscale>  0 0.11793337E+03</rscale>
<asrwt>0</asrwt>
<pdfrwt beam="1">  1        2 0.73779244E-01 0.12679864E+03</pdfrwt>
<pdfrwt beam="2">  1       -2 0.41176557E-02 0.12679864E+03</pdfrwt>
<totfact> 0.16106741E+04</totfact>
</mgrwt>
</event>
<event>
 6    1  0.6095443E-006  0.2490238E+03  0.7546771E-02  0.1120856E+00
         -1   -1    0    0    0  501 -0.00000000000E+00  0.00000000000E+00  0.22530206753E+03  0.22530206753E+03  0.00000000000E+00 0.  1.
          1   -1    0    0  501    0  0.00000000000E+00 -0.00000000000E+00 -0.24832551095E+03  0.24832551095E+03  0.00000000000E+00 0. -1.
          5    1    1    2  502    0  0.18209938268E+03  0.84444001718E+02  0.17160306279E+02  0.20151312788E+03  0.47000000000E+01 0. -1.
         -5    1    1    2    0  502  0.11122995893E+00 -0.42595646467E+02  0.29021892346E+02  0.51756755166E+02  0.47000000000E+01 0.  1.
        -11    1    1    2    0    0 -0.19233798839E+03 -0.40120688745E+02 -0.72713921757E+02  0.20950151756E+03  0.00000000000E+00 0. -1.
         11    1    1    2    0    0  0.10127375759E+02 -0.17276665070E+01  0.35082797181E+01  0.10856177868E+02  0.00000000000E+00 0.  1.
<mgrwt>
<rscale>  0 0.23841046E+03</rscale>
<asrwt>0</asrwt>
<pdfrwt beam="2">  1        1 0.38203925E-01 0.24902377E+03</pdfrwt>
<pdfrwt beam="1">  1       -1 0.34661857E-01 0.24902377E+03</pdfrwt>
<totfact> 0.88706794E+02</totfact>
</mgrwt>
</event>
<event>
 7    1  0.6095443E-006  0.1675643E+03  0.7546771E-02  0.1187148E+00
         -2   -1    0    0    0  501 -0.00000000000E+00  0.00000000000E+00  0.11050286680E+03  0.11050286680E+03  0.00000000000E+00 0.  1.
          2   -1    0    0  501    0  0.00000000000E+00 -0.00000000000E+00 -0.35078903732E+03  0.35078903732E+03  0.00000000000E+00 0. -1.
         23    2    1    2    0    0  0.77829730968E+02  0.79972241042E+02  0.14873303540E+02  0.16822306390E+03  0.12499903084E+03 0.  0.
          5    1    3    3  502    0  0.84710436252E+02  0.68745280716E+02  0.57465870409E+02  0.12339444028E+03  0.47000000000E+01 0. -1.
         -5    1    3    3    0  502 -0.68807052847E+01  0.11226960326E+02 -0.42592566868E+02  0.44828623622E+02  0.47000000000E+01 0. -1.
        -11    1    1    2    0    0 -0.52897313777E+02 -0.17560763566E+02 -0.19520369931E+03  0.20300490252E+03  0.00000000000E+00 0. -1.
         11    1    1    2    0    0 -0.24932417191E+02 -0.62411477476E+02 -0.59955774741E+02  0.90063937692E+02  0.00000000000E+00 0.  1.
<mgrwt>
<rscale>  0 0.16137994E+03</rscale>
<asrwt>0</asrwt>
<pdfrwt beam="2">  1        2 0.53967545E-01 0.16756427E+03</pdfrwt>
<pdfrwt beam="1">  1       -2 0.17000441E-01 0.16756427E+03</pdfrwt>
<totfact> 0.25102603E+03</totfact>
</mgrwt>
</event>
<event>
 7    1  0.6095443E-006  0.1409117E+03  0.7546771E-02  0.1223077E+00
          2   -1    0    0  501    0  0.00000000000E+00  0.00000000000E+00  0.17075860593E+03  0.17075860593E+03  0.00000000000E+00 0.  1.
         -2   -1    0    0    0  501 -0.00000000000E+00 -0.00000000000E+00 -0.93630750756E+02  0.93630750756E+02  0.00000000000E+00 0. -1.
         23    2    1    2    0    0 -0.62264255383E+02  0.18830862665E+02  0.47667762916E+02  0.14875595291E+03  0.12499871606E+03 0.  0.
          5    1    3    3  502    0 -0.80568963743E+02 -0.31865969042E+02  0.27680417367E+02  0.91077403384E+02  0.47000000000E+01 0.  1.
         -5    1    3    3    0  502  0.18304708360E+02  0.50696831707E+02  0.19987345549E+02  0.57678549526E+02  0.47000000000E+01 0.  1.
        -11    1    1    2    0    0  0.75587339463E+02  0.36907161023E+01  0.42071445876E+02  0.86585644483E+02  0.00000000000E+00 0.  1.
         11    1    1    2    0    0 -0.13323084080E+02 -0.22521578768E+02 -0.12611353622E+02  0.29047759290E+02  0.00000000000E+00 0. -1.
<mgrwt>
<rscale>  0 0.13299581E+03</rscale>
<asrwt>0</asrwt>
<pdfrwt beam="1">  1        2 0.26270555E-01 0.14091174E+03</pdfrwt>
<pdfrwt beam="2">  1       -2 0.14404731E-01 0.14091174E+03</pdfrwt>
<totfact> 0.70840106E+03</totfact>
</mgrwt>
</event>
<event>
 7    1  0.6095443E-006  0.1424514E+03  0.7546771E-02  0.1220614E+00
          1   -1    0    0  501    0  0.00000000000E+00  0.00000000000E+00  0.34340741947E+03  0.34340741947E+03  0.00000000000E+00 0. -1.
         -1   -1    0    0    0  501 -0.00000000000E+00 -0.00000000000E+00 -0.48672876252E+02  0.48672876252E+02  0.00000000000E+00 0.  1.
         23    2    1    2    0    0  0.50670126692E+02  0.45818318611E+02  0.18862021968E+03  0.23636835964E+03  0.12500253639E+03 0.  0.
          5    1    3    3  502    0  0.81171424410E+02  0.65548308059E+02  0.12431730240E+03  0.16236459746E+03  0.47000000000E+01 0. -1.
         -5    1    3    3    0  502 -0.30501297719E+02 -0.19729989447E+02  0.64302917280E+02  0.74003762180E+02  0.47000000000E+01 0. -1.
        -11    1    1    2    0    0 -0.13596289775E+02 -0.59477573242E+02  0.25873482116E+02  0.66271244829E+02  0.00000000000E+00 0.  1.
         11    1    1    2    0    0 -0.37073836916E+02  0.13659254631E+02  0.80240841418E+02  0.89440691256E+02  0.00000000000E+00 0. -1.
<mgrwt>
<rscale>  0 0.13472072E+03</rscale>
<asrwt>0</asrwt>
<pdfrwt beam="1">  1        1 0.52831909E-01 0.14245144E+03</pdfrwt>
<pdfrwt beam="2">  1       -1 0.74881350E-02 0.14245144E+03</pdfrwt>
<totfact> 0.67284532E+03</totfact>
</mgrwt>
</event>
<event>
 7    1  0.6095443E-006  0.1460287E+03  0.7546771E-02  0.1215104E+00
         -2   -1    0    0    0  501 -0.00000000000E+00  0.00000000000E+00  0.41508095658E+02  0.41508095658E+02  0.00000000000E+00 0.  1.
          2   -1    0    0  501    0  0.00000000000E+00 -0.00000000000E+00 -0.49682982475E+03  0.49682982475E+03  0.00000000000E+00 0. -1.
         23    2    1    2    0    0 -0.20770631042E+02 -0.72572466215E+02 -0.14387148980E+03  0.20499602978E+03  0.12500473865E+03 0.  0.
          5    1    3    3  502    0 -0.23751725171E+02  0.10833132118E+02 -0.11270418031E+03  0.11578351981E+03  0.47000000000E+01 0.  1.
         -5    1    3    3    0  502  0.29810941289E+01 -0.83405598332E+02 -0.31167309485E+02  0.89212509974E+02  0.47000000000E+01 0.  1.
        -11    1    1    2    0    0  0.49150310025E+02  0.56326795137E+02 -0.13908531458E+03  0.15790245583E+03  0.00000000000E+00 0.  1.
         11    1    1    2    0    0 -0.28379678983E+02  0.16245671078E+02 -0.17236492472E+03  0.17543943479E+03  0.00000000000E+00 0. -1.
<mgrwt>
<rscale>  0 0.13868862E+03</rscale>
<asrwt>0</asrwt>
<pdfrwt beam="2">  1        2 0.76435364E-01 0.14602865E+03</pdfrwt>
<pdfrwt beam="1">  1       -2 0.63858603E-02 0.14602865E+03</pdfrwt>
<totfact> 0.80916064E+03</totfact>
</mgrwt>
</event>
<event>
 7    1  0.6095443E-006  0.1257318E+03  0.7546771E-02  0.1248682E+00
         -2   -1    0    0    0  501 -0.00000000000E+00  0.00000000000E+00  0.35505758992E+02  0.35505758992E+02  0.00000000000E+00 0.  1.
          2   -1    0    0  501    0  0.00000000000E+00 -0.00000000000E+00 -0.33922586110E+03  0.33922586110E+03  0.00000000000E+00 0. -1.
         23    2    1    2    0    0  0.81877681504E+00 -0.13542318362E+02 -0.16150852465E+03  0.20467900200E+03  0.12499770215E+03 0.  0.
          5    1    3    3  502    0  0.61326906484E+02 -0.12902716987E+01 -0.99977144809E+02  0.11738898477E+03  0.47000000000E+01 0. -1.
         -5    1    3    3    0  502 -0.60508129669E+02 -0.12252046663E+02 -0.61531379837E+02  0.87290017230E+02  0.47000000000E+01 0. -1.
        -11    1    1    2    0    0 -0.25096910180E+02  0.42977905360E+02 -0.10753444484E+03  0.11849308873E+03  0.00000000000E+00 0. -1.
         11    1    1    2    0    0  0.24278133365E+02 -0.29435586998E+02 -0.34677132620E+02  0.51559529365E+02  0.00000000000E+00 0.  1.
<mgrwt>
<rscale>  0 0.11667689E+03</rscale>
<asrwt>0</asrwt>
<pdfrwt beam="2">  1        2 0.52188595E-01 0.12573182E+03</pdfrwt>
<pdfrwt beam="1">  1       -2 0.54624243E-02 0.12573182E+03</pdfrwt>
<totfact> 0.15274213E+04</totfact>
</mgrwt>
</event>
<event>
 7    1  0.6095443E-006  0.1256216E+03  0.7546771E-02  0.1250250E+00
         -2   -1    0    0    0  501 -0.00000000000E+00  0.00000000000E+00  0.31478814848E+02  0.31478814848E+02  0.00000000000E+00 0.  1.
          2   -1    0    0  501    0  0.00000000000E+00 -0.00000000000E+00 -0.37418001700E+03  0.37418001700E+03  0.00000000000E+00 0. -1.
         23    2    1    2    0    0  0.12442485463E+02 -0.19509856272E+01 -0.21646296523E+03  0.25027385046E+03  0.12498865194E+03 0.  0.
          5    1    3    3  502    0  0.30192815411E+01  0.50158942344E+02 -0.35605855372E+02  0.61764896947E+02  0.47000000000E+01 0. -1.
         -5    1    3    3    0  502  0.94232039219E+01 -0.52109927971E+02 -0.18085710986E+03  0.18850895351E+03  0.47000000000E+01 0. -1.
        -11    1    1    2    0    0 -0.46332902946E+02 -0.19468816923E+02 -0.75925716012E+02  0.91052111891E+02  0.00000000000E+00 0. -1.
         11    1    1    2    0    0  0.33890417483E+02  0.21419802551E+02 -0.50312520903E+02  0.64332869500E+02  0.00000000000E+00 0.  1.
<mgrwt>
<rscale>  0 0.11576587E+03</rscale>
<asrwt>0</asrwt>
<pdfrwt beam="2">  1        2 0.57566151E-01 0.12562159E+03</pdfrwt>
<pdfrwt beam="1">  1       -2 0.48428951E-02 0.12562159E+03</pdfrwt>
<totfact> 0.16489913E+04</totfact>
</mgrwt>
</event>
<event>
 6    1  0.6095443E-006  0.1300766E+03  0.7546771E-02  0.1237274E+00
          2   -1    0    0  501    0  0.00000000000E+00  0.00000000000E+00  0.46732456803E+03  0.46732456803E+03  0.00000000000E+00 0. -1.
         -2   -1    0    0    0  501 -0.00000000000E+00 -0.00000000000E+00 -0.37081475338E+02  0.37081475338E+02  0.00000000000E+00 0.  1.
          5    1    1    2  502    0 -0.27385065426E+02 -0.67142787588E+02  0.75602224866E+02  0.10486125184E+03  0.47000000000E+01 0. -1.
         -5    1    1    2    0  502  0.29919565964E+02  0.48225463134E+02  0.46028697165E+02  0.73222992869E+02  0.47000000000E+01 0.  1.
        -11    1    1    2    0    0 -0.15900127037E+02 -0.41352652924E+02  0.12808524862E+03  0.13553112874E+03  0.00000000000E+00 0.  1.
         11    1    1    2    0    0  0.13365626499E+02  0.60269977379E+02  0.18052692204E+03  0.19079066991E+03  0.00000000000E+00 0. -1.
<mgrwt>
<rscale>  0 0.12359946E+03</rscale>
<asrwt>0</asrwt>
<pdfrwt beam="1">  1        2 0.71896083E-01 0.13007658E+03</pdfrwt>
<pdfrwt beam="2">  1       -2 0.57048427E-02 0.13007658E+03</pdfrwt>
<totfact> 0.10187618E+04</totfact>
</mgrwt>
</event>
<event>
 7    1  0.6095443E-006  0.1566246E+03  0.7546771E-02  0.1195249E+00
         -1   -1    0    0    0  501 -0.00000000000E+00  0.00000000000E+00  0.40119251198E+02  0.40119251198E+02  0.00000000000E+00 0.  1.
          1   -1    0    0  501    0  0.00000000000E+00 -0.00000000000E+00 -0.68412002816E+03  0.68412002816E+03  0.00000000000E+00 0. -1.
         23    2    1    2    0    0  0.71273840555E+02 -0.33100624689E+02 -0.17070940696E+03  0.22570543308E+03  0.12500251676E+03 0.  0.
          5    1    3    3  502    0  0.83477772639E+02 -0.25969757665E+02 -0.43745911209E+02  0.97871147870E+02  0.47000000000E+01 0.  1.
         -5    1    3    3    0  502 -0.12203932084E+02 -0.71308670245E+01 -0.12696349575E+03  0.12783428521E+03  0.47000000000E+01 0.  1.
        -11    1    1    2    0    0 -0.81853445562E+02  0.49245794237E+02 -0.46917005790E+03  0.47879607145E+03  0.00000000000E+00 0. -1.
         11    1    1    2    0    0  0.10579605007E+02 -0.16145169547E+02 -0.41213121035E+01  0.19737774831E+02  0.00000000000E+00 0.  1.
<mgrwt>
<rscale>  0 0.15433172E+03</rscale>
<asrwt>0</asrwt>
<pdfrwt beam="2">  1        1 0.10524924E+00 0.15662463E+03</pdfrwt>
<pdfrwt beam="1">  1       -1 0.61721925E-02 0.15662463E+03</pdfrwt>
<totfact> 0.36567567E+03</totfact>
</mgrwt>
</event>
<event>
 7    1  0.6095443E-006  0.1608037E+03  0.7546771E-02  0.1194797E+00
         -4   -1    0    0    0  501 -0.00000000000E+00  0.00000000000E+00  0.10586516078E+03  0.10586516078E+03  0.00000000000E+00 0.  1.
          4   -1    0    0  501    0  0.00000000000E+00 -0.00000000000E+00 -0.21062301659E+03  0.21062301659E+03  0.00000000000E+00 0. -1.
         23    2    1    2    0    0  0.34386730809E+02 -0.95135832158E+02 -0.59241636980E+02  0.17136921067E+03  0.12499824397E+03 0.  0.
          5    1    3    3  502    0  0.33551917381E+02  0.11770499176E+02 -0.53232555318E+02  0.64187777314E+02  0.47000000000E+01 0. -1.
         -5    1    3    3    0  502  0.83481342751E+00 -0.10690633133E+03 -0.60090816619E+01  0.10718143335E+03  0.47000000000E+01 0. -1.
        -11    1    1    2    0    0 -0.62975445088E+02  0.73276289328E+02 -0.14683220979E+02  0.97728799440E+02  0.00000000000E+00 0.  1.
         11    1    1    2    0    0  0.28588714279E+02  0.21859542830E+02 -0.30832997854E+02  0.47390167267E+02  0.00000000000E+00 0. -1.
<mgrwt>
<rscale>  0 0.15471462E+03</rscale>
<asrwt>0</asrwt>
<pdfrwt beam="2">  1        4 0.32403541E-01 0.16080372E+03</pdfrwt>
<pdfrwt beam="1">  1       -4 0.16286948E-01 0.16080372E+03</pdfrwt>
<totfact> 0.51226472E+02</totfact>
</mgrwt>
</event>
<event>
 7    1  0.6095443E-006  0.1374083E+03  0.7546771E-02  0.1228531E+00
         -1   -1    0    0    0  501 -0.00000000000E+00  0.00000000000E+00  0.45311667235E+03  0.45311667235E+03  0.00000000000E+00 0.  1.
          1   -1    0    0  501    0  0.00000000000E+00 -0.00000000000E+00 -0.36764329195E+02  0.36764329195E+02  0.00000000000E+00 0. -1.
         23    2    1    2    0    0 -0.24041019101E+02  0.51758369629E+02  0.30738202652E+03  0.33669681509E+03  0.12499654250E+03 0.  0.
          5    1    3    3  502    0 -0.20031441836E+02  0.25031365280E+02  0.46616083408E+01  0.32736042860E+02  0.47000000000E+01 0.  1.
         -5    1    3    3    0  502 -0.40095772658E+01  0.26727004349E+02  0.30272041818E+03  0.30396077223E+03  0.47000000000E+01 0.  1.
        -11    1    1    2    0    0 -0.23138529893E+02 -0.50581268436E+02  0.81205318364E+02  0.98428451236E+02  0.00000000000E+00 0. -1.
         11    1    1    2    0    0  0.47179548994E+02 -0.11771011938E+01  0.27764998272E+02  0.54755735221E+02  0.00000000000E+00 0.  1.
<mgrwt>
<rscale>  0 0.12927786E+03</rscale>
<asrwt>0</asrwt>
<pdfrwt beam="2">  1        1 0.56560510E-02 0.13740828E+03</pdfrwt>
<pdfrwt beam="1">  1       -1 0.69710253E-01 0.13740828E+03</pdfrwt>
<totfact> 0.29257070E+03</totfact>
</mgrwt>
</event>
<event>
 7    1  0.6095443E-006  0.1528236E+03  0.7546771E-02  0.1205904E+00
         -1   -1    0    0    0  501 -0.00000000000E+00  0.00000000000E+00  0.49419636355E+02  0.49419636355E+02  0.00000000000E+00 0.  1.
          1   -1    0    0  501    0  0.00000000000E+00 -0.00000000000E+00 -0.41265768865E+03  0.41265768865E+03  0.00000000000E+00 0. -1.
         23    2    1    2    0    0 -0.81005764412E+02  0.34206005282E+02 -0.14884754506E+03  0.21333221045E+03  0.12499222247E+03 0.  0.
          5    1    3    3  502    0 -0.88281531703E+02  0.61421748425E+02 -0.15013771961E+03  0.18474221193E+03  0.47000000000E+01 0.  1.
         -5    1    3    3    0  502  0.72757672916E+01 -0.27215743143E+02  0.12901745554E+01  0.28589998512E+02  0.47000000000E+01 0.  1.
        -11    1    1    2    0    0  0.84813105536E+02 -0.55974663294E+01 -0.19819166215E+03  0.21564908867E+03  0.00000000000E+00 0. -1.
         11    1    1    2    0    0 -0.38073411245E+01 -0.28608538953E+02 -0.16198845090E+02  0.33096025890E+02  0.00000000000E+00 0.  1.
<mgrwt>
<rscale>  0 0.14566472E+03</rscale>
<asrwt>0</asrwt>
<pdfrwt beam="2">  1        1 0.63485800E-01 0.15282356E+03</pdfrwt>
<pdfrwt beam="1">  1       -1 0.76030208E-02 0.15282356E+03</pdfrwt>
<totfact> 0.52404242E+03</totfact>
</mgrwt>
</event>
<event>
 7    1  0.6095443E-006  0.1314998E+03  0.7546771E-02  0.1254672E+00
          2   -1    0    0  501    0  0.00000000000E+00  0.00000000000E+00  0.48878166726E+03  0.48878166726E+03  0.00000000000E+00 0. -1.
         -2   -1    0    0    0  501 -0.00000000000E+00 -0.00000000000E+00 -0.24458712987E+02  0.24458712987E+02  0.00000000000E+00 0.  1.
         23    2    1    2    0    0 -0.40805158240E+02 -0.32795221852E+00  0.20124159875E+03  0.24039627766E+03  0.12500808275E+03 0.  0.
          5    1    3    3  502    0 -0.15445340177E+02 -0.61005010458E+02  0.75347344506E+02  0.98282664587E+02  0.47000000000E+01 0.  1.
         -5    1    3    3    0  502 -0.25359818063E+02  0.60677058240E+02  0.12589425424E+03  0.14211361307E+03  0.47000000000E+01 0.  1.
        -11    1    1    2    0    0 -0.76240662350E+01  0.18963002197E+02  0.75677664156E+02  0.78388970464E+02  0.00000000000E+00 0.  1.
         11    1    1    2    0    0  0.48429224475E+02 -0.18635049979E+02  0.18740369137E+03  0.19445513213E+03  0.00000000000E+00 0. -1.
<mgrwt>
<rscale>  0 0.11324741E+03</rscale>
<asrwt>0</asrwt>
<pdfrwt beam="1">  1        2 0.75197172E-01 0.13149977E+03</pdfrwt>
<pdfrwt beam="2">  1       -2 0.37628793E-02 0.13149977E+03</pdfrwt>
<totfact> 0.18087338E+04</totfact>
</mgrwt>
</event>
<event>
 7    1  0.6095443E-006  0.1396074E+03  0.7546771E-02  0.1224989E+00
          2   -1    0    0  501    0  0.00000000000E+00  0.00000000000E+00  0.39265929898E+03  0.39265929898E+03  0.00000000000E+00 0. -1.
         -2   -1    0    0    0  501 -0.00000000000E+00 -0.00000000000E+00 -0.45234014525E+02  0.45234014525E+02  0.00000000000E+00 0.  1.
         23    2    1    2    0    0  0.49729877423E+02  0.37552550231E+02  0.11624452330E+03  0.18166732667E+03  0.12492787378E+03 0.  0.
          5    1    3    3  502    0 -0.14532943403E+02  0.63903832115E+02  0.34210869677E+02  0.74076850682E+02  0.47000000000E+01 0.  1.
         -5    1    3    3    0  502  0.64262820825E+02 -0.26351281884E+02  0.82033653619E+02  0.10759047599E+03  0.47000000000E+01 0.  1.
        -11    1    1    2    0    0 -0.44857165234E+02 -0.13969766371E+02  0.22696765608E+03  0.23177928413E+03  0.00000000000E+00 0. -1.
         11    1    1    2    0    0 -0.48727121886E+01 -0.23582783860E+02  0.42131050781E+01  0.24446702703E+02  0.00000000000E+00 0.  1.
<mgrwt>
<rscale>  0 0.13167654E+03</rscale>
<asrwt>0</asrwt>
<pdfrwt beam="1">  1        2 0.60409120E-01 0.13960741E+03</pdfrwt>
<pdfrwt beam="2">  1       -2 0.69590794E-02 0.13960741E+03</pdfrwt>
<totfact> 0.91268849E+03</totfact>
</mgrwt>
</event>
<event>
 7    1  0.6095443E-006  0.1868644E+03  0.7546771E-02  0.1166167E+00
         -1   -1    0    0    0  501 -0.00000000000E+00  0.00000000000E+00  0.13121045016E+03  0.13121045016E+03  0.00000000000E+00 0.  1.
          1   -1    0    0  501    0  0.00000000000E+00 -0.00000000000E+00 -0.24559691169E+03  0.24559691169E+03  0.00000000000E+00 0. -1.
         23    2    1    2    0    0  0.48684381619E+02 -0.13009395899E+03 -0.28673579255E+02  0.18905151136E+03  0.12499477037E+03 0.  0.
          5    1    3    3  502    0 -0.38632497029E+02 -0.14879185730E+02 -0.12559250973E+02  0.43516488596E+02  0.47000000000E+01 0.  1.
         -5    1    3    3    0  502  0.87316878648E+02 -0.11521477326E+03 -0.16114328282E+02  0.14553502276E+03  0.47000000000E+01 0.  1.
        -11    1    1    2    0    0  0.11480045789E+01  0.18880238217E+02 -0.60392637189E+02  0.63285479664E+02  0.00000000000E+00 0. -1.
         11    1    1    2    0    0 -0.49832386198E+02  0.11121372078E+03 -0.25320245081E+02  0.12447037083E+03  0.00000000000E+00 0.  1.
<mgrwt>
<rscale>  0 0.18170055E+03</rscale>
<asrwt>0</asrwt>
<pdfrwt beam="2">  1        1 0.37784140E-01 0.18686439E+03</pdfrwt>
<pdfrwt beam="1">  1       -1 0.20186223E-01 0.18686439E+03</pdfrwt>
<totfact> 0.22118604E+03</totfact>
</mgrwt>
</event>
<event>
 7    1  0.6095443E-006  0.2097599E+03  0.7546771E-02  0.1145599E+00
         -1   -1    0    0    0  501 -0.00000000000E+00  0.00000000000E+00  0.29291752188E+02  0.29291752188E+02  0.00000000000E+00 0.  1.
          1   -1    0    0  501    0  0.00000000000E+00 -0.00000000000E+00 -0.14582426760E+04  0.14582426760E+04  0.00000000000E+00 0. -1.
         23    2    1    2    0    0 -0.63397829773E+02  0.15605491769E+03 -0.92519025746E+03  0.94867077556E+03  0.12500722283E+03 0.  0.
          5    1    3    3  502    0 -0.72829070355E+02  0.41870146927E+02 -0.24912542275E+03  0.26295008833E+03  0.47000000000E+01 0. -1.
         -5    1    3    3    0  502  0.94312405823E+01  0.11418477076E+03 -0.67606483471E+03  0.68572068723E+03  0.47000000000E+01 0. -1.
        -11    1    1    2    0    0  0.83371957107E+02 -0.10639408783E+03 -0.39803953630E+03  0.42036419639E+03  0.00000000000E+00 0. -1.
         11    1    1    2    0    0 -0.19974127334E+02 -0.49660829863E+02 -0.10572113005E+03  0.11849945622E+03  0.00000000000E+00 0.  1.
<mgrwt>
<rscale>  0 0.20498679E+03</rscale>
<asrwt>0</asrwt>
<pdfrwt beam="2">  1        1 0.22434499E+00 0.20975993E+03</pdfrwt>
<pdfrwt beam="1">  1       -1 0.45064243E-02 0.20975993E+03</pdfrwt>
<totfact> 0.15722208E+03</totfact>
</mgrwt>
</event>
<event>
 7    1  0.6095443E-006  0.1773867E+03  0.7546771E-02  0.1176090E+00
          3   -1    0    0  501    0  0.00000000000E+00  0.00000000000E+00  0.18749824597E+03  0.18749824597E+03  0.00000000000E+00 0. -1.
         -3   -1    0    0    0  501 -0.00000000000E+00 -0.00000000000E+00 -0.15224606444E+03  0.15224606444E+03  0.00000000000E+00 0.  1.
         23    2    1    2    0    0 -0.78418748387E+02  0.98453777031E+02 -0.98048557912E+01  0.17765743995E+03  0.12499353768E+03 0.  0.
          5    1    3    3  502    0 -0.10999978349E+03  0.85195408737E+02 -0.22115471218E+02  0.14095883834E+03  0.47000000000E+01 0. -1.
         -5    1    3    3    0  502  0.31581035104E+02  0.13258368294E+02  0.12310615427E+02  0.36698601612E+02  0.47000000000E+01 0. -1.
        -11    1    1    2    0    0  0.78579902209E+02 -0.27306978334E+02  0.34920320239E+02  0.90221399138E+02  0.00000000000E+00 0.  1.
         11    1    1    2    0    0 -0.16115382189E+00 -0.71146798698E+02  0.10136717082E+02  0.71865471325E+02  0.00000000000E+00 0. -1.
<mgrwt>
<rscale>  0 0.17169665E+03</rscale>
<asrwt>0</asrwt>
<pdfrwt beam="1">  1        3 0.28845884E-01 0.17738667E+03</pdfrwt>
<pdfrwt beam="2">  1       -3 0.23422472E-01 0.17738667E+03</pdfrwt>
<totfact> 0.46979260E+02</totfact>
</mgrwt>
</event>
<event>
 7    1  0.6095443E-006  0.1278237E+03  0.7546771E-02  0.1245178E+00
         -4   -1    0    0    0  501 -0.00000000000E+00  0.00000000000E+00  0.32427424514E+03  0.32427424514E+03  0.00000000000E+00 0.  1.
          4   -1    0    0  501    0  0.00000000000E+00 -0.00000000000E+00 -0.39496035698E+02  0.39496035698E+02  0.00000000000E+00 0. -1.
         23    2    1    2    0    0 -0.39442232996E+01  0.26400702184E+02  0.19328209888E+03  0.23172583754E+03  0.12500536014E+03 0.  0.
          5    1    3    3  502    0 -0.15695129485E+02  0.53504084915E+02  0.19389409060E+03  0.20180691902E+03  0.47000000000E+01 0. -1.
         -5    1    3    3    0  502  0.11750906186E+02 -0.27103382731E+02 -0.61199172582E+00  0.29918918522E+02  0.47000000000E+01 0. -1.
        -11    1    1    2    0    0  0.44240115458E+01  0.32645974061E+02  0.49983488014E+02  0.59863850316E+02  0.00000000000E+00 0.  1.
         11    1    1    2    0    0 -0.47978824626E+00 -0.59046676245E+02  0.41512622550E+02  0.72180592982E+02  0.00000000000E+00 0. -1.
<mgrwt>
<rscale>  0 0.11874755E+03</rscale>
<asrwt>0</asrwt>
<pdfrwt beam="2">  1        4 0.60763134E-02 0.12782368E+03</pdfrwt>
<pdfrwt beam="1">  1       -4 0.49888344E-01 0.12782368E+03</pdfrwt>
<totfact> 0.11045463E+03</totfact>
</mgrwt>
</event>
<event>
 7    1  0.6095443E-006  0.1850820E+03  0.7546771E-02  0.1167948E+00
          2   -1    0    0  501    0  0.00000000000E+00  0.00000000000E+00  0.12351030357E+04  0.12351030357E+04  0.00000000000E+00 0. -1.
         -2   -1    0    0    0  501 -0.00000000000E+00 -0.00000000000E+00 -0.24812858041E+02  0.24812858041E+02  0.00000000000E+00 0.  1.
         23    2    1    2    0    0 -0.10294714549E+03  0.89784340954E+02  0.64517912892E+03  0.67120150429E+03  0.12488397945E+03 0.  0.
          5    1    3    3  502    0 -0.82139842806E+02  0.10584216235E+03  0.62058859696E+03  0.63490299557E+03  0.47000000000E+01 0.  1.
         -5    1    3    3    0  502 -0.20807302683E+02 -0.16057821401E+02  0.24590531957E+02  0.36298508716E+02  0.47000000000E+01 0.  1.
        -11    1    1    2    0    0  0.40008645149E+02  0.88616687779E+01  0.82452032769E+02  0.92073658382E+02  0.00000000000E+00 0. -1.
         11    1    1    2    0    0  0.62938500341E+02 -0.98646009732E+02  0.48265901601E+03  0.49664073111E+03  0.00000000000E+00 0.  1.
<mgrwt>
<rscale>  0 0.17985079E+03</rscale>
<asrwt>0</asrwt>
<pdfrwt beam="1">  1        2 0.19001580E+00 0.18508201E+03</pdfrwt>
<pdfrwt beam="2">  1       -2 0.38173637E-02 0.18508201E+03</pdfrwt>
<totfact> 0.55668372E+03</totfact>
</mgrwt>
</event>
<event>
 7    1  0.6095443E-006  0.1751552E+03  0.7546771E-02  0.1178518E+00
          2   -1    0    0  501    0  0.00000000000E+00  0.00000000000E+00  0.46336210457E+03  0.46336210457E+03  0.00000000000E+00 0. -1.
         -2   -1    0    0    0  501 -0.00000000000E+00 -0.00000000000E+00 -0.61819428457E+02  0.61819428457E+02  0.00000000000E+00 0.  1.
         23    2    1    2    0    0  0.26309798750E+02  0.11981400677E+03  0.14948148858E+03  0.23026951339E+03  0.12502692367E+03 0.  0.
          5    1    3    3  502    0 -0.19998789910E+02  0.76176314753E+02  0.13473957538E+02  0.80040115310E+02  0.47000000000E+01 0. -1.
         -5    1    3    3    0  502  0.46308588660E+02  0.43637692014E+02  0.13600753104E+03  0.15022939808E+03  0.47000000000E+01 0. -1.
        -11    1    1    2    0    0  0.25360656612E+02 -0.11280892528E+02  0.22294895875E+02  0.35601739032E+02  0.00000000000E+00 0.  1.
         11    1    1    2    0    0 -0.51670455362E+02 -0.10853311424E+03  0.22976629166E+03  0.25931028060E+03  0.00000000000E+00 0. -1.
<mgrwt>
<rscale>  0 0.16935885E+03</rscale>
<asrwt>0</asrwt>
<pdfrwt beam="1">  1        2 0.71286476E-01 0.17515517E+03</pdfrwt>
<pdfrwt beam="2">  1       -2 0.95106816E-02 0.17515517E+03</pdfrwt>
<totfact> 0.47610036E+03</totfact>
</mgrwt>
</event>
<event>
 7    1  0.6095443E-006  0.1532929E+03  0.7546771E-02  0.1205385E+00
         -2   -1    0    0    0  501 -0.00000000000E+00  0.00000000000E+00  0.88243039189E+02  0.88243039189E+02  0.00000000000E+00 0. -1.
          2   -1    0    0  501    0  0.00000000000E+00 -0.00000000000E+00 -0.24329055166E+03  0.24329055166E+03  0.00000000000E+00 0.  1.
         23    2    1    2    0    0  0.27074891670E+02  0.84497025327E+02 -0.35036411162E+02  0.15724584829E+03  0.12500363855E+03 0.  0.
          5    1    3    3  502    0  0.76923498563E+02  0.43270470935E+02 -0.22210124950E+02  0.91131432209E+02  0.47000000000E+01 0.  1.
         -5    1    3    3    0  502 -0.49848606893E+02  0.41226554392E+02 -0.12826286211E+02  0.66114416085E+02  0.47000000000E+01 0.  1.
        -11    1    1    2    0    0  0.20691940407E+02 -0.20544817006E+02 -0.79695474159E+02  0.84862326772E+02  0.00000000000E+00 0.  1.
         11    1    1    2    0    0 -0.47766832077E+02 -0.63952208321E+02 -0.40315627151E+02  0.89425415785E+02  0.00000000000E+00 0. -1.
<mgrwt>
<rscale>  0 0.14607190E+03</rscale>
<asrwt>0</asrwt>
<pdfrwt beam="2">  1        2 0.37429316E-01 0.15329288E+03</pdfrwt>
<pdfrwt beam="1">  1       -2 0.13575852E-01 0.15329288E+03</pdfrwt>
<totfact> 0.53451904E+03</totfact>
</mgrwt>
</event>
<event>
 7    1  0.6095443E-006  0.1231538E+03  0.7546771E-02  0.1247554E+00
         -1   -1    0    0    0  501 -0.00000000000E+00  0.00000000000E+00  0.21600916324E+02  0.21600916324E+02  0.00000000000E+00 0.  1.
          1   -1    0    0  501    0  0.00000000000E+00 -0.00000000000E+00 -0.60070355016E+03  0.60070355016E+03  0.00000000000E+00 0. -1.
         23    2    1    2    0    0  0.35648022512E+02 -0.21376820920E+02 -0.26512133265E+03  0.29232889415E+03  0.11592718121E+03 0.  0.
          5    1    3    3  502    0  0.60685569726E+02  0.13677826922E+02 -0.22423440118E+03  0.23275089258E+03  0.47000000000E+01 0. -1.
         -5    1    3    3    0  502 -0.25037547214E+02 -0.35054647842E+02 -0.40886931470E+02  0.59578001568E+02  0.47000000000E+01 0.  1.
        -11    1    1    2    0    0 -0.65084072254E+02  0.57164124533E+01 -0.24169766393E+03  0.25037247169E+03  0.00000000000E+00 0.  1.
         11    1    1    2    0    0  0.29436049742E+02  0.15660408467E+02 -0.72283637249E+02  0.79603100642E+02  0.00000000000E+00 0. -1.
<mgrwt>
<rscale>  0 0.11733796E+03</rscale>
<asrwt>0</asrwt>
<pdfrwt beam="2">  1        1 0.92415939E-01 0.12315381E+03</pdfrwt>
<pdfrwt beam="1">  1       -1 0.33232176E-02 0.12315381E+03</pdfrwt>
<totfact> 0.10781900E+04</totfact>
</mgrwt>
</event>
<event>
 7    1  0.6095443E-006  0.1262524E+03  0.7546771E-02  0.1249204E+00
         -1   -1    0    0    0  501 -0.00000000000E+00  0.00000000000E+00  0.27461831133E+02  0.27461831133E+02  0.00000000000E+00 0.  1.
          1   -1    0    0  501    0  0.00000000000E+00 -0.00000000000E+00 -0.56540132315E+03  0.56540132315E+03  0.00000000000E+00 0. -1.
         23    2    1    2    0    0 -0.13927450952E+02 -0.11085169334E+02 -0.15852483559E+03  0.20265684805E+03  0.12499127847E+03 0.  0.
          5    1    3    3  502    0 -0.36135811240E+02  0.49417617678E+02 -0.83369916234E+02  0.10353999577E+03  0.47000000000E+01 0.  1.
         -5    1    3    3    0  502  0.22208360288E+02 -0.60502787012E+02 -0.75154919355E+02  0.99116852281E+02  0.47000000000E+01 0.  1.
        -11    1    1    2    0    0  0.51002391495E+02 -0.96143274334E+00 -0.24492649977E+03  0.25018225073E+03  0.00000000000E+00 0. -1.
         11    1    1    2    0    0 -0.37074940543E+02  0.12046602077E+02 -0.13448815665E+03  0.14002405550E+03  0.00000000000E+00 0.  1.
<mgrwt>
<rscale>  0 0.11637251E+03</rscale>
<asrwt>0</asrwt>
<pdfrwt beam="2">  1        1 0.86984816E-01 0.12625242E+03</pdfrwt>
<pdfrwt beam="1">  1       -1 0.42248972E-02 0.12625242E+03</pdfrwt>
<totfact> 0.82494051E+03</totfact>
</mgrwt>
</event>
<event>
 7    1  0.6289050E-006  0.2142350E+03  0.7546771E-02  0.1141831E+00
          1   -1    0    0  501    0  0.00000000000E+00  0.00000000000E+00  0.64873405880E+03  0.64873405880E+03  0.00000000000E+00 0. -1.
         -1   -1    0    0    0  501 -0.00000000000E+00 -0.00000000000E+00 -0.73970960397E+02  0.73970960397E+02  0.00000000000E+00 0.  1.
         23    2    1    2    0    0 -0.15420883449E+03  0.80572193768E+02  0.17269668825E+03  0.27517411855E+03  0.12499762536E+03 0.  0.
          5    1    3    3  502    0 -0.34021412163E+02  0.72577742130E+02  0.11817701023E+03  0.14287365357E+03  0.47000000000E+01 0. -1.
         -5    1    3    3    0  502 -0.12018742232E+03  0.79944516381E+01  0.54519678015E+02  0.13230046497E+03  0.47000000000E+01 0. -1.
        -11    1    1    2    0    0  0.30851610941E+02 -0.13393151761E+02  0.17082415469E+02  0.37722769384E+02  0.00000000000E+00 0.  1.
         11    1    1    2    0    0  0.12335722354E+03 -0.67179042007E+02  0.38498399469E+03  0.40980813127E+03  0.00000000000E+00 0. -1.
<mgrwt>
<rscale>  0 0.20966626E+03</rscale>
<asrwt>0</asrwt>
<pdfrwt beam="1">  1        1 0.99805236E-01 0.21423503E+03</pdfrwt>
<pdfrwt beam="2">  1       -1 0.11380148E-01 0.21423503E+03</pdfrwt>
<totfact> 0.15635183E+03</totfact>
</mgrwt>
</event>
<event>
 7    1  0.6095443E-006  0.1772503E+03  0.7546771E-02  0.1176596E+00
          4   -1    0    0  501    0  0.00000000000E+00  0.00000000000E+00  0.53376219309E+02  0.53376219309E+02  0.00000000000E+00 0. -1.
         -4   -1    0    0    0  501 -0.00000000000E+00 -0.00000000000E+00 -0.64961601339E+03  0.64961601339E+03  0.00000000000E+00 0.  1.
         23    2    1    2    0    0  0.12446477822E+03 -0.17366862232E+02 -0.47430718424E+03  0.50634470730E+03  0.12499827464E+03 0.  0.
          5    1    3    3  502    0  0.78972914040E+02 -0.64760214628E+02 -0.36189605243E+03  0.37606043306E+03  0.47000000000E+01 0. -1.
         -5    1    3    3    0  502  0.45491864177E+02  0.47393352397E+02 -0.11241113181E+03  0.13028427424E+03  0.47000000000E+01 0. -1.
        -11    1    1    2    0    0 -0.22659617088E+02 -0.30136029487E+02 -0.52303453891E+02  0.64477048698E+02  0.00000000000E+00 0.  1.
         11    1    1    2    0    0 -0.10180516113E+03  0.47502891719E+02 -0.69629155949E+02  0.13217047670E+03  0.00000000000E+00 0. -1.
<mgrwt>
<rscale>  0 0.17120578E+03</rscale>
<asrwt>0</asrwt>
<pdfrwt beam="1">  1        4 0.82117264E-02 0.17725027E+03</pdfrwt>
<pdfrwt beam="2">  1       -4 0.99940920E-01 0.17725027E+03</pdfrwt>
<totfact> 0.15818614E+02</totfact>
</mgrwt>
</event>
<event>
 7    1  0.6095443E-006  0.1724579E+03  0.7546771E-02  0.1181045E+00
          1   -1    0    0  501    0  0.00000000000E+00  0.00000000000E+00  0.16398422322E+03  0.16398422322E+03  0.00000000000E+00 0.  1.
         -1   -1    0    0    0  501 -0.00000000000E+00 -0.00000000000E+00 -0.17178317493E+03  0.17178317493E+03  0.00000000000E+00 0. -1.
         23    2    1    2    0    0  0.20997255060E+02 -0.11692204110E+03 -0.47964934311E+02  0.17900381386E+03  0.12502032650E+03 0.  0.
          5    1    3    3  502    0  0.44154198547E+02 -0.28858019621E+02  0.28380571313E+02  0.60082654517E+02  0.47000000000E+01 0. -1.
         -5    1    3    3    0  502 -0.23156943487E+02 -0.88064021480E+02 -0.76345505624E+02  0.11892115934E+03  0.47000000000E+01 0. -1.
        -11    1    1    2    0    0 -0.48718111222E+02  0.73329851254E+02  0.54004880368E+02  0.10328237289E+03  0.00000000000E+00 0.  1.
         11    1    1    2    0    0  0.27720856162E+02  0.43592189847E+02 -0.13838897770E+02  0.53481211406E+02  0.00000000000E+00 0. -1.
<mgrwt>
<rscale>  0 0.16696960E+03</rscale>
<asrwt>0</asrwt>
<pdfrwt beam="1">  1        1 0.25228342E-01 0.17245791E+03</pdfrwt>
<pdfrwt beam="2">  1       -1 0.26428181E-01 0.17245791E+03</pdfrwt>
<totfact> 0.23525781E+03</totfact>
</mgrwt>
</event>
<event>
 7    1  0.6095443E-006  0.1267428E+03  0.7546771E-02  0.1243635E+00
         -2   -1    0    0    0  501 -0.00000000000E+00  0.00000000000E+00  0.87281589414E+02  0.87281589414E+02  0.00000000000E+00 0.  1.
          2   -1    0    0  501    0  0.00000000000E+00 -0.00000000000E+00 -0.19120884225E+03  0.19120884225E+03  0.00000000000E+00 0. -1.
         23    2    1    2    0    0  0.19894124244E+02  0.66778348332E+01  0.91118671070E+01  0.12706991312E+03  0.12499346800E+03 0.  0.
          5    1    3    3  502    0 -0.79947676272E+01 -0.53410659806E+02 -0.15277441067E+02  0.56321444370E+02  0.47000000000E+01 0. -1.
         -5    1    3    3    0  502  0.27888891871E+02  0.60088494639E+02  0.24389308174E+02  0.70748468754E+02  0.47000000000E+01 0. -1.
        -11    1    1    2    0    0 -0.21020793943E+02 -0.33096459765E+02 -0.42193972968E+01  0.39434157028E+02  0.00000000000E+00 0.  1.
         11    1    1    2    0    0  0.11266696991E+01  0.26418624931E+02 -0.10881972264E+03  0.11198636151E+03  0.00000000000E+00 0. -1.
<mgrwt>
<rscale>  0 0.11967474E+03</rscale>
<asrwt>0</asrwt>
<pdfrwt beam="2">  1        2 0.29416744E-01 0.12674280E+03</pdfrwt>
<pdfrwt beam="1">  1       -2 0.13427937E-01 0.12674280E+03</pdfrwt>
<totfact> 0.69646573E+03</totfact>
</mgrwt>
</event>
<event>
 7    1  0.6095443E-006  0.1331198E+03  0.7546771E-02  0.1235428E+00
         -1   -1    0    0    0  501 -0.00000000000E+00  0.00000000000E+00  0.32282298807E+02  0.32282298807E+02  0.00000000000E+00 0.  1.
          1   -1    0    0  501    0  0.00000000000E+00 -0.00000000000E+00 -0.49112584796E+03  0.49112584796E+03  0.00000000000E+00 0. -1.
         23    2    1    2    0    0 -0.41139290122E+02 -0.20093383989E+02 -0.16428987370E+03  0.21145223224E+03  0.12499879459E+03 0.  0.
          5    1    3    3  502    0 -0.57993967787E+02 -0.31494743959E+02 -0.17563643668E+03  0.18768448814E+03  0.47000000000E+01 0. -1.
         -5    1    3    3    0  502  0.16854677665E+02  0.11401359970E+02  0.11346562984E+02  0.23767744107E+02  0.47000000000E+01 0. -1.
        -11    1    1    2    0    0 -0.26701629575E+01 -0.29958735179E+02 -0.48495081279E+02  0.57065125007E+02  0.00000000000E+00 0.  1.
         11    1    1    2    0    0  0.43809453079E+02  0.50052119169E+02 -0.24605859418E+03  0.25489078952E+03  0.00000000000E+00 0. -1.
<mgrwt>
<rscale>  0 0.12477063E+03</rscale>
<asrwt>0</asrwt>
<pdfrwt beam="2">  1        1 0.75557818E-01 0.13311981E+03</pdfrwt>
<pdfrwt beam="1">  1       -1 0.49665078E-02 0.13311981E+03</pdfrwt>
<totfact> 0.78522836E+03</totfact>
</mgrwt>
</event>
<event>
 7    1  0.6095443E-006  0.1737964E+03  0.7546771E-02  0.1180730E+00
          2   -1    0    0  501    0  0.00000000000E+00  0.00000000000E+00  0.19342207474E+03  0.19342207474E+03  0.00000000000E+00 0. -1.
         -2   -1    0    0    0  501 -0.00000000000E+00 -0.00000000000E+00 -0.13641066671E+03  0.13641066671E+03  0.00000000000E+00 0.  1.
         23    2    1    2    0    0  0.67163932891E+02  0.10036283031E+03  0.48705146574E+02  0.18049202385E+03  0.12498595034E+03 0.  0.
          5    1    3    3  502    0  0.71134066465E+02  0.10191896192E+03  0.80444309181E+02  0.14812463364E+03  0.47000000000E+01 0. -1.
         -5    1    3    3    0  502 -0.39701335734E+01 -0.15561316118E+01 -0.31739162606E+02  0.32367390212E+02  0.47000000000E+01 0. -1.
        -11    1    1    2    0    0 -0.49835355699E+01 -0.68773426025E+02 -0.23279355731E+02  0.72777387678E+02  0.00000000000E+00 0.  1.
         11    1    1    2    0    0 -0.62180397321E+02 -0.31589404287E+02  0.31585617186E+02  0.76563329912E+02  0.00000000000E+00 0. -1.
<mgrwt>
<rscale>  0 0.16726570E+03</rscale>
<asrwt>0</asrwt>
<pdfrwt beam="1">  1        2 0.29757242E-01 0.17379637E+03</pdfrwt>
<pdfrwt beam="2">  1       -2 0.20986256E-01 0.17379637E+03</pdfrwt>
<totfact> 0.33391752E+03</totfact>
</mgrwt>
</event>
<event>
 7    1  0.6095443E-006  0.1252360E+03  0.7546771E-02  0.1250147E+00
          2   -1    0    0  501    0  0.00000000000E+00  0.00000000000E+00  0.27971970929E+03  0.27971970929E+03  0.00000000000E+00 0. -1.
         -2   -1    0    0    0  501 -0.00000000000E+00 -0.00000000000E+00 -0.44664242917E+02  0.44664242917E+02  0.00000000000E+00 0.  1.
         23    2    1    2    0    0 -0.75477780700E+01 -0.21862676629E+01  0.95752376519E+02  0.15764700557E+03  0.12498924768E+03 0.  0.
          5    1    3    3  502    0 -0.55795383015E+02 -0.11981076053E+02  0.92468191317E+01  0.58002281103E+02  0.47000000000E+01 0.  1.
         -5    1    3    3    0  502  0.48247604945E+02  0.97948083900E+01  0.86505557387E+02  0.99644724462E+02  0.47000000000E+01 0.  1.
        -11    1    1    2    0    0 -0.22832552264E+02 -0.31640754522E+02  0.97323558282E+02  0.10485388780E+03  0.00000000000E+00 0.  1.
         11    1    1    2    0    0  0.30380330334E+02  0.33827022184E+02  0.41979531575E+02  0.61883058848E+02  0.00000000000E+00 0. -1.
<mgrwt>
<rscale>  0 0.11582574E+03</rscale>
<asrwt>0</asrwt>
<pdfrwt beam="1">  1        2 0.43033800E-01 0.12523602E+03</pdfrwt>
<pdfrwt beam="2">  1       -2 0.68714221E-02 0.12523602E+03</pdfrwt>
<totfact> 0.13223529E+04</totfact>
</mgrwt>
</event>
<event>
 6    1  0.6095443E-006  0.2332747E+03  0.7546771E-02  0.1131814E+00
          1   -1    0    0  501    0  0.00000000000E+00  0.00000000000E+00  0.46471538190E+03  0.46471538190E+03  0.00000000000E+00 0. -1.
         -1   -1    0    0    0  501 -0.00000000000E+00 -0.00000000000E+00 -0.25132585885E+03  0.25132585885E+03  0.00000000000E+00 0.  1.
          5    1    1    2  502    0  0.11887021719E+02  0.64189844897E+02  0.19967618897E+02  0.68428307576E+02  0.47000000000E+01 0. -1.
         -5    1    1    2    0  502  0.48543429322E+02 -0.10109281556E+03 -0.18839040896E+03  0.21929263115E+03  0.47000000000E+01 0.  1.
        -11    1    1    2    0    0 -0.74124548847E+01  0.74005215052E+02  0.48516615074E+02  0.88800778603E+02  0.00000000000E+00 0.  1.
         11    1    1    2    0    0 -0.53017996156E+02 -0.37102244386E+02  0.33329569803E+03  0.33951952342E+03  0.00000000000E+00 0. -1.
<mgrwt>
<rscale>  0 0.22279798E+03</rscale>
<asrwt>0</asrwt>
<pdfrwt beam="1">  1        1 0.71494674E-01 0.23327474E+03</pdfrwt>
<pdfrwt beam="2">  1       -1 0.38665517E-01 0.23327474E+03</pdfrwt>
<totfact> 0.33006121E+02</totfact>
</mgrwt>
</event>
<event>
 7    1  0.6095443E-006  0.1188458E+03  0.7546771E-02  0.1254834E+00
          1   -1    0    0  501    0  0.00000000000E+00  0.00000000000E+00  0.29923452210E+03  0.29923452210E+03  0.00000000000E+00 0. -1.
         -1   -1    0    0    0  501 -0.00000000000E+00 -0.00000000000E+00 -0.45335056102E+02  0.45335056102E+02  0.00000000000E+00 0.  1.
         23    2    1    2    0    0  0.36210832369E+02 -0.20947546832E+01  0.74385198905E+02  0.14020515335E+03  0.11317559291E+03 0.  0.
          5    1    3    3  502    0 -0.24583701879E+02 -0.28124875258E+02  0.62330494344E+02  0.72818593309E+02  0.47000000000E+01 0. -1.
         -5    1    3    3    0  502  0.60794534248E+02  0.26030120575E+02  0.12054704561E+02  0.67386560037E+02  0.47000000000E+01 0.  1.
        -11    1    1    2    0    0 -0.40433212600E+01 -0.41760913092E+02  0.61845032921E+02  0.74733730043E+02  0.00000000000E+00 0. -1.
         11    1    1    2    0    0 -0.32167511109E+02  0.43855667775E+02  0.11766923417E+03  0.12963069481E+03  0.00000000000E+00 0.  1.
<mgrwt>
<rscale>  0 0.11315619E+03</rscale>
<asrwt>0</asrwt>
<pdfrwt beam="1">  1        1 0.46036079E-01 0.11884581E+03</pdfrwt>
<pdfrwt beam="2">  1       -1 0.69746242E-02 0.11884581E+03</pdfrwt>
<totfact> 0.87674937E+03</totfact>
</mgrwt>
</event>
<event>
 7    1  0.6095443E-006  0.1777129E+03  0.7546771E-02  0.1176325E+00
          1   -1    0    0  501    0  0.00000000000E+00  0.00000000000E+00  0.13830954124E+03  0.13830954124E+03  0.00000000000E+00 0. -1.
         -1   -1    0    0    0  501 -0.00000000000E+00 -0.00000000000E+00 -0.21219549843E+03  0.21219549843E+03  0.00000000000E+00 0.  1.
         23    2    1    2    0    0 -0.23733427529E+02  0.12414558827E+03 -0.83155134371E+02  0.19620565048E+03  0.12492589098E+03 0.  0.
          5    1    3    3  502    0 -0.46034320161E+02  0.13752009354E+03 -0.49267718911E+02  0.15323293669E+03  0.47000000000E+01 0.  1.
         -5    1    3    3    0  502  0.22300892632E+02 -0.13374505271E+02 -0.33887415460E+02  0.42972713784E+02  0.47000000000E+01 0.  1.
        -11    1    1    2    0    0  0.59094720147E+01 -0.57630447244E+02  0.48051926647E+02  0.75267376489E+02  0.00000000000E+00 0.  1.
         11    1    1    2    0    0  0.17823955514E+02 -0.66515141026E+02 -0.38782749472E+02  0.79032012707E+02  0.00000000000E+00 0. -1.
<mgrwt>
<rscale>  0 0.17146838E+03</rscale>
<asrwt>0</asrwt>
<pdfrwt beam="1">  1        1 0.21278391E-01 0.17771292E+03</pdfrwt>
<pdfrwt beam="2">  1       -1 0.32645461E-01 0.17771292E+03</pdfrwt>
<totfact> 0.20473162E+03</totfact>
</mgrwt>
</event>
<event>
 6    1  0.6095443E-006  0.3108990E+03  0.7546771E-02  0.1079916E+00
         -2   -1    0    0    0  501 -0.00000000000E+00  0.00000000000E+00  0.78415844017E+02  0.78415844017E+02  0.00000000000E+00 0.  1.
          2   -1    0    0  501    0  0.00000000000E+00 -0.00000000000E+00 -0.30815907485E+03  0.30815907485E+03  0.00000000000E+00 0. -1.
          5    1    1    2  502    0 -0.10341776748E+03  0.60865006055E+01 -0.11126141278E+03  0.15209691678E+03  0.47000000000E+01 0. -1.
         -5    1    1    2    0  502  0.10653695803E+02  0.45154581470E+00  0.32842177364E+02  0.34848296112E+02  0.47000000000E+01 0.  1.
        -11    1    1    2    0    0  0.94306277605E+02  0.24222853758E+02 -0.98625217931E+02  0.13859059944E+03  0.00000000000E+00 0. -1.
         11    1    1    2    0    0 -0.15422059302E+01 -0.30760900178E+02 -0.52698777486E+02  0.61039106541E+02  0.00000000000E+00 0.  1.
<mgrwt>
<rscale>  0 0.31089904E+03</rscale>
<asrwt>0</asrwt>
<pdfrwt beam="2">  1        2 0.47409088E-01 0.31089904E+03</pdfrwt>
<pdfrwt beam="1">  1       -2 0.12063976E-01 0.31089904E+03</pdfrwt>
<totfact> 0.51991077E+03</totfact>
</mgrwt>
</event>
<event>
 7    1  0.6095443E-006  0.1759658E+03  0.7546771E-02  0.1183656E+00
         -1   -1    0    0    0  501 -0.00000000000E+00  0.00000000000E+00  0.10582523017E+03  0.10582523017E+03  0.00000000000E+00 0.  1.
          1   -1    0    0  501    0  0.00000000000E+00 -0.00000000000E+00 -0.40698055037E+03  0.40698055037E+03  0.00000000000E+00 0. -1.
         23    2    1    2    0    0 -0.81016152204E+02 -0.93673625624E+02  0.74720497044E+01  0.17612436275E+03  0.12500237827E+03 0.  0.
          5    1    3    3  502    0 -0.62464916403E+02 -0.72743324938E+02 -0.52766330320E+02  0.10954374797E+03  0.47000000000E+01 0.  1.
         -5    1    3    3    0  502 -0.18551235801E+02 -0.20930300685E+02  0.60238380024E+02  0.66580614780E+02  0.47000000000E+01 0.  1.
        -11    1    1    2    0    0  0.22391673317E+02  0.11318393763E+02 -0.12080022919E+03  0.12337823326E+03  0.00000000000E+00 0. -1.
         11    1    1    2    0    0  0.58624478887E+02  0.82355231861E+02 -0.18782714072E+03  0.21330318453E+03  0.00000000000E+00 0.  1.
<mgrwt>
<rscale>  0 0.16454761E+03</rscale>
<asrwt>0</asrwt>
<pdfrwt beam="2">  1        1 0.62612392E-01 0.17596579E+03</pdfrwt>
<pdfrwt beam="1">  1       -1 0.16280805E-01 0.17596579E+03</pdfrwt>
<totfact> 0.16537124E+03</totfact>
</mgrwt>
</event>
<event>
 7    1  0.6095443E-006  0.1269987E+03  0.7546771E-02  0.1246494E+00
         -4   -1    0    0    0  501 -0.00000000000E+00  0.00000000000E+00  0.78734351501E+02  0.78734351501E+02  0.00000000000E+00 0. -1.
          4   -1    0    0  501    0  0.00000000000E+00 -0.00000000000E+00 -0.17468793304E+03  0.17468793304E+03  0.00000000000E+00 0.  1.
         23    2    1    2    0    0  0.22227375933E+02 -0.29078422095E+01 -0.13019978833E+02  0.12766438977E+03  0.12500465903E+03 0.  0.
          5    1    3    3  502    0  0.12580873026E+02  0.19676204022E+02 -0.65410228850E+02  0.69613356542E+02  0.47000000000E+01 0.  1.
         -5    1    3    3    0  502  0.96465029066E+01 -0.22584046232E+02  0.52390250016E+02  0.58051033232E+02  0.47000000000E+01 0.  1.
        -11    1    1    2    0    0 -0.17052877401E+02  0.25464220032E+02 -0.94885153893E+02  0.99711682158E+02  0.00000000000E+00 0.  1.
         11    1    1    2    0    0 -0.51744985325E+01 -0.22556377822E+02  0.11951551187E+02  0.26046212610E+02  0.00000000000E+00 0. -1.
<mgrwt>
<rscale>  0 0.11796384E+03</rscale>
<asrwt>0</asrwt>
<pdfrwt beam="2">  1        4 0.26875066E-01 0.12699873E+03</pdfrwt>
<pdfrwt beam="1">  1       -4 0.12112977E-01 0.12699873E+03</pdfrwt>
<totfact> 0.11633775E+03</totfact>
</mgrwt>
</event>
<event>
 7    1  0.6095443E-006  0.2452476E+03  0.7546771E-02  0.1119188E+00
         -3   -1    0    0    0  501 -0.00000000000E+00  0.00000000000E+00  0.23375963347E+03  0.23375963347E+03  0.00000000000E+00 0.  1.
          3   -1    0    0  501    0  0.00000000000E+00 -0.00000000000E+00 -0.24730829101E+03  0.24730829101E+03  0.00000000000E+00 0. -1.
         23    2    1    2    0    0  0.30776524717E+02  0.20874728004E+03 -0.48673048119E+02  0.25003092732E+03  0.12499511032E+03 0.  0.
          5    1    3    3  502    0  0.12350876096E+02  0.37847495849E+02 -0.65984099484E+02  0.77207308379E+02  0.47000000000E+01 0. -1.
         -5    1    3    3    0  502  0.18425648621E+02  0.17089978420E+03  0.17311051365E+02  0.17282361894E+03  0.47000000000E+01 0. -1.
        -11    1    1    2    0    0  0.20935717865E+01 -0.19096333695E+03  0.28869440554E+02  0.19314456684E+03  0.00000000000E+00 0. -1.
         11    1    1    2    0    0 -0.32870096503E+02 -0.17783943097E+02  0.62549500254E+01  0.37892430326E+02  0.00000000000E+00 0.  1.
<mgrwt>
<rscale>  0 0.24090984E+03</rscale>
<asrwt>0</asrwt>
<pdfrwt beam="2">  1        3 0.38047429E-01 0.24524763E+03</pdfrwt>
<pdfrwt beam="1">  1       -3 0.35963021E-01 0.24524763E+03</pdfrwt>
<totfact> 0.12977145E+02</totfact>
</mgrwt>
</event>
<event>
 7    1  0.6095443E-006  0.1299685E+03  0.7546771E-02  0.1237761E+00
         -3   -1    0    0    0  501 -0.00000000000E+00  0.00000000000E+00  0.15458978449E+03  0.15458978449E+03  0.00000000000E+00 0.  1.
          3   -1    0    0  501    0  0.00000000000E+00 -0.00000000000E+00 -0.13567467744E+03  0.13567467744E+03  0.00000000000E+00 0. -1.
         23    2    1    2    0    0 -0.28309597475E+02 -0.21577917686E+02  0.94491413216E+02  0.16068736235E+03  0.12499904562E+03 0.  0.
          5    1    3    3  502    0  0.18153337140E+02  0.44868471865E+02  0.32024803504E+02  0.58227153943E+02  0.47000000000E+01 0.  1.
         -5    1    3    3    0  502 -0.46462934615E+02 -0.66446389551E+02  0.62466609712E+02  0.10246020841E+03  0.47000000000E+01 0.  1.
        -11    1    1    2    0    0  0.64212927897E+02  0.15284497938E+02 -0.33878963401E+02  0.74193666491E+02  0.00000000000E+00 0.  1.
         11    1    1    2    0    0 -0.35903330422E+02  0.62934197482E+01 -0.41697342762E+02  0.55383433091E+02  0.00000000000E+00 0. -1.
<mgrwt>
<rscale>  0 0.12329298E+03</rscale>
<asrwt>0</asrwt>
<pdfrwt beam="2">  1        3 0.20873027E-01 0.12996846E+03</pdfrwt>
<pdfrwt beam="1">  1       -3 0.23783044E-01 0.12996846E+03</pdfrwt>
<totfact> 0.78520561E+02</totfact>
</mgrwt>
</event>
<event>
 7    1  0.6095443E-006  0.1297192E+03  0.7546771E-02  0.1235790E+00
          1   -1    0    0  501    0  0.00000000000E+00  0.00000000000E+00  0.45935412528E+02  0.45935412528E+02  0.00000000000E+00 0. -1.
         -1   -1    0    0    0  501 -0.00000000000E+00 -0.00000000000E+00 -0.40398731669E+03  0.40398731669E+03  0.00000000000E+00 0.  1.
         23    2    1    2    0    0  0.33202966030E+02  0.47276995572E+02 -0.29662813678E+03  0.32375193461E+03  0.11614436006E+03 0.  0.
          5    1    3    3  502    0  0.41343209742E+02  0.53389152616E+02 -0.71917420935E+02  0.98761672944E+02  0.47000000000E+01 0. -1.
         -5    1    3    3    0  502 -0.81402437120E+01 -0.61121570433E+01 -0.22471071584E+03  0.22499026167E+03  0.47000000000E+01 0.  1.
        -11    1    1    2    0    0  0.22101657450E+02 -0.33975426906E+02 -0.55862802497E+02  0.69017864342E+02  0.00000000000E+00 0.  1.
         11    1    1    2    0    0 -0.55304623480E+02 -0.13301568666E+02 -0.55609648891E+01  0.57152930264E+02  0.00000000000E+00 0. -1.
<mgrwt>
<rscale>  0 0.12453979E+03</rscale>
<asrwt>0</asrwt>
<pdfrwt beam="1">  1        1 0.70669866E-02 0.12971917E+03</pdfrwt>
<pdfrwt beam="2">  1       -1 0.62151895E-01 0.12971917E+03</pdfrwt>
<totfact> 0.26957786E+03</totfact>
</mgrwt>
</event>
<event>
 7    1  0.6095443E-006  0.1336694E+03  0.7546771E-02  0.1242800E+00
          2   -1    0    0  501    0  0.00000000000E+00  0.00000000000E+00  0.65239246086E+03  0.65239246086E+03  0.00000000000E+00 0. -1.
         -2   -1    0    0    0  501 -0.00000000000E+00 -0.00000000000E+00 -0.18978186104E+02  0.18978186104E+02  0.00000000000E+00 0.  1.
         23    2    1    2    0    0  0.65316103881E+01  0.48042774104E+02  0.34377993348E+03  0.36885246497E+03  0.12456615983E+03 0.  0.
          5    1    3    3  502    0 -0.36733018724E+02  0.28634972921E+02  0.30161141009E+03  0.30522255656E+03  0.47000000000E+01 0. -1.
         -5    1    3    3    0  502  0.43264629112E+02  0.19407801183E+02  0.42168523385E+02  0.63629908404E+02  0.47000000000E+01 0. -1.
        -11    1    1    2    0    0  0.17352844451E+02 -0.58532035457E+02  0.21222904719E+03  0.22083543388E+03  0.00000000000E+00 0. -1.
         11    1    1    2    0    0 -0.23884454839E+02  0.10489261353E+02  0.77405294085E+02  0.81682748112E+02  0.00000000000E+00 0.  1.
<mgrwt>
<rscale>  0 0.12018044E+03</rscale>
<asrwt>0</asrwt>
<pdfrwt beam="1">  1        2 0.10036805E+00 0.13366936E+03</pdfrwt>
<pdfrwt beam="2">  1       -2 0.29197214E-02 0.13366936E+03</pdfrwt>
<totfact> 0.19033168E+04</totfact>
</mgrwt>
</event>
<event>
 7    1  0.6095443E-006  0.1546889E+03  0.7546771E-02  0.1202871E+00
          1   -1    0    0  501    0  0.00000000000E+00  0.00000000000E+00  0.95462371687E+02  0.95462371687E+02  0.00000000000E+00 0. -1.
         -1   -1    0    0    0  501 -0.00000000000E+00 -0.00000000000E+00 -0.24748977199E+03  0.24748977199E+03  0.00000000000E+00 0.  1.
         23    2    1    2    0    0 -0.88619495141E+02  0.21234403999E+02 -0.14640144385E+03  0.21298362844E+03  0.12499731354E+03 0.  0.
          5    1    3    3  502    0 -0.15891021499E+02 -0.27349993375E+02  0.10187461984E+02  0.33562197240E+02  0.47000000000E+01 0.  1.
         -5    1    3    3    0  502 -0.72728473642E+02  0.48584397374E+02 -0.15658890583E+03  0.17942143120E+03  0.47000000000E+01 0.  1.
        -11    1    1    2    0    0  0.15396101098E+02  0.34222872279E+02  0.33557835500E+01  0.37676334738E+02  0.00000000000E+00 0. -1.
         11    1    1    2    0    0  0.73223394043E+02 -0.55457276278E+02 -0.89817400098E+01  0.92292180497E+02  0.00000000000E+00 0.  1.
<mgrwt>
<rscale>  0 0.14806486E+03</rscale>
<asrwt>0</asrwt>
<pdfrwt beam="1">  1        1 0.14686519E-01 0.15468886E+03</pdfrwt>
<pdfrwt beam="2">  1       -1 0.38075350E-01 0.15468886E+03</pdfrwt>
<totfact> 0.25172989E+03</totfact>
</mgrwt>
</event>
<event>
 7    1  0.6095443E-006  0.1286200E+03  0.7546771E-02  0.1243201E+00
         -4   -1    0    0    0  501 -0.00000000000E+00  0.00000000000E+00  0.42873840090E+03  0.42873840090E+03  0.00000000000E+00 0.  1.
          4   -1    0    0  501    0  0.00000000000E+00 -0.00000000000E+00 -0.29777878184E+02  0.29777878184E+02  0.00000000000E+00 0. -1.
         23    2    1    2    0    0 -0.29759155616E+02 -0.54500207405E+01  0.23429098015E+03  0.26727394770E+03  0.12501115818E+03 0.  0.
          5    1    3    3  502    0  0.78627795585E+01  0.32962005018E+02  0.20093433673E+03  0.20382594230E+03  0.47000000000E+01 0. -1.
         -5    1    3    3    0  502 -0.37621935175E+02 -0.38412025758E+02  0.33356643422E+02  0.63448005402E+02  0.47000000000E+01 0. -1.
        -11    1    1    2    0    0 -0.20526618386E+02 -0.12974773869E+02  0.78351865866E+01  0.25516209910E+02  0.00000000000E+00 0. -1.
         11    1    1    2    0    0  0.50285774002E+02  0.18424794610E+02  0.15683435597E+03  0.16572612147E+03  0.00000000000E+00 0.  1.
<mgrwt>
<rscale>  0 0.11993717E+03</rscale>
<asrwt>0</asrwt>
<pdfrwt beam="2">  1        4 0.45812123E-02 0.12861998E+03</pdfrwt>
<pdfrwt beam="1">  1       -4 0.65959749E-01 0.12861998E+03</pdfrwt>
<totfact> 0.97470765E+02</totfact>
</mgrwt>
</event>
<event>
 7    1  0.6095443E-006  0.1890546E+03  0.7546771E-02  0.1164561E+00
         -2   -1    0    0    0  501 -0.00000000000E+00  0.00000000000E+00  0.50780648605E+02  0.50780648605E+02  0.00000000000E+00 0.  1.
          2   -1    0    0  501    0  0.00000000000E+00 -0.00000000000E+00 -0.64062800306E+03  0.64062800306E+03  0.00000000000E+00 0. -1.
         23    2    1    2    0    0  0.14084213126E+03  0.16746658109E+02 -0.25944485088E+03  0.32101911809E+03  0.12499874812E+03 0.  0.
          5    1    3    3  502    0  0.58892077980E+02  0.39787245818E+02 -0.21157394012E+03  0.22324185073E+03  0.47000000000E+01 0.  1.
         -5    1    3    3    0  502  0.81950053280E+02 -0.23040587709E+02 -0.47870910757E+02  0.97777267355E+02  0.47000000000E+01 0.  1.
        -11    1    1    2    0    0 -0.10741275188E+03  0.12075228741E+02 -0.15139671335E+03  0.18602224390E+03  0.00000000000E+00 0. -1.
         11    1    1    2    0    0 -0.33429379384E+02 -0.28821886850E+02 -0.17900579023E+03  0.18436728968E+03  0.00000000000E+00 0.  1.
<mgrwt>
<rscale>  0 0.18339141E+03</rscale>
<asrwt>0</asrwt>
<pdfrwt beam="2">  1        2 0.98558163E-01 0.18905460E+03</pdfrwt>
<pdfrwt beam="1">  1       -2 0.78124068E-02 0.18905460E+03</pdfrwt>
<totfact> 0.45063630E+03</totfact>
</mgrwt>
</event>
<event>
 7    1  0.6095443E-006  0.1686258E+03  0.7546771E-02  0.1185869E+00
         -2   -1    0    0    0  501 -0.00000000000E+00  0.00000000000E+00  0.54838141935E+02  0.54838141935E+02  0.00000000000E+00 0.  1.
          2   -1    0    0  501    0  0.00000000000E+00 -0.00000000000E+00 -0.45971838192E+03  0.45971838192E+03  0.00000000000E+00 0. -1.
         23    2    1    2    0    0 -0.11305554069E+03 -0.53501901803E+01 -0.25441636051E+03  0.30522509035E+03  0.12499796586E+03 0.  0.
          5    1    3    3  502    0  0.23563525048E+01  0.41034610604E+02 -0.41526496269E+02  0.58616819745E+02  0.47000000000E+01 0. -1.
         -5    1    3    3    0  502 -0.11541189319E+03 -0.46384800785E+02 -0.21288986424E+03  0.24660827060E+03  0.47000000000E+01 0. -1.
        -11    1    1    2    0    0  0.57015458425E+02  0.44664173916E+02 -0.10346317306E+03  0.12629441441E+03  0.00000000000E+00 0.  1.
         11    1    1    2    0    0  0.56040082263E+02 -0.39313983736E+02 -0.47000706421E+02  0.83037019102E+02  0.00000000000E+00 0. -1.
<mgrwt>
<rscale>  0 0.16253037E+03</rscale>
<asrwt>0</asrwt>
<pdfrwt beam="2">  1        2 0.70725903E-01 0.16862583E+03</pdfrwt>
<pdfrwt beam="1">  1       -2 0.84366374E-02 0.16862583E+03</pdfrwt>
<totfact> 0.57831591E+03</totfact>
</mgrwt>
</event>
<event>
 7    1  0.6095443E-006  0.1577393E+03  0.7546771E-02  0.1199016E+00
          1   -1    0    0  501    0  0.00000000000E+00  0.00000000000E+00  0.21932023118E+03  0.21932023118E+03  0.00000000000E+00 0. -1.
         -1   -1    0    0    0  501 -0.00000000000E+00 -0.00000000000E+00 -0.98228584145E+02  0.98228584145E+02  0.00000000000E+00 0.  1.
         23    2    1    2    0    0  0.64643930262E+02 -0.71260803030E+02  0.44243394047E+02  0.16382661444E+03  0.12499896765E+03 0.  0.
          5    1    3    3  502    0  0.10218125883E+03 -0.47783828710E+02  0.27020013153E+02  0.11608822099E+03  0.47000000000E+01 0.  1.
         -5    1    3    3    0  502 -0.37537328569E+02 -0.23476974320E+02  0.17223380893E+02  0.47738393445E+02  0.47000000000E+01 0.  1.
        -11    1    1    2    0    0 -0.12011963745E+02 -0.16587499554E+02 -0.67089158710E+01  0.21550915679E+02  0.00000000000E+00 0.  1.
         11    1    1    2    0    0 -0.52631966517E+02  0.87848302584E+02  0.83557168863E+02  0.13217128521E+03  0.00000000000E+00 0. -1.
<mgrwt>
<rscale>  0 0.15119163E+03</rscale>
<asrwt>0</asrwt>
<pdfrwt beam="1">  1        1 0.33741574E-01 0.15773928E+03</pdfrwt>
<pdfrwt beam="2">  1       -1 0.15112090E-01 0.15773928E+03</pdfrwt>
<totfact> 0.40146074E+03</totfact>
</mgrwt>
</event>
<event>
 7    1  0.6095443E-006  0.1916879E+03  0.7546771E-02  0.1161849E+00
         -3   -1    0    0    0  501 -0.00000000000E+00  0.00000000000E+00  0.56323002043E+02  0.56323002043E+02  0.00000000000E+00 0. -1.
          3   -1    0    0  501    0  0.00000000000E+00 -0.00000000000E+00 -0.59084724198E+03  0.59084724198E+03  0.00000000000E+00 0.  1.
         23    2    1    2    0    0 -0.13386651393E+03 -0.56544563029E+02 -0.31742903283E+03  0.37081725954E+03  0.12500687152E+03 0.  0.
          5    1    3    3  502    0 -0.10485698274E+03 -0.96095545153E+02 -0.24110288702E+03  0.27996791380E+03  0.47000000000E+01 0.  1.
         -5    1    3    3    0  502 -0.29009531193E+02  0.39550982124E+02 -0.76326145811E+02  0.90849345740E+02  0.47000000000E+01 0.  1.
        -11    1    1    2    0    0  0.73072857171E+02  0.11149600588E+02 -0.40815134382E+02  0.84438328045E+02  0.00000000000E+00 0. -1.
         11    1    1    2    0    0  0.60793656757E+02  0.45394962441E+02 -0.17628007272E+03  0.19191465643E+03  0.00000000000E+00 0.  1.
<mgrwt>
<rscale>  0 0.18629208E+03</rscale>
<asrwt>0</asrwt>
<pdfrwt beam="2">  1        3 0.90899576E-01 0.19168789E+03</pdfrwt>
<pdfrwt beam="1">  1       -3 0.86650772E-02 0.19168789E+03</pdfrwt>
<totfact> 0.25596475E+02</totfact>
</mgrwt>
</event>
<event>
 7    1  0.6095443E-006  0.2971272E+03  0.7546771E-02  0.1088283E+00
          2   -1    0    0  501    0  0.00000000000E+00  0.00000000000E+00  0.30259895829E+03  0.30259895829E+03  0.00000000000E+00 0. -1.
         -2   -1    0    0    0  501 -0.00000000000E+00 -0.00000000000E+00 -0.28108174439E+03  0.28108174439E+03  0.00000000000E+00 0.  1.
         23    2    1    2    0    0 -0.16338847016E+03 -0.21437519896E+03  0.30986077294E+02  0.29873849295E+03  0.12502812512E+03 0.  0.
          5    1    3    3  502    0 -0.55951976700E+02 -0.32466694239E+02  0.56329672712E+02  0.85905948335E+02  0.47000000000E+01 0.  1.
         -5    1    3    3    0  502 -0.10743649346E+03 -0.18190850472E+03 -0.25343595418E+02  0.21283254461E+03  0.47000000000E+01 0.  1.
        -11    1    1    2    0    0  0.85221817792E+02  0.90091681168E+02  0.39529536029E+02  0.13016087531E+03  0.00000000000E+00 0.  1.
         11    1    1    2    0    0  0.78166652370E+02  0.12428351780E+03 -0.48998399428E+02  0.15478133442E+03  0.00000000000E+00 0. -1.
<mgrwt>
<rscale>  0 0.29399232E+03</rscale>
<asrwt>0</asrwt>
<pdfrwt beam="1">  1        2 0.46553686E-01 0.29712716E+03</pdfrwt>
<pdfrwt beam="2">  1       -2 0.43243345E-01 0.29712716E+03</pdfrwt>
<totfact> 0.55690834E+02</totfact>
</mgrwt>
</event>
<event>
 7    1  0.6095443E-006  0.1342068E+03  0.7546771E-02  0.1234641E+00
         -2   -1    0    0    0  501 -0.00000000000E+00  0.00000000000E+00  0.22296742006E+03  0.22296742006E+03  0.00000000000E+00 0. -1.
          2   -1    0    0  501    0  0.00000000000E+00 -0.00000000000E+00 -0.63301380606E+02  0.63301380606E+02  0.00000000000E+00 0.  1.
         23    2    1    2    0    0  0.20367974481E+02 -0.44405244476E+02  0.10659018212E+03  0.17138533393E+03  0.12499914256E+03 0.  0.
          5    1    3    3  502    0 -0.37100152436E+02 -0.50699475572E+02  0.92124996488E+02  0.11160628617E+03  0.47000000000E+01 0.  1.
         -5    1    3    3    0  502  0.57468126916E+02  0.62942310956E+01  0.14465185629E+02  0.59779047765E+02  0.47000000000E+01 0.  1.
        -11    1    1    2    0    0 -0.83646388490E+01  0.48218537612E+02 -0.10516542464E+02  0.50055890941E+02  0.00000000000E+00 0.  1.
         11    1    1    2    0    0 -0.12003335632E+02 -0.38132931360E+01  0.63592399805E+02  0.64827575798E+02  0.00000000000E+00 0. -1.
<mgrwt>
<rscale>  0 0.12527420E+03</rscale>
<asrwt>0</asrwt>
<pdfrwt beam="2">  1        2 0.97386740E-02 0.13420680E+03</pdfrwt>
<pdfrwt beam="1">  1       -2 0.34302680E-01 0.13420680E+03</pdfrwt>
<totfact> 0.50206140E+03</totfact>
</mgrwt>
</event>
<event>
 7    1  0.6095443E-006  0.1359450E+03  0.7546771E-02  0.1230715E+00
          3   -1    0    0  501    0  0.00000000000E+00  0.00000000000E+00  0.98276789720E+02  0.98276789720E+02  0.00000000000E+00 0.  1.
         -3   -1    0    0    0  501 -0.00000000000E+00 -0.00000000000E+00 -0.23694861477E+03  0.23694861477E+03  0.00000000000E+00 0. -1.
         23    2    1    2    0    0  0.36065760641E+02  0.39869241475E+02 -0.17617930076E+03  0.22253133487E+03  0.12486293875E+03 0.  0.
          5    1    3    3  502    0  0.94000859127E+00  0.41139338660E+02  0.14045783820E+01  0.41441424228E+02  0.47000000000E+01 0. -1.
         -5    1    3    3    0  502  0.35125752050E+02 -0.12700971853E+01 -0.17758387914E+03  0.18108991064E+03  0.47000000000E+01 0. -1.
        -11    1    1    2    0    0 -0.31653712897E+01 -0.29291732261E+02 -0.26710396897E+02  0.39767706203E+02  0.00000000000E+00 0. -1.
         11    1    1    2    0    0 -0.32900389351E+02 -0.10577509214E+02  0.64217872603E+02  0.72926363425E+02  0.00000000000E+00 0.  1.
<mgrwt>
<rscale>  0 0.12782751E+03</rscale>
<asrwt>0</asrwt>
<pdfrwt beam="1">  1        3 0.15119506E-01 0.13594502E+03</pdfrwt>
<pdfrwt beam="2">  1       -3 0.36453633E-01 0.13594502E+03</pdfrwt>
<totfact> 0.62980323E+02</totfact>
</mgrwt>
</event>
<event>
 7    1  0.6095443E-006  0.1691521E+03  0.7546771E-02  0.1185424E+00
          2   -1    0    0  501    0  0.00000000000E+00  0.00000000000E+00  0.74572853102E+02  0.74572853102E+02  0.00000000000E+00 0. -1.
         -2   -1    0    0    0  501 -0.00000000000E+00 -0.00000000000E+00 -0.52035293465E+03  0.52035293465E+03  0.00000000000E+00 0.  1.
         23    2    1    2    0    0 -0.17429681657E+01 -0.11394325621E+03 -0.41209874279E+03  0.44546357163E+03  0.12500526499E+03 0.  0.
          5    1    3    3  502    0 -0.38142557579E+02  0.75729674667E+01 -0.13702093663E+03  0.14250975970E+03  0.47000000000E+01 0.  1.
         -5    1    3    3    0  502  0.36399589413E+02 -0.12151622368E+03 -0.27507780615E+03  0.30295381193E+03  0.47000000000E+01 0.  1.
        -11    1    1    2    0    0 -0.41740872755E+02  0.80568591166E+02 -0.18858533876E+02  0.92678167013E+02  0.00000000000E+00 0.  1.
         11    1    1    2    0    0  0.43483840921E+02  0.33374665043E+02 -0.14822804886E+02  0.56784049104E+02  0.00000000000E+00 0. -1.
<mgrwt>
<rscale>  0 0.16293393E+03</rscale>
<asrwt>0</asrwt>
<pdfrwt beam="1">  1        2 0.11472746E-01 0.16915206E+03</pdfrwt>
<pdfrwt beam="2">  1       -2 0.80054300E-01 0.16915206E+03</pdfrwt>
<totfact> 0.75898817E+02</totfact>
</mgrwt>
</event>
<event>
 7    1  0.6095443E-006  0.1790403E+03  0.7546771E-02  0.1174196E+00
         -1   -1    0    0    0  501 -0.00000000000E+00  0.00000000000E+00  0.25104858323E+03  0.25104858323E+03  0.00000000000E+00 0.  1.
          1   -1    0    0  501    0  0.00000000000E+00 -0.00000000000E+00 -0.17077465135E+03  0.17077465135E+03  0.00000000000E+00 0. -1.
         23    2    1    2    0    0  0.12761440561E+03 -0.12198082116E+02  0.16413201121E+03  0.24288832991E+03  0.12498477497E+03 0.  0.
          5    1    3    3  502    0  0.12972056901E+03  0.32673071672E+02  0.12113853822E+03  0.18053141300E+03  0.47000000000E+01 0. -1.
         -5    1    3    3    0  502 -0.21061634026E+01 -0.44871153788E+02  0.42993472991E+02  0.62356916909E+02  0.47000000000E+01 0. -1.
        -11    1    1    2    0    0 -0.11980450752E+03 -0.17173704059E+02 -0.85991900029E+02  0.14846771704E+03  0.00000000000E+00 0. -1.
         11    1    1    2    0    0 -0.78098980845E+01  0.29371786175E+02  0.21338206971E+01  0.30467187628E+02  0.00000000000E+00 0.  1.
<mgrwt>
<rscale>  0 0.17354980E+03</rscale>
<asrwt>0</asrwt>
<pdfrwt beam="2">  1        1 0.26273023E-01 0.17904029E+03</pdfrwt>
<pdfrwt beam="1">  1       -1 0.38622859E-01 0.17904029E+03</pdfrwt>
<totfact> 0.11712161E+03</totfact>
</mgrwt>
</event>
<event>
 6    1  0.6095443E-006  0.1671017E+03  0.7546771E-02  0.1188447E+00
         -1   -1    0    0    0  501 -0.00000000000E+00  0.00000000000E+00  0.43524518246E+02  0.43524518246E+02  0.00000000000E+00 0.  1.
          1   -1    0    0  501    0  0.00000000000E+00 -0.00000000000E+00 -0.56765286470E+03  0.56765286470E+03  0.00000000000E+00 0. -1.
          5    1    1    2  502    0 -0.12282426539E+02 -0.49666342259E+02 -0.24321436226E+03  0.24858181664E+03  0.47000000000E+01 0. -1.
         -5    1    1    2    0  502 -0.10786777080E+02  0.20772868354E+02  0.19378405633E+02  0.30748645894E+02  0.47000000000E+01 0.  1.
        -11    1    1    2    0    0 -0.37945816810E+02 -0.23057583788E+02 -0.19235916446E+03  0.19741728732E+03  0.00000000000E+00 0.  1.
         11    1    1    2    0    0  0.61015020428E+02  0.51951057693E+02 -0.10793322537E+03  0.13442963309E+03  0.00000000000E+00 0. -1.
<mgrwt>
<rscale>  0 0.16022118E+03</rscale>
<asrwt>0</asrwt>
<pdfrwt beam="2">  1        1 0.87331195E-01 0.16710168E+03</pdfrwt>
<pdfrwt beam="1">  1       -1 0.66960809E-02 0.16710168E+03</pdfrwt>
<totfact> 0.42019870E+03</totfact>
</mgrwt>
</event>
<event>
 7    1  0.6095443E-006  0.1743648E+03  0.7546771E-02  0.1179456E+00
          1   -1    0    0  501    0  0.00000000000E+00  0.00000000000E+00  0.24295059892E+03  0.24295059892E+03  0.00000000000E+00 0. -1.
         -1   -1    0    0    0  501 -0.00000000000E+00 -0.00000000000E+00 -0.11439166487E+03  0.11439166487E+03  0.00000000000E+00 0.  1.
         23    2    1    2    0    0 -0.12154406325E+03  0.20384958156E+01  0.31897868156E+02  0.17725843049E+03  0.12500384958E+03 0.  0.
          5    1    3    3  502    0 -0.29062597350E+02  0.44452893887E+02 -0.26829992866E+02  0.59687794874E+02  0.47000000000E+01 0. -1.
         -5    1    3    3    0  502 -0.92481465904E+02 -0.42414398072E+02  0.58727861021E+02  0.11757063562E+03  0.47000000000E+01 0. -1.
        -11    1    1    2    0    0  0.10399450356E+03 -0.38704612273E+01  0.11468357274E+03  0.15486174188E+03  0.00000000000E+00 0. -1.
         11    1    1    2    0    0  0.17549559694E+02  0.18319654117E+01 -0.18022506842E+02  0.25222091420E+02  0.00000000000E+00 0.  1.
<mgrwt>
<rscale>  0 0.16846691E+03</rscale>
<asrwt>0</asrwt>
<pdfrwt beam="1">  1        1 0.37377015E-01 0.17436478E+03</pdfrwt>
<pdfrwt beam="2">  1       -1 0.17598718E-01 0.17436478E+03</pdfrwt>
<totfact> 0.27883618E+03</totfact>
</mgrwt>
</event>
<event>
 7    1  0.6095443E-006  0.1689086E+03  0.7546771E-02  0.1185358E+00
          2   -1    0    0  501    0  0.00000000000E+00  0.00000000000E+00  0.16643183785E+02  0.16643183785E+02  0.00000000000E+00 0. -1.
         -2   -1    0    0    0  501 -0.00000000000E+00 -0.00000000000E+00 -0.17665581820E+04  0.17665581820E+04  0.00000000000E+00 0.  1.
         23    2    1    2    0    0  0.10356012561E+03  0.47334045991E+02 -0.12770847513E+04  0.12882063378E+04  0.12475934895E+03 0.  0.
          5    1    3    3  502    0  0.62886126835E+02  0.46947333029E+02 -0.11828529951E+04  0.11854627852E+04  0.47000000000E+01 0.  1.
         -5    1    3    3    0  502  0.40673998777E+02  0.38671296146E+00 -0.94231756215E+02  0.10274355261E+03  0.47000000000E+01 0.  1.
        -11    1    1    2    0    0 -0.49677615924E+02 -0.71763773156E+02 -0.28592978905E+03  0.29895442617E+03  0.00000000000E+00 0.  1.
         11    1    1    2    0    0 -0.53882509687E+02  0.24429727165E+02 -0.18690045786E+03  0.19604060183E+03  0.00000000000E+00 0. -1.
<mgrwt>
<rscale>  0 0.16299389E+03</rscale>
<asrwt>0</asrwt>
<pdfrwt beam="1">  1        2 0.25604916E-02 0.16890857E+03</pdfrwt>
<pdfrwt beam="2">  1       -2 0.27177799E+00 0.16890857E+03</pdfrwt>
<totfact> 0.20783721E+02</totfact>
</mgrwt>
</event>
<event>
 7    1  0.6095443E-006  0.1336889E+03  0.7546771E-02  0.1234784E+00
          2   -1    0    0  501    0  0.00000000000E+00  0.00000000000E+00  0.19356212020E+03  0.19356212020E+03  0.00000000000E+00 0. -1.
         -2   -1    0    0    0  501 -0.00000000000E+00 -0.00000000000E+00 -0.72632365893E+02  0.72632365893E+02  0.00000000000E+00 0.  1.
         23    2    1    2    0    0 -0.16118820752E+02 -0.44580922405E+02  0.58378660139E+02  0.14587940091E+03  0.12500182649E+03 0.  0.
          5    1    3    3  502    0  0.30147543406E+02  0.29161838118E+02  0.24030489742E+01  0.42274718452E+02  0.47000000000E+01 0. -1.
         -5    1    3    3    0  502 -0.46266364158E+02 -0.73742760523E+02  0.55975611165E+02  0.10360468246E+03  0.47000000000E+01 0. -1.
        -11    1    1    2    0    0 -0.34997149199E+01  0.44690176364E+02 -0.93446305291E+01  0.45790632095E+02  0.00000000000E+00 0.  1.
         11    1    1    2    0    0  0.19618535672E+02 -0.10925395843E+00  0.71895724695E+02  0.74524453086E+02  0.00000000000E+00 0. -1.
<mgrwt>
<rscale>  0 0.12518302E+03</rscale>
<asrwt>0</asrwt>
<pdfrwt beam="1">  1        2 0.29778788E-01 0.13368894E+03</pdfrwt>
<pdfrwt beam="2">  1       -2 0.11174210E-01 0.13368894E+03</pdfrwt>
<totfact> 0.92559378E+03</totfact>
</mgrwt>
</event>
<event>
 7    1  0.6095443E-006  0.1405628E+03  0.7546771E-02  0.1223422E+00
         -1   -1    0    0    0  501 -0.00000000000E+00  0.00000000000E+00  0.88895074755E+03  0.88895074755E+03  0.00000000000E+00 0.  1.
          1   -1    0    0  501    0  0.00000000000E+00 -0.00000000000E+00 -0.19607973506E+02  0.19607973506E+02  0.00000000000E+00 0. -1.
         23    2    1    2    0    0 -0.60972394627E+02  0.20360694244E+02  0.61248467226E+03  0.62840700334E+03  0.12500278925E+03 0.  0.
          5    1    3    3  502    0  0.14265153741E+02 -0.20271311517E+02  0.28031247767E+02  0.37712882855E+02  0.47000000000E+01 0.  1.
         -5    1    3    3    0  502 -0.75237548368E+02  0.40632005762E+02  0.58445342449E+03  0.59069412048E+03  0.47000000000E+01 0.  1.
        -11    1    1    2    0    0  0.84903263586E+02 -0.16870768670E+02  0.21559359418E+03  0.23232258791E+03  0.00000000000E+00 0.  1.
         11    1    1    2    0    0 -0.23930868960E+02 -0.34899255749E+01  0.41264507615E+02  0.47829129810E+02  0.00000000000E+00 0. -1.
<mgrwt>
<rscale>  0 0.13275628E+03</rscale>
<asrwt>0</asrwt>
<pdfrwt beam="2">  1        1 0.30166120E-02 0.14056276E+03</pdfrwt>
<pdfrwt beam="1">  1       -1 0.13676162E+00 0.14056276E+03</pdfrwt>
<totfact> 0.15827207E+03</totfact>
</mgrwt>
</event>
<event>
 7    1  0.6095443E-006  0.2276585E+03  0.7546771E-02  0.1131398E+00
          1   -1    0    0  501    0  0.00000000000E+00  0.00000000000E+00  0.27522511028E+03  0.27522511028E+03  0.00000000000E+00 0. -1.
         -1   -1    0    0    0  501 -0.00000000000E+00 -0.00000000000E+00 -0.18893250472E+03  0.18893250472E+03  0.00000000000E+00 0.  1.
         23    2    1    2    0    0 -0.27347775903E+02  0.18828279127E+03 -0.18857698522E+02  0.22843814538E+03  0.12502025090E+03 0.  0.
          5    1    3    3  502    0 -0.30621532486E+02  0.66848253278E+02  0.49696255143E+02  0.88871677116E+02  0.47000000000E+01 0.  1.
         -5    1    3    3    0  502  0.32737565838E+01  0.12143453799E+03 -0.68553953665E+02  0.13956646826E+03  0.47000000000E+01 0.  1.
        -11    1    1    2    0    0  0.37943036388E+01 -0.13048207185E+03  0.23000047029E+02  0.13254799123E+03  0.00000000000E+00 0.  1.
         11    1    1    2    0    0  0.23553472264E+02 -0.57800719419E+02  0.82150257048E+02  0.10317147839E+03  0.00000000000E+00 0. -1.
<mgrwt>
<rscale>  0 0.22336570E+03</rscale>
<asrwt>0</asrwt>
<pdfrwt beam="1">  1        1 0.42342325E-01 0.22765846E+03</pdfrwt>
<pdfrwt beam="2">  1       -1 0.29066539E-01 0.22765846E+03</pdfrwt>
<totfact> 0.10535991E+03</totfact>
</mgrwt>
</event>
<event>
 7    1  0.6095443E-006  0.1334864E+03  0.7546771E-02  0.1234888E+00
          2   -1    0    0  501    0  0.00000000000E+00  0.00000000000E+00  0.46832909485E+03  0.46832909485E+03  0.00000000000E+00 0.  1.
         -2   -1    0    0    0  501 -0.00000000000E+00 -0.00000000000E+00 -0.30640028264E+02  0.30640028264E+02  0.00000000000E+00 0. -1.
         23    2    1    2    0    0  0.46818440708E+02  0.11710307953E+01  0.20683589020E+03  0.24617004560E+03  0.12500107269E+03 0.  0.
          5    1    3    3  502    0 -0.26281820609E+01  0.10065810935E+02 -0.14897039709E+02  0.18768049521E+02  0.47000000000E+01 0.  1.
         -5    1    3    3    0  502  0.49446622769E+02 -0.88947801397E+01  0.22173292991E+03  0.22740199608E+03  0.47000000000E+01 0.  1.
        -11    1    1    2    0    0 -0.46699432730E+02 -0.35885537063E+02  0.19135743389E+03  0.20021557455E+03  0.00000000000E+00 0.  1.
         11    1    1    2    0    0 -0.11900797840E+00  0.34714506267E+02  0.39495742505E+02  0.52583502967E+02  0.00000000000E+00 0. -1.
<mgrwt>
<rscale>  0 0.12511618E+03</rscale>
<asrwt>0</asrwt>
<pdfrwt beam="1">  1        2 0.72050625E-01 0.13348635E+03</pdfrwt>
<pdfrwt beam="2">  1       -2 0.47138508E-02 0.13348635E+03</pdfrwt>
<totfact> 0.13566625E+04</totfact>
</mgrwt>
</event>
<event>
 7    1  0.6095443E-006  0.2625926E+03  0.7546771E-02  0.1107931E+00
         -1   -1    0    0    0  501 -0.00000000000E+00  0.00000000000E+00  0.14725698469E+04  0.14725698469E+04  0.00000000000E+00 0.  1.
          1   -1    0    0  501    0  0.00000000000E+00 -0.00000000000E+00 -0.46065979528E+02  0.46065979528E+02  0.00000000000E+00 0. -1.
         23    2    1    2    0    0 -0.57731129587E+02  0.22359970039E+03  0.88864109160E+03  0.92662713699E+03  0.12500060797E+03 0.  0.
          5    1    3    3  502    0  0.33639804405E+02  0.93119688097E+02  0.42347076811E+03  0.43491665201E+03  0.47000000000E+01 0.  1.
         -5    1    3    3    0  502 -0.91370933993E+02  0.13048001229E+03  0.46517032348E+03  0.49171048497E+03  0.47000000000E+01 0.  1.
        -11    1    1    2    0    0  0.55152756997E+02 -0.58962823044E+02  0.21328014805E+03  0.22805013190E+03  0.00000000000E+00 0.  1.
         11    1    1    2    0    0  0.25783725905E+01 -0.16463687734E+03  0.32458262772E+03  0.36395855753E+03  0.00000000000E+00 0. -1.
<mgrwt>
<rscale>  0 0.25869389E+03</rscale>
<asrwt>0</asrwt>
<pdfrwt beam="2">  1        1 0.70870749E-02 0.26259258E+03</pdfrwt>
<pdfrwt beam="1">  1       -1 0.22654917E+00 0.26259258E+03</pdfrwt>
<totfact> 0.11506787E+02</totfact>
</mgrwt>
</event>
<event>
 7    1  0.6095443E-006  0.1268203E+03  0.7546771E-02  0.1248160E+00
          1   -1    0    0  501    0  0.00000000000E+00  0.00000000000E+00  0.80509138894E+02  0.80509138894E+02  0.00000000000E+00 0. -1.
         -1   -1    0    0    0  501 -0.00000000000E+00 -0.00000000000E+00 -0.14885267570E+03  0.14885267570E+03  0.00000000000E+00 0.  1.
         23    2    1    2    0    0  0.77176115854E+01  0.19981495413E+02 -0.45631650017E+02  0.13477991309E+03  0.12499822319E+03 0.  0.
          5    1    3    3  502    0  0.35818294434E+02 -0.31776605488E+02  0.14729258318E+02  0.50316437902E+02  0.47000000000E+01 0.  1.
         -5    1    3    3    0  502 -0.28100682849E+02  0.51758100901E+02 -0.60360908335E+02  0.84463475186E+02  0.47000000000E+01 0.  1.
        -11    1    1    2    0    0  0.22179774440E+02  0.26585319603E+02  0.36557682640E+00  0.34624489296E+02  0.00000000000E+00 0. -1.
         11    1    1    2    0    0 -0.29897386025E+02 -0.46566815016E+02 -0.23077463614E+02  0.59957412208E+02  0.00000000000E+00 0.  1.
<mgrwt>
<rscale>  0 0.11698207E+03</rscale>
<asrwt>0</asrwt>
<pdfrwt beam="1">  1        1 0.12386021E-01 0.12682026E+03</pdfrwt>
<pdfrwt beam="2">  1       -1 0.22900411E-01 0.12682026E+03</pdfrwt>
<totfact> 0.72965615E+03</totfact>
</mgrwt>
</event>
<event>
 7    1  0.6095443E-006  0.1594425E+03  0.7546771E-02  0.1196032E+00
         -2   -1    0    0    0  501 -0.00000000000E+00  0.00000000000E+00  0.20001093749E+02  0.20001093749E+02  0.00000000000E+00 0.  1.
          2   -1    0    0  501    0  0.00000000000E+00 -0.00000000000E+00 -0.11234188799E+04  0.11234188799E+04  0.00000000000E+00 0. -1.
         23    2    1    2    0    0  0.62436455408E+02  0.76811808023E+02 -0.51423221140E+03  0.53838338021E+03  0.12499412799E+03 0.  0.
          5    1    3    3  502    0  0.95985970874E+02  0.73619767396E+02 -0.34126463628E+03  0.36210056439E+03  0.47000000000E+01 0.  1.
         -5    1    3    3    0  502 -0.33549515467E+02  0.31920406264E+01 -0.17296757511E+03  0.17628281582E+03  0.47000000000E+01 0.  1.
        -11    1    1    2    0    0 -0.83895185754E+02 -0.77727343117E+02 -0.52634168635E+03  0.53862372103E+03  0.00000000000E+00 0. -1.
         11    1    1    2    0    0  0.21458730347E+02  0.91553509484E+00 -0.62843888387E+02  0.66412872399E+02  0.00000000000E+00 0.  1.
<mgrwt>
<rscale>  0 0.15367236E+03</rscale>
<asrwt>0</asrwt>
<pdfrwt beam="2">  1        2 0.17283366E+00 0.15944246E+03</pdfrwt>
<pdfrwt beam="1">  1       -2 0.30770915E-02 0.15944246E+03</pdfrwt>
<totfact> 0.88147202E+03</totfact>
</mgrwt>
</event>
<event>
 7    1  0.6095443E-006  0.1785381E+03  0.7546771E-02  0.1174400E+00
         -3   -1    0    0    0  501 -0.00000000000E+00  0.00000000000E+00  0.32540270585E+02  0.32540270585E+02  0.00000000000E+00 0.  1.
          3   -1    0    0  501    0  0.00000000000E+00 -0.00000000000E+00 -0.88612848341E+03  0.88612848341E+03  0.00000000000E+00 0. -1.
         23    2    1    2    0    0 -0.11747888640E+03 -0.49484844086E+02 -0.39704709708E+03  0.43534152414E+03  0.12500322714E+03 0.  0.
          5    1    3    3  502    0  0.13462403703E+02  0.17143044342E+02 -0.11653578107E+03  0.11864989909E+03  0.47000000000E+01 0.  1.
         -5    1    3    3    0  502 -0.13094129011E+03 -0.66627888428E+02 -0.28051131601E+03  0.31669162506E+03  0.47000000000E+01 0.  1.
        -11    1    1    2    0    0  0.16019890925E+02  0.41126016601E+01 -0.35699168701E+01  0.16920245392E+02  0.00000000000E+00 0.  1.
         11    1    1    2    0    0  0.10145899548E+03  0.45372242426E+02 -0.45297119887E+03  0.46640698446E+03  0.00000000000E+00 0. -1.
<mgrwt>
<rscale>  0 0.17334856E+03</rscale>
<asrwt>0</asrwt>
<pdfrwt beam="2">  1        3 0.13632746E+00 0.17853808E+03</pdfrwt>
<pdfrwt beam="1">  1       -3 0.50061954E-02 0.17853808E+03</pdfrwt>
<totfact> 0.23940014E+02</totfact>
</mgrwt>
</event>
<event>
 7    1  0.6095443E-006  0.1793173E+03  0.7546771E-02  0.1174152E+00
         -3   -1    0    0    0  501 -0.00000000000E+00  0.00000000000E+00  0.15486279920E+03  0.15486279920E+03  0.00000000000E+00 0.  1.
          3   -1    0    0  501    0  0.00000000000E+00 -0.00000000000E+00 -0.18459995337E+03  0.18459995337E+03  0.00000000000E+00 0. -1.
         23    2    1    2    0    0  0.12855788279E+03 -0.15702572586E+01 -0.30931167708E+02  0.18196546275E+03  0.12500039024E+03 0.  0.
          5    1    3    3  502    0  0.53461509266E+02 -0.97208354265E+01 -0.76251921005E+02  0.93750056380E+02  0.47000000000E+01 0.  1.
         -5    1    3    3    0  502  0.75096373524E+02  0.81505781679E+01  0.45320753296E+02  0.88215406366E+02  0.47000000000E+01 0.  1.
        -11    1    1    2    0    0 -0.54563556566E+02 -0.42686232647E+02 -0.11892558054E+02  0.70290320100E+02  0.00000000000E+00 0.  1.
         11    1    1    2    0    0 -0.73994326224E+02  0.44256489906E+02  0.13086571586E+02  0.87206969722E+02  0.00000000000E+00 0. -1.
<mgrwt>
<rscale>  0 0.17359283E+03</rscale>
<asrwt>0</asrwt>
<pdfrwt beam="2">  1        3 0.28399993E-01 0.17931730E+03</pdfrwt>
<pdfrwt beam="1">  1       -3 0.23825046E-01 0.17931730E+03</pdfrwt>
<totfact> 0.46951492E+02</totfact>
</mgrwt>
</event>
<event>
 7    1  0.6095443E-006  0.1295348E+03  0.7546771E-02  0.1243735E+00
         -1   -1    0    0    0  501 -0.00000000000E+00  0.00000000000E+00  0.14371640493E+03  0.14371640493E+03  0.00000000000E+00 0.  1.
          1   -1    0    0  501    0  0.00000000000E+00 -0.00000000000E+00 -0.11724616073E+03  0.11724616073E+03  0.00000000000E+00 0. -1.
         23    2    1    2    0    0 -0.23107473148E+02 -0.24891741822E+02  0.80375729738E+02  0.15244517482E+03  0.12500287704E+03 0.  0.
          5    1    3    3  502    0  0.94578820262E+01  0.16865853585E+02  0.95197251378E+02  0.97254898177E+02  0.47000000000E+01 0. -1.
         -5    1    3    3    0  502 -0.32565355174E+02 -0.41757595407E+02 -0.14821521639E+02  0.55190276639E+02  0.47000000000E+01 0. -1.
        -11    1    1    2    0    0 -0.31035227958E+02  0.23131006654E+02 -0.13714307658E+02  0.41064718163E+02  0.00000000000E+00 0.  1.
         11    1    1    2    0    0  0.54142701106E+02  0.17607351680E+01 -0.40191177886E+02  0.67452672677E+02  0.00000000000E+00 0. -1.
<mgrwt>
<rscale>  0 0.11961393E+03</rscale>
<asrwt>0</asrwt>
<pdfrwt beam="2">  1        1 0.18037871E-01 0.12953483E+03</pdfrwt>
<pdfrwt beam="1">  1       -1 0.22110216E-01 0.12953483E+03</pdfrwt>
<totfact> 0.47589203E+03</totfact>
</mgrwt>
</event>
<event>
 7    1  0.6095443E-006  0.1292462E+03  0.7546771E-02  0.1242558E+00
         -1   -1    0    0    0  501 -0.00000000000E+00  0.00000000000E+00  0.12225336186E+03  0.12225336186E+03  0.00000000000E+00 0.  1.
          1   -1    0    0  501    0  0.00000000000E+00 -0.00000000000E+00 -0.10953415486E+03  0.10953415486E+03  0.00000000000E+00 0. -1.
         23    2    1    2    0    0  0.25772970459E+02  0.20677012505E+02  0.31171794494E+02  0.13295209456E+03  0.12495116576E+03 0.  0.
          5    1    3    3  502    0  0.59453987665E+02  0.34169779957E+02 -0.18574961445E+02  0.71200208597E+02  0.47000000000E+01 0.  1.
         -5    1    3    3    0  502 -0.33681017206E+02 -0.13492767452E+02  0.49746755939E+02  0.61751885964E+02  0.47000000000E+01 0.  1.
        -11    1    1    2    0    0  0.16463064151E+02 -0.33760443976E+02 -0.35274473514E+02  0.51527551275E+02  0.00000000000E+00 0. -1.
         11    1    1    2    0    0 -0.42236034610E+02  0.13083431471E+02  0.16821886011E+02  0.47307870884E+02  0.00000000000E+00 0.  1.
<mgrwt>
<rscale>  0 0.12032765E+03</rscale>
<asrwt>0</asrwt>
<pdfrwt beam="2">  1        1 0.16851409E-01 0.12924619E+03</pdfrwt>
<pdfrwt beam="1">  1       -1 0.18808209E-01 0.12924619E+03</pdfrwt>
<totfact> 0.67320267E+03</totfact>
</mgrwt>
</event>
<event>
 7    1  0.6095443E-006  0.1388882E+03  0.7546771E-02  0.1224456E+00
         -3   -1    0    0    0  501 -0.00000000000E+00  0.00000000000E+00  0.67676255598E+02  0.67676255598E+02  0.00000000000E+00 0.  1.
          3   -1    0    0  501    0  0.00000000000E+00 -0.00000000000E+00 -0.23566579833E+03  0.23566579833E+03  0.00000000000E+00 0. -1.
         23    2    1    2    0    0 -0.57300519200E+02 -0.19539571334E+02 -0.86059361456E+02  0.16338957805E+03  0.12499918468E+03 0.  0.
          5    1    3    3  502    0 -0.44514215159E+02 -0.43490089454E+02  0.10223501257E+02  0.63241704673E+02  0.47000000000E+01 0. -1.
         -5    1    3    3    0  502 -0.12786304040E+02  0.23950518120E+02 -0.96282862713E+02  0.10014787337E+03  0.47000000000E+01 0. -1.
        -11    1    1    2    0    0  0.59260879959E+01 -0.18905876244E+02  0.14198529390E+02  0.24375169996E+02  0.00000000000E+00 0.  1.
         11    1    1    2    0    0  0.51374431204E+02  0.38445447577E+02 -0.96128710663E+02  0.11557730588E+03  0.00000000000E+00 0. -1.
<mgrwt>
<rscale>  0 0.13204254E+03</rscale>
<asrwt>0</asrwt>
<pdfrwt beam="2">  1        3 0.36256276E-01 0.13888823E+03</pdfrwt>
<pdfrwt beam="1">  1       -3 0.10411732E-01 0.13888823E+03</pdfrwt>
<totfact> 0.11968117E+03</totfact>
</mgrwt>
</event>
<event>
 7    1  0.6095443E-006  0.1500200E+03  0.7546771E-02  0.1210023E+00
          3   -1    0    0  501    0  0.00000000000E+00  0.00000000000E+00  0.12093682576E+02  0.12093682576E+02  0.00000000000E+00 0. -1.
         -3   -1    0    0    0  501 -0.00000000000E+00 -0.00000000000E+00 -0.18830633556E+04  0.18830633556E+04  0.00000000000E+00 0.  1.
         23    2    1    2    0    0  0.12513111335E+02  0.82001937639E+02 -0.14218316915E+04  0.14297242234E+04  0.12500040074E+03 0.  0.
          5    1    3    3  502    0 -0.36404282758E+02 -0.67225773356E+01 -0.18410652611E+03  0.18785038676E+03  0.47000000000E+01 0. -1.
         -5    1    3    3    0  502  0.48917394092E+02  0.88724514975E+02 -0.12377251654E+04  0.12418738366E+04  0.47000000000E+01 0. -1.
        -11    1    1    2    0    0 -0.37228948297E+02 -0.84570696515E+02 -0.39788671443E+03  0.40847525607E+03  0.00000000000E+00 0.  1.
         11    1    1    2    0    0  0.24715836962E+02  0.25687588754E+01 -0.51251267059E+02  0.56957558709E+02  0.00000000000E+00 0. -1.
<mgrwt>
<rscale>  0 0.14248536E+03</rscale>
<asrwt>0</asrwt>
<pdfrwt beam="1">  1        3 0.18605671E-02 0.15001999E+03</pdfrwt>
<pdfrwt beam="2">  1       -3 0.28970197E+00 0.15001999E+03</pdfrwt>
<totfact> 0.12860530E+02</totfact>
</mgrwt>
</event>
<event>
 7    1  0.6095443E-006  0.2677253E+03  0.7546771E-02  0.1104723E+00
         -1   -1    0    0    0  501 -0.00000000000E+00  0.00000000000E+00  0.24291173480E+03  0.24291173480E+03  0.00000000000E+00 0. -1.
          1   -1    0    0  501    0  0.00000000000E+00 -0.00000000000E+00 -0.29301872736E+03  0.29301872736E+03  0.00000000000E+00 0.  1.
         23    2    1    2    0    0 -0.16496960772E+03  0.16979464648E+03  0.31848464523E+02  0.26961294976E+03  0.12502649535E+03 0.  0.
          5    1    3    3  502    0 -0.33556702103E+02  0.96336204025E+01 -0.37154406594E+02  0.51199597922E+02  0.47000000000E+01 0.  1.
         -5    1    3    3    0  502 -0.13141290562E+03  0.16016102608E+03  0.69002871117E+02  0.21841335184E+03  0.47000000000E+01 0.  1.
        -11    1    1    2    0    0  0.13568973806E+03 -0.80798952525E+02 -0.66535581272E+02  0.17136848987E+03  0.00000000000E+00 0.  1.
         11    1    1    2    0    0  0.29279869663E+02 -0.88995693959E+02 -0.15419875813E+02  0.94949022538E+02  0.00000000000E+00 0. -1.
<mgrwt>
<rscale>  0 0.26406810E+03</rscale>
<asrwt>0</asrwt>
<pdfrwt beam="2">  1        1 0.45079804E-01 0.26772527E+03</pdfrwt>
<pdfrwt beam="1">  1       -1 0.37371036E-01 0.26772527E+03</pdfrwt>
<totfact> 0.63136683E+02</totfact>
</mgrwt>
</event>
<event>
 7    1  0.6095443E-006  0.1270039E+03  0.7546771E-02  0.1253762E+00
          1   -1    0    0  501    0  0.00000000000E+00  0.00000000000E+00  0.15977408669E+03  0.15977408669E+03  0.00000000000E+00 0. -1.
         -1   -1    0    0    0  501 -0.00000000000E+00 -0.00000000000E+00 -0.12024558948E+03  0.12024558948E+03  0.00000000000E+00 0.  1.
         23    2    1    2    0    0  0.93155103104E+01 -0.20446374483E+02 -0.68692710685E+02  0.14439070461E+03  0.12500061646E+03 0.  0.
          5    1    3    3  502    0  0.55483805231E+02  0.24622881743E+02 -0.22530703725E+02  0.64918884453E+02  0.47000000000E+01 0. -1.
         -5    1    3    3    0  502 -0.46168294921E+02 -0.45069256226E+02 -0.46162006960E+02  0.79471820158E+02  0.47000000000E+01 0. -1.
        -11    1    1    2    0    0 -0.10619999897E+01  0.48216100986E+02  0.87836393087E+02  0.10020554969E+03  0.00000000000E+00 0. -1.
         11    1    1    2    0    0 -0.82535103207E+01 -0.27769726503E+02  0.20384814809E+02  0.35423421877E+02  0.00000000000E+00 0.  1.
<mgrwt>
<rscale>  0 0.11375941E+03</rscale>
<asrwt>0</asrwt>
<pdfrwt beam="1">  1        1 0.24580628E-01 0.12700389E+03</pdfrwt>
<pdfrwt beam="2">  1       -1 0.18499322E-01 0.12700389E+03</pdfrwt>
<totfact> 0.42777286E+03</totfact>
</mgrwt>
</event>
<event>
 7    1  0.6095443E-006  0.1796443E+03  0.7546771E-02  0.1173693E+00
         -1   -1    0    0    0  501 -0.00000000000E+00  0.00000000000E+00  0.37854748161E+03  0.37854748161E+03  0.00000000000E+00 0.  1.
          1   -1    0    0  501    0  0.00000000000E+00 -0.00000000000E+00 -0.86228497877E+02  0.86228497877E+02  0.00000000000E+00 0. -1.
         23    2    1    2    0    0  0.12897005938E+03  0.32207932296E+01  0.23639812938E+03  0.29691099437E+03  0.12501365238E+03 0.  0.
          5    1    3    3  502    0  0.16969407727E+02  0.26516870671E+02 -0.25660300120E+01  0.31933990337E+02  0.47000000000E+01 0.  1.
         -5    1    3    3    0  502  0.11200065165E+03 -0.23296077442E+02  0.23896415939E+03  0.26497700404E+03  0.47000000000E+01 0.  1.
        -11    1    1    2    0    0 -0.20755892561E+02 -0.12141277892E+02 -0.23278887914E+02  0.33468258505E+02  0.00000000000E+00 0. -1.
         11    1    1    2    0    0 -0.10821416682E+03  0.89204846624E+01  0.79199742267E+02  0.13439672661E+03  0.00000000000E+00 0.  1.
<mgrwt>
<rscale>  0 0.17404609E+03</rscale>
<asrwt>0</asrwt>
<pdfrwt beam="2">  1        1 0.13265923E-01 0.17964427E+03</pdfrwt>
<pdfrwt beam="1">  1       -1 0.58238073E-01 0.17964427E+03</pdfrwt>
<totfact> 0.13359502E+03</totfact>
</mgrwt>
</event>
<event>
 7    1  0.6095443E-006  0.1321612E+03  0.7546771E-02  0.1236355E+00
         -1   -1    0    0    0  501 -0.00000000000E+00  0.00000000000E+00  0.11486901912E+03  0.11486901912E+03  0.00000000000E+00 0. -1.
          1   -1    0    0  501    0  0.00000000000E+00 -0.00000000000E+00 -0.12253617581E+03  0.12253617581E+03  0.00000000000E+00 0.  1.
         23    2    1    2    0    0  0.34594733107E+00  0.42917756233E+02 -0.19955765272E+02  0.13365935530E+03  0.12499814884E+03 0.  0.
          5    1    3    3  502    0  0.21135063875E+01  0.25985225025E+02  0.52648573255E+02  0.58937773071E+02  0.47000000000E+01 0.  1.
         -5    1    3    3    0  502 -0.17675590564E+01  0.16932531209E+02 -0.72604338527E+02  0.74721582230E+02  0.47000000000E+01 0.  1.
        -11    1    1    2    0    0  0.54353769756E-01 -0.54027634458E+02  0.44294558764E+02  0.69864126529E+02  0.00000000000E+00 0. -1.
         11    1    1    2    0    0 -0.40030110083E+00  0.11109878225E+02 -0.32005950187E+02  0.33881713099E+02  0.00000000000E+00 0.  1.
<mgrwt>
<rscale>  0 0.12418058E+03</rscale>
<asrwt>0</asrwt>
<pdfrwt beam="2">  1        1 0.18851719E-01 0.13216123E+03</pdfrwt>
<pdfrwt beam="1">  1       -1 0.17672157E-01 0.13216123E+03</pdfrwt>
<totfact> 0.64501765E+03</totfact>
</mgrwt>
</event>
<event>
 7    1  0.6095443E-006  0.1407302E+03  0.7546771E-02  0.1222567E+00
          2   -1    0    0  501    0  0.00000000000E+00  0.00000000000E+00  0.10630596318E+04  0.10630596318E+04  0.00000000000E+00 0. -1.
         -2   -1    0    0    0  501 -0.00000000000E+00 -0.00000000000E+00 -0.15197236280E+02  0.15197236280E+02  0.00000000000E+00 0.  1.
         23    2    1    2    0    0  0.38698650680E+00 -0.64660824872E+02  0.57251640055E+03  0.58955916349E+03  0.12499522522E+03 0.  0.
          5    1    3    3  502    0 -0.49077081244E+02 -0.68611120103E+02  0.43869677601E+03  0.44675832056E+03  0.47000000000E+01 0. -1.
         -5    1    3    3    0  502  0.49464067751E+02  0.39502952305E+01  0.13381962453E+03  0.14280084293E+03  0.47000000000E+01 0. -1.
        -11    1    1    2    0    0  0.44328149400E+02  0.36530544296E+02  0.30450671290E+03  0.30987707836E+03  0.00000000000E+00 0. -1.
         11    1    1    2    0    0 -0.44715135907E+02  0.28130280576E+02  0.17083928208E+03  0.17882062623E+03  0.00000000000E+00 0.  1.
<mgrwt>
<rscale>  0 0.13335048E+03</rscale>
<asrwt>0</asrwt>
<pdfrwt beam="1">  1        2 0.16354758E+00 0.14073016E+03</pdfrwt>
<pdfrwt beam="2">  1       -2 0.23380372E-02 0.14073016E+03</pdfrwt>
<totfact> 0.14197665E+04</totfact>
</mgrwt>
</event>
<event>
 7    1  0.6095443E-006  0.1397257E+03  0.7546771E-02  0.1225504E+00
         -3   -1    0    0    0  501 -0.00000000000E+00  0.00000000000E+00  0.30441898090E+03  0.30441898090E+03  0.00000000000E+00 0.  1.
          3   -1    0    0  501    0  0.00000000000E+00 -0.00000000000E+00 -0.55101170295E+02  0.55101170295E+02  0.00000000000E+00 0. -1.
         23    2    1    2    0    0 -0.62325004077E+02 -0.30011669373E+01  0.18861193706E+03  0.23472906916E+03  0.12501943838E+03 0.  0.
          5    1    3    3  502    0 -0.79594278497E+02  0.42507698438E+02  0.13135537093E+03  0.15943173168E+03  0.47000000000E+01 0. -1.
         -5    1    3    3    0  502  0.17269274420E+02 -0.45508865376E+02  0.57256566129E+02  0.75297337481E+02  0.47000000000E+01 0. -1.
        -11    1    1    2    0    0 -0.72926871897E+00  0.30497730425E+02 -0.34839716589E+01  0.30704746416E+02  0.00000000000E+00 0.  1.
         11    1    1    2    0    0  0.63054272796E+02 -0.27496563488E+02  0.64189845201E+02  0.94086335610E+02  0.00000000000E+00 0. -1.
<mgrwt>
<rscale>  0 0.13132399E+03</rscale>
<asrwt>0</asrwt>
<pdfrwt beam="2">  1        3 0.84771033E-02 0.13972571E+03</pdfrwt>
<pdfrwt beam="1">  1       -3 0.46833688E-01 0.13972571E+03</pdfrwt>
<totfact> 0.10232147E+03</totfact>
</mgrwt>
</event>
<event>
 6    1  0.6095443E-006  0.1404477E+03  0.7546771E-02  0.1231162E+00
          3   -1    0    0  501    0  0.00000000000E+00  0.00000000000E+00  0.25917671160E+03  0.25917671160E+03  0.00000000000E+00 0. -1.
         -3   -1    0    0    0  501 -0.00000000000E+00 -0.00000000000E+00 -0.70299464680E+02  0.70299464680E+02  0.00000000000E+00 0.  1.
          5    1    1    2  502    0 -0.47560975794E+02  0.43299212373E+02  0.20245356687E+02  0.67593140761E+02  0.47000000000E+01 0. -1.
         -5    1    1    2    0  502  0.73071564881E+02 -0.17697305306E+02  0.89942184874E+01  0.75865895997E+02  0.47000000000E+01 0.  1.
        -11    1    1    2    0    0  0.12361930564E+02 -0.49225386520E+02  0.89154095661E+02  0.10258854117E+03  0.00000000000E+00 0.  1.
         11    1    1    2    0    0 -0.37872519651E+02  0.23623479453E+02  0.70483576087E+02  0.83428598360E+02  0.00000000000E+00 0. -1.
<mgrwt>
<rscale>  0 0.12753355E+03</rscale>
<asrwt>0</asrwt>
<pdfrwt beam="1">  1        3 0.39873340E-01 0.14044765E+03</pdfrwt>
<pdfrwt beam="2">  1       -3 0.10815302E-01 0.14044765E+03</pdfrwt>
<totfact> 0.93836557E+02</totfact>
</mgrwt>
</event>
<event>
 7    1  0.6095443E-006  0.4815269E+03  0.7546771E-02  0.1019223E+00
          2   -1    0    0  501    0  0.00000000000E+00  0.00000000000E+00  0.15121136165E+04  0.15121136165E+04  0.00000000000E+00 0. -1.
         -2   -1    0    0    0  501 -0.00000000000E+00 -0.00000000000E+00 -0.15844709052E+03  0.15844709052E+03  0.00000000000E+00 0.  1.
         23    2    1    2    0    0 -0.46158996844E+03 -0.56376553690E+02  0.50084292276E+03  0.69477466566E+03  0.12499835193E+03 0.  0.
          5    1    3    3  502    0 -0.15761235975E+03  0.10337155663E+02  0.98927216227E+02  0.18643282126E+03  0.47000000000E+01 0. -1.
         -5    1    3    3    0  502 -0.30397760869E+03 -0.66713709353E+02  0.40191570654E+03  0.50834184439E+03  0.47000000000E+01 0. -1.
        -11    1    1    2    0    0  0.40939787709E+03  0.54800768740E+02  0.68368496280E+03  0.79877085224E+03  0.00000000000E+00 0.  1.
         11    1    1    2    0    0  0.52192091348E+02  0.15757849506E+01  0.16913864038E+03  0.17701518908E+03  0.00000000000E+00 0. -1.
<mgrwt>
<rscale>  0 0.47968058E+03</rscale>
<asrwt>0</asrwt>
<pdfrwt beam="1">  1        2 0.23263285E+00 0.48152695E+03</pdfrwt>
<pdfrwt beam="2">  1       -2 0.24376477E-01 0.48152695E+03</pdfrwt>
<totfact> 0.19520345E+02</totfact>
</mgrwt>
</event>
<event>
 7    1  0.6095443E-006  0.1395272E+03  0.7546771E-02  0.1225099E+00
         -2   -1    0    0    0  501 -0.00000000000E+00  0.00000000000E+00  0.11374181474E+03  0.11374181474E+03  0.00000000000E+00 0.  1.
          2   -1    0    0  501    0  0.00000000000E+00 -0.00000000000E+00 -0.15254919889E+03  0.15254919889E+03  0.00000000000E+00 0. -1.
         23    2    1    2    0    0 -0.57792434605E+02 -0.22433529993E+02  0.20375666489E+02  0.14100712032E+03  0.12499844571E+03 0.  0.
          5    1    3    3  502    0 -0.91401186265E+02 -0.52398348028E+01 -0.10149065402E+02  0.92231915560E+02  0.47000000000E+01 0.  1.
         -5    1    3    3    0  502  0.33608751660E+02 -0.17193695190E+02  0.30524731892E+02  0.48775204761E+02  0.47000000000E+01 0.  1.
        -11    1    1    2    0    0  0.74399108900E+02  0.41443833844E+02 -0.44695398491E+02  0.96179506212E+02  0.00000000000E+00 0.  1.
         11    1    1    2    0    0 -0.16606674295E+02 -0.19010303851E+02 -0.14487652146E+02  0.29104387098E+02  0.00000000000E+00 0. -1.
<mgrwt>
<rscale>  0 0.13160120E+03</rscale>
<asrwt>0</asrwt>
<pdfrwt beam="2">  1        2 0.23469107E-01 0.13952720E+03</pdfrwt>
<pdfrwt beam="1">  1       -2 0.17498741E-01 0.13952720E+03</pdfrwt>
<totfact> 0.58216115E+03</totfact>
</mgrwt>
</event>
<event>
 7    1  0.6095443E-006  0.1465099E+03  0.7546771E-02  0.1215269E+00
         -1   -1    0    0    0  501 -0.00000000000E+00  0.00000000000E+00  0.26546118557E+03  0.26546118557E+03  0.00000000000E+00 0.  1.
          1   -1    0    0  501    0  0.00000000000E+00 -0.00000000000E+00 -0.72096302514E+02  0.72096302514E+02  0.00000000000E+00 0. -1.
         23    2    1    2    0    0 -0.40079409829E+02 -0.65047327022E+02  0.15716248376E+03  0.21486089402E+03  0.12501057407E+03 0.  0.
          5    1    3    3  502    0 -0.48929217504E+02 -0.51842995047E+02  0.16626190603E+02  0.73350423823E+02  0.47000000000E+01 0. -1.
         -5    1    3    3    0  502  0.88498076753E+01 -0.13204331975E+02  0.14053629316E+03  0.14151047019E+03  0.47000000000E+01 0. -1.
        -11    1    1    2    0    0  0.32064558065E+02 -0.61562956640E+01 -0.13669251437E+02  0.35396105648E+02  0.00000000000E+00 0. -1.
         11    1    1    2    0    0  0.80148517638E+01  0.71203622686E+02  0.49871650732E+02  0.87300488424E+02  0.00000000000E+00 0.  1.
<mgrwt>
<rscale>  0 0.13856827E+03</rscale>
<asrwt>0</asrwt>
<pdfrwt beam="2">  1        1 0.11091739E-01 0.14650992E+03</pdfrwt>
<pdfrwt beam="1">  1       -1 0.40840182E-01 0.14650992E+03</pdfrwt>
<totfact> 0.32082250E+03</totfact>
</mgrwt>
</event>
<event>
 7    1  0.6095443E-006  0.2155093E+03  0.7546771E-02  0.1141096E+00
          2   -1    0    0  501    0  0.00000000000E+00  0.00000000000E+00  0.14950310605E+03  0.14950310605E+03  0.00000000000E+00 0. -1.
         -2   -1    0    0    0  501 -0.00000000000E+00 -0.00000000000E+00 -0.30838487012E+03  0.30838487012E+03  0.00000000000E+00 0.  1.
         23    2    1    2    0    0 -0.86684543154E+02  0.15266053313E+03 -0.14728586837E+03  0.26103138287E+03  0.12499922969E+03 0.  0.
          5    1    3    3  502    0 -0.82973850714E+02  0.57420723057E+02 -0.12903875177E+03  0.16387461303E+03  0.47000000000E+01 0.  1.
         -5    1    3    3    0  502 -0.37106924404E+01  0.95239810073E+02 -0.18247116603E+02  0.97156769838E+02  0.47000000000E+01 0.  1.
        -11    1    1    2    0    0  0.20509782046E+02 -0.97297929609E+02 -0.38272620737E+02  0.10654732171E+03  0.00000000000E+00 0.  1.
         11    1    1    2    0    0  0.66174761108E+02 -0.55362603521E+02  0.26676725039E+02  0.90309271590E+02  0.00000000000E+00 0. -1.
<mgrwt>
<rscale>  0 0.21059512E+03</rscale>
<asrwt>0</asrwt>
<pdfrwt beam="1">  1        2 0.23000478E-01 0.21550929E+03</pdfrwt>
<pdfrwt beam="2">  1       -2 0.47443826E-01 0.21550929E+03</pdfrwt>
<totfact> 0.10044263E+03</totfact>
</mgrwt>
</event>
<event>
 7    1  0.6095443E-006  0.1579285E+03  0.7546771E-02  0.1201546E+00
          2   -1    0    0  501    0  0.00000000000E+00  0.00000000000E+00  0.62102697257E+03  0.62102697257E+03  0.00000000000E+00 0.  1.
         -2   -1    0    0    0  501 -0.00000000000E+00 -0.00000000000E+00 -0.32600069231E+02  0.32600069231E+02  0.00000000000E+00 0. -1.
         23    2    1    2    0    0 -0.64843296599E+02 -0.71503815428E+02  0.29933022277E+03  0.33843757506E+03  0.12499584480E+03 0.  0.
          5    1    3    3  502    0  0.28281689772E+02  0.10159850759E+02  0.91826517971E+02  0.96733013736E+02  0.47000000000E+01 0.  1.
         -5    1    3    3    0  502 -0.93124986371E+02 -0.81663666188E+02  0.20750370480E+03  0.24170456133E+03  0.47000000000E+01 0.  1.
        -11    1    1    2    0    0  0.63207174330E+02  0.20114615678E+02  0.21501644227E+03  0.22501514415E+03  0.00000000000E+00 0. -1.
         11    1    1    2    0    0  0.16361222690E+01  0.51389199751E+02  0.74080238295E+02  0.90174322581E+02  0.00000000000E+00 0.  1.
<mgrwt>
<rscale>  0 0.14913026E+03</rscale>
<asrwt>0</asrwt>
<pdfrwt beam="1">  1        2 0.95542602E-01 0.15792850E+03</pdfrwt>
<pdfrwt beam="2">  1       -2 0.50153957E-02 0.15792850E+03</pdfrwt>
<totfact> 0.91228169E+03</totfact>
</mgrwt>
</event>
<event>
 7    1  0.6095443E-006  0.1347957E+03  0.7546771E-02  0.1234910E+00
          2   -1    0    0  501    0  0.00000000000E+00  0.00000000000E+00  0.43809113637E+03  0.43809113637E+03  0.00000000000E+00 0.  1.
         -2   -1    0    0    0  501 -0.00000000000E+00 -0.00000000000E+00 -0.34266324275E+02  0.34266324275E+02  0.00000000000E+00 0. -1.
         23    2    1    2    0    0  0.11985796855E+02  0.48999610160E+02  0.16249246010E+03  0.21112481881E+03  0.12500107361E+03 0.  0.
          5    1    3    3  502    0  0.85630664556E+01  0.20236531117E+02 -0.17671315096E+02  0.28586861947E+02  0.47000000000E+01 0. -1.
         -5    1    3    3    0  502  0.34227303990E+01  0.28763079043E+02  0.18016377520E+03  0.18253795686E+03  0.47000000000E+01 0. -1.
        -11    1    1    2    0    0  0.25805195255E+02 -0.24250570721E+02  0.34196329548E+02  0.49227911158E+02  0.00000000000E+00 0. -1.
         11    1    1    2    0    0 -0.37790992110E+02 -0.24749039439E+02  0.20713602244E+03  0.21200473068E+03  0.00000000000E+00 0.  1.
<mgrwt>
<rscale>  0 0.12510180E+03</rscale>
<asrwt>0</asrwt>
<pdfrwt beam="1">  1        2 0.67398632E-01 0.13479573E+03</pdfrwt>
<pdfrwt beam="2">  1       -2 0.52717425E-02 0.13479573E+03</pdfrwt>
<totfact> 0.12338266E+04</totfact>
</mgrwt>
</event>
<event>
 7    1  0.6095443E-006  0.1330001E+03  0.7546771E-02  0.1235431E+00
         -1   -1    0    0    0  501 -0.00000000000E+00  0.00000000000E+00  0.31859427466E+02  0.31859427466E+02  0.00000000000E+00 0.  1.
          1   -1    0    0  501    0  0.00000000000E+00 -0.00000000000E+00 -0.43801873297E+03  0.43801873297E+03  0.00000000000E+00 0. -1.
         23    2    1    2    0    0  0.31023043500E+02  0.33195001878E+02 -0.21799598299E+03  0.25536499668E+03  0.12499878220E+03 0.  0.
          5    1    3    3  502    0  0.17357076362E+02  0.16421874679E+02  0.99788837161E+01  0.26317564250E+02  0.47000000000E+01 0. -1.
         -5    1    3    3    0  502  0.13665967138E+02  0.16773127199E+02 -0.22797486670E+03  0.22904743243E+03  0.47000000000E+01 0. -1.
        -11    1    1    2    0    0  0.25334499364E+02  0.77465991038E+00 -0.15438111908E+02  0.29677807454E+02  0.00000000000E+00 0.  1.
         11    1    1    2    0    0 -0.56357542864E+02 -0.33969661788E+02 -0.17272521061E+03  0.18483535630E+03  0.00000000000E+00 0. -1.
<mgrwt>
<rscale>  0 0.12476875E+03</rscale>
<asrwt>0</asrwt>
<pdfrwt beam="2">  1        1 0.67387491E-01 0.13300012E+03</pdfrwt>
<pdfrwt beam="1">  1       -1 0.49014508E-02 0.13300012E+03</pdfrwt>
<totfact> 0.92756567E+03</totfact>
</mgrwt>
</event>
<event>
 7    1  0.6095443E-006  0.1382126E+03  0.7546771E-02  0.1227121E+00
          2   -1    0    0  501    0  0.00000000000E+00  0.00000000000E+00  0.92994182950E+03  0.92994182950E+03  0.00000000000E+00 0. -1.
         -2   -1    0    0    0  501 -0.00000000000E+00 -0.00000000000E+00 -0.16998807660E+02  0.16998807660E+02  0.00000000000E+00 0.  1.
         23    2    1    2    0    0 -0.32261195122E+02  0.49356625313E+02  0.42195512862E+03  0.44401446015E+03  0.12500339628E+03 0.  0.
          5    1    3    3  502    0  0.10001956688E+02 -0.34723230438E+02  0.61843537067E+02  0.71780602858E+02  0.47000000000E+01 0.  1.
         -5    1    3    3    0  502 -0.42263151810E+02  0.84079855751E+02  0.36011159155E+03  0.37223385729E+03  0.47000000000E+01 0.  1.
        -11    1    1    2    0    0  0.61556309825E+02 -0.36992742720E+02  0.40345106572E+03  0.40979312430E+03  0.00000000000E+00 0. -1.
         11    1    1    2    0    0 -0.29295114703E+02 -0.12363882592E+02  0.87536827510E+02  0.93133052719E+02  0.00000000000E+00 0.  1.
<mgrwt>
<rscale>  0 0.13022578E+03</rscale>
<asrwt>0</asrwt>
<pdfrwt beam="1">  1        2 0.14306793E+00 0.13821255E+03</pdfrwt>
<pdfrwt beam="2">  1       -2 0.26152019E-02 0.13821255E+03</pdfrwt>
<totfact> 0.14468939E+04</totfact>
</mgrwt>
</event>
<event>
 7    1  0.6095443E-006  0.1511344E+03  0.7546771E-02  0.1210241E+00
         -2   -1    0    0    0  501 -0.00000000000E+00  0.00000000000E+00  0.49879849243E+02  0.49879849243E+02  0.00000000000E+00 0.  1.
          2   -1    0    0  501    0  0.00000000000E+00 -0.00000000000E+00 -0.48959944518E+03  0.48959944518E+03  0.00000000000E+00 0. -1.
         23    2    1    2    0    0 -0.98187271322E+01 -0.80354224664E+02 -0.10430490018E+03  0.18363312000E+03  0.12762602296E+03 0.  0.
          5    1    3    3  502    0 -0.36856093931E+01  0.24964432116E+02 -0.66811679143E+02  0.71573019060E+02  0.47000000000E+01 0. -1.
         -5    1    3    3    0  502 -0.61331177391E+01 -0.10531865678E+03 -0.37493221041E+02  0.11206010094E+03  0.47000000000E+01 0.  1.
        -11    1    1    2    0    0 -0.26974514698E+02 -0.13018844738E+01 -0.11056799645E+03  0.11381828142E+03  0.00000000000E+00 0.  1.
         11    1    1    2    0    0  0.36793241830E+02  0.81656109137E+02 -0.22484669931E+03  0.24202789301E+03  0.00000000000E+00 0. -1.
<mgrwt>
<rscale>  0 0.14231977E+03</rscale>
<asrwt>0</asrwt>
<pdfrwt beam="2">  1        2 0.75322994E-01 0.15113441E+03</pdfrwt>
<pdfrwt beam="1">  1       -2 0.76738227E-02 0.15113441E+03</pdfrwt>
<totfact> 0.62158382E+03</totfact>
</mgrwt>
</event>
<event>
 7    1  0.6095443E-006  0.1260990E+03  0.7546771E-02  0.1247249E+00
          1   -1    0    0  501    0  0.00000000000E+00  0.00000000000E+00  0.29520022490E+02  0.29520022490E+02  0.00000000000E+00 0. -1.
         -1   -1    0    0    0  501 -0.00000000000E+00 -0.00000000000E+00 -0.42612822597E+03  0.42612822597E+03  0.00000000000E+00 0.  1.
         23    2    1    2    0    0  0.10071151955E+02 -0.13427098177E+02 -0.26266413007E+03  0.29136471837E+03  0.12497695316E+03 0.  0.
          5    1    3    3  502    0  0.11375101493E+01 -0.40587322219E+01 -0.27366539250E+03  0.27373820393E+03  0.47000000000E+01 0. -1.
         -5    1    3    3    0  502  0.89336418056E+01 -0.93683659551E+01  0.11001262430E+02  0.17626514449E+02  0.47000000000E+01 0. -1.
        -11    1    1    2    0    0 -0.28365393341E+02 -0.75475522931E+00 -0.13790989865E+03  0.14079881157E+03  0.00000000000E+00 0.  1.
         11    1    1    2    0    0  0.18294241386E+02  0.14181853406E+02  0.39658252371E+01  0.23484718515E+02  0.00000000000E+00 0. -1.
<mgrwt>
<rscale>  0 0.11751766E+03</rscale>
<asrwt>0</asrwt>
<pdfrwt beam="1">  1        1 0.45415419E-02 0.12609898E+03</pdfrwt>
<pdfrwt beam="2">  1       -1 0.65558189E-01 0.12609898E+03</pdfrwt>
<totfact> 0.44271624E+03</totfact>
</mgrwt>
</event>
<event>
 7    1  0.6095443E-006  0.1529796E+03  0.7546771E-02  0.1205991E+00
         -2   -1    0    0    0  501 -0.00000000000E+00  0.00000000000E+00  0.12977334048E+03  0.12977334048E+03  0.00000000000E+00 0.  1.
          2   -1    0    0  501    0  0.00000000000E+00 -0.00000000000E+00 -0.17478455152E+03  0.17478455152E+03  0.00000000000E+00 0. -1.
         23    2    1    2    0    0  0.21149665901E+02 -0.85568483131E+02  0.33371663056E+02  0.15657718423E+03  0.12503388762E+03 0.  0.
          5    1    3    3  502    0  0.25049112673E+02 -0.61341153241E+02 -0.41041609643E+02  0.78081360444E+02  0.47000000000E+01 0.  1.
         -5    1    3    3    0  502 -0.38994467719E+01 -0.24227329890E+02  0.74413272699E+02  0.78495823791E+02  0.47000000000E+01 0.  1.
        -11    1    1    2    0    0 -0.14946803517E+02  0.49797538755E+02  0.95372425831E+01  0.52859822148E+02  0.00000000000E+00 0.  1.
         11    1    1    2    0    0 -0.62028623847E+01  0.35770944375E+02 -0.87920116683E+02  0.95120885619E+02  0.00000000000E+00 0. -1.
<mgrwt>
<rscale>  0 0.14559630E+03</rscale>
<asrwt>0</asrwt>
<pdfrwt beam="2">  1        2 0.26889931E-01 0.15297956E+03</pdfrwt>
<pdfrwt beam="1">  1       -2 0.19965129E-01 0.15297956E+03</pdfrwt>
<totfact> 0.40358960E+03</totfact>
</mgrwt>
</event>
<event>
 7    1  0.6095443E-006  0.1989892E+03  0.7546771E-02  0.1154894E+00
         -1   -1    0    0    0  501 -0.00000000000E+00  0.00000000000E+00  0.96983760598E+02  0.96983760598E+02  0.00000000000E+00 0.  1.
          1   -1    0    0  501    0  0.00000000000E+00 -0.00000000000E+00 -0.42782124202E+03  0.42782124202E+03  0.00000000000E+00 0. -1.
         23    2    1    2    0    0  0.15425293220E+03 -0.13394292076E+02 -0.76189937868E+02  0.21307652255E+03  0.12499329452E+03 0.  0.
          5    1    3    3  502    0  0.10740249713E+03 -0.62700659048E+02 -0.74149318205E+02  0.14486849355E+03  0.47000000000E+01 0. -1.
         -5    1    3    3    0  502  0.46850435075E+02  0.49306366972E+02 -0.20406196627E+01  0.68208028994E+02  0.47000000000E+01 0. -1.
        -11    1    1    2    0    0 -0.11881161750E+03 -0.19155784211E+02 -0.12536194976E+03  0.17377791278E+03  0.00000000000E+00 0.  1.
         11    1    1    2    0    0 -0.35441314699E+02  0.32550076287E+02 -0.12928559380E+03  0.13795056730E+03  0.00000000000E+00 0. -1.
<mgrwt>
<rscale>  0 0.19400888E+03</rscale>
<asrwt>0</asrwt>
<pdfrwt beam="2">  1        1 0.65818655E-01 0.19898919E+03</pdfrwt>
<pdfrwt beam="1">  1       -1 0.14920578E-01 0.19898919E+03</pdfrwt>
<totfact> 0.17859763E+03</totfact>
</mgrwt>
</event>
<event>
 7    1  0.6095443E-006  0.1363395E+03  0.7546771E-02  0.1230681E+00
          1   -1    0    0  501    0  0.00000000000E+00  0.00000000000E+00  0.12702200664E+03  0.12702200664E+03  0.00000000000E+00 0. -1.
         -1   -1    0    0    0  501 -0.00000000000E+00 -0.00000000000E+00 -0.13714364853E+03  0.13714364853E+03  0.00000000000E+00 0.  1.
         23    2    1    2    0    0 -0.53240107511E+02 -0.11387619359E+02 -0.58267535430E+02  0.14826859742E+03  0.12499713746E+03 0.  0.
          5    1    3    3  502    0 -0.87788915520E+02 -0.31567692513E+02 -0.53644740845E+02  0.10771843444E+03  0.47000000000E+01 0.  1.
         -5    1    3    3    0  502  0.34548808009E+02  0.20180073154E+02 -0.46227945851E+01  0.40550162973E+02  0.47000000000E+01 0.  1.
        -11    1    1    2    0    0  0.54952099782E+02 -0.20812663179E+02  0.57610109232E+02  0.82291098576E+02  0.00000000000E+00 0.  1.
         11    1    1    2    0    0 -0.17119922715E+01  0.32200282538E+02 -0.94642156922E+01  0.33605959170E+02  0.00000000000E+00 0. -1.
<mgrwt>
<rscale>  0 0.12784998E+03</rscale>
<asrwt>0</asrwt>
<pdfrwt beam="1">  1        1 0.19541847E-01 0.13633954E+03</pdfrwt>
<pdfrwt beam="2">  1       -1 0.21099023E-01 0.13633954E+03</pdfrwt>
<totfact> 0.46493262E+03</totfact>
</mgrwt>
</event>
<event>
 7    1  0.6095443E-006  0.1424194E+03  0.7546771E-02  0.1221164E+00
         -4   -1    0    0    0  501 -0.00000000000E+00  0.00000000000E+00  0.13280812335E+03  0.13280812335E+03  0.00000000000E+00 0.  1.
          4   -1    0    0  501    0  0.00000000000E+00 -0.00000000000E+00 -0.18088750847E+03  0.18088750847E+03  0.00000000000E+00 0. -1.
         23    2    1    2    0    0  0.48647555022E+02  0.47874128382E+02  0.62733836565E+02  0.15562398768E+03  0.12499909805E+03 0.  0.
          5    1    3    3  502    0  0.76782970583E+02 -0.10046213360E+02  0.29407068233E+02  0.82966358462E+02  0.47000000000E+01 0.  1.
         -5    1    3    3    0  502 -0.28135415561E+02  0.57920341742E+02  0.33326768332E+02  0.72657629219E+02  0.47000000000E+01 0.  1.
        -11    1    1    2    0    0 -0.25338098314E+01 -0.48530406833E+02 -0.99275883468E+02  0.11053199364E+03  0.00000000000E+00 0. -1.
         11    1    1    2    0    0 -0.46113745190E+02  0.65627845109E+00 -0.11537338220E+02  0.47539650504E+02  0.00000000000E+00 0.  1.
<mgrwt>
<rscale>  0 0.13433297E+03</rscale>
<asrwt>0</asrwt>
<pdfrwt beam="2">  1        4 0.27828847E-01 0.14241942E+03</pdfrwt>
<pdfrwt beam="1">  1       -4 0.20432019E-01 0.14241942E+03</pdfrwt>
<totfact> 0.44572273E+02</totfact>
</mgrwt>
</event>
<event>
 7    1  0.6095443E-006  0.1413191E+03  0.7546771E-02  0.1222483E+00
         -2   -1    0    0    0  501 -0.00000000000E+00  0.00000000000E+00  0.15560425510E+02  0.15560425510E+02  0.00000000000E+00 0.  1.
          2   -1    0    0  501    0  0.00000000000E+00 -0.00000000000E+00 -0.10374361478E+04  0.10374361478E+04  0.00000000000E+00 0. -1.
         23    2    1    2    0    0 -0.19581795441E+02  0.62952321261E+02 -0.60374014092E+03  0.62005906428E+03  0.12499857590E+03 0.  0.
          5    1    3    3  502    0  0.30432463927E+02  0.45265776656E+00 -0.39189061847E+02  0.49841873241E+02  0.47000000000E+01 0. -1.
         -5    1    3    3    0  502 -0.50014259369E+02  0.62499663494E+02 -0.56455107907E+03  0.57021719104E+03  0.47000000000E+01 0. -1.
        -11    1    1    2    0    0 -0.12857447291E+01  0.17468392990E+02 -0.21689211810E+02  0.27878662128E+02  0.00000000000E+00 0.  1.
         11    1    1    2    0    0  0.20867540170E+02 -0.80420714251E+02 -0.39644636961E+03  0.40505884695E+03  0.00000000000E+00 0. -1.
<mgrwt>
<rscale>  0 0.13340935E+03</rscale>
<asrwt>0</asrwt>
<pdfrwt beam="2">  1        2 0.15960558E+00 0.14131909E+03</pdfrwt>
<pdfrwt beam="1">  1       -2 0.23939114E-02 0.14131909E+03</pdfrwt>
<totfact> 0.14201712E+04</totfact>
</mgrwt>
</event>
<event>
 7    1  0.6095443E-006  0.1540913E+03  0.7546771E-02  0.1203383E+00
          2   -1    0    0  501    0  0.00000000000E+00  0.00000000000E+00  0.69718525363E+03  0.69718525363E+03  0.00000000000E+00 0. -1.
         -2   -1    0    0    0  501 -0.00000000000E+00 -0.00000000000E+00 -0.28928566189E+02  0.28928566189E+02  0.00000000000E+00 0.  1.
         23    2    1    2    0    0 -0.64080241389E+02 -0.63341302211E+02  0.35803922427E+03  0.38978994948E+03  0.12500288275E+03 0.  0.
          5    1    3    3  502    0 -0.51599078787E+02 -0.99543248750E+02  0.22755555665E+03  0.25372218008E+03  0.47000000000E+01 0.  1.
         -5    1    3    3    0  502 -0.12481162602E+02  0.36201946538E+02  0.13048366762E+03  0.13606776940E+03  0.47000000000E+01 0.  1.
        -11    1    1    2    0    0  0.63751764975E+02  0.30296635617E+02  0.28795125677E+03  0.29647613723E+03  0.00000000000E+00 0. -1.
         11    1    1    2    0    0  0.32847641463E+00  0.33044666594E+02  0.22266206399E+02  0.39847733116E+02  0.00000000000E+00 0.  1.
<mgrwt>
<rscale>  0 0.14765612E+03</rscale>
<asrwt>0</asrwt>
<pdfrwt beam="1">  1        2 0.10725926E+00 0.15409127E+03</pdfrwt>
<pdfrwt beam="2">  1       -2 0.44505492E-02 0.15409127E+03</pdfrwt>
<totfact> 0.95181272E+03</totfact>
</mgrwt>
</event>
<event>
 7    1  0.6095443E-006  0.1450372E+03  0.7546771E-02  0.1216558E+00
          2   -1    0    0  501    0  0.00000000000E+00  0.00000000000E+00  0.62170722672E+03  0.62170722672E+03  0.00000000000E+00 0. -1.
         -2   -1    0    0    0  501 -0.00000000000E+00 -0.00000000000E+00 -0.34281309964E+02  0.34281309964E+02  0.00000000000E+00 0.  1.
         23    2    1    2    0    0 -0.37360322281E+02  0.63350184605E+02  0.17585785830E+03  0.22795128239E+03  0.12500704480E+03 0.  0.
          5    1    3    3  502    0 -0.63552458556E+01  0.97101772937E+02  0.13423602031E+03  0.16586302363E+03  0.47000000000E+01 0. -1.
         -5    1    3    3    0  502 -0.31005076425E+02 -0.33751588333E+02  0.41621837982E+02  0.62088258762E+02  0.47000000000E+01 0. -1.
        -11    1    1    2    0    0  0.40104228921E+02  0.11170092631E+02  0.11733111649E+03  0.12449783550E+03  0.00000000000E+00 0.  1.
         11    1    1    2    0    0 -0.27439066404E+01 -0.74520277236E+02  0.29423694197E+03  0.30353941879E+03  0.00000000000E+00 0. -1.
<mgrwt>
<rscale>  0 0.13762682E+03</rscale>
<asrwt>0</asrwt>
<pdfrwt beam="1">  1        2 0.95647257E-01 0.14503724E+03</pdfrwt>
<pdfrwt beam="2">  1       -2 0.52740482E-02 0.14503724E+03</pdfrwt>
<totfact> 0.84030277E+03</totfact>
</mgrwt>
</event>
<event>
 7    1  0.6095443E-006  0.1881783E+03  0.7546771E-02  0.1165746E+00
          2   -1    0    0  501    0  0.00000000000E+00  0.00000000000E+00  0.43422921721E+03  0.43422921721E+03  0.00000000000E+00 0. -1.
         -2   -1    0    0    0  501 -0.00000000000E+00 -0.00000000000E+00 -0.10141063398E+03  0.10141063398E+03  0.00000000000E+00 0.  1.
         23    2    1    2    0    0 -0.43569079920E+01  0.14060508504E+03  0.29792970387E+02  0.19052216962E+03  0.12498921332E+03 0.  0.
          5    1    3    3  502    0 -0.39154819666E+02 -0.16248251952E+01  0.18492426548E+02  0.43586692919E+02  0.47000000000E+01 0. -1.
         -5    1    3    3    0  502  0.34797911674E+02  0.14222991024E+03  0.11300543839E+02  0.14693547670E+03  0.47000000000E+01 0. -1.
        -11    1    1    2    0    0  0.15301671494E+02 -0.80504541057E+02  0.25368402959E+03  0.26659090223E+03  0.00000000000E+00 0. -1.
         11    1    1    2    0    0 -0.10944763502E+02 -0.60100543984E+02  0.49341583252E+02  0.78526779338E+02  0.00000000000E+00 0.  1.
<mgrwt>
<rscale>  0 0.18214241E+03</rscale>
<asrwt>0</asrwt>
<pdfrwt beam="1">  1        2 0.66804494E-01 0.18817831E+03</pdfrwt>
<pdfrwt beam="2">  1       -2 0.15601636E-01 0.18817831E+03</pdfrwt>
<totfact> 0.23084840E+03</totfact>
</mgrwt>
</event>
<event>
 7    1  0.6095443E-006  0.1507430E+03  0.7546771E-02  0.1212607E+00
          1   -1    0    0  501    0  0.00000000000E+00  0.00000000000E+00  0.16756698006E+03  0.16756698006E+03  0.00000000000E+00 0. -1.
         -1   -1    0    0    0  501 -0.00000000000E+00 -0.00000000000E+00 -0.10458554728E+03  0.10458554728E+03  0.00000000000E+00 0.  1.
         23    2    1    2    0    0 -0.84044285914E+02  0.58617557606E+01  0.40225908638E+02  0.15601787060E+03  0.12500260015E+03 0.  0.
          5    1    3    3  502    0  0.15930591441E+02  0.41264985610E+02  0.14459134770E+02  0.46773276124E+02  0.47000000000E+01 0.  1.
         -5    1    3    3    0  502 -0.99974877355E+02 -0.35403229850E+02  0.25766773869E+02  0.10924459447E+03  0.47000000000E+01 0.  1.
        -11    1    1    2    0    0  0.26771166649E+02 -0.24909236433E+02 -0.20459308578E+02  0.41901655467E+02  0.00000000000E+00 0.  1.
         11    1    1    2    0    0  0.57273119265E+02  0.19047480672E+02  0.43214832724E+02  0.74233001270E+02  0.00000000000E+00 0. -1.
<mgrwt>
<rscale>  0 0.14053776E+03</rscale>
<asrwt>0</asrwt>
<pdfrwt beam="1">  1        1 0.25779535E-01 0.15074300E+03</pdfrwt>
<pdfrwt beam="2">  1       -1 0.16090084E-01 0.15074300E+03</pdfrwt>
<totfact> 0.50781319E+03</totfact>
</mgrwt>
</event>
<event>
 7    1  0.6095443E-006  0.2819807E+03  0.7546771E-02  0.1096390E+00
         -2   -1    0    0    0  501 -0.00000000000E+00  0.00000000000E+00  0.20374115971E+03  0.20374115971E+03  0.00000000000E+00 0.  1.
          2   -1    0    0  501    0  0.00000000000E+00 -0.00000000000E+00 -0.41491867989E+03  0.41491867989E+03  0.00000000000E+00 0. -1.
         23    2    1    2    0    0  0.18374288588E+03 -0.17357157592E+03 -0.91748050005E+01  0.28212988451E+03  0.12499821842E+03 0.  0.
          5    1    3    3  502    0  0.24382680037E+01  0.16866225844E+02  0.61080254994E+01  0.18703280477E+02  0.47000000000E+01 0.  1.
         -5    1    3    3    0  502  0.18130461788E+03 -0.19043780176E+03 -0.15282830500E+02  0.26342660403E+03  0.47000000000E+01 0.  1.
        -11    1    1    2    0    0 -0.15724643227E+02  0.64737129711E+02 -0.32043351096E+02  0.73925210296E+02  0.00000000000E+00 0.  1.
         11    1    1    2    0    0 -0.16801824266E+03  0.10883444620E+03 -0.16995936408E+03  0.26260474479E+03  0.00000000000E+00 0. -1.
<mgrwt>
<rscale>  0 0.27871945E+03</rscale>
<asrwt>0</asrwt>
<pdfrwt beam="2">  1        2 0.63833643E-01 0.28198066E+03</pdfrwt>
<pdfrwt beam="1">  1       -2 0.31344794E-01 0.28198066E+03</pdfrwt>
<totfact> 0.72569954E+02</totfact>
</mgrwt>
</event>
<event>
 7    1  0.6095443E-006  0.1738615E+03  0.7546771E-02  0.1180597E+00
         -1   -1    0    0    0  501 -0.00000000000E+00  0.00000000000E+00  0.32918870611E+03  0.32918870611E+03  0.00000000000E+00 0.  1.
          1   -1    0    0  501    0  0.00000000000E+00 -0.00000000000E+00 -0.80097597958E+02  0.80097597958E+02  0.00000000000E+00 0. -1.
         23    2    1    2    0    0  0.29764371105E+02  0.11710191502E+03  0.15356408076E+03  0.23196931634E+03  0.12501624108E+03 0.  0.
          5    1    3    3  502    0 -0.92596067468E+00  0.94465467946E+02  0.25069431150E+02  0.97852687320E+02  0.47000000000E+01 0. -1.
         -5    1    3    3    0  502  0.30690331780E+02  0.22636447069E+02  0.12849464961E+03  0.13411662902E+03  0.47000000000E+01 0. -1.
        -11    1    1    2    0    0 -0.46260813202E+02 -0.19233734694E+02  0.33901857915E+02  0.60492440507E+02  0.00000000000E+00 0. -1.
         11    1    1    2    0    0  0.16496442097E+02 -0.97868180321E+02  0.61625169478E+02  0.11682454723E+03  0.00000000000E+00 0.  1.
<mgrwt>
<rscale>  0 0.16738998E+03</rscale>
<asrwt>0</asrwt>
<pdfrwt beam="2">  1        1 0.12322708E-01 0.17386154E+03</pdfrwt>
<pdfrwt beam="1">  1       -1 0.50644416E-01 0.17386154E+03</pdfrwt>
<totfact> 0.19095662E+03</totfact>
</mgrwt>
</event>
<event>
 7    1  0.6095443E-006  0.1485649E+03  0.7546771E-02  0.1211783E+00
         -2   -1    0    0    0  501 -0.00000000000E+00  0.00000000000E+00  0.41544669542E+02  0.41544669542E+02  0.00000000000E+00 0.  1.
          2   -1    0    0  501    0  0.00000000000E+00 -0.00000000000E+00 -0.45581964879E+03  0.45581964879E+03  0.00000000000E+00 0. -1.
         23    2    1    2    0    0 -0.63765763406E+02  0.48805741125E+02 -0.17780400926E+03  0.23170195423E+03  0.12499382760E+03 0.  0.
          5    1    3    3  502    0  0.28261562729E+02  0.21340813679E+02 -0.80696049753E+01  0.36624510657E+02  0.47000000000E+01 0.  1.
         -5    1    3    3    0  502 -0.92027326136E+02  0.27464927445E+02 -0.16973440428E+03  0.19507744358E+03  0.47000000000E+01 0.  1.
        -11    1    1    2    0    0  0.51090275975E+02  0.95885222564E+01 -0.16226837924E+03  0.17039126433E+03  0.00000000000E+00 0.  1.
         11    1    1    2    0    0  0.12675487431E+02 -0.58394263381E+02 -0.74202590747E+02  0.95271099768E+02  0.00000000000E+00 0. -1.
<mgrwt>
<rscale>  0 0.14115504E+03</rscale>
<asrwt>0</asrwt>
<pdfrwt beam="2">  1        2 0.70126098E-01 0.14856490E+03</pdfrwt>
<pdfrwt beam="1">  1       -2 0.63914878E-02 0.14856490E+03</pdfrwt>
<totfact> 0.88885505E+03</totfact>
</mgrwt>
</event>
<event>
 7    1  0.6095443E-006  0.2191513E+03  0.7546771E-02  0.1137872E+00
          1   -1    0    0  501    0  0.00000000000E+00  0.00000000000E+00  0.40262013501E+03  0.40262013501E+03  0.00000000000E+00 0. -1.
         -1   -1    0    0    0  501 -0.00000000000E+00 -0.00000000000E+00 -0.11074176202E+03  0.11074176202E+03  0.00000000000E+00 0.  1.
         23    2    1    2    0    0 -0.17978899790E+03  0.89375596096E+01  0.17080809659E+03  0.27785376824E+03  0.12499338753E+03 0.  0.
          5    1    3    3  502    0 -0.91178306048E+02 -0.54268374127E+02  0.11076619952E+03  0.15345937860E+03  0.47000000000E+01 0.  1.
         -5    1    3    3    0  502 -0.88610691849E+02  0.63205933737E+02  0.60041897078E+02  0.12439438964E+03  0.47000000000E+01 0.  1.
        -11    1    1    2    0    0  0.98631058269E+02  0.22302228936E+02  0.21634249085E+02  0.10340945704E+03  0.00000000000E+00 0.  1.
         11    1    1    2    0    0  0.81157939628E+02 -0.31239788546E+02  0.99436027315E+02  0.13209867176E+03  0.00000000000E+00 0. -1.
<mgrwt>
<rscale>  0 0.21473295E+03</rscale>
<asrwt>0</asrwt>
<pdfrwt beam="1">  1        1 0.61941559E-01 0.21915134E+03</pdfrwt>
<pdfrwt beam="2">  1       -1 0.17037194E-01 0.21915134E+03</pdfrwt>
<totfact> 0.15663160E+03</totfact>
</mgrwt>
</event>
<event>
 7    1  0.6095443E-006  0.1660666E+03  0.7546771E-02  0.1188219E+00
          1   -1    0    0  501    0  0.00000000000E+00  0.00000000000E+00  0.35458163378E+03  0.35458163378E+03  0.00000000000E+00 0. -1.
         -1   -1    0    0    0  501 -0.00000000000E+00 -0.00000000000E+00 -0.77392810377E+02  0.77392810377E+02  0.00000000000E+00 0.  1.
         23    2    1    2    0    0  0.79123426389E+02  0.75480367503E+02  0.72145912173E+02  0.18106114841E+03  0.12498121594E+03 0.  0.
          5    1    3    3  502    0 -0.88079921813E+01  0.76153533511E+02  0.44493195742E+02  0.88761905454E+02  0.47000000000E+01 0. -1.
         -5    1    3    3    0  502  0.87931418570E+02 -0.67316600808E+00  0.27652716431E+02  0.92299242956E+02  0.47000000000E+01 0. -1.
        -11    1    1    2    0    0 -0.91736180042E+02 -0.84925491863E+02  0.15906686160E+03  0.20231196790E+03  0.00000000000E+00 0.  1.
         11    1    1    2    0    0  0.12612753653E+02  0.94451243594E+01  0.45976049631E+02  0.48601327847E+02  0.00000000000E+00 0. -1.
<mgrwt>
<rscale>  0 0.16042373E+03</rscale>
<asrwt>0</asrwt>
<pdfrwt beam="1">  1        1 0.54551020E-01 0.16606657E+03</pdfrwt>
<pdfrwt beam="2">  1       -1 0.11906586E-01 0.16606657E+03</pdfrwt>
<totfact> 0.32095211E+03</totfact>
</mgrwt>
</event>
<event>
 7    1  0.6095443E-006  0.1329016E+03  0.7546771E-02  0.1236216E+00
          2   -1    0    0  501    0  0.00000000000E+00  0.00000000000E+00  0.26224232142E+02  0.26224232142E+02  0.00000000000E+00 0. -1.
         -2   -1    0    0    0  501 -0.00000000000E+00 -0.00000000000E+00 -0.64063384466E+03  0.64063384466E+03  0.00000000000E+00 0.  1.
         23    2    1    2    0    0 -0.24457525913E+01  0.45189312796E+02 -0.48187329729E+03  0.49986468250E+03  0.12495907519E+03 0.  0.
          5    1    3    3  502    0 -0.93145285221E+01 -0.28738770024E+02 -0.32290918665E+03  0.32435337237E+03  0.47000000000E+01 0.  1.
         -5    1    3    3    0  502  0.68687759308E+01  0.73928082820E+02 -0.15896411064E+03  0.17551131013E+03  0.47000000000E+01 0.  1.
        -11    1    1    2    0    0 -0.17171692096E+02  0.16494156332E+02 -0.55297112090E+01  0.24443852164E+02  0.00000000000E+00 0. -1.
         11    1    1    2    0    0  0.19617444688E+02 -0.61683469128E+02 -0.12700660402E+03  0.14254954214E+03  0.00000000000E+00 0.  1.
<mgrwt>
<rscale>  0 0.12426888E+03</rscale>
<asrwt>0</asrwt>
<pdfrwt beam="1">  1        2 0.40344978E-02 0.13290157E+03</pdfrwt>
<pdfrwt beam="2">  1       -2 0.98559040E-01 0.13290157E+03</pdfrwt>
<totfact> 0.17849234E+03</totfact>
</mgrwt>
</event>
<event>
 7    1  0.6095443E-006  0.1957734E+03  0.7546771E-02  0.1157625E+00
          1   -1    0    0  501    0  0.00000000000E+00  0.00000000000E+00  0.28244032930E+03  0.28244032930E+03  0.00000000000E+00 0.  1.
         -1   -1    0    0    0  501 -0.00000000000E+00 -0.00000000000E+00 -0.13653913552E+03  0.13653913552E+03  0.00000000000E+00 0. -1.
         23    2    1    2    0    0  0.42382397388E-02 -0.15066968400E+03  0.10521770778E+02  0.19605591308E+03  0.12500343874E+03 0.  0.
          5    1    3    3  502    0 -0.39229883626E+02 -0.15105215750E+03  0.11182024317E+02  0.15653391238E+03  0.47000000000E+01 0.  1.
         -5    1    3    3    0  502  0.39234121866E+02  0.38247350472E+00 -0.66025353906E+00  0.39522000700E+02  0.47000000000E+01 0.  1.
        -11    1    1    2    0    0 -0.28324657346E+02  0.92503135570E+01  0.40523946459E+02  0.50299550209E+02  0.00000000000E+00 0.  1.
         11    1    1    2    0    0  0.28320419106E+02  0.14141937044E+03  0.94855476540E+02  0.17262400153E+03  0.00000000000E+00 0. -1.
<mgrwt>
<rscale>  0 0.19093032E+03</rscale>
<asrwt>0</asrwt>
<pdfrwt beam="1">  1        1 0.43452358E-01 0.19577337E+03</pdfrwt>
<pdfrwt beam="2">  1       -1 0.21006021E-01 0.19577337E+03</pdfrwt>
<totfact> 0.17436493E+03</totfact>
</mgrwt>
</event>
<event>
 7    1  0.6095443E-006  0.1287874E+03  0.7546771E-02  0.1249076E+00
          2   -1    0    0  501    0  0.00000000000E+00  0.00000000000E+00  0.12232831967E+03  0.12232831967E+03  0.00000000000E+00 0. -1.
         -2   -1    0    0    0  501 -0.00000000000E+00 -0.00000000000E+00 -0.95892594305E+02  0.95892594305E+02  0.00000000000E+00 0.  1.
         23    2    1    2    0    0 -0.23510717922E+02  0.20204831166E+02  0.22428778000E+01  0.12880692185E+03  0.12500081422E+03 0.  0.
          5    1    3    3  502    0  0.43678870731E+02 -0.41129606248E+00  0.29890390665E+02  0.53136977397E+02  0.47000000000E+01 0.  1.
         -5    1    3    3    0  502 -0.67189588653E+02  0.20616127229E+02 -0.27647512865E+02  0.75669944449E+02  0.47000000000E+01 0.  1.
        -11    1    1    2    0    0  0.38392597525E+02 -0.31785126503E+02  0.40703108220E+02  0.64350826182E+02  0.00000000000E+00 0. -1.
         11    1    1    2    0    0 -0.14881879603E+02  0.11580295337E+02 -0.16510260652E+02  0.25063165949E+02  0.00000000000E+00 0.  1.
<mgrwt>
<rscale>  0 0.11644722E+03</rscale>
<asrwt>0</asrwt>
<pdfrwt beam="1">  1        2 0.18819742E-01 0.12878739E+03</pdfrwt>
<pdfrwt beam="2">  1       -2 0.14752707E-01 0.12878739E+03</pdfrwt>
<totfact> 0.98237570E+03</totfact>
</mgrwt>
</event>
<event>
 7    1  0.6095443E-006  0.1386892E+03  0.7546771E-02  0.1225944E+00
         -2   -1    0    0    0  501 -0.00000000000E+00  0.00000000000E+00  0.21017821024E+03  0.21017821024E+03  0.00000000000E+00 0.  1.
          2   -1    0    0  501    0  0.00000000000E+00 -0.00000000000E+00 -0.10255177470E+03  0.10255177470E+03  0.00000000000E+00 0. -1.
         23    2    1    2    0    0 -0.60051383420E+02  0.19392467742E+01  0.14054448375E+03  0.19745238888E+03  0.12499905853E+03 0.  0.
          5    1    3    3  502    0  0.29180909299E+02  0.32612751597E+02  0.49695535962E+02  0.66384134617E+02  0.47000000000E+01 0.  1.
         -5    1    3    3    0  502 -0.89232292719E+02 -0.30673504822E+02  0.90848947787E+02  0.13106825426E+03  0.47000000000E+01 0.  1.
        -11    1    1    2    0    0  0.31285255515E+02 -0.47297078026E+02 -0.15017514285E+02  0.58662650279E+02  0.00000000000E+00 0.  1.
         11    1    1    2    0    0  0.28766127905E+02  0.45357831252E+02 -0.17900533926E+02  0.56614945777E+02  0.00000000000E+00 0. -1.
<mgrwt>
<rscale>  0 0.13102394E+03</rscale>
<asrwt>0</asrwt>
<pdfrwt beam="2">  1        2 0.15777196E-01 0.13868920E+03</pdfrwt>
<pdfrwt beam="1">  1       -2 0.32335109E-01 0.13868920E+03</pdfrwt>
<totfact> 0.31455244E+03</totfact>
</mgrwt>
</event>
<event>
 7    1  0.6095443E-006  0.1528672E+03  0.7546771E-02  0.1204806E+00
         -2   -1    0    0    0  501 -0.00000000000E+00  0.00000000000E+00  0.16994009856E+03  0.16994009856E+03  0.00000000000E+00 0. -1.
          2   -1    0    0  501    0  0.00000000000E+00 -0.00000000000E+00 -0.11936492105E+03  0.11936492105E+03  0.00000000000E+00 0.  1.
         23    2    1    2    0    0  0.79372058073E+02  0.38316360800E+02  0.48034356288E+02  0.16023629073E+03  0.12490117043E+03 0.  0.
          5    1    3    3  502    0 -0.29046064241E+02 -0.13579664736E+02  0.71303049238E+01  0.33181506755E+02  0.47000000000E+01 0.  1.
         -5    1    3    3    0  502  0.10841812231E+03  0.51896025536E+02  0.40904051364E+02  0.12705478397E+03  0.47000000000E+01 0.  1.
        -11    1    1    2    0    0 -0.40164653729E+02 -0.20512320827E+02  0.48404567567E+02  0.66158573717E+02  0.00000000000E+00 0. -1.
         11    1    1    2    0    0 -0.39207404344E+02 -0.17804039973E+02 -0.45863746339E+02  0.62910155166E+02  0.00000000000E+00 0.  1.
<mgrwt>
<rscale>  0 0.14652775E+03</rscale>
<asrwt>0</asrwt>
<pdfrwt beam="2">  1        2 0.18363834E-01 0.15286716E+03</pdfrwt>
<pdfrwt beam="1">  1       -2 0.26144631E-01 0.15286716E+03</pdfrwt>
<totfact> 0.38837461E+03</totfact>
</mgrwt>
</event>
<event>
 7    1  0.6095443E-006  0.1364949E+03  0.7546771E-02  0.1230204E+00
         -2   -1    0    0    0  501 -0.00000000000E+00  0.00000000000E+00  0.11420297397E+03  0.11420297397E+03  0.00000000000E+00 0. -1.
          2   -1    0    0  501    0  0.00000000000E+00 -0.00000000000E+00 -0.14887162619E+03  0.14887162619E+03  0.00000000000E+00 0.  1.
         23    2    1    2    0    0 -0.51685972275E+02  0.18312093691E+02  0.28713037904E+02  0.13948225046E+03  0.12499634851E+03 0.  0.
          5    1    3    3  502    0  0.16619846721E+02  0.16424060121E+02 -0.37359314403E+02  0.44314528414E+02  0.47000000000E+01 0.  1.
         -5    1    3    3    0  502 -0.68305818996E+02  0.18880335696E+01  0.66072352308E+02  0.95167722043E+02  0.47000000000E+01 0.  1.
        -11    1    1    2    0    0  0.77166337141E+02 -0.16608495478E+02 -0.38063192353E+02  0.87631571491E+02  0.00000000000E+00 0.  1.
         11    1    1    2    0    0 -0.25480364866E+02 -0.17035982125E+01 -0.25318497773E+02  0.35960778219E+02  0.00000000000E+00 0. -1.
<mgrwt>
<rscale>  0 0.12816492E+03</rscale>
<asrwt>0</asrwt>
<pdfrwt beam="2">  1        2 0.22903327E-01 0.13649491E+03</pdfrwt>
<pdfrwt beam="1">  1       -2 0.17569688E-01 0.13649491E+03</pdfrwt>
<totfact> 0.59331480E+03</totfact>
</mgrwt>
</event>
<event>
 7    1  0.6095443E-006  0.1408439E+03  0.7546771E-02  0.1222652E+00
         -1   -1    0    0    0  501 -0.00000000000E+00  0.00000000000E+00  0.44070133618E+03  0.44070133618E+03  0.00000000000E+00 0.  1.
          1   -1    0    0  501    0  0.00000000000E+00 -0.00000000000E+00 -0.52921077485E+02  0.52921077485E+02  0.00000000000E+00 0. -1.
         23    2    1    2    0    0  0.27160243672E+02  0.58920090479E+02  0.34530286512E+03  0.37292235291E+03  0.12501102647E+03 0.  0.
          5    1    3    3  502    0 -0.53448269623E+01  0.92732837132E+02  0.21103611900E+03  0.23062150762E+03  0.47000000000E+01 0. -1.
         -5    1    3    3    0  502  0.32505070635E+02 -0.33812746653E+02  0.13426674612E+03  0.14230084528E+03  0.47000000000E+01 0. -1.
        -11    1    1    2    0    0  0.17075827006E+02  0.12361692537E+02  0.28814344031E+02  0.35702405132E+02  0.00000000000E+00 0.  1.
         11    1    1    2    0    0 -0.44236070678E+02 -0.71281783015E+02  0.13663049542E+02  0.84997655624E+02  0.00000000000E+00 0. -1.
<mgrwt>
<rscale>  0 0.13329157E+03</rscale>
<asrwt>0</asrwt>
<pdfrwt beam="2">  1        1 0.81417045E-02 0.14084393E+03</pdfrwt>
<pdfrwt beam="1">  1       -1 0.67800203E-01 0.14084393E+03</pdfrwt>
<totfact> 0.18905848E+03</totfact>
</mgrwt>
</event>
<event>
 7    1  0.6095443E-006  0.1420716E+03  0.7546771E-02  0.1221161E+00
         -1   -1    0    0    0  501 -0.00000000000E+00  0.00000000000E+00  0.11140733790E+03  0.11140733790E+03  0.00000000000E+00 0.  1.
          1   -1    0    0  501    0  0.00000000000E+00 -0.00000000000E+00 -0.14759322088E+03  0.14759322088E+03  0.00000000000E+00 0. -1.
         23    2    1    2    0    0 -0.43881861839E+02 -0.51316330353E+02 -0.97891819028E+01  0.14240849594E+03  0.12500147229E+03 0.  0.
          5    1    3    3  502    0 -0.19828995032E+02 -0.86978963120E+02  0.17799086937E+02  0.91090211138E+02  0.47000000000E+01 0. -1.
         -5    1    3    3    0  502 -0.24052866807E+02  0.35662632768E+02 -0.27588268840E+02  0.51318284803E+02  0.47000000000E+01 0. -1.
        -11    1    1    2    0    0  0.10247313422E+02 -0.22263546205E+02 -0.25941301440E+02  0.35687869682E+02  0.00000000000E+00 0. -1.
         11    1    1    2    0    0  0.33634548417E+02  0.73579876558E+02 -0.45539964541E+00  0.80904193157E+02  0.00000000000E+00 0.  1.
<mgrwt>
<rscale>  0 0.13433566E+03</rscale>
<asrwt>0</asrwt>
<pdfrwt beam="2">  1        1 0.22706649E-01 0.14207164E+03</pdfrwt>
<pdfrwt beam="1">  1       -1 0.17139591E-01 0.14207164E+03</pdfrwt>
<totfact> 0.53724131E+03</totfact>
</mgrwt>
</event>
<event>
 6    1  0.6095443E-006  0.1465635E+03  0.7546771E-02  0.1223052E+00
          2   -1    0    0  501    0  0.00000000000E+00  0.00000000000E+00  0.35098097561E+03  0.35098097561E+03  0.00000000000E+00 0. -1.
         -2   -1    0    0    0  501 -0.00000000000E+00 -0.00000000000E+00 -0.15433735015E+03  0.15433735015E+03  0.00000000000E+00 0.  1.
          5    1    1    2  502    0 -0.54669875469E+02 -0.34076101020E+02  0.10313640743E+01  0.64599765141E+02  0.47000000000E+01 0. -1.
         -5    1    1    2    0  502  0.41748889737E+02 -0.21252252192E+00 -0.11084277980E+03  0.11853787072E+03  0.47000000000E+01 0.  1.
        -11    1    1    2    0    0 -0.11555287639E+02  0.53810084502E+02  0.26254941960E+03  0.26825593674E+03  0.00000000000E+00 0. -1.
         11    1    1    2    0    0  0.24476273371E+02 -0.19521460960E+02  0.43905621592E+02  0.53924753161E+02  0.00000000000E+00 0.  1.
<mgrwt>
<rscale>  0 0.13301335E+03</rscale>
<asrwt>0</asrwt>
<pdfrwt beam="1">  1        2 0.53997073E-01 0.14656346E+03</pdfrwt>
<pdfrwt beam="2">  1       -2 0.23744208E-01 0.14656346E+03</pdfrwt>
<totfact> 0.14162094E+03</totfact>
</mgrwt>
</event>
<event>
 7    1  0.6969679E-006  0.1723683E+03  0.7546771E-02  0.1181416E+00
          1   -1    0    0  501    0  0.00000000000E+00  0.00000000000E+00  0.28049588935E+03  0.28049588935E+03  0.00000000000E+00 0. -1.
         -1   -1    0    0    0  501 -0.00000000000E+00 -0.00000000000E+00 -0.93361402975E+02  0.93361402975E+02  0.00000000000E+00 0.  1.
         23    2    1    2    0    0  0.91210457661E+02  0.75935807157E+02  0.11274441398E+03  0.20596635174E+03  0.12500096308E+03 0.  0.
          5    1    3    3  502    0  0.35899994217E+02  0.10050373701E+02 -0.23826178935E+02  0.44492655562E+02  0.47000000000E+01 0. -1.
         -5    1    3    3    0  502  0.55310463444E+02  0.65885433456E+02  0.13657059291E+03  0.16147369618E+03  0.47000000000E+01 0. -1.
        -11    1    1    2    0    0 -0.99902177271E+02 -0.66092276750E+02  0.32681603617E+02  0.12416409016E+03  0.00000000000E+00 0.  1.
         11    1    1    2    0    0  0.86917196098E+01 -0.98435304066E+01  0.41708468778E+02  0.43726850429E+02  0.00000000000E+00 0. -1.
<mgrwt>
<rscale>  0 0.16662300E+03</rscale>
<asrwt>0</asrwt>
<pdfrwt beam="1">  1        1 0.43153213E-01 0.17236831E+03</pdfrwt>
<pdfrwt beam="2">  1       -1 0.14363293E-01 0.17236831E+03</pdfrwt>
<totfact> 0.32149143E+03</totfact>
</mgrwt>
</event>
<event>
 6    1  0.6095443E-006  0.1893608E+03  0.7546771E-02  0.1166978E+00
          3   -1    0    0  501    0  0.00000000000E+00  0.00000000000E+00  0.97513483035E+02  0.97513483035E+02  0.00000000000E+00 0. -1.
         -3   -1    0    0    0  501 -0.00000000000E+00 -0.00000000000E+00 -0.43956513866E+03  0.43956513866E+03  0.00000000000E+00 0.  1.
          5    1    1    2  502    0  0.55498077971E+02  0.10008188819E+02 -0.11375181567E+03  0.12705025017E+03  0.47000000000E+01 0. -1.
         -5    1    1    2    0  502 -0.63185516831E+02  0.11589128887E+03 -0.21444776703E+03  0.25185935591E+03  0.47000000000E+01 0.  1.
        -11    1    1    2    0    0 -0.35141476497E+02 -0.81866564328E+02 -0.31107526155E+02  0.94364908249E+02  0.00000000000E+00 0.  1.
         11    1    1    2    0    0  0.42828915358E+02 -0.44032913362E+02  0.17255453231E+02  0.63804107361E+02  0.00000000000E+00 0. -1.
<mgrwt>
<rscale>  0 0.18085478E+03</rscale>
<asrwt>0</asrwt>
<pdfrwt beam="1">  1        3 0.15002074E-01 0.18936083E+03</pdfrwt>
<pdfrwt beam="2">  1       -3 0.67625406E-01 0.18936083E+03</pdfrwt>
<totfact> 0.19296979E+02</totfact>
</mgrwt>
</event>
<event>
 7    1  0.6095443E-006  0.2093921E+03  0.7546771E-02  0.1145864E+00
          2   -1    0    0  501    0  0.00000000000E+00  0.00000000000E+00  0.70193355736E+03  0.70193355736E+03  0.00000000000E+00 0. -1.
         -2   -1    0    0    0  501 -0.00000000000E+00 -0.00000000000E+00 -0.57483829594E+02  0.57483829594E+02  0.00000000000E+00 0.  1.
         23    2    1    2    0    0  0.12641171308E+03 -0.11062963518E+03  0.30694314607E+03  0.37156310928E+03  0.12500484739E+03 0.  0.
          5    1    3    3  502    0  0.97511373009E+02 -0.13034513664E+03  0.28956724523E+03  0.33221920779E+03  0.47000000000E+01 0.  1.
         -5    1    3    3    0  502  0.28900340075E+02  0.19715501463E+02  0.17375900841E+02  0.39343901490E+02  0.47000000000E+01 0.  1.
        -11    1    1    2    0    0 -0.11342428642E+03  0.41544536443E+02  0.21106475065E+03  0.24318582653E+03  0.00000000000E+00 0. -1.
         11    1    1    2    0    0 -0.12987426660E+02  0.69085098737E+02  0.12644183105E+03  0.14466845115E+03  0.00000000000E+00 0.  1.
<mgrwt>
<rscale>  0 0.20466186E+03</rscale>
<asrwt>0</asrwt>
<pdfrwt beam="1">  1        2 0.10798977E+00 0.20939209E+03</pdfrwt>
<pdfrwt beam="2">  1       -2 0.88436666E-02 0.20939209E+03</pdfrwt>
<totfact> 0.33411665E+03</totfact>
</mgrwt>
</event>
<event>
 7    1  0.6095443E-006  0.1921152E+03  0.7546771E-02  0.1161105E+00
          2   -1    0    0  501    0  0.00000000000E+00  0.00000000000E+00  0.58534155362E+03  0.58534155362E+03  0.00000000000E+00 0. -1.
         -2   -1    0    0    0  501 -0.00000000000E+00 -0.00000000000E+00 -0.71112839263E+02  0.71112839263E+02  0.00000000000E+00 0.  1.
         23    2    1    2    0    0  0.10886154345E+03  0.97106799246E+02  0.12131191306E+03  0.22721099752E+03  0.12501076369E+03 0.  0.
          5    1    3    3  502    0  0.11409412271E+03  0.25203605575E+02  0.55329649148E+02  0.12936827527E+03  0.47000000000E+01 0. -1.
         -5    1    3    3    0  502 -0.52325792532E+01  0.71903193671E+02  0.65982263916E+02  0.97842722249E+02  0.47000000000E+01 0. -1.
        -11    1    1    2    0    0  0.15458054994E+02 -0.10848075039E+02  0.24276812722E+02  0.30757045245E+02  0.00000000000E+00 0.  1.
         11    1    1    2    0    0 -0.12431959845E+03 -0.86258724207E+02  0.36863998857E+03  0.39848635012E+03  0.00000000000E+00 0. -1.
<mgrwt>
<rscale>  0 0.18709792E+03</rscale>
<asrwt>0</asrwt>
<pdfrwt beam="1">  1        2 0.90052544E-01 0.19211522E+03</pdfrwt>
<pdfrwt beam="2">  1       -2 0.10940437E-01 0.19211522E+03</pdfrwt>
<totfact> 0.29461743E+03</totfact>
</mgrwt>
</event>
<event>
 7    1  0.6095443E-006  0.1912386E+03  0.7546771E-02  0.1161577E+00
          1   -1    0    0  501    0  0.00000000000E+00  0.00000000000E+00  0.57302392775E+03  0.57302392775E+03  0.00000000000E+00 0. -1.
         -1   -1    0    0    0  501 -0.00000000000E+00 -0.00000000000E+00 -0.67587406050E+02  0.67587406050E+02  0.00000000000E+00 0.  1.
         23    2    1    2    0    0  0.71597660133E+01  0.14455227464E+03  0.14272452781E+03  0.23862622393E+03  0.12500224621E+03 0.  0.
          5    1    3    3  502    0  0.58958467413E+02  0.60542767348E+02  0.32669038427E+02  0.90724217437E+02  0.47000000000E+01 0.  1.
         -5    1    3    3    0  502 -0.51798701400E+02  0.84009507287E+02  0.11005548939E+03  0.14790200650E+03  0.47000000000E+01 0.  1.
        -11    1    1    2    0    0 -0.79349283364E+01  0.88877223372E+01  0.53240195036E+01  0.13049899606E+02  0.00000000000E+00 0.  1.
         11    1    1    2    0    0  0.77516232313E+00 -0.15343999697E+03  0.35738797439E+03  0.38893521026E+03  0.00000000000E+00 0. -1.
<mgrwt>
<rscale>  0 0.18658627E+03</rscale>
<asrwt>0</asrwt>
<pdfrwt beam="1">  1        1 0.88157524E-01 0.19123855E+03</pdfrwt>
<pdfrwt beam="2">  1       -1 0.10398063E-01 0.19123855E+03</pdfrwt>
<totfact> 0.21319573E+03</totfact>
</mgrwt>
</event>
<event>
 7    1  0.6095443E-006  0.1832226E+03  0.7546771E-02  0.1170119E+00
          1   -1    0    0  501    0  0.00000000000E+00  0.00000000000E+00  0.35611370824E+02  0.35611370824E+02  0.00000000000E+00 0. -1.
         -1   -1    0    0    0  501 -0.00000000000E+00 -0.00000000000E+00 -0.92703615396E+03  0.92703615396E+03  0.00000000000E+00 0.  1.
         23    2    1    2    0    0 -0.13393959795E+03 -0.20203306849E+01 -0.62123661101E+03  0.64769238897E+03  0.12500642480E+03 0.  0.
          5    1    3    3  502    0 -0.13502562889E+02 -0.50705749897E+02 -0.20267525475E+03  0.20941046098E+03  0.47000000000E+01 0. -1.
         -5    1    3    3    0  502 -0.12043703506E+03  0.48685419212E+02 -0.41856135626E+03  0.43828192800E+03  0.47000000000E+01 0. -1.
        -11    1    1    2    0    0  0.10960714494E+03 -0.24455107967E+02 -0.24916032621E+03  0.27329955485E+03  0.00000000000E+00 0.  1.
         11    1    1    2    0    0  0.24332453006E+02  0.26475438652E+02 -0.21027845924E+02  0.41655580962E+02  0.00000000000E+00 0. -1.
<mgrwt>
<rscale>  0 0.17762811E+03</rscale>
<asrwt>0</asrwt>
<pdfrwt beam="1">  1        1 0.54786729E-02 0.18322255E+03</pdfrwt>
<pdfrwt beam="2">  1       -1 0.14262093E+00 0.18322255E+03</pdfrwt>
<totfact> 0.62918616E+02</totfact>
</mgrwt>
</event>
<event>
 7    1  0.6095443E-006  0.1637132E+03  0.7546771E-02  0.1192070E+00
          1   -1    0    0  501    0  0.00000000000E+00  0.00000000000E+00  0.29892951651E+03  0.29892951651E+03  0.00000000000E+00 0. -1.
         -1   -1    0    0    0  501 -0.00000000000E+00 -0.00000000000E+00 -0.77804790505E+02  0.77804790505E+02  0.00000000000E+00 0.  1.
         23    2    1    2    0    0 -0.47955664214E+02 -0.94151522753E+02  0.94834423402E+02  0.18919719799E+03  0.12505101718E+03 0.  0.
          5    1    3    3  502    0 -0.67179048719E+01  0.30104403854E+02  0.28930650962E+02  0.42549711426E+02  0.47000000000E+01 0. -1.
         -5    1    3    3    0  502 -0.41237759342E+02 -0.12425592661E+03  0.65903772440E+02  0.14664748656E+03  0.47000000000E+01 0.  1.
        -11    1    1    2    0    0 -0.22529063990E+02  0.51551563924E+02  0.49617468557E+02  0.75013436485E+02  0.00000000000E+00 0.  1.
         11    1    1    2    0    0  0.70484728203E+02  0.42599958829E+02  0.76672834043E+02  0.11252367254E+03  0.00000000000E+00 0. -1.
<mgrwt>
<rscale>  0 0.15704878E+03</rscale>
<asrwt>0</asrwt>
<pdfrwt beam="1">  1        1 0.45989156E-01 0.16371320E+03</pdfrwt>
<pdfrwt beam="2">  1       -1 0.11969968E-01 0.16371320E+03</pdfrwt>
<totfact> 0.39381995E+03</totfact>
</mgrwt>
</event>
<event>
 7    1  0.6095443E-006  0.1907331E+03  0.7546771E-02  0.1162674E+00
         -2   -1    0    0    0  501 -0.00000000000E+00  0.00000000000E+00  0.47421629544E+03  0.47421629544E+03  0.00000000000E+00 0.  1.
          2   -1    0    0  501    0  0.00000000000E+00 -0.00000000000E+00 -0.69386560846E+02  0.69386560846E+02  0.00000000000E+00 0. -1.
         23    2    1    2    0    0  0.63750266810E+02 -0.12919402397E+03  0.24051895929E+03  0.30696656212E+03  0.12499563245E+03 0.  0.
          5    1    3    3  502    0 -0.31156117130E+02 -0.74049491083E+02  0.11151065899E+03  0.13751635478E+03  0.47000000000E+01 0.  1.
         -5    1    3    3    0  502  0.94906383939E+02 -0.55144532886E+02  0.12900830030E+03  0.16945020734E+03  0.47000000000E+01 0.  1.
        -11    1    1    2    0    0 -0.75207537707E+02  0.70327380975E+02  0.13527926023E+03  0.17000762480E+03  0.00000000000E+00 0.  1.
         11    1    1    2    0    0  0.11457270897E+02  0.58866642993E+02  0.29031515069E+02  0.66628669362E+02  0.00000000000E+00 0. -1.
<mgrwt>
<rscale>  0 0.18540302E+03</rscale>
<asrwt>0</asrwt>
<pdfrwt beam="2">  1        2 0.10674856E-01 0.19073306E+03</pdfrwt>
<pdfrwt beam="1">  1       -2 0.72956351E-01 0.19073306E+03</pdfrwt>
<totfact> 0.10183183E+03</totfact>
</mgrwt>
</event>
<event>
 7    1  0.6095443E-006  0.1255915E+03  0.7546771E-02  0.1250732E+00
         -1   -1    0    0    0  501 -0.00000000000E+00  0.00000000000E+00  0.85989123970E+03  0.85989123970E+03  0.00000000000E+00 0.  1.
          1   -1    0    0  501    0  0.00000000000E+00 -0.00000000000E+00 -0.13513521090E+02  0.13513521090E+02  0.00000000000E+00 0. -1.
         23    2    1    2    0    0 -0.12165443245E+02  0.12674810979E+01  0.51215472885E+03  0.52732883051E+03  0.12499449859E+03 0.  0.
          5    1    3    3  502    0 -0.28719271196E+02  0.58645717440E+02  0.28296545056E+03  0.29044044643E+03  0.47000000000E+01 0.  1.
         -5    1    3    3    0  502  0.16553827951E+02 -0.57378236342E+02  0.22918927830E+03  0.23688838408E+03  0.47000000000E+01 0.  1.
        -11    1    1    2    0    0 -0.34752479755E+02 -0.17970615973E+02  0.17130168645E+03  0.17571267931E+03  0.00000000000E+00 0. -1.
         11    1    1    2    0    0  0.46917923000E+02  0.16703134875E+02  0.16292130331E+03  0.17036325098E+03  0.00000000000E+00 0.  1.
<mgrwt>
<rscale>  0 0.11548776E+03</rscale>
<asrwt>0</asrwt>
<pdfrwt beam="2">  1        1 0.20790039E-02 0.12559152E+03</pdfrwt>
<pdfrwt beam="1">  1       -1 0.13229092E+00 0.12559152E+03</pdfrwt>
<totfact> 0.28632175E+03</totfact>
</mgrwt>
</event>
<event>
 7    1  0.6095443E-006  0.1421285E+03  0.7546771E-02  0.1220853E+00
          2   -1    0    0  501    0  0.00000000000E+00  0.00000000000E+00  0.31874592565E+03  0.31874592565E+03  0.00000000000E+00 0. -1.
         -2   -1    0    0    0  501 -0.00000000000E+00 -0.00000000000E+00 -0.53234315744E+02  0.53234315744E+02  0.00000000000E+00 0.  1.
         23    2    1    2    0    0  0.67518180608E+02  0.40543675746E+01  0.11357161425E+03  0.18193138468E+03  0.12500149823E+03 0.  0.
          5    1    3    3  502    0  0.81476628589E+02  0.48408328744E+02  0.83159388560E+02  0.12617203020E+03  0.47000000000E+01 0.  1.
         -5    1    3    3    0  502 -0.13958447982E+02 -0.44353961170E+02  0.30412225690E+02  0.55759354488E+02  0.47000000000E+01 0.  1.
        -11    1    1    2    0    0 -0.83068243274E+02  0.89150183553E+01  0.81337813496E+02  0.11660038807E+03  0.00000000000E+00 0.  1.
         11    1    1    2    0    0  0.15550062666E+02 -0.12969385930E+02  0.70602182156E+02  0.73448468639E+02  0.00000000000E+00 0. -1.
<mgrwt>
<rscale>  0 0.13455216E+03</rscale>
<asrwt>0</asrwt>
<pdfrwt beam="1">  1        2 0.49037833E-01 0.14212852E+03</pdfrwt>
<pdfrwt beam="2">  1       -2 0.81898950E-02 0.14212852E+03</pdfrwt>
<totfact> 0.88788396E+03</totfact>
</mgrwt>
</event>
<event>
 7    1  0.6095443E-006  0.1598412E+03  0.7546771E-02  0.1196169E+00
         -2   -1    0    0    0  501 -0.00000000000E+00  0.00000000000E+00  0.25870494177E+02  0.25870494177E+02  0.00000000000E+00 0. -1.
          2   -1    0    0  501    0  0.00000000000E+00 -0.00000000000E+00 -0.84927642874E+03  0.84927642874E+03  0.00000000000E+00 0.  1.
         23    2    1    2    0    0 -0.69540562217E+02  0.71361870735E+02 -0.42013489864E+03  0.44951368718E+03  0.12498326094E+03 0.  0.
          5    1    3    3  502    0  0.16286395360E+02  0.31984016712E+01 -0.22496614143E+03  0.22562653044E+03  0.47000000000E+01 0.  1.
         -5    1    3    3    0  502 -0.85826957577E+02  0.68163469064E+02 -0.19516875721E+03  0.22388715674E+03  0.47000000000E+01 0.  1.
        -11    1    1    2    0    0  0.37922860507E+02  0.15140162415E+02 -0.84913246933E+02  0.94221162016E+02  0.00000000000E+00 0. -1.
         11    1    1    2    0    0  0.31617701711E+02 -0.86502033150E+02 -0.31835778898E+03  0.33141207372E+03  0.00000000000E+00 0.  1.
<mgrwt>
<rscale>  0 0.15355678E+03</rscale>
<asrwt>0</asrwt>
<pdfrwt beam="2">  1        2 0.13065790E+00 0.15984124E+03</pdfrwt>
<pdfrwt beam="1">  1       -2 0.39800765E-02 0.15984124E+03</pdfrwt>
<totfact> 0.88343790E+03</totfact>
</mgrwt>
</event>
<event>
 7    1  0.6095443E-006  0.1966018E+03  0.7546771E-02  0.1157304E+00
         -2   -1    0    0    0  501 -0.00000000000E+00  0.00000000000E+00  0.57730785011E+02  0.57730785011E+02  0.00000000000E+00 0.  1.
          2   -1    0    0  501    0  0.00000000000E+00 -0.00000000000E+00 -0.88569130200E+03  0.88569130200E+03  0.00000000000E+00 0. -1.
         23    2    1    2    0    0  0.55957845271E+02  0.14105618675E+03 -0.16260641634E+03  0.25513350484E+03  0.12499652150E+03 0.  0.
          5    1    3    3  502    0  0.85735253165E+02  0.13588912496E+03 -0.11169199797E+03  0.19573855095E+03  0.47000000000E+01 0.  1.
         -5    1    3    3    0  502 -0.29777407894E+02  0.51670617821E+01 -0.50914418379E+02  0.59394953887E+02  0.47000000000E+01 0.  1.
        -11    1    1    2    0    0 -0.78575255913E+02 -0.85027300494E+02 -0.43691680433E+03  0.45199558247E+03  0.00000000000E+00 0.  1.
         11    1    1    2    0    0  0.22617410642E+02 -0.56028886253E+02 -0.22843729632E+03  0.23629299970E+03  0.00000000000E+00 0. -1.
<mgrwt>
<rscale>  0 0.19128887E+03</rscale>
<asrwt>0</asrwt>
<pdfrwt beam="2">  1        2 0.13626020E+00 0.19660178E+03</pdfrwt>
<pdfrwt beam="1">  1       -2 0.88816595E-02 0.19660178E+03</pdfrwt>
<totfact> 0.24727382E+03</totfact>
</mgrwt>
</event>
<event>
 7    1  0.6095443E-006  0.1498706E+03  0.7546771E-02  0.1209806E+00
          2   -1    0    0  501    0  0.00000000000E+00  0.00000000000E+00  0.58816958019E+03  0.58816958019E+03  0.00000000000E+00 0. -1.
         -2   -1    0    0    0  501 -0.00000000000E+00 -0.00000000000E+00 -0.37808487866E+02  0.37808487866E+02  0.00000000000E+00 0.  1.
         23    2    1    2    0    0 -0.41978882892E+02  0.71232218479E+02  0.17205991969E+03  0.22817935749E+03  0.12499979066E+03 0.  0.
          5    1    3    3  502    0 -0.82315216285E+01  0.70602906495E+02  0.17965631507E+03  0.19326409366E+03  0.47000000000E+01 0.  1.
         -5    1    3    3    0  502 -0.33747361264E+02  0.62931198381E+00 -0.75963953815E+01  0.34915263835E+02  0.47000000000E+01 0.  1.
        -11    1    1    2    0    0 -0.24963068350E+02 -0.91150219194E+01  0.14199113154E+03  0.14445663654E+03  0.00000000000E+00 0.  1.
         11    1    1    2    0    0  0.66941951242E+02 -0.62117196559E+02  0.23631004111E+03  0.25334207403E+03  0.00000000000E+00 0. -1.
<mgrwt>
<rscale>  0 0.14265091E+03</rscale>
<asrwt>0</asrwt>
<pdfrwt beam="1">  1        2 0.90487621E-01 0.14987062E+03</pdfrwt>
<pdfrwt beam="2">  1       -2 0.58166909E-02 0.14987062E+03</pdfrwt>
<totfact> 0.77354817E+03</totfact>
</mgrwt>
</event>
<event>
 7    1  0.6095443E-006  0.2079318E+03  0.7546771E-02  0.1147002E+00
          3   -1    0    0  501    0  0.00000000000E+00  0.00000000000E+00  0.31043530063E+03  0.31043530063E+03  0.00000000000E+00 0. -1.
         -3   -1    0    0    0  501 -0.00000000000E+00 -0.00000000000E+00 -0.22309737741E+03  0.22309737741E+03  0.00000000000E+00 0.  1.
         23    2    1    2    0    0 -0.56796928888E+02 -0.15615710683E+03 -0.12974289438E+03  0.24508951705E+03  0.12499887833E+03 0.  0.
          5    1    3    3  502    0 -0.67419664762E+01  0.15133017760E+02  0.85946147437E+01  0.19246291619E+02  0.47000000000E+01 0. -1.
         -5    1    3    3    0  502 -0.50054962412E+02 -0.17129012459E+03 -0.13833750913E+03  0.22584322544E+03  0.47000000000E+01 0. -1.
        -11    1    1    2    0    0  0.72653238267E+02  0.80962208821E+02  0.96276504867E+02  0.14526712525E+03  0.00000000000E+00 0. -1.
         11    1    1    2    0    0 -0.15856309378E+02  0.75194898008E+02  0.12080431274E+03  0.14317603574E+03  0.00000000000E+00 0.  1.
<mgrwt>
<rscale>  0 0.20327881E+03</rscale>
<asrwt>0</asrwt>
<pdfrwt beam="1">  1        3 0.47759277E-01 0.20793185E+03</pdfrwt>
<pdfrwt beam="2">  1       -3 0.34322674E-01 0.20793185E+03</pdfrwt>
<totfact> 0.89477530E+01</totfact>
</mgrwt>
</event>
<event>
 6    1  0.6095443E-006  0.2430176E+03  0.7546771E-02  0.1207039E+00
          2   -1    0    0  501    0  0.00000000000E+00  0.00000000000E+00  0.17207634115E+03  0.17207634115E+03  0.00000000000E+00 0. -1.
         -2   -1    0    0    0  501 -0.00000000000E+00 -0.00000000000E+00 -0.13252116580E+03  0.13252116580E+03  0.00000000000E+00 0.  1.
          5    1    1    2  502    0 -0.71056963095E+02 -0.44220763618E+02  0.76091620709E+02  0.11321039123E+03  0.47000000000E+01 0. -1.
         -5    1    1    2    0  502  0.67607615222E+02  0.65852106210E+02 -0.89538802067E+02  0.13017901753E+03  0.47000000000E+01 0.  1.
        -11    1    1    2    0    0  0.10778649678E+02 -0.93973095865E+01  0.37548163085E+02  0.40179015262E+02  0.00000000000E+00 0. -1.
         11    1    1    2    0    0 -0.73293018046E+01 -0.12234033005E+02  0.15454193624E+02  0.21029082935E+02  0.00000000000E+00 0.  1.
<mgrwt>
<rscale>  0 0.14477925E+03</rscale>
<asrwt>0</asrwt>
<pdfrwt beam="1">  1        2 0.26473283E-01 0.24301765E+03</pdfrwt>
<pdfrwt beam="2">  1       -2 0.20387872E-01 0.24301765E+03</pdfrwt>
<totfact> 0.40544213E+03</totfact>
</mgrwt>
</event>
<event>
 7    1  0.6095443E-006  0.1404664E+03  0.7546771E-02  0.1222924E+00
          1   -1    0    0  501    0  0.00000000000E+00  0.00000000000E+00  0.21193196328E+02  0.21193196328E+02  0.00000000000E+00 0. -1.
         -1   -1    0    0    0  501 -0.00000000000E+00 -0.00000000000E+00 -0.76074179715E+03  0.76074179715E+03  0.00000000000E+00 0.  1.
         23    2    1    2    0    0  0.34125977410E+02 -0.54233907961E+02 -0.39256596152E+03  0.41693984313E+03  0.12499959814E+03 0.  0.
          5    1    3    3  502    0  0.81648763106E+01  0.32990692531E+02 -0.21118671162E+03  0.21395552847E+03  0.47000000000E+01 0. -1.
         -5    1    3    3    0  502  0.25961101100E+02 -0.87224600491E+02 -0.18137924991E+03  0.20298431466E+03  0.47000000000E+01 0. -1.
        -11    1    1    2    0    0 -0.59803882096E+02  0.26588945056E+02 -0.28511130966E+03  0.29252681109E+03  0.00000000000E+00 0.  1.
         11    1    1    2    0    0  0.25677904686E+02  0.27644962905E+02 -0.61871329637E+02  0.72468339253E+02  0.00000000000E+00 0. -1.
<mgrwt>
<rscale>  0 0.13310193E+03</rscale>
<asrwt>0</asrwt>
<pdfrwt beam="1">  1        1 0.32604923E-02 0.14046636E+03</pdfrwt>
<pdfrwt beam="2">  1       -1 0.11703718E+00 0.14046636E+03</pdfrwt>
<totfact> 0.20664084E+03</totfact>
</mgrwt>
</event>
<event>
 7    1  0.6095443E-006  0.1315562E+03  0.7546771E-02  0.1238507E+00
          2   -1    0    0  501    0  0.00000000000E+00  0.00000000000E+00  0.92391522085E+02  0.92391522085E+02  0.00000000000E+00 0.  1.
         -2   -1    0    0    0  501 -0.00000000000E+00 -0.00000000000E+00 -0.62313223133E+03  0.62313223133E+03  0.00000000000E+00 0. -1.
         23    2    1    2    0    0 -0.67586550710E+01  0.40449511743E+02 -0.58649432140E+03  0.60106790973E+03  0.12500080262E+03 0.  0.
          5    1    3    3  502    0 -0.59277544141E+02  0.12939930562E+02 -0.17458544655E+03  0.18488763396E+03  0.47000000000E+01 0. -1.
         -5    1    3    3    0  502  0.52518889070E+02  0.27509581181E+02 -0.41190887485E+03  0.41618027577E+03  0.47000000000E+01 0. -1.
        -11    1    1    2    0    0  0.28725364869E+02 -0.52677701981E+02  0.64257775752E+02  0.87915576648E+02  0.00000000000E+00 0.  1.
         11    1    1    2    0    0 -0.21966709798E+02  0.12228190238E+02 -0.85041635981E+01  0.26540267036E+02  0.00000000000E+00 0. -1.
<mgrwt>
<rscale>  0 0.12282545E+03</rscale>
<asrwt>0</asrwt>
<pdfrwt beam="1">  1        2 0.14214080E-01 0.13155624E+03</pdfrwt>
<pdfrwt beam="2">  1       -2 0.95866497E-01 0.13155624E+03</pdfrwt>
<totfact> 0.39027619E+02</totfact>
</mgrwt>
</event>
<event>
 7    1  0.6095443E-006  0.3385968E+03  0.7546771E-02  0.1068555E+00
          1   -1    0    0  501    0  0.00000000000E+00  0.00000000000E+00  0.91646607874E+03  0.91646607874E+03  0.00000000000E+00 0. -1.
         -1   -1    0    0    0  501 -0.00000000000E+00 -0.00000000000E+00 -0.14004196779E+03  0.14004196779E+03  0.00000000000E+00 0.  1.
         23    2    1    2    0    0  0.22430898650E+03 -0.22070616661E+03  0.19980693713E+03  0.39315470148E+03  0.12498829450E+03 0.  0.
          5    1    3    3  502    0  0.21964708920E+03 -0.23101141170E+03  0.20586383364E+03  0.37949061138E+03  0.47000000000E+01 0.  1.
         -5    1    3    3    0  502  0.46618973041E+01  0.10305245086E+02 -0.60568965086E+01  0.13664090093E+02  0.47000000000E+01 0.  1.
        -11    1    1    2    0    0 -0.12840474054E+03  0.10087714822E+03  0.21082768337E+03  0.26666887426E+03  0.00000000000E+00 0.  1.
         11    1    1    2    0    0 -0.95904245957E+02  0.11982901839E+03  0.36578949045E+03  0.39668447079E+03  0.00000000000E+00 0. -1.
<mgrwt>
<rscale>  0 0.33590279E+03</rscale>
<asrwt>0</asrwt>
<pdfrwt beam="1">  1        1 0.14099478E+00 0.33859682E+03</pdfrwt>
<pdfrwt beam="2">  1       -1 0.21544919E-01 0.33859682E+03</pdfrwt>
<totfact> 0.33059836E+02</totfact>
</mgrwt>
</event>
<event>
 7    1  0.6095443E-006  0.1438867E+03  0.7546771E-02  0.1218328E+00
         -2   -1    0    0    0  501 -0.00000000000E+00  0.00000000000E+00  0.18674660720E+03  0.18674660720E+03  0.00000000000E+00 0.  1.
          2   -1    0    0  501    0  0.00000000000E+00 -0.00000000000E+00 -0.93159020236E+02  0.93159020236E+02  0.00000000000E+00 0. -1.
         23    2    1    2    0    0 -0.26857851237E+02 -0.66007315724E+02  0.27860072806E+02  0.14655905401E+03  0.12500025101E+03 0.  0.
          5    1    3    3  502    0 -0.50715318168E+02 -0.13204031132E+02  0.60266704892E+02  0.80003472759E+02  0.47000000000E+01 0.  1.
         -5    1    3    3    0  502  0.23857466931E+02 -0.52803284592E+02 -0.32406632086E+02  0.66555581248E+02  0.47000000000E+01 0.  1.
        -11    1    1    2    0    0  0.58122382304E+02  0.47628537700E+02  0.60973109647E+02  0.96769876657E+02  0.00000000000E+00 0.  1.
         11    1    1    2    0    0 -0.31264531067E+02  0.18378778025E+02  0.47544045100E+01  0.36576696772E+02  0.00000000000E+00 0. -1.
<mgrwt>
<rscale>  0 0.13634867E+03</rscale>
<asrwt>0</asrwt>
<pdfrwt beam="2">  1        2 0.14332157E-01 0.14388667E+03</pdfrwt>
<pdfrwt beam="1">  1       -2 0.28730247E-01 0.14388667E+03</pdfrwt>
<totfact> 0.43665965E+03</totfact>
</mgrwt>
</event>
<event>
 7    1  0.6095443E-006  0.1487830E+03  0.7546771E-02  0.1210867E+00
          2   -1    0    0  501    0  0.00000000000E+00  0.00000000000E+00  0.56700519311E+03  0.56700519311E+03  0.00000000000E+00 0.  1.
         -2   -1    0    0    0  501 -0.00000000000E+00 -0.00000000000E+00 -0.32548266789E+02  0.32548266789E+02  0.00000000000E+00 0. -1.
         23    2    1    2    0    0  0.76097809638E+02  0.26837375182E+02  0.29171116642E+03  0.32746265463E+03  0.12500105690E+03 0.  0.
          5    1    3    3  502    0  0.62297454184E+01  0.61210546999E+02  0.18680179782E+03  0.19672961765E+03  0.47000000000E+01 0. -1.
         -5    1    3    3    0  502  0.69868064219E+02 -0.34373171817E+02  0.10490936860E+03  0.13073303698E+03  0.47000000000E+01 0. -1.
        -11    1    1    2    0    0 -0.86342641617E+02 -0.21677456171E+01  0.22218495249E+03  0.23838184494E+03  0.00000000000E+00 0. -1.
         11    1    1    2    0    0  0.10244831980E+02 -0.24669629565E+02  0.20560807414E+02  0.33708960332E+02  0.00000000000E+00 0.  1.
<mgrwt>
<rscale>  0 0.14184549E+03</rscale>
<asrwt>0</asrwt>
<pdfrwt beam="1">  1        2 0.87231561E-01 0.14878302E+03</pdfrwt>
<pdfrwt beam="2">  1       -2 0.50074261E-02 0.14878302E+03</pdfrwt>
<totfact> 0.10106898E+04</totfact>
</mgrwt>
</event>
<event>
 7    1  0.6095443E-006  0.1902606E+03  0.7546771E-02  0.1163183E+00
         -2   -1    0    0    0  501 -0.00000000000E+00  0.00000000000E+00  0.89812467141E+02  0.89812467141E+02  0.00000000000E+00 0. -1.
          2   -1    0    0  501    0  0.00000000000E+00 -0.00000000000E+00 -0.42298107527E+03  0.42298107527E+03  0.00000000000E+00 0.  1.
         23    2    1    2    0    0 -0.80644882604E+02  0.11861704957E+03 -0.76248875126E+02  0.20497066581E+03  0.12500192536E+03 0.  0.
          5    1    3    3  502    0 -0.70930455897E+02  0.52657690440E+02 -0.10048304812E+03  0.13387641650E+03  0.47000000000E+01 0. -1.
         -5    1    3    3    0  502 -0.97144267071E+01  0.65959359132E+02  0.24234172993E+02  0.71094249304E+02  0.47000000000E+01 0. -1.
        -11    1    1    2    0    0  0.17538039662E+02  0.13070702633E+02 -0.49892102169E+02  0.54476122855E+02  0.00000000000E+00 0.  1.
         11    1    1    2    0    0  0.63106842942E+02 -0.13168775221E+03 -0.20702763083E+03  0.25334675375E+03  0.00000000000E+00 0. -1.
<mgrwt>
<rscale>  0 0.18485703E+03</rscale>
<asrwt>0</asrwt>
<pdfrwt beam="2">  1        2 0.65074011E-01 0.19026057E+03</pdfrwt>
<pdfrwt beam="1">  1       -2 0.13817303E-01 0.19026057E+03</pdfrwt>
<totfact> 0.29009252E+03</totfact>
</mgrwt>
</event>
<event>
 7    1  0.6095443E-006  0.1297758E+03  0.7546771E-02  0.1242877E+00
         -1   -1    0    0    0  501 -0.00000000000E+00  0.00000000000E+00  0.18323042364E+03  0.18323042364E+03  0.00000000000E+00 0.  1.
          1   -1    0    0  501    0  0.00000000000E+00 -0.00000000000E+00 -0.72119746579E+02  0.72119746579E+02  0.00000000000E+00 0. -1.
         23    2    1    2    0    0  0.30883235394E+02  0.16241349412E+02  0.89467650313E+02  0.15762681699E+03  0.12499678925E+03 0.  0.
          5    1    3    3  502    0 -0.26330796670E+02  0.47782224394E+02  0.70824279453E+02  0.89524412209E+02  0.47000000000E+01 0.  1.
         -5    1    3    3    0  502  0.57214032064E+02 -0.31540874982E+02  0.18643370860E+02  0.68102404779E+02  0.47000000000E+01 0.  1.
        -11    1    1    2    0    0  0.13489982845E+02 -0.29736129751E+02  0.36545537290E+02  0.49008094694E+02  0.00000000000E+00 0.  1.
         11    1    1    2    0    0 -0.44373218239E+02  0.13494780338E+02 -0.14902510546E+02  0.48715258532E+02  0.00000000000E+00 0. -1.
<mgrwt>
<rscale>  0 0.12013361E+03</rscale>
<asrwt>0</asrwt>
<pdfrwt beam="2">  1        1 0.11095346E-01 0.12977578E+03</pdfrwt>
<pdfrwt beam="1">  1       -1 0.28189296E-01 0.12977578E+03</pdfrwt>
<totfact> 0.60011240E+03</totfact>
</mgrwt>
</event>
<event>
 7    1  0.6095443E-006  0.1257193E+03  0.7546771E-02  0.1250782E+00
         -2   -1    0    0    0  501 -0.00000000000E+00  0.00000000000E+00  0.14562083738E+03  0.14562083738E+03  0.00000000000E+00 0.  1.
          2   -1    0    0  501    0  0.00000000000E+00 -0.00000000000E+00 -0.79997113502E+02  0.79997113502E+02  0.00000000000E+00 0. -1.
         23    2    1    2    0    0  0.10147173121E+02 -0.87745824189E+01  0.47314921736E+02  0.13432814428E+03  0.12500156042E+03 0.  0.
          5    1    3    3  502    0  0.43845454485E+02 -0.38948460336E+02  0.63021015543E+02  0.86215687909E+02  0.47000000000E+01 0.  1.
         -5    1    3    3    0  502 -0.33698281364E+02  0.30173877917E+02 -0.15706093808E+02  0.48112456372E+02  0.47000000000E+01 0.  1.
        -11    1    1    2    0    0  0.32708457907E+01  0.21108496958E+02 -0.31608576186E+02  0.38149300971E+02  0.00000000000E+00 0. -1.
         11    1    1    2    0    0 -0.13418018911E+02 -0.12333914540E+02  0.49917378325E+02  0.53140505626E+02  0.00000000000E+00 0.  1.
<mgrwt>
<rscale>  0 0.11545916E+03</rscale>
<asrwt>0</asrwt>
<pdfrwt beam="2">  1        2 0.12307248E-01 0.12571932E+03</pdfrwt>
<pdfrwt beam="1">  1       -2 0.22403206E-01 0.12571932E+03</pdfrwt>
<totfact> 0.80093038E+03</totfact>
</mgrwt>
</event>
<event>
 7    1  0.6095443E-006  0.1270785E+03  0.7546771E-02  0.1246650E+00
          3   -1    0    0  501    0  0.00000000000E+00  0.00000000000E+00  0.12370044099E+03  0.12370044099E+03  0.00000000000E+00 0. -1.
         -3   -1    0    0    0  501 -0.00000000000E+00 -0.00000000000E+00 -0.13553229341E+03  0.13553229341E+03  0.00000000000E+00 0.  1.
         23    2    1    2    0    0  0.21240906036E+02 -0.85392454358E+01 -0.73455110390E+02  0.14678079760E+03  0.12499941799E+03 0.  0.
          5    1    3    3  502    0  0.70260086795E+02  0.14120126905E+00 -0.19179084521E+02  0.72982374704E+02  0.47000000000E+01 0. -1.
         -5    1    3    3    0  502 -0.49019180759E+02 -0.86804467049E+01 -0.54276025869E+02  0.73798422892E+02  0.47000000000E+01 0. -1.
        -11    1    1    2    0    0 -0.11477220940E+02 -0.21959647798E+02  0.74062346859E+02  0.78097272387E+02  0.00000000000E+00 0.  1.
         11    1    1    2    0    0 -0.97636850960E+01  0.30498893233E+02 -0.12439088893E+02  0.34354664423E+02  0.00000000000E+00 0. -1.
<mgrwt>
<rscale>  0 0.11787177E+03</rscale>
<asrwt>0</asrwt>
<pdfrwt beam="1">  1        3 0.19030837E-01 0.12707852E+03</pdfrwt>
<pdfrwt beam="2">  1       -3 0.20851122E-01 0.12707852E+03</pdfrwt>
<totfact> 0.11631721E+03</totfact>
</mgrwt>
</event>
<event>
 7    1  0.6095443E-006  0.1239730E+03  0.7546771E-02  0.1248153E+00
          1   -1    0    0  501    0  0.00000000000E+00  0.00000000000E+00  0.91387587161E+02  0.91387587161E+02  0.00000000000E+00 0. -1.
         -1   -1    0    0    0  501 -0.00000000000E+00 -0.00000000000E+00 -0.19532576207E+03  0.19532576207E+03  0.00000000000E+00 0.  1.
         23    2    1    2    0    0 -0.12160256143E+02  0.32858853188E+02 -0.13532015474E+03  0.18352341287E+03  0.11891897548E+03 0.  0.
          5    1    3    3  502    0  0.20251733242E+01 -0.30362494246E+02  0.27704674306E+01  0.30915172224E+02  0.47000000000E+01 0. -1.
         -5    1    3    3    0  502 -0.14185429468E+02  0.63221347435E+02 -0.13809062218E+03  0.15260824065E+03  0.47000000000E+01 0.  1.
        -11    1    1    2    0    0 -0.31848609271E+02  0.11625041856E+02  0.17375595905E+01  0.33948411215E+02  0.00000000000E+00 0.  1.
         11    1    1    2    0    0  0.44008865415E+02 -0.44483895044E+02  0.29644420241E+02  0.69241525148E+02  0.00000000000E+00 0. -1.
<mgrwt>
<rscale>  0 0.11698661E+03</rscale>
<asrwt>0</asrwt>
<pdfrwt beam="1">  1        1 0.14059629E-01 0.12397298E+03</pdfrwt>
<pdfrwt beam="2">  1       -1 0.30050117E-01 0.12397298E+03</pdfrwt>
<totfact> 0.39463569E+03</totfact>
</mgrwt>
</event>
<event>
 7    1  0.6095443E-006  0.1406054E+03  0.7546771E-02  0.1222230E+00
          1   -1    0    0  501    0  0.00000000000E+00  0.00000000000E+00  0.75091870720E+03  0.75091870720E+03  0.00000000000E+00 0. -1.
         -1   -1    0    0    0  501 -0.00000000000E+00 -0.00000000000E+00 -0.21848679929E+02  0.21848679929E+02  0.00000000000E+00 0.  1.
         23    2    1    2    0    0 -0.28435001281E+02 -0.57765595657E+02  0.36735375969E+03  0.39334294302E+03  0.12499789087E+03 0.  0.
          5    1    3    3  502    0 -0.28802351934E+02 -0.25556020316E+02  0.35711830850E+03  0.35921896096E+03  0.47000000000E+01 0. -1.
         -5    1    3    3    0  502  0.36735065305E+00 -0.32209575342E+02  0.10235451196E+02  0.34123982056E+02  0.47000000000E+01 0. -1.
        -11    1    1    2    0    0 -0.16959691609E+02  0.65347575820E+02  0.23935208640E+03  0.24869129070E+03  0.00000000000E+00 0. -1.
         11    1    1    2    0    0  0.45394692891E+02 -0.75819801630E+01  0.12236418118E+03  0.13073315341E+03  0.00000000000E+00 0.  1.
<mgrwt>
<rscale>  0 0.13358598E+03</rscale>
<asrwt>0</asrwt>
<pdfrwt beam="1">  1        1 0.11552593E+00 0.14060543E+03</pdfrwt>
<pdfrwt beam="2">  1       -1 0.33613360E-02 0.14060543E+03</pdfrwt>
<totfact> 0.78085246E+03</totfact>
</mgrwt>
</event>
<event>
 7    1  0.6095443E-006  0.1909869E+03  0.7546771E-02  0.1162059E+00
         -1   -1    0    0    0  501 -0.00000000000E+00  0.00000000000E+00  0.58756551394E+02  0.58756551394E+02  0.00000000000E+00 0.  1.
          1   -1    0    0  501    0  0.00000000000E+00 -0.00000000000E+00 -0.61254286204E+03  0.61254286204E+03  0.00000000000E+00 0. -1.
         23    2    1    2    0    0 -0.14305207140E+03  0.19650308033E+02 -0.19265241857E+03  0.27127654871E+03  0.12500392698E+03 0.  0.
          5    1    3    3  502    0 -0.75788575536E+02  0.47841938675E+02 -0.32879663125E+02  0.95582014653E+02  0.47000000000E+01 0.  1.
         -5    1    3    3    0  502 -0.67263495864E+02 -0.28191630642E+02 -0.15977275544E+03  0.17569453405E+03  0.47000000000E+01 0.  1.
        -11    1    1    2    0    0  0.45103196319E+02 -0.40281304377E+02 -0.21165336887E+03  0.22012276201E+03  0.00000000000E+00 0. -1.
         11    1    1    2    0    0  0.97948875081E+02  0.20630996344E+02 -0.14948052321E+03  0.17990010272E+03  0.00000000000E+00 0.  1.
<mgrwt>
<rscale>  0 0.18606527E+03</rscale>
<asrwt>0</asrwt>
<pdfrwt beam="2">  1        1 0.94237360E-01 0.19098694E+03</pdfrwt>
<pdfrwt beam="1">  1       -1 0.90394698E-02 0.19098694E+03</pdfrwt>
<totfact> 0.24122726E+03</totfact>
</mgrwt>
</event>
<event>
 6    1  0.6095443E-006  0.1312583E+03  0.7546771E-02  0.1241211E+00
          2   -1    0    0  501    0  0.00000000000E+00  0.00000000000E+00  0.15519000467E+03  0.15519000467E+03  0.00000000000E+00 0. -1.
         -2   -1    0    0    0  501 -0.00000000000E+00 -0.00000000000E+00 -0.36445108654E+03  0.36445108654E+03  0.00000000000E+00 0.  1.
          5    1    1    2  502    0 -0.27081768635E+02  0.55064503485E+02 -0.81632720988E+02  0.10223264093E+03  0.47000000000E+01 0. -1.
         -5    1    1    2    0  502  0.46104445176E+01 -0.45476441999E+02 -0.25457755653E+03  0.25869129337E+03  0.47000000000E+01 0.  1.
        -11    1    1    2    0    0 -0.33962839361E+02  0.65280830656E+01  0.63351769731E+02  0.72177122789E+02  0.00000000000E+00 0.  1.
         11    1    1    2    0    0  0.56434163478E+02 -0.16116144551E+02  0.63597425910E+02  0.86540034118E+02  0.00000000000E+00 0. -1.
<mgrwt>
<rscale>  0 0.12115074E+03</rscale>
<asrwt>0</asrwt>
<pdfrwt beam="1">  1        2 0.23875385E-01 0.13125828E+03</pdfrwt>
<pdfrwt beam="2">  1       -2 0.56069398E-01 0.13125828E+03</pdfrwt>
<totfact> 0.68261111E+02</totfact>
</mgrwt>
</event>
<event>
 7    1  0.6095443E-006  0.2038387E+03  0.7546771E-02  0.1151010E+00
         -1   -1    0    0    0  501 -0.00000000000E+00  0.00000000000E+00  0.23211594203E+02  0.23211594203E+02  0.00000000000E+00 0.  1.
          1   -1    0    0  501    0  0.00000000000E+00 -0.00000000000E+00 -0.16253546914E+04  0.16253546914E+04  0.00000000000E+00 0. -1.
         23    2    1    2    0    0  0.15933194565E+03  0.23201031322E+02 -0.77546904963E+03  0.80181198165E+03  0.12500100093E+03 0.  0.
          5    1    3    3  502    0  0.14196172822E+03  0.22815202966E+02 -0.38615098298E+03  0.41207807200E+03  0.47000000000E+01 0. -1.
         -5    1    3    3    0  502  0.17370217432E+02  0.38582835591E+00 -0.38931806664E+03  0.38973390965E+03  0.47000000000E+01 0. -1.
        -11    1    1    2    0    0 -0.22360207947E+01  0.19612304494E+02 -0.11586635873E+03  0.11753576205E+03  0.00000000000E+00 0. -1.
         11    1    1    2    0    0 -0.15709592485E+03 -0.42813335816E+02 -0.71080768880E+03  0.72921854186E+03  0.00000000000E+00 0.  1.
<mgrwt>
<rscale>  0 0.19850068E+03</rscale>
<asrwt>0</asrwt>
<pdfrwt beam="2">  1        1 0.25005457E+00 0.20383868E+03</pdfrwt>
<pdfrwt beam="1">  1       -1 0.35710144E-02 0.20383868E+03</pdfrwt>
<totfact> 0.17257549E+03</totfact>
</mgrwt>
</event>
<event>
 7    1  0.6095443E-006  0.1768546E+03  0.7546771E-02  0.1177344E+00
         -2   -1    0    0    0  501 -0.00000000000E+00  0.00000000000E+00  0.50316738976E+02  0.50316738976E+02  0.00000000000E+00 0. -1.
          2   -1    0    0  501    0  0.00000000000E+00 -0.00000000000E+00 -0.73263555208E+03  0.73263555208E+03  0.00000000000E+00 0.  1.
         23    2    1    2    0    0  0.11764818602E+03  0.42558391481E+02 -0.15905028706E+03  0.23785403444E+03  0.12500094210E+03 0.  0.
          5    1    3    3  502    0  0.77864796128E+02  0.53238890262E+02 -0.25224267408E+02  0.97753054063E+02  0.47000000000E+01 0. -1.
         -5    1    3    3    0  502  0.39783389888E+02 -0.10680498781E+02 -0.13382601966E+03  0.14010098038E+03  0.47000000000E+01 0. -1.
        -11    1    1    2    0    0  0.12664624069E+01 -0.26757512474E+02 -0.48466973850E+02  0.55377034546E+02  0.00000000000E+00 0. -1.
         11    1    1    2    0    0 -0.11891464842E+03 -0.15800879006E+02 -0.47480155219E+03  0.48972122207E+03  0.00000000000E+00 0.  1.
<mgrwt>
<rscale>  0 0.17048389E+03</rscale>
<asrwt>0</asrwt>
<pdfrwt beam="2">  1        2 0.11271316E+00 0.17685460E+03</pdfrwt>
<pdfrwt beam="1">  1       -2 0.77410366E-02 0.17685460E+03</pdfrwt>
<totfact> 0.38847181E+03</totfact>
</mgrwt>
</event>
<event>
 7    1  0.6095443E-006  0.1815469E+03  0.7546771E-02  0.1179103E+00
          1   -1    0    0  501    0  0.00000000000E+00  0.00000000000E+00  0.16192559096E+03  0.16192559096E+03  0.00000000000E+00 0. -1.
         -1   -1    0    0    0  501 -0.00000000000E+00 -0.00000000000E+00 -0.15652112740E+03  0.15652112740E+03  0.00000000000E+00 0.  1.
         23    2    1    2    0    0 -0.12615680156E+03 -0.37647203621E+02 -0.10381452510E+02  0.18184343162E+03  0.12500563405E+03 0.  0.
          5    1    3    3  502    0 -0.14667123989E+02 -0.58420646616E+02 -0.28669146860E+02  0.66873809962E+02  0.47000000000E+01 0.  1.
         -5    1    3    3    0  502 -0.11148967757E+03  0.20773442995E+02  0.18287694351E+02  0.11496962165E+03  0.47000000000E+01 0.  1.
        -11    1    1    2    0    0  0.35075917366E+02  0.10474070285E+02  0.19512995331E+02  0.41482322912E+02  0.00000000000E+00 0. -1.
         11    1    1    2    0    0  0.91080884193E+02  0.27173133336E+02 -0.37270792694E+01  0.95120963834E+02  0.00000000000E+00 0.  1.
<mgrwt>
<rscale>  0 0.16880177E+03</rscale>
<asrwt>0</asrwt>
<pdfrwt beam="1">  1        1 0.24911629E-01 0.18154685E+03</pdfrwt>
<pdfrwt beam="2">  1       -1 0.24080174E-01 0.18154685E+03</pdfrwt>
<totfact> 0.27941039E+03</totfact>
</mgrwt>
</event>
<event>
 7    1  0.6095443E-006  0.1851262E+03  0.7546771E-02  0.1167762E+00
         -1   -1    0    0    0  501 -0.00000000000E+00  0.00000000000E+00  0.55075935498E+02  0.55075935498E+02  0.00000000000E+00 0.  1.
          1   -1    0    0  501    0  0.00000000000E+00 -0.00000000000E+00 -0.65792177451E+03  0.65792177451E+03  0.00000000000E+00 0. -1.
         23    2    1    2    0    0  0.11085850112E+03  0.79802666409E+02 -0.17718559855E+03  0.25625463014E+03  0.12495449690E+03 0.  0.
          5    1    3    3  502    0  0.60974841520E+02 -0.23420573184E+02 -0.37422629390E+02  0.75425444892E+02  0.47000000000E+01 0.  1.
         -5    1    3    3    0  502  0.49883659601E+02  0.10322323959E+03 -0.13976296916E+03  0.18082918524E+03  0.47000000000E+01 0.  1.
        -11    1    1    2    0    0 -0.73843368039E+02 -0.33068021942E+02 -0.11620746197E+03  0.14159982802E+03  0.00000000000E+00 0.  1.
         11    1    1    2    0    0 -0.37015133082E+02 -0.46734644467E+02 -0.30945277849E+03  0.31514325185E+03  0.00000000000E+00 0. -1.
<mgrwt>
<rscale>  0 0.18004221E+03</rscale>
<asrwt>0</asrwt>
<pdfrwt beam="2">  1        1 0.10121874E+00 0.18512617E+03</pdfrwt>
<pdfrwt beam="1">  1       -1 0.84732205E-02 0.18512617E+03</pdfrwt>
<totfact> 0.24073301E+03</totfact>
</mgrwt>
</event>
<event>
 7    1  0.6095443E-006  0.1323738E+03  0.7546771E-02  0.1238874E+00
         -1   -1    0    0    0  501 -0.00000000000E+00  0.00000000000E+00  0.32826893817E+03  0.32826893817E+03  0.00000000000E+00 0.  1.
          1   -1    0    0  501    0  0.00000000000E+00 -0.00000000000E+00 -0.41116803637E+02  0.41116803637E+02  0.00000000000E+00 0. -1.
         23    2    1    2    0    0 -0.71711919264E+01  0.42961029835E+02  0.19216564990E+03  0.23334621774E+03  0.12500297699E+03 0.  0.
          5    1    3    3  502    0  0.50179258830E+02  0.24292683124E+02  0.37721036814E+02  0.67476359479E+02  0.47000000000E+01 0.  1.
         -5    1    3    3    0  502 -0.57350450757E+02  0.18668346711E+02  0.15444461308E+03  0.16586985826E+03  0.47000000000E+01 0.  1.
        -11    1    1    2    0    0  0.26957169998E+02  0.16307669861E+02  0.49797391643E+02  0.58927152698E+02  0.00000000000E+00 0.  1.
         11    1    1    2    0    0 -0.19785978072E+02 -0.59268699696E+02  0.45189092991E+02  0.77112371363E+02  0.00000000000E+00 0. -1.
<mgrwt>
<rscale>  0 0.12259628E+03</rscale>
<asrwt>0</asrwt>
<pdfrwt beam="2">  1        1 0.63256623E-02 0.13237379E+03</pdfrwt>
<pdfrwt beam="1">  1       -1 0.50502912E-01 0.13237379E+03</pdfrwt>
<totfact> 0.46203227E+03</totfact>
</mgrwt>
</event>
<event>
 7    1  0.6095443E-006  0.1708446E+03  0.7546771E-02  0.1183154E+00
         -1   -1    0    0    0  501 -0.00000000000E+00  0.00000000000E+00  0.10835937254E+03  0.10835937254E+03  0.00000000000E+00 0.  1.
          1   -1    0    0  501    0  0.00000000000E+00 -0.00000000000E+00 -0.25977083780E+03  0.25977083780E+03  0.00000000000E+00 0. -1.
         23    2    1    2    0    0 -0.11564954458E+03  0.13693416927E+02 -0.24376485506E+02  0.17257483473E+03  0.12500213481E+03 0.  0.
          5    1    3    3  502    0 -0.12053227321E+03  0.23888721670E+02 -0.58608558854E+02  0.13621950330E+03  0.47000000000E+01 0. -1.
         -5    1    3    3    0  502  0.48827286275E+01 -0.10195304743E+02  0.34232073348E+02  0.36355331430E+02  0.47000000000E+01 0. -1.
        -11    1    1    2    0    0  0.77224706936E+02  0.28408616927E+02 -0.10733624854E+03  0.13524708917E+03  0.00000000000E+00 0. -1.
         11    1    1    2    0    0  0.38424837645E+02 -0.42102033854E+02 -0.19698731205E+02  0.60308286444E+02  0.00000000000E+00 0.  1.
<mgrwt>
<rscale>  0 0.16500981E+03</rscale>
<asrwt>0</asrwt>
<pdfrwt beam="2">  1        1 0.39964744E-01 0.17084455E+03</pdfrwt>
<pdfrwt beam="1">  1       -1 0.16670673E-01 0.17084455E+03</pdfrwt>
<totfact> 0.27942810E+03</totfact>
</mgrwt>
</event>
<event>
 7    1  0.6095443E-006  0.1666300E+03  0.7546771E-02  0.1185042E+00
         -1   -1    0    0    0  501 -0.00000000000E+00  0.00000000000E+00  0.12185954779E+03  0.12185954779E+03  0.00000000000E+00 0.  1.
          1   -1    0    0  501    0  0.00000000000E+00 -0.00000000000E+00 -0.23370686428E+03  0.23370686428E+03  0.00000000000E+00 0. -1.
         23    2    1    2    0    0  0.98079859530E+02 -0.75798167436E+02 -0.18904700630E+01  0.16664076539E+03  0.11135775582E+03 0.  0.
          5    1    3    3  502    0  0.18159976692E+02  0.66617457159E+01 -0.40722786272E+02  0.45327683938E+02  0.47000000000E+01 0. -1.
         -5    1    3    3    0  502  0.79919882838E+02 -0.82459913151E+02  0.38832316209E+02  0.12131308145E+03  0.47000000000E+01 0.  1.
        -11    1    1    2    0    0 -0.19725296744E+02  0.37041481197E+02  0.73757140652E+01  0.42609386511E+02  0.00000000000E+00 0.  1.
         11    1    1    2    0    0 -0.78354562787E+02  0.38756686238E+02 -0.11733256049E+03  0.14631626016E+03  0.00000000000E+00 0. -1.
<mgrwt>
<rscale>  0 0.16328056E+03</rscale>
<asrwt>0</asrwt>
<pdfrwt beam="2">  1        1 0.35954902E-01 0.16663004E+03</pdfrwt>
<pdfrwt beam="1">  1       -1 0.18747623E-01 0.16663004E+03</pdfrwt>
<totfact> 0.26401173E+03</totfact>
</mgrwt>
</event>
<event>
 6    1  0.6095443E-006  0.2004301E+03  0.7546771E-02  0.1176424E+00
         -1   -1    0    0    0  501 -0.00000000000E+00  0.00000000000E+00  0.25950434184E+02  0.25950434184E+02  0.00000000000E+00 0.  1.
          1   -1    0    0  501    0  0.00000000000E+00 -0.00000000000E+00 -0.98788898224E+03  0.98788898224E+03  0.00000000000E+00 0. -1.
          5    1    1    2  502    0  0.80226625504E+02  0.96729627887E+01 -0.16867995875E+03  0.18709595434E+03  0.47000000000E+01 0. -1.
         -5    1    1    2    0  502 -0.11328345966E+03  0.34000096572E+02 -0.31181655689E+03  0.33352781586E+03  0.47000000000E+01 0.  1.
        -11    1    1    2    0    0 -0.32123436531E+02 -0.15872959859E+02 -0.14145241362E+03  0.14592001695E+03  0.00000000000E+00 0.  1.
         11    1    1    2    0    0  0.65180270684E+02 -0.27800099501E+02 -0.33998961880E+03  0.34729562927E+03  0.00000000000E+00 0. -1.
<mgrwt>
<rscale>  0 0.17137299E+03</rscale>
<asrwt>0</asrwt>
<pdfrwt beam="2">  1        1 0.15198291E+00 0.20043006E+03</pdfrwt>
<pdfrwt beam="1">  1       -1 0.39923749E-02 0.20043006E+03</pdfrwt>
<totfact> 0.39933000E+03</totfact>
</mgrwt>
</event>
<event>
 7    1  0.6095443E-006  0.1360913E+03  0.7546771E-02  0.1231352E+00
          3   -1    0    0  501    0  0.00000000000E+00  0.00000000000E+00  0.56841394179E+02  0.56841394179E+02  0.00000000000E+00 0. -1.
         -3   -1    0    0    0  501 -0.00000000000E+00 -0.00000000000E+00 -0.26234799369E+03  0.26234799369E+03  0.00000000000E+00 0.  1.
         23    2    1    2    0    0 -0.39194754119E+02  0.36877041935E+02 -0.88780227232E+02  0.16248930870E+03  0.12499880688E+03 0.  0.
          5    1    3    3  502    0 -0.50090055485E+02 -0.13370147215E+02  0.81268858272E+01  0.52686912685E+02  0.47000000000E+01 0.  1.
         -5    1    3    3    0  502  0.10895301366E+02  0.50247189150E+02 -0.96907113060E+02  0.10980239602E+03  0.47000000000E+01 0.  1.
        -11    1    1    2    0    0 -0.27395197127E+02 -0.24102902727E+02 -0.35727460761E+02  0.51067584611E+02  0.00000000000E+00 0.  1.
         11    1    1    2    0    0  0.66589951246E+02 -0.12774139208E+02 -0.80998911518E+02  0.10563249456E+03  0.00000000000E+00 0. -1.
<mgrwt>
<rscale>  0 0.12740888E+03</rscale>
<asrwt>0</asrwt>
<pdfrwt beam="1">  1        3 0.87448299E-02 0.13609132E+03</pdfrwt>
<pdfrwt beam="2">  1       -3 0.40361230E-01 0.13609132E+03</pdfrwt>
<totfact> 0.12947357E+03</totfact>
</mgrwt>
</event>
<event>
 7    1  0.6095443E-006  0.2035567E+03  0.7546771E-02  0.1150920E+00
         -2   -1    0    0    0  501 -0.00000000000E+00  0.00000000000E+00  0.44082536811E+02  0.44082536811E+02  0.00000000000E+00 0.  1.
          2   -1    0    0  501    0  0.00000000000E+00 -0.00000000000E+00 -0.90291702675E+03  0.90291702675E+03  0.00000000000E+00 0. -1.
         23    2    1    2    0    0  0.14906122213E+03 -0.59923558212E+02 -0.33916575295E+03  0.39556128065E+03  0.12500095201E+03 0.  0.
          5    1    3    3  502    0  0.13202417670E+03 -0.26003155460E+02 -0.32973777289E+03  0.35616798873E+03  0.47000000000E+01 0.  1.
         -5    1    3    3    0  502  0.17037045435E+02 -0.33920402752E+02 -0.94279800547E+01  0.39393291915E+02  0.47000000000E+01 0.  1.
        -11    1    1    2    0    0 -0.10767567280E+02 -0.16679799677E+02 -0.23884600292E+02  0.31058498893E+02  0.00000000000E+00 0.  1.
         11    1    1    2    0    0 -0.13829365485E+03  0.76603357889E+02 -0.49578413670E+03  0.52037978402E+03  0.00000000000E+00 0. -1.
<mgrwt>
<rscale>  0 0.19860697E+03</rscale>
<asrwt>0</asrwt>
<pdfrwt beam="2">  1        2 0.13891032E+00 0.20355667E+03</pdfrwt>
<pdfrwt beam="1">  1       -2 0.67819285E-02 0.20355667E+03</pdfrwt>
<totfact> 0.36697883E+03</totfact>
</mgrwt>
</event>
<event>
 7    1  0.6095443E-006  0.1588767E+03  0.7546771E-02  0.1196430E+00
          2   -1    0    0  501    0  0.00000000000E+00  0.00000000000E+00  0.74757619315E+03  0.74757619315E+03  0.00000000000E+00 0. -1.
         -2   -1    0    0    0  501 -0.00000000000E+00 -0.00000000000E+00 -0.39044775996E+02  0.39044775996E+02  0.00000000000E+00 0.  1.
         23    2    1    2    0    0  0.98380879082E+01  0.97571834025E+02  0.17854120773E+03  0.23899530854E+03  0.12499897550E+03 0.  0.
          5    1    3    3  502    0  0.12436583207E+02  0.59292836600E+02  0.47423353613E+01  0.60949887766E+02  0.47000000000E+01 0.  1.
         -5    1    3    3    0  502 -0.25984952984E+01  0.38278997425E+02  0.17379887237E+03  0.17804542077E+03  0.47000000000E+01 0.  1.
        -11    1    1    2    0    0 -0.42300038493E+02 -0.95817765588E+02  0.42509370591E+03  0.43780703086E+03  0.00000000000E+00 0.  1.
         11    1    1    2    0    0  0.32461950584E+02 -0.17540684368E+01  0.10489650351E+03  0.10981862975E+03  0.00000000000E+00 0. -1.
<mgrwt>
<rscale>  0 0.15333857E+03</rscale>
<asrwt>0</asrwt>
<pdfrwt beam="1">  1        2 0.11501171E+00 0.15887666E+03</pdfrwt>
<pdfrwt beam="2">  1       -2 0.60068892E-02 0.15887666E+03</pdfrwt>
<totfact> 0.55730164E+03</totfact>
</mgrwt>
</event>
<event>
 7    1  0.6095443E-006  0.1255862E+03  0.7546771E-02  0.1246122E+00
         -1   -1    0    0    0  501 -0.00000000000E+00  0.00000000000E+00  0.54639669942E+03  0.54639669942E+03  0.00000000000E+00 0.  1.
          1   -1    0    0  501    0  0.00000000000E+00 -0.00000000000E+00 -0.26228908632E+02  0.26228908632E+02  0.00000000000E+00 0. -1.
         23    2    1    2    0    0  0.16331412469E+01  0.12008067782E+02  0.38782830806E+03  0.40765510763E+03  0.12500011760E+03 0.  0.
          5    1    3    3  502    0 -0.10984370999E+02 -0.47252880874E+02  0.78399109544E+02  0.92314687533E+02  0.47000000000E+01 0. -1.
         -5    1    3    3    0  502  0.12617512246E+02  0.59260948656E+02  0.30942919851E+03  0.31534042009E+03  0.47000000000E+01 0. -1.
        -11    1    1    2    0    0 -0.88231001219E+01 -0.27141011821E+02  0.14253096728E+03  0.14536009856E+03  0.00000000000E+00 0.  1.
         11    1    1    2    0    0  0.71899588750E+01  0.15132944039E+02 -0.10191484555E+02  0.19610401866E+02  0.00000000000E+00 0. -1.
<mgrwt>
<rscale>  0 0.11818474E+03</rscale>
<asrwt>0</asrwt>
<pdfrwt beam="2">  1        1 0.40352171E-02 0.12558619E+03</pdfrwt>
<pdfrwt beam="1">  1       -1 0.84061022E-01 0.12558619E+03</pdfrwt>
<totfact> 0.31640136E+03</totfact>
</mgrwt>
</event>
<event>
 7    1  0.6095443E-006  0.1352511E+03  0.7546771E-02  0.1231552E+00
          2   -1    0    0  501    0  0.00000000000E+00  0.00000000000E+00  0.16520004207E+03  0.16520004207E+03  0.00000000000E+00 0.  1.
         -2   -1    0    0    0  501 -0.00000000000E+00 -0.00000000000E+00 -0.10478182000E+03  0.10478182000E+03  0.00000000000E+00 0. -1.
         23    2    1    2    0    0  0.28395239694E+02 -0.43141795033E+02 -0.20202105119E+02  0.13675149843E+03  0.12500137261E+03 0.  0.
          5    1    3    3  502    0 -0.36204193836E+02 -0.66719204779E+00  0.27566058156E+02  0.45751135055E+02  0.47000000000E+01 0.  1.
         -5    1    3    3    0  502  0.64599433531E+02 -0.42474602985E+02 -0.47768163276E+02  0.91000363373E+02  0.47000000000E+01 0.  1.
        -11    1    1    2    0    0 -0.14616343375E+02 -0.25090820038E+02  0.33517883103E+01  0.29230484579E+02  0.00000000000E+00 0. -1.
         11    1    1    2    0    0 -0.13778896319E+02  0.68232615071E+02  0.77268538880E+02  0.10399987906E+03  0.00000000000E+00 0.  1.
<mgrwt>
<rscale>  0 0.12727787E+03</rscale>
<asrwt>0</asrwt>
<pdfrwt beam="1">  1        2 0.25415391E-01 0.13525105E+03</pdfrwt>
<pdfrwt beam="2">  1       -2 0.16120280E-01 0.13525105E+03</pdfrwt>
<totfact> 0.60936064E+03</totfact>
</mgrwt>
</event>
<event>
 7    1  0.6095443E-006  0.1290686E+03  0.7546771E-02  0.1242355E+00
          2   -1    0    0  501    0  0.00000000000E+00  0.00000000000E+00  0.51424215810E+02  0.51424215810E+02  0.00000000000E+00 0.  1.
         -2   -1    0    0    0  501 -0.00000000000E+00 -0.00000000000E+00 -0.25347777664E+03  0.25347777664E+03  0.00000000000E+00 0. -1.
         23    2    1    2    0    0  0.29305255674E+02 -0.13224485014E+02 -0.13126735993E+03  0.18409186552E+03  0.12500004062E+03 0.  0.
          5    1    3    3  502    0  0.30900131174E+02 -0.64207246176E+02 -0.47041039915E+02  0.85512209680E+02  0.47000000000E+01 0.  1.
         -5    1    3    3    0  502 -0.15948754997E+01  0.50982761162E+02 -0.84226320013E+02  0.98579655845E+02  0.47000000000E+01 0.  1.
        -11    1    1    2    0    0 -0.33498203267E+02 -0.11553045293E+02  0.94976048082E+01  0.36685241921E+02  0.00000000000E+00 0.  1.
         11    1    1    2    0    0  0.41929475931E+01  0.24777530308E+02 -0.80283805709E+02  0.84124885003E+02  0.00000000000E+00 0. -1.
<mgrwt>
<rscale>  0 0.12045116E+03</rscale>
<asrwt>0</asrwt>
<pdfrwt beam="1">  1        2 0.79114180E-02 0.12906857E+03</pdfrwt>
<pdfrwt beam="2">  1       -2 0.38996580E-01 0.12906857E+03</pdfrwt>
<totfact> 0.51055694E+03</totfact>
</mgrwt>
</event>
<event>
 7    1  0.6095443E-006  0.1324779E+03  0.7546771E-02  0.1240077E+00
          2   -1    0    0  501    0  0.00000000000E+00  0.00000000000E+00  0.11131146810E+02  0.11131146810E+02  0.00000000000E+00 0. -1.
         -2   -1    0    0    0  501 -0.00000000000E+00 -0.00000000000E+00 -0.15981332570E+04  0.15981332570E+04  0.00000000000E+00 0.  1.
         23    2    1    2    0    0  0.17293764515E+02 -0.40644810442E+02 -0.13059239156E+04  0.13126262518E+04  0.12489727235E+03 0.  0.
          5    1    3    3  502    0  0.63801350191E+01  0.43502524155E+02 -0.31897123218E+03  0.32202160283E+03  0.47000000000E+01 0.  1.
         -5    1    3    3    0  502  0.10913629496E+02 -0.84147334597E+02 -0.98695268340E+03  0.99060464894E+03  0.47000000000E+01 0.  1.
        -11    1    1    2    0    0  0.67166536722E+01  0.59202753079E+02 -0.22633853610E+03  0.23404959374E+03  0.00000000000E+00 0.  1.
         11    1    1    2    0    0 -0.24010418188E+02 -0.18557942637E+02 -0.54739658560E+02  0.62588558345E+02  0.00000000000E+00 0. -1.
<mgrwt>
<rscale>  0 0.12184930E+03</rscale>
<asrwt>0</asrwt>
<pdfrwt beam="1">  1        2 0.17124849E-02 0.13247794E+03</pdfrwt>
<pdfrwt beam="2">  1       -2 0.24586655E+00 0.13247794E+03</pdfrwt>
<totfact> 0.50515635E+02</totfact>
</mgrwt>
</event>
<event>
 7    1  0.6095443E-006  0.1380602E+03  0.7546771E-02  0.1227161E+00
         -2   -1    0    0    0  501 -0.00000000000E+00  0.00000000000E+00  0.33644115520E+02  0.33644115520E+02  0.00000000000E+00 0.  1.
          2   -1    0    0  501    0  0.00000000000E+00 -0.00000000000E+00 -0.45470676943E+03  0.45470676943E+03  0.00000000000E+00 0. -1.
         23    2    1    2    0    0 -0.57658081264E+02 -0.10533610795E+02 -0.24233462741E+03  0.27890264089E+03  0.12500080064E+03 0.  0.
          5    1    3    3  502    0 -0.40228507273E+02 -0.65032409154E+02 -0.10438186837E+03  0.12948054480E+03  0.47000000000E+01 0.  1.
         -5    1    3    3    0  502 -0.17429573991E+02  0.54498798359E+02 -0.13795275904E+03  0.14942209609E+03  0.47000000000E+01 0.  1.
        -11    1    1    2    0    0  0.71214512897E+02  0.14946458084E+02 -0.18093771604E+03  0.19502143611E+03  0.00000000000E+00 0. -1.
         11    1    1    2    0    0 -0.13556431633E+02 -0.44128472890E+01  0.22096895399E+01  0.14426807952E+02  0.00000000000E+00 0.  1.
<mgrwt>
<rscale>  0 0.13019910E+03</rscale>
<asrwt>0</asrwt>
<pdfrwt beam="2">  1        2 0.69954889E-01 0.13806017E+03</pdfrwt>
<pdfrwt beam="1">  1       -2 0.51760177E-02 0.13806017E+03</pdfrwt>
<totfact> 0.12204735E+04</totfact>
</mgrwt>
</event>
<event>
 7    1  0.6095443E-006  0.1644527E+03  0.7546771E-02  0.1190516E+00
         -1   -1    0    0    0  501 -0.00000000000E+00  0.00000000000E+00  0.91216327040E+02  0.91216327040E+02  0.00000000000E+00 0.  1.
          1   -1    0    0  501    0  0.00000000000E+00 -0.00000000000E+00 -0.28795267478E+03  0.28795267478E+03  0.00000000000E+00 0. -1.
         23    2    1    2    0    0 -0.61465929624E+02 -0.87428584274E+02 -0.42554561380E+02  0.16986927319E+03  0.12499144542E+03 0.  0.
          5    1    3    3  502    0 -0.55228447846E+02  0.37413056152E+01  0.19980425854E+02  0.59038006712E+02  0.47000000000E+01 0.  1.
         -5    1    3    3    0  502 -0.62374817781E+01 -0.91169889889E+02 -0.62534987234E+02  0.11083126648E+03  0.47000000000E+01 0.  1.
        -11    1    1    2    0    0  0.23283974285E+01  0.65467648298E+02 -0.12201470536E+03  0.13848834873E+03  0.00000000000E+00 0. -1.
         11    1    1    2    0    0  0.59137532196E+02  0.21960935976E+02 -0.32167080991E+02  0.70811379895E+02  0.00000000000E+00 0.  1.
<mgrwt>
<rscale>  0 0.15839906E+03</rscale>
<asrwt>0</asrwt>
<pdfrwt beam="2">  1        1 0.44300410E-01 0.16445267E+03</pdfrwt>
<pdfrwt beam="1">  1       -1 0.14033281E-01 0.16445267E+03</pdfrwt>
<totfact> 0.32209261E+03</totfact>
</mgrwt>
</event>
<event>
 7    1  0.6095443E-006  0.2133105E+03  0.7546771E-02  0.1142698E+00
         -1   -1    0    0    0  501 -0.00000000000E+00  0.00000000000E+00  0.11678170131E+03  0.11678170131E+03  0.00000000000E+00 0.  1.
          1   -1    0    0  501    0  0.00000000000E+00 -0.00000000000E+00 -0.38610954148E+03  0.38610954148E+03  0.00000000000E+00 0. -1.
         23    2    1    2    0    0  0.15927384877E+03 -0.67188980181E+02 -0.71145798855E+02  0.22486238146E+03  0.12497538934E+03 0.  0.
          5    1    3    3  502    0  0.66116086580E+01 -0.40305071685E+02 -0.55391006411E+02  0.68981633525E+02  0.47000000000E+01 0.  1.
         -5    1    3    3    0  502  0.15266224011E+03 -0.26883908495E+02 -0.15754792445E+02  0.15588074794E+03  0.47000000000E+01 0.  1.
        -11    1    1    2    0    0 -0.94695214084E+02  0.35636316777E+02 -0.48966065333E+02  0.11240465381E+03  0.00000000000E+00 0.  1.
         11    1    1    2    0    0 -0.64578634686E+02  0.31552663403E+02 -0.14921597599E+03  0.16562420752E+03  0.00000000000E+00 0. -1.
<mgrwt>
<rscale>  0 0.20857694E+03</rscale>
<asrwt>0</asrwt>
<pdfrwt beam="2">  1        1 0.59401469E-01 0.21331049E+03</pdfrwt>
<pdfrwt beam="1">  1       -1 0.17966415E-01 0.21331049E+03</pdfrwt>
<totfact> 0.15167380E+03</totfact>
</mgrwt>
</event>
<event>
 7    1  0.6095443E-006  0.2372933E+03  0.7546771E-02  0.1124218E+00
          2   -1    0    0  501    0  0.00000000000E+00  0.00000000000E+00  0.12647420536E+04  0.12647420536E+04  0.00000000000E+00 0. -1.
         -2   -1    0    0    0  501 -0.00000000000E+00 -0.00000000000E+00 -0.64508453778E+02  0.64508453778E+02  0.00000000000E+00 0.  1.
         23    2    1    2    0    0 -0.76040023853E+00  0.20169102253E+03  0.21824211997E+03  0.32239372813E+03  0.12501298424E+03 0.  0.
          5    1    3    3  502    0 -0.47931651931E+02  0.17271882573E+03  0.14582071441E+03  0.23111686820E+03  0.47000000000E+01 0.  1.
         -5    1    3    3    0  502  0.47171251693E+02  0.28972196802E+02  0.72421405565E+02  0.91276859926E+02  0.47000000000E+01 0.  1.
        -11    1    1    2    0    0  0.38084020801E+02 -0.16706349060E+03  0.77059649167E+03  0.78941722524E+03  0.00000000000E+00 0.  1.
         11    1    1    2    0    0 -0.37323620562E+02 -0.34627531932E+02  0.21139498815E+03  0.21743955398E+03  0.00000000000E+00 0. -1.
<mgrwt>
<rscale>  0 0.23347397E+03</rscale>
<asrwt>0</asrwt>
<pdfrwt beam="1">  1        2 0.19457568E+00 0.23729326E+03</pdfrwt>
<pdfrwt beam="2">  1       -2 0.99243784E-02 0.23729326E+03</pdfrwt>
<totfact> 0.12366393E+03</totfact>
</mgrwt>
</event>
<event>
 7    1  0.6095443E-006  0.1279004E+03  0.7546771E-02  0.1243241E+00
         -2   -1    0    0    0  501 -0.00000000000E+00  0.00000000000E+00  0.37331900148E+02  0.37331900148E+02  0.00000000000E+00 0. -1.
          2   -1    0    0  501    0  0.00000000000E+00 -0.00000000000E+00 -0.34423126732E+03  0.34423126732E+03  0.00000000000E+00 0.  1.
         23    2    1    2    0    0 -0.27247879671E+02  0.38571606945E+01 -0.17240886790E+03  0.21467026733E+03  0.12490468890E+03 0.  0.
          5    1    3    3  502    0 -0.61033668705E+02 -0.89005785991E+00 -0.30037692533E+02  0.68192770081E+02  0.47000000000E+01 0.  1.
         -5    1    3    3    0  502  0.33785789033E+02  0.47472185544E+01 -0.14237117537E+03  0.14647749725E+03  0.47000000000E+01 0.  1.
        -11    1    1    2    0    0  0.49333935203E+02 -0.15167659692E+02 -0.13226613993E+03  0.14197967050E+03  0.00000000000E+00 0.  1.
         11    1    1    2    0    0 -0.22086055532E+02  0.11310498997E+02 -0.22243593405E+01  0.24913229638E+02  0.00000000000E+00 0. -1.
<mgrwt>
<rscale>  0 0.11991291E+03</rscale>
<asrwt>0</asrwt>
<pdfrwt beam="2">  1        2 0.52958657E-01 0.12790038E+03</pdfrwt>
<pdfrwt beam="1">  1       -2 0.57433692E-02 0.12790038E+03</pdfrwt>
<totfact> 0.13964297E+04</totfact>
</mgrwt>
</event>
<event>
 7    1  0.6095443E-006  0.1321935E+03  0.7546771E-02  0.1236838E+00
          1   -1    0    0  501    0  0.00000000000E+00  0.00000000000E+00  0.30387020292E+03  0.30387020292E+03  0.00000000000E+00 0. -1.
         -1   -1    0    0    0  501 -0.00000000000E+00 -0.00000000000E+00 -0.48427143180E+02  0.48427143180E+02  0.00000000000E+00 0.  1.
         23    2    1    2    0    0  0.42163384070E+02  0.85264852003E+01  0.97263015310E+02  0.16411954438E+03  0.12499871517E+03 0.  0.
          5    1    3    3  502    0  0.38822353868E+02 -0.55240318662E+02  0.56992727653E+02  0.88481235135E+02  0.47000000000E+01 0. -1.
         -5    1    3    3    0  502  0.33410302022E+01  0.63766803862E+02  0.40270287658E+02  0.75638309246E+02  0.47000000000E+01 0. -1.
        -11    1    1    2    0    0 -0.52796824980E+02 -0.44033521798E+01  0.16606578557E+03  0.17431218941E+03  0.00000000000E+00 0. -1.
         11    1    1    2    0    0  0.10633440910E+02 -0.41231330205E+01 -0.78857411414E+01  0.13865612314E+02  0.00000000000E+00 0.  1.
<mgrwt>
<rscale>  0 0.12387521E+03</rscale>
<asrwt>0</asrwt>
<pdfrwt beam="1">  1        1 0.46749261E-01 0.13219354E+03</pdfrwt>
<pdfrwt beam="2">  1       -1 0.74503298E-02 0.13219354E+03</pdfrwt>
<totfact> 0.78539759E+03</totfact>
</mgrwt>
</event>
<event>
 7    1  0.6095443E-006  0.2010646E+03  0.7546771E-02  0.1153141E+00
         -1   -1    0    0    0  501 -0.00000000000E+00  0.00000000000E+00  0.38681878899E+02  0.38681878899E+02  0.00000000000E+00 0.  1.
          1   -1    0    0  501    0  0.00000000000E+00 -0.00000000000E+00 -0.10005309688E+04  0.10005309688E+04  0.00000000000E+00 0. -1.
         23    2    1    2    0    0 -0.88489145715E+02  0.13027406634E+03 -0.38348070079E+03  0.43299471766E+03  0.12500126548E+03 0.  0.
          5    1    3    3  502    0 -0.79072261715E+02  0.60434278201E+02 -0.32911532709E+03  0.34386583587E+03  0.47000000000E+01 0. -1.
         -5    1    3    3    0  502 -0.94168839996E+01  0.69839788135E+02 -0.54365373702E+02  0.89128881788E+02  0.47000000000E+01 0. -1.
        -11    1    1    2    0    0  0.94979083325E+02 -0.64089207449E+02 -0.38824627442E+03  0.40480071935E+03  0.00000000000E+00 0.  1.
         11    1    1    2    0    0 -0.64899376108E+01 -0.66184858888E+02 -0.19012211465E+03  0.20141741065E+03  0.00000000000E+00 0. -1.
<mgrwt>
<rscale>  0 0.19601993E+03</rscale>
<asrwt>0</asrwt>
<pdfrwt beam="2">  1        1 0.15392784E+00 0.20106461E+03</pdfrwt>
<pdfrwt beam="1">  1       -1 0.59510585E-02 0.20106461E+03</pdfrwt>
<totfact> 0.21536441E+03</totfact>
</mgrwt>
</event>
<event>
 7    1  0.6095443E-006  0.1373082E+03  0.7546771E-02  0.1226250E+00
          2   -1    0    0  501    0  0.00000000000E+00  0.00000000000E+00  0.80407830554E+03  0.80407830554E+03  0.00000000000E+00 0. -1.
         -2   -1    0    0    0  501 -0.00000000000E+00 -0.00000000000E+00 -0.19548791147E+02  0.19548791147E+02  0.00000000000E+00 0.  1.
         23    2    1    2    0    0  0.37795471296E+02 -0.42425755311E+02  0.40943394100E+03  0.43184453819E+03  0.12500044301E+03 0.  0.
          5    1    3    3  502    0 -0.14339703724E+02 -0.50104977726E+02  0.34275140881E+03  0.34672287801E+03  0.47000000000E+01 0.  1.
         -5    1    3    3    0  502  0.52135175020E+02  0.76792224151E+01  0.66682532194E+02  0.85121660176E+02  0.47000000000E+01 0.  1.
        -11    1    1    2    0    0  0.28417462062E+02  0.31572583873E+02  0.10049858999E+03  0.10910704282E+03  0.00000000000E+00 0. -1.
         11    1    1    2    0    0 -0.66212933358E+02  0.10853171437E+02  0.27459698340E+03  0.28267551568E+03  0.00000000000E+00 0.  1.
<mgrwt>
<rscale>  0 0.13081588E+03</rscale>
<asrwt>0</asrwt>
<pdfrwt beam="1">  1        2 0.12370433E+00 0.13730824E+03</pdfrwt>
<pdfrwt beam="2">  1       -2 0.30075069E-02 0.13730824E+03</pdfrwt>
<totfact> 0.14203284E+04</totfact>
</mgrwt>
</event>
<event>
 7    1  0.6095443E-006  0.1363478E+03  0.7546771E-02  0.1228331E+00
          2   -1    0    0  501    0  0.00000000000E+00  0.00000000000E+00  0.50000077496E+03  0.50000077496E+03  0.00000000000E+00 0. -1.
         -2   -1    0    0    0  501 -0.00000000000E+00 -0.00000000000E+00 -0.35491475252E+02  0.35491475252E+02  0.00000000000E+00 0.  1.
         23    2    1    2    0    0 -0.41208439025E+02  0.35554324847E+02  0.15312051740E+03  0.20502830827E+03  0.12501387475E+03 0.  0.
          5    1    3    3  502    0 -0.46221990116E+02  0.10747300842E+02  0.16844885797E+03  0.17506879961E+03  0.47000000000E+01 0.  1.
         -5    1    3    3    0  502  0.50135510910E+01  0.24807024005E+02 -0.15328340567E+02  0.29959508659E+02  0.47000000000E+01 0.  1.
        -11    1    1    2    0    0 -0.21591509193E+02 -0.41307187562E+02  0.11107872581E+03  0.12046144753E+03  0.00000000000E+00 0.  1.
         11    1    1    2    0    0  0.62799948219E+02  0.57528627152E+01  0.20031005649E+03  0.21000249441E+03  0.00000000000E+00 0. -1.
<mgrwt>
<rscale>  0 0.12941183E+03</rscale>
<asrwt>0</asrwt>
<pdfrwt beam="1">  1        2 0.76923191E-01 0.13634777E+03</pdfrwt>
<pdfrwt beam="2">  1       -2 0.54602273E-02 0.13634777E+03</pdfrwt>
<totfact> 0.10143503E+04</totfact>
</mgrwt>
</event>
<event>
 7    1  0.6095443E-006  0.1277214E+03  0.7546771E-02  0.1245648E+00
         -2   -1    0    0    0  501 -0.00000000000E+00  0.00000000000E+00  0.12427078494E+03  0.12427078494E+03  0.00000000000E+00 0.  1.
          2   -1    0    0  501    0  0.00000000000E+00 -0.00000000000E+00 -0.10120756412E+03  0.10120756412E+03  0.00000000000E+00 0. -1.
         23    2    1    2    0    0  0.22666598608E+02 -0.13191849697E+02  0.28224549132E+02  0.13080285653E+03  0.12499985005E+03 0.  0.
          5    1    3    3  502    0  0.58418937048E+02 -0.21930420737E+02  0.56377643483E+02  0.84227336680E+02  0.47000000000E+01 0. -1.
         -5    1    3    3    0  502 -0.35752338440E+02  0.87385710398E+01 -0.28153094351E+02  0.46575519850E+02  0.47000000000E+01 0. -1.
        -11    1    1    2    0    0 -0.43873498928E+02 -0.15661239087E+02  0.20220289292E+02  0.50784037029E+02  0.00000000000E+00 0.  1.
         11    1    1    2    0    0  0.21206900319E+02  0.28853088784E+02 -0.25381617600E+02  0.43891455496E+02  0.00000000000E+00 0. -1.
<mgrwt>
<rscale>  0 0.11846652E+03</rscale>
<asrwt>0</asrwt>
<pdfrwt beam="2">  1        2 0.15570395E-01 0.12772142E+03</pdfrwt>
<pdfrwt beam="1">  1       -2 0.19118582E-01 0.12772142E+03</pdfrwt>
<totfact> 0.79533866E+03</totfact>
</mgrwt>
</event>
<event>
 7    1  0.6095443E-006  0.1451305E+03  0.7546771E-02  0.1214720E+00
          2   -1    0    0  501    0  0.00000000000E+00  0.00000000000E+00  0.24859540953E+03  0.24859540953E+03  0.00000000000E+00 0. -1.
         -2   -1    0    0    0  501 -0.00000000000E+00 -0.00000000000E+00 -0.82162300485E+02  0.82162300485E+02  0.00000000000E+00 0.  1.
         23    2    1    2    0    0  0.57762952274E+02  0.45847847105E+02  0.30884582419E+02  0.14838036635E+03  0.12499716775E+03 0.  0.
          5    1    3    3  502    0 -0.11575688737E+02 -0.35583955145E+02  0.12674342012E+02  0.39786220968E+02  0.47000000000E+01 0. -1.
         -5    1    3    3    0  502  0.69338641011E+02  0.81431802249E+02  0.18210240407E+02  0.10859414538E+03  0.47000000000E+01 0. -1.
        -11    1    1    2    0    0  0.21782014666E+02 -0.62488196657E+01  0.65257185052E+02  0.69079693912E+02  0.00000000000E+00 0. -1.
         11    1    1    2    0    0 -0.79544966939E+02 -0.39599027439E+02  0.70291341570E+02  0.11329764975E+03  0.00000000000E+00 0.  1.
<mgrwt>
<rscale>  0 0.13897094E+03</rscale>
<asrwt>0</asrwt>
<pdfrwt beam="1">  1        2 0.38245447E-01 0.14513055E+03</pdfrwt>
<pdfrwt beam="2">  1       -2 0.12640354E-01 0.14513055E+03</pdfrwt>
<totfact> 0.58420669E+03</totfact>
</mgrwt>
</event>
<event>
 7    1  0.6095443E-006  0.1367414E+03  0.7546771E-02  0.1232278E+00
          3   -1    0    0  501    0  0.00000000000E+00  0.00000000000E+00  0.20055318715E+03  0.20055318715E+03  0.00000000000E+00 0. -1.
         -3   -1    0    0    0  501 -0.00000000000E+00 -0.00000000000E+00 -0.70700541463E+02  0.70700541463E+02  0.00000000000E+00 0.  1.
         23    2    1    2    0    0 -0.19625480736E+02  0.51837897490E+02  0.67951369986E+02  0.15269447231E+03  0.12500354427E+03 0.  0.
          5    1    3    3  502    0  0.51471388522E+02  0.27124665229E+02  0.14170149625E+02  0.60066083946E+02  0.47000000000E+01 0.  1.
         -5    1    3    3    0  502 -0.71096869258E+02  0.24713232261E+02  0.53781220361E+02  0.92628388362E+02  0.47000000000E+01 0.  1.
        -11    1    1    2    0    0  0.11175166363E+01 -0.46871960267E+02  0.79659745667E+02  0.92433243925E+02  0.00000000000E+00 0. -1.
         11    1    1    2    0    0  0.18507964100E+02 -0.49659372235E+01 -0.17758469963E+02  0.26126012383E+02  0.00000000000E+00 0.  1.
<mgrwt>
<rscale>  0 0.12680327E+03</rscale>
<asrwt>0</asrwt>
<pdfrwt beam="1">  1        3 0.30854336E-01 0.13674141E+03</pdfrwt>
<pdfrwt beam="2">  1       -3 0.10877006E-01 0.13674141E+03</pdfrwt>
<totfact> 0.15028682E+03</totfact>
</mgrwt>
</event>
<event>
 7    1  0.6095443E-006  0.3392154E+03  0.7546771E-02  0.1067131E+00
         -1   -1    0    0    0  501 -0.00000000000E+00  0.00000000000E+00  0.40436086296E+02  0.40436086296E+02  0.00000000000E+00 0. -1.
          1   -1    0    0  501    0  0.00000000000E+00 -0.00000000000E+00 -0.71141333987E+03  0.71141333987E+03  0.00000000000E+00 0.  1.
         23    2    1    2    0    0  0.10094796245E+03  0.21486062472E+02 -0.24940108535E+03  0.29744854888E+03  0.12499038304E+03 0.  0.
          5    1    3    3  502    0  0.11994372382E+03 -0.11832267416E+02 -0.21056366497E+03  0.24266364879E+03  0.47000000000E+01 0.  1.
         -5    1    3    3    0  502 -0.18995761370E+02  0.33318329888E+02 -0.38837420374E+02  0.54784900090E+02  0.47000000000E+01 0.  1.
        -11    1    1    2    0    0 -0.34275852800E+02 -0.74353210709E+02 -0.16717241685E+03  0.18614470442E+03  0.00000000000E+00 0. -1.
         11    1    1    2    0    0 -0.66672109651E+02  0.52867148237E+02 -0.25440375138E+03  0.26825617287E+03  0.00000000000E+00 0.  1.
<mgrwt>
<rscale>  0 0.33921540E+03</rscale>
<asrwt>0</asrwt>
<pdfrwt beam="2">  1        1 0.10944821E+00 0.33921540E+03</pdfrwt>
<pdfrwt beam="1">  1       -1 0.62209363E-02 0.33921540E+03</pdfrwt>
<totfact> 0.34903790E+03</totfact>
</mgrwt>
</event>
<event>
 7    1  0.6095443E-006  0.1351011E+03  0.7546771E-02  0.1232718E+00
         -1   -1    0    0    0  501 -0.00000000000E+00  0.00000000000E+00  0.37731903532E+02  0.37731903532E+02  0.00000000000E+00 0.  1.
          1   -1    0    0  501    0  0.00000000000E+00 -0.00000000000E+00 -0.39476827126E+03  0.39476827126E+03  0.00000000000E+00 0. -1.
         23    2    1    2    0    0 -0.61177215549E+00 -0.51244556961E+02 -0.15728300008E+03  0.20734091349E+03  0.12500373357E+03 0.  0.
          5    1    3    3  502    0  0.54653829312E+02 -0.52620799095E+02 -0.11378741862E+03  0.13684171949E+03  0.47000000000E+01 0. -1.
         -5    1    3    3    0  502 -0.55265601467E+02  0.13762421338E+01 -0.43495581461E+02  0.70499194000E+02  0.47000000000E+01 0. -1.
        -11    1    1    2    0    0  0.12125975838E+01  0.77216673653E+02 -0.13750046163E+03  0.15770308187E+03  0.00000000000E+00 0.  1.
         11    1    1    2    0    0 -0.60082542836E+00 -0.25972116691E+02 -0.62252906011E+02  0.67456179431E+02  0.00000000000E+00 0. -1.
<mgrwt>
<rscale>  0 0.12651688E+03</rscale>
<asrwt>0</asrwt>
<pdfrwt beam="2">  1        1 0.60733580E-01 0.13510112E+03</pdfrwt>
<pdfrwt beam="1">  1       -1 0.58049083E-02 0.13510112E+03</pdfrwt>
<totfact> 0.82425684E+03</totfact>
</mgrwt>
</event>
<event>
 7    1  0.6095443E-006  0.2708321E+03  0.7546771E-02  0.1103876E+00
         -2   -1    0    0    0  501 -0.00000000000E+00  0.00000000000E+00  0.20385320695E+03  0.20385320695E+03  0.00000000000E+00 0.  1.
          2   -1    0    0  501    0  0.00000000000E+00 -0.00000000000E+00 -0.33608423221E+03  0.33608423221E+03  0.00000000000E+00 0. -1.
         23    2    1    2    0    0 -0.14926964430E+02 -0.23979669524E+03 -0.42414582530E+02  0.27413318069E+03  0.12499893851E+03 0.  0.
          5    1    3    3  502    0  0.43477004893E+02 -0.14680055092E+03  0.76209905170E+01  0.15336499340E+03  0.47000000000E+01 0. -1.
         -5    1    3    3    0  502 -0.58403969323E+02 -0.92996144326E+02 -0.50035573047E+02  0.12076818729E+03  0.47000000000E+01 0. -1.
        -11    1    1    2    0    0  0.36059223561E+02  0.17682681209E+03 -0.84211131932E+02  0.19914694027E+03  0.00000000000E+00 0.  1.
         11    1    1    2    0    0 -0.21132259131E+02  0.62969883156E+02 -0.56053107982E+01  0.66657318201E+02  0.00000000000E+00 0. -1.
<mgrwt>
<rscale>  0 0.26551176E+03</rscale>
<asrwt>0</asrwt>
<pdfrwt beam="2">  1        2 0.51705266E-01 0.27083206E+03</pdfrwt>
<pdfrwt beam="1">  1       -2 0.31362032E-01 0.27083206E+03</pdfrwt>
<totfact> 0.91206245E+02</totfact>
</mgrwt>
</event>
<event>
 7    1  0.6095443E-006  0.1792412E+03  0.7546771E-02  0.1174300E+00
          2   -1    0    0  501    0  0.00000000000E+00  0.00000000000E+00  0.94026020149E+02  0.94026020149E+02  0.00000000000E+00 0. -1.
         -2   -1    0    0    0  501 -0.00000000000E+00 -0.00000000000E+00 -0.31980950615E+03  0.31980950615E+03  0.00000000000E+00 0.  1.
         23    2    1    2    0    0  0.12843260319E+03  0.18235631638E+01 -0.17007607222E+03  0.24708961084E+03  0.12501658489E+03 0.  0.
          5    1    3    3  502    0  0.10151389067E+03 -0.22936826698E+02 -0.18081719622E+03  0.20868185466E+03  0.47000000000E+01 0. -1.
         -5    1    3    3    0  502  0.26918712518E+02  0.24760389861E+02  0.10741123995E+02  0.38407756175E+02  0.47000000000E+01 0. -1.
        -11    1    1    2    0    0 -0.56961995782E+02  0.38408323874E+02 -0.49141222941E+02  0.84467319707E+02  0.00000000000E+00 0.  1.
         11    1    1    2    0    0 -0.71470607405E+02 -0.40231887038E+02 -0.65661908399E+01  0.82278595756E+02  0.00000000000E+00 0. -1.
<mgrwt>
<rscale>  0 0.17344726E+03</rscale>
<asrwt>0</asrwt>
<pdfrwt beam="1">  1        2 0.14465542E-01 0.17924119E+03</pdfrwt>
<pdfrwt beam="2">  1       -2 0.49201462E-01 0.17924119E+03</pdfrwt>
<totfact> 0.15887211E+03</totfact>
</mgrwt>
</event>
<event>
 7    1  0.6095443E-006  0.1275261E+03  0.7546771E-02  0.1245741E+00
         -1   -1    0    0    0  501 -0.00000000000E+00  0.00000000000E+00  0.27789127081E+03  0.27789127081E+03  0.00000000000E+00 0.  1.
          1   -1    0    0  501    0  0.00000000000E+00 -0.00000000000E+00 -0.45070535896E+02  0.45070535896E+02  0.00000000000E+00 0. -1.
         23    2    1    2    0    0 -0.21369438146E+02  0.13389987360E+02  0.11480963699E+03  0.17159299305E+03  0.12500783123E+03 0.  0.
          5    1    3    3  502    0 -0.52610279089E+02  0.12426290600E+02  0.18485298634E+01  0.54293288964E+02  0.47000000000E+01 0. -1.
         -5    1    3    3    0  502  0.31240840943E+02  0.96369676004E+00  0.11296110713E+03  0.11729970408E+03  0.47000000000E+01 0. -1.
        -11    1    1    2    0    0  0.33111831313E+02  0.28677087543E+02  0.88233149742E+02  0.98508159237E+02  0.00000000000E+00 0.  1.
         11    1    1    2    0    0 -0.11742393168E+02 -0.42067074903E+02  0.29777948181E+02  0.52860654423E+02  0.00000000000E+00 0. -1.
<mgrwt>
<rscale>  0 0.11841166E+03</rscale>
<asrwt>0</asrwt>
<pdfrwt beam="2">  1        1 0.69339288E-02 0.12752609E+03</pdfrwt>
<pdfrwt beam="1">  1       -1 0.42752502E-01 0.12752609E+03</pdfrwt>
<totfact> 0.54926975E+03</totfact>
</mgrwt>
</event>
<event>
 7    1  0.6095443E-006  0.1482805E+03  0.7546771E-02  0.1211488E+00
         -1   -1    0    0    0  501 -0.00000000000E+00  0.00000000000E+00  0.33822009105E+03  0.33822009105E+03  0.00000000000E+00 0.  1.
          1   -1    0    0  501    0  0.00000000000E+00 -0.00000000000E+00 -0.56101153903E+02  0.56101153903E+02  0.00000000000E+00 0. -1.
         23    2    1    2    0    0  0.33289195691E+02 -0.72487430439E+02  0.19004891860E+03  0.24105125011E+03  0.12499806237E+03 0.  0.
          5    1    3    3  502    0  0.15045307288E+02 -0.86531003410E+02  0.19766455819E+03  0.21635004827E+03  0.47000000000E+01 0. -1.
         -5    1    3    3    0  502  0.18243888403E+02  0.14043572972E+02 -0.76156395885E+01  0.24701201837E+02  0.47000000000E+01 0. -1.
        -11    1    1    2    0    0 -0.16008022585E+02  0.41184627932E+01  0.80043843277E+02  0.81732706853E+02  0.00000000000E+00 0.  1.
         11    1    1    2    0    0 -0.17281173106E+02  0.68368967645E+02  0.12026175261E+02  0.71537287985E+02  0.00000000000E+00 0. -1.
<mgrwt>
<rscale>  0 0.14137676E+03</rscale>
<asrwt>0</asrwt>
<pdfrwt beam="2">  1        1 0.86309469E-02 0.14828052E+03</pdfrwt>
<pdfrwt beam="1">  1       -1 0.52033859E-01 0.14828052E+03</pdfrwt>
<totfact> 0.28968671E+03</totfact>
</mgrwt>
</event>
<event>
 7    1  0.6095443E-006  0.1321959E+03  0.7546771E-02  0.1237429E+00
          2   -1    0    0  501    0  0.00000000000E+00  0.00000000000E+00  0.25263682990E+02  0.25263682990E+02  0.00000000000E+00 0. -1.
         -2   -1    0    0    0  501 -0.00000000000E+00 -0.00000000000E+00 -0.54987902018E+03  0.54987902018E+03  0.00000000000E+00 0.  1.
         23    2    1    2    0    0 -0.31264290102E+01  0.42908140813E+02 -0.34095782121E+03  0.36568837387E+03  0.12499947135E+03 0.  0.
          5    1    3    3  502    0  0.58095646753E+02  0.17437866485E+02 -0.21266628555E+03  0.22119724765E+03  0.47000000000E+01 0. -1.
         -5    1    3    3    0  502 -0.61222075763E+02  0.25470274328E+02 -0.12829153566E+03  0.14449112622E+03  0.47000000000E+01 0. -1.
        -11    1    1    2    0    0  0.20214008734E+02 -0.11681548568E+02 -0.10078495926E+01  0.23368365087E+02  0.00000000000E+00 0. -1.
         11    1    1    2    0    0 -0.17087579723E+02 -0.31226592245E+02 -0.18264966639E+03  0.18608596421E+03  0.00000000000E+00 0.  1.
<mgrwt>
<rscale>  0 0.12350192E+03</rscale>
<asrwt>0</asrwt>
<pdfrwt beam="1">  1        2 0.38867206E-02 0.13219588E+03</pdfrwt>
<pdfrwt beam="2">  1       -2 0.84596770E-01 0.13219588E+03</pdfrwt>
<totfact> 0.26440974E+03</totfact>
</mgrwt>
</event>
<event>
 7    1  0.6095443E-006  0.1271280E+03  0.7546771E-02  0.1246544E+00
         -2   -1    0    0    0  501 -0.00000000000E+00  0.00000000000E+00  0.22551540948E+03  0.22551540948E+03  0.00000000000E+00 0.  1.
          2   -1    0    0  501    0  0.00000000000E+00 -0.00000000000E+00 -0.65650969128E+02  0.65650969128E+02  0.00000000000E+00 0. -1.
         23    2    1    2    0    0 -0.22948920579E+02 -0.26035105897E+01  0.14980410878E+03  0.19647596523E+03  0.12501241012E+03 0.  0.
          5    1    3    3  502    0  0.50791284157E+02 -0.12605593142E+02  0.63709050130E+02  0.82580800391E+02  0.47000000000E+01 0.  1.
         -5    1    3    3    0  502 -0.73740204736E+02  0.10002082552E+02  0.86095058650E+02  0.11389516484E+03  0.47000000000E+01 0.  1.
        -11    1    1    2    0    0 -0.17865551874E+02 -0.32870132256E+02 -0.68471900083E+01  0.38032979758E+02  0.00000000000E+00 0. -1.
         11    1    1    2    0    0  0.40814472453E+02  0.35473642846E+02  0.16907521580E+02  0.56657433620E+02  0.00000000000E+00 0.  1.
<mgrwt>
<rscale>  0 0.11793459E+03</rscale>
<asrwt>0</asrwt>
<pdfrwt beam="2">  1        2 0.10100149E-01 0.12712802E+03</pdfrwt>
<pdfrwt beam="1">  1       -2 0.34694678E-01 0.12712802E+03</pdfrwt>
<totfact> 0.46836039E+03</totfact>
</mgrwt>
</event>
<event>
 7    1  0.6095443E-006  0.1531216E+03  0.7546771E-02  0.1206399E+00
         -2   -1    0    0    0  501 -0.00000000000E+00  0.00000000000E+00  0.54870546710E+02  0.54870546710E+02  0.00000000000E+00 0. -1.
          2   -1    0    0  501    0  0.00000000000E+00 -0.00000000000E+00 -0.35993015010E+03  0.35993015010E+03  0.00000000000E+00 0.  1.
         23    2    1    2    0    0 -0.88118036446E+02  0.74361992847E+01 -0.13396579158E+03  0.20345281899E+03  0.12500452326E+03 0.  0.
          5    1    3    3  502    0 -0.87328823903E+02 -0.21421533145E+02 -0.14623727215E+03  0.17173419965E+03  0.47000000000E+01 0. -1.
         -5    1    3    3    0  502 -0.78921254302E+00  0.28857732430E+02  0.12271480566E+02  0.31718619338E+02  0.47000000000E+01 0. -1.
        -11    1    1    2    0    0  0.12231667191E+00 -0.30595225166E+02 -0.63133893724E+02  0.70156762334E+02  0.00000000000E+00 0.  1.
         11    1    1    2    0    0  0.87995719774E+02  0.23159025881E+02 -0.10795991808E+03  0.14119111548E+03  0.00000000000E+00 0. -1.
<mgrwt>
<rscale>  0 0.14527777E+03</rscale>
<asrwt>0</asrwt>
<pdfrwt beam="2">  1        2 0.55373870E-01 0.15312157E+03</pdfrwt>
<pdfrwt beam="1">  1       -2 0.84416225E-02 0.15312157E+03</pdfrwt>
<totfact> 0.74805593E+03</totfact>
</mgrwt>
</event>
<event>
 7    1  0.6095443E-006  0.1410818E+03  0.7546771E-02  0.1222472E+00
         -3   -1    0    0    0  501 -0.00000000000E+00  0.00000000000E+00  0.28962626279E+02  0.28962626279E+02  0.00000000000E+00 0.  1.
          3   -1    0    0  501    0  0.00000000000E+00 -0.00000000000E+00 -0.57142676484E+03  0.57142676484E+03  0.00000000000E+00 0. -1.
         23    2    1    2    0    0  0.64379017065E+02 -0.11630257097E+02 -0.25241735256E+03  0.28916878169E+03  0.12499657481E+03 0.  0.
          5    1    3    3  502    0  0.10032824856E+03  0.62295805167E+01 -0.18297545216E+03  0.20882210425E+03  0.47000000000E+01 0. -1.
         -5    1    3    3    0  502 -0.35949231493E+02 -0.17859837613E+02 -0.69441900401E+02  0.80346677441E+02  0.47000000000E+01 0. -1.
        -11    1    1    2    0    0 -0.47676014085E+02 -0.18295351402E+01 -0.28528513328E+03  0.28924722434E+03  0.00000000000E+00 0. -1.
         11    1    1    2    0    0 -0.16703002980E+02  0.13459792237E+02 -0.47616527266E+01  0.21973385089E+02  0.00000000000E+00 0.  1.
<mgrwt>
<rscale>  0 0.13341711E+03</rscale>
<asrwt>0</asrwt>
<pdfrwt beam="2">  1        3 0.87911810E-01 0.14108177E+03</pdfrwt>
<pdfrwt beam="1">  1       -3 0.44557887E-02 0.14108177E+03</pdfrwt>
<totfact> 0.77218098E+02</totfact>
</mgrwt>
</event>
<event>
 7    1  0.6095443E-006  0.1757120E+03  0.7546771E-02  0.1177814E+00
          1   -1    0    0  501    0  0.00000000000E+00  0.00000000000E+00  0.20135498707E+03  0.20135498707E+03  0.00000000000E+00 0. -1.
         -1   -1    0    0    0  501 -0.00000000000E+00 -0.00000000000E+00 -0.15772743148E+03  0.15772743148E+03  0.00000000000E+00 0.  1.
         23    2    1    2    0    0  0.11894574389E+03  0.33240487000E+02 -0.44938508805E+02  0.18136747352E+03  0.12498668295E+03 0.  0.
          5    1    3    3  502    0  0.73235434284E+02  0.81023436456E+02 -0.30958476825E+02  0.11361665097E+03  0.47000000000E+01 0.  1.
         -5    1    3    3    0  502  0.45710309605E+02 -0.47782949456E+02 -0.13980031981E+02  0.67750822556E+02  0.47000000000E+01 0.  1.
        -11    1    1    2    0    0 -0.12652020175E+03 -0.26083485926E+02  0.99162884036E+02  0.16285265506E+03  0.00000000000E+00 0. -1.
         11    1    1    2    0    0  0.75744578649E+01 -0.71570010736E+01 -0.10596819645E+02  0.14862289962E+02  0.00000000000E+00 0.  1.
<mgrwt>
<rscale>  0 0.17003291E+03</rscale>
<asrwt>0</asrwt>
<pdfrwt beam="1">  1        1 0.30977690E-01 0.17571195E+03</pdfrwt>
<pdfrwt beam="2">  1       -1 0.24265759E-01 0.17571195E+03</pdfrwt>
<totfact> 0.20946662E+03</totfact>
</mgrwt>
</event>
<event>
 7    1  0.6095443E-006  0.2757646E+03  0.7546771E-02  0.1099947E+00
          1   -1    0    0  501    0  0.00000000000E+00  0.00000000000E+00  0.43650302861E+03  0.43650302861E+03  0.00000000000E+00 0. -1.
         -1   -1    0    0    0  501 -0.00000000000E+00 -0.00000000000E+00 -0.17463627847E+03  0.17463627847E+03  0.00000000000E+00 0.  1.
         23    2    1    2    0    0 -0.86795884615E+02  0.22994998859E+03  0.65436466391E+02  0.28342204907E+03  0.12504240851E+03 0.  0.
          5    1    3    3  502    0 -0.56450669240E+02  0.38787342427E+02  0.57657305284E+02  0.89652612025E+02  0.47000000000E+01 0.  1.
         -5    1    3    3    0  502 -0.30345215375E+02  0.19116264617E+03  0.77791611073E+01  0.19376943704E+03  0.47000000000E+01 0.  1.
        -11    1    1    2    0    0  0.81512988907E+01 -0.14166993289E+03  0.85964614277E+02  0.16591180931E+03  0.00000000000E+00 0.  1.
         11    1    1    2    0    0  0.78644585724E+02 -0.88280055698E+02  0.11046566947E+03  0.16180544870E+03  0.00000000000E+00 0. -1.
<mgrwt>
<rscale>  0 0.27234118E+03</rscale>
<asrwt>0</asrwt>
<pdfrwt beam="1">  1        1 0.67154312E-01 0.27576462E+03</pdfrwt>
<pdfrwt beam="2">  1       -1 0.26867120E-01 0.27576462E+03</pdfrwt>
<totfact> 0.66924459E+02</totfact>
</mgrwt>
</event>
<event>
 7    1  0.6095443E-006  0.1347833E+03  0.7546771E-02  0.1233756E+00
         -2   -1    0    0    0  501 -0.00000000000E+00  0.00000000000E+00  0.13067465124E+04  0.13067465124E+04  0.00000000000E+00 0.  1.
          2   -1    0    0  501    0  0.00000000000E+00 -0.00000000000E+00 -0.11408838150E+02  0.11408838150E+02  0.00000000000E+00 0. -1.
         23    2    1    2    0    0 -0.15459473691E+02  0.47979037631E+02  0.88619041054E+03  0.89638160330E+03  0.12500220653E+03 0.  0.
          5    1    3    3  502    0  0.29841298116E+02 -0.26138386729E+02  0.43862425258E+03  0.44043960231E+03  0.47000000000E+01 0. -1.
         -5    1    3    3    0  502 -0.45300771807E+02  0.74117424359E+02  0.44756615796E+03  0.45594200099E+03  0.47000000000E+01 0. -1.
        -11    1    1    2    0    0 -0.10339354788E+02 -0.68138064852E+02  0.25214470487E+03  0.26139366927E+03  0.00000000000E+00 0.  1.
         11    1    1    2    0    0  0.25798828479E+02  0.20159027221E+02  0.15700255888E+03  0.16038007802E+03  0.00000000000E+00 0. -1.
<mgrwt>
<rscale>  0 0.12584394E+03</rscale>
<asrwt>0</asrwt>
<pdfrwt beam="2">  1        2 0.17552069E-02 0.13478329E+03</pdfrwt>
<pdfrwt beam="1">  1       -2 0.20103781E+00 0.13478329E+03</pdfrwt>
<totfact> 0.90376657E+02</totfact>
</mgrwt>
</event>
<event>
 7    1  0.6095443E-006  0.1678765E+03  0.7546771E-02  0.1186000E+00
         -1   -1    0    0    0  501 -0.00000000000E+00  0.00000000000E+00  0.11658315792E+03  0.11658315792E+03  0.00000000000E+00 0.  1.
          1   -1    0    0  501    0  0.00000000000E+00 -0.00000000000E+00 -0.28496860094E+03  0.28496860094E+03  0.00000000000E+00 0. -1.
         23    2    1    2    0    0 -0.11017250116E+03 -0.20480850330E+02  0.12599984727E+02  0.16834872954E+03  0.12500035952E+03 0.  0.
          5    1    3    3  502    0 -0.12439081917E+03 -0.99919498259E+01 -0.24249833421E+02  0.12721265415E+03  0.47000000000E+01 0.  1.
         -5    1    3    3    0  502  0.14218318010E+02 -0.10488900504E+02  0.36849818148E+02  0.41136075388E+02  0.47000000000E+01 0.  1.
        -11    1    1    2    0    0  0.27599266884E+02 -0.24655052188E+01 -0.13119055798E+03  0.13408490128E+03  0.00000000000E+00 0. -1.
         11    1    1    2    0    0  0.82573234276E+02  0.22946355549E+02 -0.49794869763E+02  0.99118128042E+02  0.00000000000E+00 0.  1.
<mgrwt>
<rscale>  0 0.16241248E+03</rscale>
<asrwt>0</asrwt>
<pdfrwt beam="2">  1        1 0.43841323E-01 0.16787655E+03</pdfrwt>
<pdfrwt beam="1">  1       -1 0.17935870E-01 0.16787655E+03</pdfrwt>
<totfact> 0.22149060E+03</totfact>
</mgrwt>
</event>
<event>
 7    1  0.6095443E-006  0.1524007E+03  0.7546771E-02  0.1206329E+00
          1   -1    0    0  501    0  0.00000000000E+00  0.00000000000E+00  0.77640193612E+03  0.77640193612E+03  0.00000000000E+00 0. -1.
         -1   -1    0    0    0  501 -0.00000000000E+00 -0.00000000000E+00 -0.25078019280E+02  0.25078019280E+02  0.00000000000E+00 0.  1.
         23    2    1    2    0    0 -0.57919662912E+01 -0.86996841840E+02  0.38405566911E+03  0.41318847693E+03  0.12499585242E+03 0.  0.
          5    1    3    3  502    0  0.26852875011E+02 -0.31919921332E+02  0.31914678379E+03  0.32189550770E+03  0.47000000000E+01 0. -1.
         -5    1    3    3    0  502 -0.32644841302E+02 -0.55076920508E+02  0.64908885326E+02  0.91292969228E+02  0.47000000000E+01 0. -1.
        -11    1    1    2    0    0 -0.18586446687E+02  0.48394213689E+02  0.31348656866E+03  0.31774405526E+03  0.00000000000E+00 0. -1.
         11    1    1    2    0    0  0.24378412979E+02  0.38602628151E+02  0.53781679062E+02  0.70547423215E+02  0.00000000000E+00 0.  1.
<mgrwt>
<rscale>  0 0.14533197E+03</rscale>
<asrwt>0</asrwt>
<pdfrwt beam="1">  1        1 0.11944643E+00 0.15240066E+03</pdfrwt>
<pdfrwt beam="2">  1       -1 0.38581574E-02 0.15240066E+03</pdfrwt>
<totfact> 0.60971073E+03</totfact>
</mgrwt>
</event>
<event>
 7    1  0.6095443E-006  0.1854939E+03  0.7546771E-02  0.1167712E+00
          2   -1    0    0  501    0  0.00000000000E+00  0.00000000000E+00  0.86900309947E+02  0.86900309947E+02  0.00000000000E+00 0. -1.
         -2   -1    0    0    0  501 -0.00000000000E+00 -0.00000000000E+00 -0.37183434333E+03  0.37183434333E+03  0.00000000000E+00 0.  1.
         23    2    1    2    0    0 -0.10341547677E+03 -0.89987027181E+02 -0.98981201615E+02  0.21025047898E+03  0.12496223326E+03 0.  0.
          5    1    3    3  502    0  0.24117156614E+02 -0.29758554377E+02 -0.44697999929E+02  0.59052603664E+02  0.47000000000E+01 0. -1.
         -5    1    3    3    0  502 -0.12753263338E+03 -0.60228472804E+02 -0.54283201685E+02  0.15119787531E+03  0.47000000000E+01 0. -1.
        -11    1    1    2    0    0  0.72702929546E+02  0.41866104295E+02 -0.42409101587E+02  0.94005417667E+02  0.00000000000E+00 0. -1.
         11    1    1    2    0    0  0.30712547225E+02  0.48120922887E+02 -0.14354373018E+03  0.15447875663E+03  0.00000000000E+00 0.  1.
<mgrwt>
<rscale>  0 0.18009443E+03</rscale>
<asrwt>0</asrwt>
<pdfrwt beam="1">  1        2 0.13369278E-01 0.18549390E+03</pdfrwt>
<pdfrwt beam="2">  1       -2 0.57205284E-01 0.18549390E+03</pdfrwt>
<totfact> 0.12899883E+03</totfact>
</mgrwt>
</event>
<event>
 7    1  0.6095443E-006  0.1299854E+03  0.7546771E-02  0.1241105E+00
         -2   -1    0    0    0  501 -0.00000000000E+00  0.00000000000E+00  0.12837658168E+03  0.12837658168E+03  0.00000000000E+00 0.  1.
          2   -1    0    0  501    0  0.00000000000E+00 -0.00000000000E+00 -0.11826476516E+03  0.11826476516E+03  0.00000000000E+00 0. -1.
         23    2    1    2    0    0 -0.31923556612E+02  0.15926737758E+02  0.51722588673E+02  0.13989792085E+03  0.12499371039E+03 0.  0.
          5    1    3    3  502    0 -0.50023086522E+02  0.10631321816E+02  0.86189131773E+02  0.10032941057E+03  0.47000000000E+01 0. -1.
         -5    1    3    3    0  502  0.18099529911E+02  0.52954159411E+01 -0.34466543101E+02  0.39568510286E+02  0.47000000000E+01 0. -1.
        -11    1    1    2    0    0 -0.43052618734E+01 -0.45372861587E+02 -0.38998346839E+02  0.59984188788E+02  0.00000000000E+00 0. -1.
         11    1    1    2    0    0  0.36228818485E+02  0.29446123829E+02 -0.26124253173E+01  0.46759237199E+02  0.00000000000E+00 0.  1.
<mgrwt>
<rscale>  0 0.12121552E+03</rscale>
<asrwt>0</asrwt>
<pdfrwt beam="2">  1        2 0.18194579E-01 0.12998539E+03</pdfrwt>
<pdfrwt beam="1">  1       -2 0.19750243E-01 0.12998539E+03</pdfrwt>
<totfact> 0.63005619E+03</totfact>
</mgrwt>
</event>
<event>
 7    1  0.6095443E-006  0.1417037E+03  0.7546771E-02  0.1221193E+00
          2   -1    0    0  501    0  0.00000000000E+00  0.00000000000E+00  0.32163504857E+03  0.32163504857E+03  0.00000000000E+00 0. -1.
         -2   -1    0    0    0  501 -0.00000000000E+00 -0.00000000000E+00 -0.51787668813E+02  0.51787668813E+02  0.00000000000E+00 0.  1.
         23    2    1    2    0    0  0.63900592291E+02 -0.19315668737E+02  0.12577957503E+03  0.18947413223E+03  0.12499425801E+03 0.  0.
          5    1    3    3  502    0  0.95012893615E+02  0.13452585483E+02  0.80649996125E+02  0.12543896478E+03  0.47000000000E+01 0.  1.
         -5    1    3    3    0  502 -0.31112301325E+02 -0.32768254220E+02  0.45129578901E+02  0.64035167448E+02  0.47000000000E+01 0.  1.
        -11    1    1    2    0    0 -0.73380651309E+02 -0.16939150611E+02  0.10995653240E+03  0.13327450554E+03  0.00000000000E+00 0.  1.
         11    1    1    2    0    0  0.94800590179E+01  0.36254819348E+02  0.34111272326E+02  0.50674079613E+02  0.00000000000E+00 0. -1.
<mgrwt>
<rscale>  0 0.13431309E+03</rscale>
<asrwt>0</asrwt>
<pdfrwt beam="1">  1        2 0.49482314E-01 0.14170372E+03</pdfrwt>
<pdfrwt beam="2">  1       -2 0.79673339E-02 0.14170372E+03</pdfrwt>
<totfact> 0.91752192E+03</totfact>
</mgrwt>
</event>
<event>
 7    1  0.6095443E-006  0.1253937E+03  0.7546771E-02  0.1249852E+00
         -1   -1    0    0    0  501 -0.00000000000E+00  0.00000000000E+00  0.59333029712E+02  0.59333029712E+02  0.00000000000E+00 0.  1.
          1   -1    0    0  501    0  0.00000000000E+00 -0.00000000000E+00 -0.21650472833E+03  0.21650472833E+03  0.00000000000E+00 0. -1.
         23    2    1    2    0    0  0.65097364246E+01  0.75086492292E+01 -0.50737844354E+02  0.13526979800E+03  0.12499933168E+03 0.  0.
          5    1    3    3  502    0  0.22374133941E+02  0.37281495113E+02 -0.79469676539E+02  0.90708495945E+02  0.47000000000E+01 0. -1.
         -5    1    3    3    0  502 -0.15864397517E+02 -0.29772845884E+02  0.28731832184E+02  0.44561302060E+02  0.47000000000E+01 0. -1.
        -11    1    1    2    0    0 -0.19129613770E+02  0.20124504456E+02  0.21170844194E+01  0.27846361505E+02  0.00000000000E+00 0.  1.
         11    1    1    2    0    0  0.12619877346E+02 -0.27633153685E+02 -0.10855093869E+03  0.11272159854E+03  0.00000000000E+00 0. -1.
<mgrwt>
<rscale>  0 0.11599599E+03</rscale>
<asrwt>0</asrwt>
<pdfrwt beam="2">  1        1 0.33308419E-01 0.12539374E+03</pdfrwt>
<pdfrwt beam="1">  1       -1 0.91281585E-02 0.12539374E+03</pdfrwt>
<totfact> 0.87519288E+03</totfact>
</mgrwt>
</event>
<event>
 7    1  0.6095443E-006  0.1276889E+03  0.7546771E-02  0.1243192E+00
         -3   -1    0    0    0  501 -0.00000000000E+00  0.00000000000E+00  0.49413850929E+03  0.49413850929E+03  0.00000000000E+00 0.  1.
          3   -1    0    0  501    0  0.00000000000E+00 -0.00000000000E+00 -0.32111276213E+02  0.32111276213E+02  0.00000000000E+00 0. -1.
         23    2    1    2    0    0 -0.24029145040E+02 -0.99874561387E+01  0.36758059179E+03  0.38912715111E+03  0.12500919636E+03 0.  0.
          5    1    3    3  502    0 -0.49932850782E+02 -0.15851153152E+02  0.35584748947E+03  0.35971387852E+03  0.47000000000E+01 0. -1.
         -5    1    3    3    0  502  0.25903705742E+02  0.58636970133E+01  0.11733102329E+02  0.29413272584E+02  0.47000000000E+01 0. -1.
        -11    1    1    2    0    0  0.16976659169E+02  0.45896019282E+02  0.86940415985E+02  0.99766163975E+02  0.00000000000E+00 0.  1.
         11    1    1    2    0    0  0.70524858706E+01 -0.35908563143E+02  0.75062252950E+01  0.37356470419E+02  0.00000000000E+00 0. -1.
<mgrwt>
<rscale>  0 0.11994244E+03</rscale>
<asrwt>0</asrwt>
<pdfrwt beam="2">  1        3 0.49401967E-02 0.12768887E+03</pdfrwt>
<pdfrwt beam="1">  1       -3 0.76021304E-01 0.12768887E+03</pdfrwt>
<totfact> 0.88545832E+02</totfact>
</mgrwt>
</event>
<event>
 7    1  0.6095443E-006  0.1392083E+03  0.7546771E-02  0.1229524E+00
         -1   -1    0    0    0  501 -0.00000000000E+00  0.00000000000E+00  0.11275788009E+03  0.11275788009E+03  0.00000000000E+00 0.  1.
          1   -1    0    0  501    0  0.00000000000E+00 -0.00000000000E+00 -0.13713084011E+03  0.13713084011E+03  0.00000000000E+00 0. -1.
         23    2    1    2    0    0 -0.13720475546E+02  0.54271532246E+02  0.17197971887E+02  0.14026660355E+03  0.12745704834E+03 0.  0.
          5    1    3    3  502    0 -0.53933534012E+02  0.45181690740E+02  0.50771249893E+02  0.86890857315E+02  0.47000000000E+01 0. -1.
         -5    1    3    3    0  502  0.40213058467E+02  0.90898415056E+01 -0.33573278006E+02  0.53375746233E+02  0.47000000000E+01 0.  1.
        -11    1    1    2    0    0  0.42021518805E+01  0.17274944168E+02  0.10477124603E+02  0.20636179791E+02  0.00000000000E+00 0. -1.
         11    1    1    2    0    0  0.95183236653E+01 -0.71546476414E+02 -0.52048056512E+02  0.88985936862E+02  0.00000000000E+00 0.  1.
<mgrwt>
<rscale>  0 0.12861593E+03</rscale>
<asrwt>0</asrwt>
<pdfrwt beam="2">  1        1 0.21097052E-01 0.13920830E+03</pdfrwt>
<pdfrwt beam="1">  1       -1 0.17347366E-01 0.13920830E+03</pdfrwt>
<totfact> 0.57772871E+03</totfact>
</mgrwt>
</event>
<event>
 7    1  0.6095443E-006  0.1153532E+03  0.7546771E-02  0.1262375E+00
          1   -1    0    0  501    0  0.00000000000E+00  0.00000000000E+00  0.28056578290E+03  0.28056578290E+03  0.00000000000E+00 0. -1.
         -1   -1    0    0    0  501 -0.00000000000E+00 -0.00000000000E+00 -0.51164406473E+02  0.51164406473E+02  0.00000000000E+00 0.  1.
         23    2    1    2    0    0 -0.32026008597E+01  0.28798686121E+02  0.41689767345E+02  0.12265561185E+03  0.11165456301E+03 0.  0.
          5    1    3    3  502    0  0.20755920097E+02 -0.38276131477E+02  0.12556360658E+02  0.45559001886E+02  0.47000000000E+01 0. -1.
         -5    1    3    3    0  502 -0.23958520956E+02  0.67074817597E+02  0.29133406687E+02  0.77096609960E+02  0.47000000000E+01 0.  1.
        -11    1    1    2    0    0  0.65058337896E+01  0.31016356078E+02  0.75287911059E+02  0.81686043908E+02  0.00000000000E+00 0.  1.
         11    1    1    2    0    0 -0.33032329299E+01 -0.59815042198E+02  0.11242369803E+03  0.12738853362E+03  0.00000000000E+00 0. -1.
<mgrwt>
<rscale>  0 0.10903088E+03</rscale>
<asrwt>0</asrwt>
<pdfrwt beam="1">  1        1 0.43163966E-01 0.11535321E+03</pdfrwt>
<pdfrwt beam="2">  1       -1 0.78714473E-02 0.11535321E+03</pdfrwt>
<totfact> 0.79010765E+03</totfact>
</mgrwt>
</event>
<event>
 7    1  0.6095443E-006  0.1429702E+03  0.7546771E-02  0.1221458E+00
          4   -1    0    0  501    0  0.00000000000E+00  0.00000000000E+00  0.86271804738E+02  0.86271804738E+02  0.00000000000E+00 0. -1.
         -4   -1    0    0    0  501 -0.00000000000E+00 -0.00000000000E+00 -0.19183374380E+03  0.19183374380E+03  0.00000000000E+00 0.  1.
         23    2    1    2    0    0  0.65215516486E+02  0.23729166274E+02 -0.82226191478E+02  0.16492917616E+03  0.12499739862E+03 0.  0.
          5    1    3    3  502    0 -0.33296254179E+02  0.25424366460E+01  0.16162083078E+01  0.33761022730E+02  0.47000000000E+01 0.  1.
         -5    1    3    3    0  502  0.98511770665E+02  0.21186729628E+02 -0.83842399786E+02  0.13116815343E+03  0.47000000000E+01 0.  1.
        -11    1    1    2    0    0 -0.29523168535E+02 -0.21362945056E+02 -0.54616362706E+02  0.65657748797E+02  0.00000000000E+00 0.  1.
         11    1    1    2    0    0 -0.35692347951E+02 -0.23662212180E+01  0.31280615120E+02  0.47518623585E+02  0.00000000000E+00 0. -1.
<mgrwt>
<rscale>  0 0.13412654E+03</rscale>
<asrwt>0</asrwt>
<pdfrwt beam="1">  1        4 0.13272585E-01 0.14297023E+03</pdfrwt>
<pdfrwt beam="2">  1       -4 0.29512883E-01 0.14297023E+03</pdfrwt>
<totfact> 0.85518522E+02</totfact>
</mgrwt>
</event>
<event>
 7    1  0.6095443E-006  0.1381210E+03  0.7546771E-02  0.1226994E+00
          3   -1    0    0  501    0  0.00000000000E+00  0.00000000000E+00  0.10885873339E+03  0.10885873339E+03  0.00000000000E+00 0. -1.
         -3   -1    0    0    0  501 -0.00000000000E+00 -0.00000000000E+00 -0.14288872725E+03  0.14288872725E+03  0.00000000000E+00 0.  1.
         23    2    1    2    0    0  0.29099801607E+02  0.51035173234E+02 -0.34285971952E+02  0.14231286727E+03  0.12500414776E+03 0.  0.
          5    1    3    3  502    0  0.35443761930E+02  0.26095614682E+02  0.42395555342E+02  0.61292042535E+02  0.47000000000E+01 0.  1.
         -5    1    3    3    0  502 -0.63439603228E+01  0.24939558552E+02 -0.76681527293E+02  0.81020824739E+02  0.47000000000E+01 0.  1.
        -11    1    1    2    0    0 -0.12438812711E+02  0.34152256151E+01 -0.38467649110E+02  0.40572747698E+02  0.00000000000E+00 0.  1.
         11    1    1    2    0    0 -0.16660988896E+02 -0.54450398849E+02  0.38723627199E+02  0.68861845671E+02  0.00000000000E+00 0. -1.
<mgrwt>
<rscale>  0 0.13031166E+03</rscale>
<asrwt>0</asrwt>
<pdfrwt beam="1">  1        3 0.16747498E-01 0.13812105E+03</pdfrwt>
<pdfrwt beam="2">  1       -3 0.21982881E-01 0.13812105E+03</pdfrwt>
<totfact> 0.13408641E+03</totfact>
</mgrwt>
</event>
<event>
 7    1  0.6095443E-006  0.1305995E+03  0.7546771E-02  0.1239784E+00
         -1   -1    0    0    0  501 -0.00000000000E+00  0.00000000000E+00  0.10258761380E+04  0.10258761380E+04  0.00000000000E+00 0.  1.
          1   -1    0    0  501    0  0.00000000000E+00 -0.00000000000E+00 -0.13930114270E+02  0.13930114270E+02  0.00000000000E+00 0. -1.
         23    2    1    2    0    0 -0.37645868106E+02 -0.37792507088E+01  0.70881608087E+03  0.72074715075E+03  0.12499889873E+03 0.  0.
          5    1    3    3  502    0 -0.28734631966E+02  0.59032704933E+02  0.40830443373E+03  0.41357603887E+03  0.47000000000E+01 0.  1.
         -5    1    3    3    0  502 -0.89112361399E+01 -0.62811955642E+02  0.30051164714E+03  0.30717111187E+03  0.47000000000E+01 0.  1.
        -11    1    1    2    0    0  0.49671140777E+02 -0.30483546348E+02  0.13482797212E+03  0.14688448144E+03  0.00000000000E+00 0. -1.
         11    1    1    2    0    0 -0.12025272671E+02  0.34262797057E+02  0.16830197078E+03  0.17217462012E+03  0.00000000000E+00 0.  1.
<mgrwt>
<rscale>  0 0.12203107E+03</rscale>
<asrwt>0</asrwt>
<pdfrwt beam="2">  1        1 0.21430953E-02 0.13059946E+03</pdfrwt>
<pdfrwt beam="1">  1       -1 0.15782704E+00 0.13059946E+03</pdfrwt>
<totfact> 0.17563383E+03</totfact>
</mgrwt>
</event>
<event>
 7    1  0.6095443E-006  0.1385541E+03  0.7546771E-02  0.1246421E+00
         -2   -1    0    0    0  501 -0.00000000000E+00  0.00000000000E+00  0.96648446919E+02  0.96648446919E+02  0.00000000000E+00 0.  1.
          2   -1    0    0  501    0  0.00000000000E+00 -0.00000000000E+00 -0.12734787167E+03  0.12734787167E+03  0.00000000000E+00 0. -1.
         23    2    1    2    0    0  0.58193174916E+02  0.13665845503E+02  0.12723551561E+02  0.13913706372E+03  0.12499613112E+03 0.  0.
          5    1    3    3  502    0  0.60324035878E+02  0.44041393406E+02  0.50579668957E+02  0.90327330026E+02  0.47000000000E+01 0.  1.
         -5    1    3    3    0  502 -0.21308609625E+01 -0.30375547903E+02 -0.37856117396E+02  0.48809733693E+02  0.47000000000E+01 0.  1.
        -11    1    1    2    0    0 -0.67321848746E+01 -0.11021522954E+02  0.52836383626E+01  0.13953964160E+02  0.00000000000E+00 0.  1.
         11    1    1    2    0    0 -0.51460990041E+02 -0.26443225488E+01 -0.48706614673E+02  0.70905290710E+02  0.00000000000E+00 0. -1.
<mgrwt>
<rscale>  0 0.11800704E+03</rscale>
<asrwt>0</asrwt>
<pdfrwt beam="2">  1        2 0.19591980E-01 0.13855408E+03</pdfrwt>
<pdfrwt beam="1">  1       -2 0.14868992E-01 0.13855408E+03</pdfrwt>
<totfact> 0.93201416E+03</totfact>
</mgrwt>
</event>
<event>
 7    1  0.6095443E-006  0.1288238E+03  0.7546771E-02  0.1243631E+00
          2   -1    0    0  501    0  0.00000000000E+00  0.00000000000E+00  0.14061582074E+03  0.14061582074E+03  0.00000000000E+00 0. -1.
         -2   -1    0    0    0  501 -0.00000000000E+00 -0.00000000000E+00 -0.96651546828E+02  0.96651546828E+02  0.00000000000E+00 0.  1.
         23    2    1    2    0    0 -0.30826273110E+02 -0.16227316997E+01 -0.62408286078E+01  0.12897487917E+03  0.12507069658E+03 0.  0.
          5    1    3    3  502    0  0.38969196498E+02  0.40369583378E+01 -0.35367155920E+02  0.52988876438E+02  0.47000000000E+01 0.  1.
         -5    1    3    3    0  502 -0.69795469607E+02 -0.56596900375E+01  0.29126327312E+02  0.75986002736E+02  0.47000000000E+01 0.  1.
        -11    1    1    2    0    0  0.46880312454E+02 -0.30392429693E+02  0.14501768036E+02  0.57721441031E+02  0.00000000000E+00 0. -1.
         11    1    1    2    0    0 -0.16054039345E+02  0.32015161393E+02  0.35703334485E+02  0.50571047366E+02  0.00000000000E+00 0.  1.
<mgrwt>
<rscale>  0 0.11967685E+03</rscale>
<asrwt>0</asrwt>
<pdfrwt beam="1">  1        2 0.21633203E-01 0.12882380E+03</pdfrwt>
<pdfrwt beam="2">  1       -2 0.14869469E-01 0.12882380E+03</pdfrwt>
<totfact> 0.82885257E+03</totfact>
</mgrwt>
</event>
<event>
 7    1  0.6896684E-006  0.1273145E+03  0.7546771E-02  0.1256719E+00
          1   -1    0    0  501    0  0.00000000000E+00  0.00000000000E+00  0.39001576926E+03  0.39001576926E+03  0.00000000000E+00 0. -1.
         -1   -1    0    0    0  501 -0.00000000000E+00 -0.00000000000E+00 -0.27221836586E+02  0.27221836586E+02  0.00000000000E+00 0.  1.
         23    2    1    2    0    0  0.23480892360E+02  0.56755044665E+01  0.19598457788E+03  0.23370695103E+03  0.12500168214E+03 0.  0.
          5    1    3    3  502    0  0.25215476678E+01 -0.57062735706E+02  0.11912241833E+03  0.13219211232E+03  0.47000000000E+01 0.  1.
         -5    1    3    3    0  502  0.20959344692E+02  0.62738240173E+02  0.76862159541E+02  0.10151483871E+03  0.47000000000E+01 0.  1.
        -11    1    1    2    0    0 -0.37013968514E+00 -0.35857862277E+02  0.57146180140E+02  0.67465614909E+02  0.00000000000E+00 0.  1.
         11    1    1    2    0    0 -0.23110752675E+02  0.30182357810E+02  0.10966317465E+03  0.11606503990E+03  0.00000000000E+00 0. -1.
<mgrwt>
<rscale>  0 0.11210588E+03</rscale>
<asrwt>0</asrwt>
<pdfrwt beam="1">  1        1 0.60002422E-01 0.12731451E+03</pdfrwt>
<pdfrwt beam="2">  1       -1 0.41879751E-02 0.12731451E+03</pdfrwt>
<totfact> 0.13496039E+04</totfact>
</mgrwt>
</event>
<event>
 7    1  0.6095443E-006  0.3265010E+03  0.7546771E-02  0.1073940E+00
         -2   -1    0    0    0  501 -0.00000000000E+00  0.00000000000E+00  0.47411080085E+03  0.47411080085E+03  0.00000000000E+00 0.  1.
          2   -1    0    0  501    0  0.00000000000E+00 -0.00000000000E+00 -0.59519893320E+03  0.59519893320E+03  0.00000000000E+00 0. -1.
         23    2    1    2    0    0  0.24263398252E+02  0.30065318736E+03  0.36501965400E+03  0.48973691189E+03  0.12498737336E+03 0.  0.
          5    1    3    3  502    0 -0.86425101062E+01  0.56578740326E+02  0.15751490658E+03  0.16765703872E+03  0.47000000000E+01 0. -1.
         -5    1    3    3    0  502  0.32905908358E+02  0.24407444703E+03  0.20750474742E+03  0.32207987317E+03  0.47000000000E+01 0. -1.
        -11    1    1    2    0    0  0.58880110519E+01 -0.67575427601E+02 -0.18865197638E+03  0.20047612147E+03  0.00000000000E+00 0. -1.
         11    1    1    2    0    0 -0.30151409304E+02 -0.23307775976E+03 -0.29745580998E+03  0.37909670068E+03  0.00000000000E+00 0.  1.
<mgrwt>
<rscale>  0 0.32374115E+03</rscale>
<asrwt>0</asrwt>
<pdfrwt beam="2">  1        2 0.91569066E-01 0.32650099E+03</pdfrwt>
<pdfrwt beam="1">  1       -2 0.72940124E-01 0.32650099E+03</pdfrwt>
<totfact> 0.89253479E+01</totfact>
</mgrwt>
</event>
<event>
 6    1  0.6095443E-006  0.2403791E+03  0.7546771E-02  0.1150520E+00
         -1   -1    0    0    0  501 -0.00000000000E+00  0.00000000000E+00  0.49139839577E+02  0.49139839577E+02  0.00000000000E+00 0.  1.
          1   -1    0    0  501    0  0.00000000000E+00 -0.00000000000E+00 -0.64798459000E+03  0.64798459000E+03  0.00000000000E+00 0. -1.
          5    1    1    2  502    0  0.18904628597E+02  0.59925746260E+02 -0.13516210501E+02  0.64445775606E+02  0.47000000000E+01 0. -1.
         -5    1    1    2    0  502 -0.84010106569E+01 -0.12482874183E+03 -0.34667491060E+03  0.36858971148E+03  0.47000000000E+01 0.  1.
        -11    1    1    2    0    0 -0.35338758556E+00  0.19476451359E+02  0.14325473165E+01  0.19532261317E+02  0.00000000000E+00 0.  1.
         11    1    1    2    0    0 -0.10150230355E+02  0.45426544213E+02 -0.24008617663E+03  0.24455668117E+03  0.00000000000E+00 0. -1.
<mgrwt>
<rscale>  0 0.19907664E+03</rscale>
<asrwt>0</asrwt>
<pdfrwt beam="2">  1        1 0.99689929E-01 0.24037905E+03</pdfrwt>
<pdfrwt beam="1">  1       -1 0.75599759E-02 0.24037905E+03</pdfrwt>
<totfact> 0.29457624E+03</totfact>
</mgrwt>
</event>
<event>
 7    1  0.6095443E-006  0.1750798E+03  0.7546771E-02  0.1178596E+00
          3   -1    0    0  501    0  0.00000000000E+00  0.00000000000E+00  0.50375219424E+03  0.50375219424E+03  0.00000000000E+00 0. -1.
         -3   -1    0    0    0  501 -0.00000000000E+00 -0.00000000000E+00 -0.55735572873E+02  0.55735572873E+02  0.00000000000E+00 0.  1.
         23    2    1    2    0    0 -0.11412261074E+03 -0.44773082710E+02  0.18160679917E+03  0.25225776961E+03  0.12499741439E+03 0.  0.
          5    1    3    3  502    0 -0.12888231510E+03 -0.94355616365E+01  0.16651136970E+03  0.21082648602E+03  0.47000000000E+01 0. -1.
         -5    1    3    3    0  502  0.14759704364E+02 -0.35337521074E+02  0.15095429473E+02  0.41431283585E+02  0.47000000000E+01 0. -1.
        -11    1    1    2    0    0  0.45724234530E+02  0.75333482345E+01  0.23137148893E+02  0.51795604233E+02  0.00000000000E+00 0.  1.
         11    1    1    2    0    0  0.68398376205E+02  0.37239734476E+02  0.24327267330E+03  0.25543439327E+03  0.00000000000E+00 0. -1.
<mgrwt>
<rscale>  0 0.16928419E+03</rscale>
<asrwt>0</asrwt>
<pdfrwt beam="1">  1        3 0.77500334E-01 0.17507985E+03</pdfrwt>
<pdfrwt beam="2">  1       -3 0.85747039E-02 0.17507985E+03</pdfrwt>
<totfact> 0.36604099E+02</totfact>
</mgrwt>
</event>
<event>
 7    1  0.6095443E-006  0.1878252E+03  0.7546771E-02  0.1167489E+00
         -1   -1    0    0    0  501 -0.00000000000E+00  0.00000000000E+00  0.11036101143E+03  0.11036101143E+03  0.00000000000E+00 0.  1.
          1   -1    0    0  501    0  0.00000000000E+00 -0.00000000000E+00 -0.34268929733E+03  0.34268929733E+03  0.00000000000E+00 0. -1.
         23    2    1    2    0    0  0.50426180813E+02  0.85411580166E+02 -0.70278352459E+01  0.15972696140E+03  0.12500149596E+03 0.  0.
          5    1    3    3  502    0 -0.38128074579E+02  0.24170669407E+02 -0.22827126860E+02  0.50804911686E+02  0.47000000000E+01 0.  1.
         -5    1    3    3    0  502  0.88554255392E+02  0.61240910759E+02  0.15799291614E+02  0.10892204971E+03  0.47000000000E+01 0.  1.
        -11    1    1    2    0    0 -0.49169414792E+02  0.32607347884E+02 -0.32750677473E+02  0.67479458815E+02  0.00000000000E+00 0.  1.
         11    1    1    2    0    0 -0.12567660211E+01 -0.11801892805E+03 -0.19254977319E+03  0.22584388855E+03  0.00000000000E+00 0. -1.
<mgrwt>
<rscale>  0 0.18032448E+03</rscale>
<asrwt>0</asrwt>
<pdfrwt beam="2">  1        1 0.52721431E-01 0.18782517E+03</pdfrwt>
<pdfrwt beam="1">  1       -1 0.16978617E-01 0.18782517E+03</pdfrwt>
<totfact> 0.19259984E+03</totfact>
</mgrwt>
</event>
<event>
 7    1  0.6095443E-006  0.1445694E+03  0.7546771E-02  0.1217525E+00
         -3   -1    0    0    0  501 -0.00000000000E+00  0.00000000000E+00  0.90889063557E+03  0.90889063557E+03  0.00000000000E+00 0.  1.
          3   -1    0    0  501    0  0.00000000000E+00 -0.00000000000E+00 -0.18800425368E+02  0.18800425368E+02  0.00000000000E+00 0. -1.
         23    2    1    2    0    0  0.71274999218E+02 -0.14001630970E+02  0.52235152584E+03  0.54198841280E+03  0.12499660744E+03 0.  0.
          5    1    3    3  502    0  0.65719365421E+02 -0.20506445842E+02  0.11220305545E+03  0.13172382079E+03  0.47000000000E+01 0. -1.
         -5    1    3    3    0  502  0.55556337973E+01  0.65048148722E+01  0.41014847040E+03  0.41026459200E+03  0.47000000000E+01 0. -1.
        -11    1    1    2    0    0 -0.27161462105E+02 -0.38827927691E+02  0.14111972815E+03  0.14886279140E+03  0.00000000000E+00 0. -1.
         11    1    1    2    0    0 -0.44113537113E+02  0.52829558661E+02  0.22661895621E+03  0.23683985674E+03  0.00000000000E+00 0.  1.
<mgrwt>
<rscale>  0 0.13692692E+03</rscale>
<asrwt>0</asrwt>
<pdfrwt beam="2">  1        3 0.28923738E-02 0.14456944E+03</pdfrwt>
<pdfrwt beam="1">  1       -3 0.13982929E+00 0.14456944E+03</pdfrwt>
<totfact> 0.51604423E+02</totfact>
</mgrwt>
</event>
<event>
 7    1  0.6095443E-006  0.1299112E+03  0.7546771E-02  0.1236937E+00
         -3   -1    0    0    0  501 -0.00000000000E+00  0.00000000000E+00  0.17635750679E+03  0.17635750679E+03  0.00000000000E+00 0.  1.
          3   -1    0    0  501    0  0.00000000000E+00 -0.00000000000E+00 -0.82732065681E+02  0.82732065681E+02  0.00000000000E+00 0. -1.
         23    2    1    2    0    0  0.29004234257E+02 -0.20142192233E+02  0.75885437816E+02  0.15045106535E+03  0.12501987794E+03 0.  0.
          5    1    3    3  502    0  0.44856908048E+02 -0.64967348522E+02  0.62588073082E+02  0.10085759994E+03  0.47000000000E+01 0. -1.
         -5    1    3    3    0  502 -0.15852673791E+02  0.44825156290E+02  0.13297364735E+02  0.49593465412E+02  0.47000000000E+01 0. -1.
        -11    1    1    2    0    0 -0.60286944307E+02  0.27957882404E+02  0.31547575858E+02  0.73562275556E+02  0.00000000000E+00 0.  1.
         11    1    1    2    0    0  0.31282710050E+02 -0.78156901715E+01 -0.13807572561E+02  0.35076231567E+02  0.00000000000E+00 0. -1.
<mgrwt>
<rscale>  0 0.12381228E+03</rscale>
<asrwt>0</asrwt>
<pdfrwt beam="2">  1        3 0.12728010E-01 0.12991121E+03</pdfrwt>
<pdfrwt beam="1">  1       -3 0.27131924E-01 0.12991121E+03</pdfrwt>
<totfact> 0.14510108E+03</totfact>
</mgrwt>
</event>
<event>
 7    1  0.6095443E-006  0.1269505E+03  0.7546771E-02  0.1247600E+00
          1   -1    0    0  501    0  0.00000000000E+00  0.00000000000E+00  0.82983882797E+03  0.82983882797E+03  0.00000000000E+00 0. -1.
         -1   -1    0    0    0  501 -0.00000000000E+00 -0.00000000000E+00 -0.14601728250E+02  0.14601728250E+02  0.00000000000E+00 0.  1.
         23    2    1    2    0    0  0.92230862227E+01 -0.20126468271E+02  0.43937026220E+03  0.45734303621E+03  0.12500514158E+03 0.  0.
          5    1    3    3  502    0  0.41660669213E+02 -0.87181646838E+01  0.47554433543E+02  0.63993217643E+02  0.47000000000E+01 0. -1.
         -5    1    3    3    0  502 -0.32437582990E+02 -0.11408303588E+02  0.39181582866E+03  0.39334981857E+03  0.47000000000E+01 0. -1.
        -11    1    1    2    0    0  0.30027125514E+02 -0.15766042282E+02  0.87031068297E+02  0.93405584441E+02  0.00000000000E+00 0.  1.
         11    1    1    2    0    0 -0.39250211737E+02  0.35892510554E+02  0.28883576922E+03  0.29369193556E+03  0.00000000000E+00 0. -1.
<mgrwt>
<rscale>  0 0.11731123E+03</rscale>
<asrwt>0</asrwt>
<pdfrwt beam="1">  1        1 0.12766748E+00 0.12695048E+03</pdfrwt>
<pdfrwt beam="2">  1       -1 0.22464204E-02 0.12695048E+03</pdfrwt>
<totfact> 0.11995643E+04</totfact>
</mgrwt>
</event>
<event>
 6    1  0.6095443E-006  0.1421156E+03  0.7546771E-02  0.1292427E+00
         -4   -1    0    0    0  501 -0.00000000000E+00  0.00000000000E+00  0.93987741983E+03  0.93987741983E+03  0.00000000000E+00 0.  1.
          4   -1    0    0  501    0  0.00000000000E+00 -0.00000000000E+00 -0.91097660362E+01  0.91097660362E+01  0.00000000000E+00 0. -1.
          5    1    1    2  502    0 -0.45108662850E+01 -0.63589027475E+02  0.49329782983E+03  0.49742210571E+03  0.47000000000E+01 0. -1.
         -5    1    1    2    0  502  0.16506439403E+02  0.73318710906E+02  0.38424228060E+03  0.39155116666E+03  0.47000000000E+01 0.  1.
        -11    1    1    2    0    0 -0.11177127305E+02  0.53944689976E+01  0.20753084390E+02  0.24180963220E+02  0.00000000000E+00 0.  1.
         11    1    1    2    0    0 -0.81844581365E+00 -0.15124152429E+02  0.32474458967E+02  0.35832950275E+02  0.00000000000E+00 0. -1.
<mgrwt>
<rscale>  0 0.94446660E+02</rscale>
<asrwt>0</asrwt>
<pdfrwt beam="2">  1        4 0.14015032E-02 0.14211556E+03</pdfrwt>
<pdfrwt beam="1">  1       -4 0.14459645E+00 0.14211556E+03</pdfrwt>
<totfact> 0.10279340E+03</totfact>
</mgrwt>
</event>
<event>
 7    1  0.6095443E-006  0.4150835E+03  0.7546771E-02  0.1039409E+00
          2   -1    0    0  501    0  0.00000000000E+00  0.00000000000E+00  0.15328254286E+04  0.15328254286E+04  0.00000000000E+00 0. -1.
         -2   -1    0    0    0  501 -0.00000000000E+00 -0.00000000000E+00 -0.11098767571E+03  0.11098767571E+03  0.00000000000E+00 0.  1.
         23    2    1    2    0    0 -0.35098520190E+03 -0.18297059995E+03  0.79404089442E+03  0.89598840104E+03  0.12500168160E+03 0.  0.
          5    1    3    3  502    0 -0.72590032607E+02 -0.98938028179E+02  0.27098210567E+03  0.29750871894E+03  0.47000000000E+01 0. -1.
         -5    1    3    3    0  502 -0.27839516929E+03 -0.84032571767E+02  0.52305878875E+03  0.59847968210E+03  0.47000000000E+01 0. -1.
        -11    1    1    2    0    0  0.83225744404E+02  0.78864077568E+02  0.13231595101E+03  0.17508163283E+03  0.00000000000E+00 0.  1.
         11    1    1    2    0    0  0.26775945749E+03  0.10410652238E+03  0.49548090747E+03  0.57274307045E+03  0.00000000000E+00 0. -1.
<mgrwt>
<rscale>  0 0.41288033E+03</rscale>
<asrwt>0</asrwt>
<pdfrwt beam="1">  1        2 0.23581928E+00 0.41508345E+03</pdfrwt>
<pdfrwt beam="2">  1       -2 0.17075028E-01 0.41508345E+03</pdfrwt>
<totfact> 0.35598525E+02</totfact>
</mgrwt>
</event>
<event>
 7    1  0.6095443E-006  0.1902242E+03  0.7546771E-02  0.1163920E+00
         -3   -1    0    0    0  501 -0.00000000000E+00  0.00000000000E+00  0.31121083618E+03  0.31121083618E+03  0.00000000000E+00 0.  1.
          3   -1    0    0  501    0  0.00000000000E+00 -0.00000000000E+00 -0.10282075798E+03  0.10282075798E+03  0.00000000000E+00 0. -1.
         23    2    1    2    0    0 -0.77845457679E+02  0.12041561893E+03  0.97556303781E+02  0.21378135405E+03  0.12500159347E+03 0.  0.
          5    1    3    3  502    0  0.26466197915E+02  0.46122636654E+01 -0.41912695027E+01  0.27593284477E+02  0.47000000000E+01 0. -1.
         -5    1    3    3    0  502 -0.10431165559E+03  0.11580335526E+03  0.10174757328E+03  0.18618806957E+03  0.47000000000E+01 0. -1.
        -11    1    1    2    0    0  0.79685705935E+02 -0.93005110549E+02  0.11982791552E+03  0.17134319845E+03  0.00000000000E+00 0.  1.
         11    1    1    2    0    0 -0.18402482561E+01 -0.27410508378E+02 -0.89941410953E+01  0.28907041654E+02  0.00000000000E+00 0. -1.
<mgrwt>
<rscale>  0 0.18407134E+03</rscale>
<asrwt>0</asrwt>
<pdfrwt beam="2">  1        3 0.15818578E-01 0.19022417E+03</pdfrwt>
<pdfrwt beam="1">  1       -3 0.47878590E-01 0.19022417E+03</pdfrwt>
<totfact> 0.35826761E+02</totfact>
</mgrwt>
</event>
<event>
 7    1  0.6095443E-006  0.1621570E+03  0.7546771E-02  0.1193743E+00
         -2   -1    0    0    0  501 -0.00000000000E+00  0.00000000000E+00  0.57278138736E+02  0.57278138736E+02  0.00000000000E+00 0.  1.
          2   -1    0    0  501    0  0.00000000000E+00 -0.00000000000E+00 -0.54617387459E+03  0.54617387459E+03  0.00000000000E+00 0. -1.
         23    2    1    2    0    0  0.96721237634E+02  0.36262963721E+02 -0.98935876686E+02  0.18995577507E+03  0.12499955375E+03 0.  0.
          5    1    3    3  502    0  0.17812768549E+02  0.72781604657E+02 -0.46468399523E+02  0.88294160928E+02  0.47000000000E+01 0. -1.
         -5    1    3    3    0  502  0.78908469085E+02 -0.36518640935E+02 -0.52467477163E+02  0.10166161414E+03  0.47000000000E+01 0. -1.
        -11    1    1    2    0    0 -0.40834799901E+02 -0.23910357884E+02 -0.50347006433E+02  0.69094190450E+02  0.00000000000E+00 0.  1.
         11    1    1    2    0    0 -0.55886437733E+02 -0.12352605837E+02 -0.33961285274E+03  0.34440204782E+03  0.00000000000E+00 0. -1.
<mgrwt>
<rscale>  0 0.15561071E+03</rscale>
<asrwt>0</asrwt>
<pdfrwt beam="2">  1        2 0.84026749E-01 0.16215699E+03</pdfrwt>
<pdfrwt beam="1">  1       -2 0.88120214E-02 0.16215699E+03</pdfrwt>
<totfact> 0.44568045E+03</totfact>
</mgrwt>
</event>
<event>
 7    1  0.6095443E-006  0.3018549E+03  0.7546771E-02  0.1085848E+00
          1   -1    0    0  501    0  0.00000000000E+00  0.00000000000E+00  0.76160326259E+03  0.76160326259E+03  0.00000000000E+00 0. -1.
         -1   -1    0    0    0  501 -0.00000000000E+00 -0.00000000000E+00 -0.11804966747E+03  0.11804966747E+03  0.00000000000E+00 0.  1.
         23    2    1    2    0    0  0.26568123426E+03  0.70030220634E+02  0.25632390550E+03  0.39600291471E+03  0.12500245555E+03 0.  0.
          5    1    3    3  502    0  0.20460056784E+03  0.10009816730E+03  0.22737755322E+03  0.32187525093E+03  0.47000000000E+01 0.  1.
         -5    1    3    3    0  502  0.61080666420E+02 -0.30067946668E+02  0.28946352282E+02  0.74127663781E+02  0.47000000000E+01 0.  1.
        -11    1    1    2    0    0 -0.24596976488E+03 -0.74759405954E+02  0.38542998256E+03  0.46329943392E+03  0.00000000000E+00 0. -1.
         11    1    1    2    0    0 -0.19711469374E+02  0.47291853200E+01  0.17997070629E+01  0.20350581422E+02  0.00000000000E+00 0.  1.
<mgrwt>
<rscale>  0 0.29878892E+03</rscale>
<asrwt>0</asrwt>
<pdfrwt beam="1">  1        1 0.11716973E+00 0.30185487E+03</pdfrwt>
<pdfrwt beam="2">  1       -1 0.18161488E-01 0.30185487E+03</pdfrwt>
<totfact> 0.58816592E+02</totfact>
</mgrwt>
</event>
<event>
 7    1  0.6095443E-006  0.1327615E+03  0.7546771E-02  0.1236009E+00
         -2   -1    0    0    0  501 -0.00000000000E+00  0.00000000000E+00  0.99783898920E+03  0.99783898920E+03  0.00000000000E+00 0.  1.
          2   -1    0    0  501    0  0.00000000000E+00 -0.00000000000E+00 -0.25563301950E+02  0.25563301950E+02  0.00000000000E+00 0. -1.
         23    2    1    2    0    0  0.24266299945E+02  0.37578979473E+02  0.86502393798E+03  0.87515257651E+03  0.12499834350E+03 0.  0.
          5    1    3    3  502    0  0.74992244669E+02  0.14362501540E+02  0.52715655961E+03  0.53267837065E+03  0.47000000000E+01 0. -1.
         -5    1    3    3    0  502 -0.50725944724E+02  0.23216477932E+02  0.33786737837E+03  0.34247420586E+03  0.47000000000E+01 0. -1.
        -11    1    1    2    0    0 -0.32489418419E+02  0.12062059546E+02  0.59826495320E+01  0.35168845376E+02  0.00000000000E+00 0. -1.
         11    1    1    2    0    0  0.82231184738E+01 -0.49641039018E+02  0.10126909973E+03  0.11308086926E+03  0.00000000000E+00 0.  1.
<mgrwt>
<rscale>  0 0.12440092E+03</rscale>
<asrwt>0</asrwt>
<pdfrwt beam="2">  1        2 0.39328165E-02 0.13276151E+03</pdfrwt>
<pdfrwt beam="1">  1       -2 0.15351366E+00 0.13276151E+03</pdfrwt>
<totfact> 0.63114160E+02</totfact>
</mgrwt>
</event>
<event>
 7    1  0.6095443E-006  0.1804794E+03  0.7546771E-02  0.1174508E+00
         -2   -1    0    0    0  501 -0.00000000000E+00  0.00000000000E+00  0.94282798163E+02  0.94282798163E+02  0.00000000000E+00 0. -1.
          2   -1    0    0  501    0  0.00000000000E+00 -0.00000000000E+00 -0.40267486142E+03  0.40267486142E+03  0.00000000000E+00 0.  1.
         23    2    1    2    0    0 -0.13018141456E+03 -0.57421456545E+00 -0.35423017190E+02  0.18392277565E+03  0.12500106734E+03 0.  0.
          5    1    3    3  502    0 -0.10116587778E+03 -0.30731873767E+02 -0.72114095604E+02  0.12806840234E+03  0.47000000000E+01 0. -1.
         -5    1    3    3    0  502 -0.29015536776E+02  0.30157659201E+02  0.36691078414E+02  0.55854373312E+02  0.47000000000E+01 0. -1.
        -11    1    1    2    0    0  0.40213855465E+02 -0.15231212180E+02 -0.27305760700E+02  0.50938674534E+02  0.00000000000E+00 0. -1.
         11    1    1    2    0    0  0.89967559095E+02  0.15805426746E+02 -0.24566328536E+03  0.26209620939E+03  0.00000000000E+00 0.  1.
<mgrwt>
<rscale>  0 0.17324272E+03</rscale>
<asrwt>0</asrwt>
<pdfrwt beam="2">  1        2 0.61949979E-01 0.18047935E+03</pdfrwt>
<pdfrwt beam="1">  1       -2 0.14505046E-01 0.18047935E+03</pdfrwt>
<totfact> 0.28207642E+03</totfact>
</mgrwt>
</event>
<event>
 6    1  0.6095443E-006  0.1668757E+03  0.7546771E-02  0.1208009E+00
         -3   -1    0    0    0  501 -0.00000000000E+00  0.00000000000E+00  0.99099400199E+03  0.99099400199E+03  0.00000000000E+00 0.  1.
          3   -1    0    0  501    0  0.00000000000E+00 -0.00000000000E+00 -0.18015940286E+02  0.18015940286E+02  0.00000000000E+00 0. -1.
          5    1    1    2  502    0 -0.55707444210E+02 -0.53985954625E+02  0.35416837767E+03  0.36259499773E+03  0.47000000000E+01 0. -1.
         -5    1    1    2    0  502  0.55835133914E+02  0.69237280415E+02  0.37953545612E+03  0.38984691307E+03  0.47000000000E+01 0.  1.
        -11    1    1    2    0    0 -0.41091001237E+02  0.10872259762E+02  0.88873819220E+02  0.98515136694E+02  0.00000000000E+00 0. -1.
         11    1    1    2    0    0  0.40963311534E+02 -0.26123585551E+02  0.15040040869E+03  0.15805289478E+03  0.00000000000E+00 0.  1.
<mgrwt>
<rscale>  0 0.14402874E+03</rscale>
<asrwt>0</asrwt>
<pdfrwt beam="2">  1        3 0.27716839E-02 0.16687574E+03</pdfrwt>
<pdfrwt beam="1">  1       -3 0.15246057E+00 0.16687574E+03</pdfrwt>
<totfact> 0.45317516E+02</totfact>
</mgrwt>
</event>
<event>
 7    1  0.6095443E-006  0.1372569E+03  0.7546771E-02  0.1228164E+00
          2   -1    0    0  501    0  0.00000000000E+00  0.00000000000E+00  0.37246535394E+03  0.37246535394E+03  0.00000000000E+00 0. -1.
         -2   -1    0    0    0  501 -0.00000000000E+00 -0.00000000000E+00 -0.41378146113E+02  0.41378146113E+02  0.00000000000E+00 0.  1.
         23    2    1    2    0    0 -0.29248057075E+02 -0.48571586568E+02  0.15707670586E+03  0.20859661558E+03  0.12499923456E+03 0.  0.
          5    1    3    3  502    0 -0.78004764619E+02 -0.21054073161E+02  0.97338586740E+02  0.12658952472E+03  0.47000000000E+01 0. -1.
         -5    1    3    3    0  502  0.48756707544E+02 -0.27517513407E+02  0.59738119124E+02  0.82007090859E+02  0.47000000000E+01 0. -1.
        -11    1    1    2    0    0 -0.20209756562E+02  0.26751992949E+02  0.13363252336E+03  0.13777428891E+03  0.00000000000E+00 0. -1.
         11    1    1    2    0    0  0.49457813637E+02  0.21819593619E+02  0.40377978607E+02  0.67472595562E+02  0.00000000000E+00 0.  1.
<mgrwt>
<rscale>  0 0.12952392E+03</rscale>
<asrwt>0</asrwt>
<pdfrwt beam="1">  1        2 0.57302360E-01 0.13725690E+03</pdfrwt>
<pdfrwt beam="2">  1       -2 0.63658689E-02 0.13725690E+03</pdfrwt>
<totfact> 0.11048715E+04</totfact>
</mgrwt>
</event>
<event>
 7    1  0.6095443E-006  0.2067090E+03  0.7546771E-02  0.1147966E+00
          2   -1    0    0  501    0  0.00000000000E+00  0.00000000000E+00  0.88743795503E+03  0.88743795503E+03  0.00000000000E+00 0. -1.
         -2   -1    0    0    0  501 -0.00000000000E+00 -0.00000000000E+00 -0.71822577106E+02  0.71822577106E+02  0.00000000000E+00 0.  1.
         23    2    1    2    0    0 -0.10978810512E+03  0.12267221598E+03  0.12124420849E+03  0.23964300000E+03  0.12500683485E+03 0.  0.
          5    1    3    3  502    0 -0.12085049640E+03  0.89683131008E+02  0.47356278841E+02  0.15783730108E+03  0.47000000000E+01 0. -1.
         -5    1    3    3    0  502  0.11062391275E+02  0.32989084971E+02  0.73887929653E+02  0.81805698924E+02  0.47000000000E+01 0. -1.
        -11    1    1    2    0    0 -0.62295453576E+01 -0.50264853196E+02  0.14954527830E+03  0.15788968606E+03  0.00000000000E+00 0.  1.
         11    1    1    2    0    0  0.11601765048E+03 -0.72407362783E+02  0.54482589113E+03  0.56172784607E+03  0.00000000000E+00 0. -1.
<mgrwt>
<rscale>  0 0.20211574E+03</rscale>
<asrwt>0</asrwt>
<pdfrwt beam="1">  1        2 0.13652891E+00 0.20670900E+03</pdfrwt>
<pdfrwt beam="2">  1       -2 0.11049628E-01 0.20670900E+03</pdfrwt>
<totfact> 0.17457403E+03</totfact>
</mgrwt>
</event>
<event>
 7    1  0.6095443E-006  0.3816036E+03  0.7546771E-02  0.1051134E+00
          2   -1    0    0  501    0  0.00000000000E+00  0.00000000000E+00  0.11746674891E+04  0.11746674891E+04  0.00000000000E+00 0. -1.
         -2   -1    0    0    0  501 -0.00000000000E+00 -0.00000000000E+00 -0.17112831927E+03  0.17112831927E+03  0.00000000000E+00 0.  1.
         23    2    1    2    0    0  0.23016652478E+03  0.27752364864E+03  0.14239696409E+03  0.40730602120E+03  0.12500117936E+03 0.  0.
          5    1    3    3  502    0  0.88000348201E+02  0.14255588796E+03  0.46261010255E+01  0.16765957559E+03  0.47000000000E+01 0.  1.
         -5    1    3    3    0  502  0.14216617658E+03  0.13496776068E+03  0.13777086306E+03  0.23964644562E+03  0.47000000000E+01 0.  1.
        -11    1    1    2    0    0 -0.22097718443E+03 -0.25151488478E+03  0.83827225233E+03  0.90265775482E+03  0.00000000000E+00 0.  1.
         11    1    1    2    0    0 -0.91893403499E+01 -0.26008763855E+02  0.22869953403E+02  0.35832032345E+02  0.00000000000E+00 0. -1.
<mgrwt>
<rscale>  0 0.37945750E+03</rscale>
<asrwt>0</asrwt>
<pdfrwt beam="1">  1        2 0.18071807E+00 0.38160359E+03</pdfrwt>
<pdfrwt beam="2">  1       -2 0.26327435E-01 0.38160359E+03</pdfrwt>
<totfact> 0.26617266E+02</totfact>
</mgrwt>
</event>
<event>
 7    1  0.6095443E-006  0.1273899E+03  0.7546771E-02  0.1245783E+00
          2   -1    0    0  501    0  0.00000000000E+00  0.00000000000E+00  0.46550465922E+03  0.46550465922E+03  0.00000000000E+00 0. -1.
         -2   -1    0    0    0  501 -0.00000000000E+00 -0.00000000000E+00 -0.27701531955E+02  0.27701531955E+02  0.00000000000E+00 0.  1.
         23    2    1    2    0    0 -0.20450965472E+02 -0.13588375919E+02  0.20002252350E+03  0.23714380668E+03  0.12500115677E+03 0.  0.
          5    1    3    3  502    0  0.41104390192E+02 -0.32740399671E+02  0.45583562843E+02  0.69724141193E+02  0.47000000000E+01 0.  1.
         -5    1    3    3    0  502 -0.61555355663E+02  0.19152023752E+02  0.15443896065E+03  0.16741966549E+03  0.47000000000E+01 0.  1.
        -11    1    1    2    0    0 -0.12939781282E+01 -0.27454943148E+02  0.21624923018E+02  0.34972640423E+02  0.00000000000E+00 0.  1.
         11    1    1    2    0    0  0.21744943600E+02  0.41043319066E+02  0.21615568075E+03  0.22108974407E+03  0.00000000000E+00 0. -1.
<mgrwt>
<rscale>  0 0.11838647E+03</rscale>
<asrwt>0</asrwt>
<pdfrwt beam="1">  1        2 0.71616096E-01 0.12738985E+03</pdfrwt>
<pdfrwt beam="2">  1       -2 0.42617745E-02 0.12738985E+03</pdfrwt>
<totfact> 0.15812673E+04</totfact>
</mgrwt>
</event>
<event>
 7    1  0.6095443E-006  0.1901454E+03  0.7546771E-02  0.1163161E+00
          2   -1    0    0  501    0  0.00000000000E+00  0.00000000000E+00  0.12951526669E+03  0.12951526669E+03  0.00000000000E+00 0. -1.
         -2   -1    0    0    0  501 -0.00000000000E+00 -0.00000000000E+00 -0.32140434960E+03  0.32140434960E+03  0.00000000000E+00 0.  1.
         23    2    1    2    0    0 -0.12120943455E+03  0.76413852762E+02 -0.20605926717E+03  0.28038491201E+03  0.12499789350E+03 0.  0.
          5    1    3    3  502    0 -0.13749193752E+03  0.32134916197E+02 -0.16857161907E+03  0.21994355293E+03  0.47000000000E+01 0.  1.
         -5    1    3    3    0  502  0.16282502978E+02  0.44278936565E+02 -0.37487648104E+02  0.60441359076E+02  0.47000000000E+01 0.  1.
        -11    1    1    2    0    0  0.11134755623E+03 -0.96106029697E+02  0.17986652251E+02  0.14818288323E+03  0.00000000000E+00 0.  1.
         11    1    1    2    0    0  0.98618783139E+01  0.19692176935E+02 -0.38164679889E+01  0.22351821050E+02  0.00000000000E+00 0. -1.
<mgrwt>
<rscale>  0 0.18488065E+03</rscale>
<asrwt>0</asrwt>
<pdfrwt beam="1">  1        2 0.19925426E-01 0.19014541E+03</pdfrwt>
<pdfrwt beam="2">  1       -2 0.49446822E-01 0.19014541E+03</pdfrwt>
<totfact> 0.10859242E+03</totfact>
</mgrwt>
</event>
<event>
 7    1  0.6095443E-006  0.3215258E+03  0.7546771E-02  0.1075874E+00
          1   -1    0    0  501    0  0.00000000000E+00  0.00000000000E+00  0.26140362615E+03  0.26140362615E+03  0.00000000000E+00 0. -1.
         -1   -1    0    0    0  501 -0.00000000000E+00 -0.00000000000E+00 -0.39469605152E+03  0.39469605152E+03  0.00000000000E+00 0.  1.
         23    2    1    2    0    0 -0.25945205546E+03 -0.14295646511E+03 -0.11692364292E+03  0.34212568004E+03  0.12500769043E+03 0.  0.
          5    1    3    3  502    0 -0.21402463318E+03 -0.54416747141E+02 -0.67847743441E+02  0.23106953990E+03  0.47000000000E+01 0. -1.
         -5    1    3    3    0  502 -0.45427422281E+02 -0.88539717966E+02 -0.49075899480E+02  0.11105614014E+03  0.47000000000E+01 0. -1.
        -11    1    1    2    0    0  0.98558130459E+02  0.18652287073E+02  0.31422689539E+02  0.10511421555E+03  0.00000000000E+00 0.  1.
         11    1    1    2    0    0  0.16089392500E+03  0.12430417803E+03 -0.47791471985E+02  0.20885978209E+03  0.00000000000E+00 0. -1.
<mgrwt>
<rscale>  0 0.31951227E+03</rscale>
<asrwt>0</asrwt>
<pdfrwt beam="1">  1        1 0.40215943E-01 0.32152580E+03</pdfrwt>
<pdfrwt beam="2">  1       -1 0.60722469E-01 0.32152580E+03</pdfrwt>
<totfact> 0.29726540E+02</totfact>
</mgrwt>
</event>
<event>
 7    1  0.6095443E-006  0.1548967E+03  0.7546771E-02  0.1201966E+00
          4   -1    0    0  501    0  0.00000000000E+00  0.00000000000E+00  0.69173696211E+02  0.69173696211E+02  0.00000000000E+00 0. -1.
         -4   -1    0    0    0  501 -0.00000000000E+00 -0.00000000000E+00 -0.30162580082E+03  0.30162580082E+03  0.00000000000E+00 0.  1.
         23    2    1    2    0    0  0.67603478173E+02 -0.62696254174E+02 -0.10310981517E+03  0.18607694827E+03  0.12446664672E+03 0.  0.
          5    1    3    3  502    0  0.74925547606E+02 -0.21227851920E+02 -0.38034873520E+01  0.78109000104E+02  0.47000000000E+01 0. -1.
         -5    1    3    3    0  502 -0.73220694334E+01 -0.41468402255E+02 -0.99306327823E+02  0.10796794817E+03  0.47000000000E+01 0.  1.
        -11    1    1    2    0    0 -0.83785897841E+02  0.52010296379E+02 -0.13240008646E+03  0.16509067358E+03  0.00000000000E+00 0.  1.
         11    1    1    2    0    0  0.16182419668E+02  0.10685957796E+02  0.30577970322E+01  0.19631875178E+02  0.00000000000E+00 0. -1.
<mgrwt>
<rscale>  0 0.14879162E+03</rscale>
<asrwt>0</asrwt>
<pdfrwt beam="1">  1        4 0.10642107E-01 0.15489673E+03</pdfrwt>
<pdfrwt beam="2">  1       -4 0.46403969E-01 0.15489673E+03</pdfrwt>
<totfact> 0.52451962E+02</totfact>
</mgrwt>
</event>
<event>
 7    1  0.6095443E-006  0.1292465E+03  0.7546771E-02  0.1244494E+00
         -2   -1    0    0    0  501 -0.00000000000E+00  0.00000000000E+00  0.66671878971E+02  0.66671878971E+02  0.00000000000E+00 0.  1.
          2   -1    0    0  501    0  0.00000000000E+00 -0.00000000000E+00 -0.18824422709E+03  0.18824422709E+03  0.00000000000E+00 0. -1.
         23    2    1    2    0    0 -0.21667881894E+02  0.24698091105E+02 -0.56222616543E+02  0.14094549732E+03  0.12500063117E+03 0.  0.
          5    1    3    3  502    0  0.43303067977E+02  0.42879573900E+02 -0.32848748279E+02  0.69389796206E+02  0.47000000000E+01 0. -1.
         -5    1    3    3    0  502 -0.64970949871E+02 -0.18181482795E+02 -0.23373868264E+02  0.71555701111E+02  0.47000000000E+01 0. -1.
        -11    1    1    2    0    0 -0.46397067017E+01  0.25218523415E+02  0.24552800909E+01  0.25759060577E+02  0.00000000000E+00 0.  1.
         11    1    1    2    0    0  0.26307588596E+02 -0.49916614520E+02 -0.67805011672E+02  0.88211548171E+02  0.00000000000E+00 0. -1.
<mgrwt>
<rscale>  0 0.11915728E+03</rscale>
<asrwt>0</asrwt>
<pdfrwt beam="2">  1        2 0.28960651E-01 0.12924647E+03</pdfrwt>
<pdfrwt beam="1">  1       -2 0.10257212E-01 0.12924647E+03</pdfrwt>
<totfact> 0.10891462E+04</totfact>
</mgrwt>
</event>
<event>
 6    1  0.6095443E-006  0.1401810E+03  0.7546771E-02  0.1230640E+00
          2   -1    0    0  501    0  0.00000000000E+00  0.00000000000E+00  0.18791307793E+02  0.18791307793E+02  0.00000000000E+00 0. -1.
         -2   -1    0    0    0  501 -0.00000000000E+00 -0.00000000000E+00 -0.12974123522E+04  0.12974123522E+04  0.00000000000E+00 0.  1.
          5    1    1    2  502    0  0.43755817393E+00 -0.54629391285E+02 -0.21600742950E+03  0.22285838878E+03  0.47000000000E+01 0. -1.
         -5    1    1    2    0  502 -0.29507792307E+02  0.49182408502E+02 -0.91416544713E+03  0.91597498538E+03  0.47000000000E+01 0. -1.
        -11    1    1    2    0    0  0.13393380488E+02  0.48041903111E+02 -0.94626207828E+02  0.10696507048E+03  0.00000000000E+00 0. -1.
         11    1    1    2    0    0  0.15676853646E+02 -0.42594920328E+02 -0.53821959996E+02  0.70405215402E+02  0.00000000000E+00 0.  1.
<mgrwt>
<rscale>  0 0.12787707E+03</rscale>
<asrwt>0</asrwt>
<pdfrwt beam="1">  1        2 0.28909695E-02 0.14018104E+03</pdfrwt>
<pdfrwt beam="2">  1       -2 0.19960197E+00 0.14018104E+03</pdfrwt>
<totfact> 0.46896499E+02</totfact>
</mgrwt>
</event>
<event>
 7    1  0.6095443E-006  0.1343621E+03  0.7546771E-02  0.1234062E+00
          1   -1    0    0  501    0  0.00000000000E+00  0.00000000000E+00  0.12948098660E+03  0.12948098660E+03  0.00000000000E+00 0. -1.
         -1   -1    0    0    0  501 -0.00000000000E+00 -0.00000000000E+00 -0.12453949701E+03  0.12453949701E+03  0.00000000000E+00 0.  1.
         23    2    1    2    0    0  0.84703999371E+01  0.48316675368E+02 -0.42395072170E+02  0.14089181644E+03  0.12508762130E+03 0.  0.
          5    1    3    3  502    0  0.17395970852E+02  0.67085627801E+02  0.22158698366E+02  0.72912270384E+02  0.47000000000E+01 0. -1.
         -5    1    3    3    0  502 -0.89255709149E+01 -0.18768952432E+02 -0.64553770536E+02  0.67979546056E+02  0.47000000000E+01 0. -1.
        -11    1    1    2    0    0  0.18381356451E+02 -0.52387732730E+02  0.61204895431E+02  0.82634060958E+02  0.00000000000E+00 0. -1.
         11    1    1    2    0    0 -0.26851756389E+02  0.40710573620E+01 -0.13868333677E+02  0.30494606214E+02  0.00000000000E+00 0.  1.
<mgrwt>
<rscale>  0 0.12564691E+03</rscale>
<asrwt>0</asrwt>
<pdfrwt beam="1">  1        1 0.19920152E-01 0.13436205E+03</pdfrwt>
<pdfrwt beam="2">  1       -1 0.19159923E-01 0.13436205E+03</pdfrwt>
<totfact> 0.52925880E+03</totfact>
</mgrwt>
</event>
<event>
 7    1  0.6095443E-006  0.1695371E+03  0.7546771E-02  0.1184697E+00
          1   -1    0    0  501    0  0.00000000000E+00  0.00000000000E+00  0.35633740579E+03  0.35633740579E+03  0.00000000000E+00 0. -1.
         -1   -1    0    0    0  501 -0.00000000000E+00 -0.00000000000E+00 -0.70664134101E+02  0.70664134101E+02  0.00000000000E+00 0.  1.
         23    2    1    2    0    0 -0.41638871029E+01 -0.11445711564E+03  0.16842976877E+03  0.23897991692E+03  0.12500017762E+03 0.  0.
          5    1    3    3  502    0  0.41445277457E+02  0.43931809480E+01  0.36718071872E+02  0.55743321253E+02  0.47000000000E+01 0.  1.
         -5    1    3    3    0  502 -0.45609164559E+02 -0.11885029659E+03  0.13171169690E+03  0.18323659566E+03  0.47000000000E+01 0.  1.
        -11    1    1    2    0    0 -0.34260576709E+02  0.93199302300E+02  0.60519295680E+02  0.11628620819E+03  0.00000000000E+00 0. -1.
         11    1    1    2    0    0  0.38424463812E+02  0.21257813340E+02  0.56724207236E+02  0.71735414781E+02  0.00000000000E+00 0.  1.
<mgrwt>
<rscale>  0 0.16359518E+03</rscale>
<asrwt>0</asrwt>
<pdfrwt beam="1">  1        1 0.54821138E-01 0.16953706E+03</pdfrwt>
<pdfrwt beam="2">  1       -1 0.10871405E-01 0.16953706E+03</pdfrwt>
<totfact> 0.36743623E+03</totfact>
</mgrwt>
</event>
<event>
 6    1  0.6095443E-006  0.3698711E+03  0.7546771E-02  0.1084700E+00
          1   -1    0    0  501    0  0.00000000000E+00  0.00000000000E+00  0.17160989462E+03  0.17160989462E+03  0.00000000000E+00 0. -1.
         -1   -1    0    0    0  501 -0.00000000000E+00 -0.00000000000E+00 -0.56955981734E+03  0.56955981734E+03  0.00000000000E+00 0.  1.
          5    1    1    2  502    0  0.11346728081E+03 -0.30218062646E+02 -0.11876649361E+03  0.16707939768E+03  0.47000000000E+01 0. -1.
         -5    1    1    2    0  502 -0.24349549025E+03  0.61357928594E+02 -0.31985123128E+03  0.40667154969E+03  0.47000000000E+01 0.  1.
        -11    1    1    2    0    0 -0.93818845146E+01 -0.10923407772E+02  0.20592005408E+02  0.25127102521E+02  0.00000000000E+00 0.  1.
         11    1    1    2    0    0  0.13941009396E+03 -0.20216458176E+02  0.20075796774E+02  0.14229166207E+03  0.00000000000E+00 0. -1.
<mgrwt>
<rscale>  0 0.30108369E+03</rscale>
<asrwt>0</asrwt>
<pdfrwt beam="1">  1        1 0.26401522E-01 0.36987111E+03</pdfrwt>
<pdfrwt beam="2">  1       -1 0.87624587E-01 0.36987111E+03</pdfrwt>
<totfact> 0.23973475E+02</totfact>
</mgrwt>
</event>
<event>
 7    1  0.6095443E-006  0.1765743E+03  0.7546771E-02  0.1174617E+00
         -1   -1    0    0    0  501 -0.00000000000E+00  0.00000000000E+00  0.23608687267E+04  0.23608687267E+04  0.00000000000E+00 0.  1.
          1   -1    0    0  501    0  0.00000000000E+00 -0.00000000000E+00 -0.14227430329E+02  0.14227430329E+02  0.00000000000E+00 0. -1.
         23    2    1    2    0    0  0.60143931176E+02  0.12074971510E+03  0.16580471100E+04  0.16674227678E+04  0.11393279342E+03 0.  0.
          5    1    3    3  502    0  0.41957032862E+02  0.13792911811E+03  0.11946237093E+04  0.12033007650E+04  0.47000000000E+01 0. -1.
         -5    1    3    3    0  502  0.18186898314E+02 -0.17179403011E+02  0.46342340073E+03  0.46412200282E+03  0.47000000000E+01 0.  1.
        -11    1    1    2    0    0 -0.33429354840E+02  0.57470484375E+01  0.14631436439E+03  0.15019468552E+03  0.00000000000E+00 0. -1.
         11    1    1    2    0    0 -0.26714576335E+02 -0.12649676354E+03  0.54227982196E+03  0.55747870370E+03  0.00000000000E+00 0.  1.
<mgrwt>
<rscale>  0 0.17313571E+03</rscale>
<asrwt>0</asrwt>
<pdfrwt beam="2">  1        1 0.21888373E-02 0.17657426E+03</pdfrwt>
<pdfrwt beam="1">  1       -1 0.36321026E+00 0.17657426E+03</pdfrwt>
<totfact> 0.82861084E+01</totfact>
</mgrwt>
</event>
<event>
 7    1  0.6095443E-006  0.1744118E+03  0.7546771E-02  0.1179247E+00
         -2   -1    0    0    0  501 -0.00000000000E+00  0.00000000000E+00  0.61677682669E+02  0.61677682669E+02  0.00000000000E+00 0.  1.
          2   -1    0    0  501    0  0.00000000000E+00 -0.00000000000E+00 -0.43572575291E+03  0.43572575291E+03  0.00000000000E+00 0. -1.
         23    2    1    2    0    0 -0.87288914414E+02 -0.84709708605E+02 -0.18088668545E+03  0.25127567778E+03  0.12499753580E+03 0.  0.
          5    1    3    3  502    0 -0.62717642004E+02 -0.11461373344E+03 -0.16134711201E+03  0.20766509351E+03  0.47000000000E+01 0. -1.
         -5    1    3    3    0  502 -0.24571272409E+02  0.29904024836E+02 -0.19539573444E+02  0.43610584261E+02  0.47000000000E+01 0. -1.
        -11    1    1    2    0    0  0.80729790431E+02  0.47307288425E+02 -0.68917867001E+02  0.11621080412E+03  0.00000000000E+00 0.  1.
         11    1    1    2    0    0  0.65591239824E+01  0.37402420180E+02 -0.12424351779E+03  0.12991695369E+03  0.00000000000E+00 0. -1.
<mgrwt>
<rscale>  0 0.16866529E+03</rscale>
<asrwt>0</asrwt>
<pdfrwt beam="2">  1        2 0.67034727E-01 0.17441179E+03</pdfrwt>
<pdfrwt beam="1">  1       -2 0.94888748E-02 0.17441179E+03</pdfrwt>
<totfact> 0.51089453E+03</totfact>
</mgrwt>
</event>
<event>
 7    1  0.6095443E-006  0.1286545E+03  0.7546771E-02  0.1244412E+00
          1   -1    0    0  501    0  0.00000000000E+00  0.00000000000E+00  0.41930576953E+03  0.41930576953E+03  0.00000000000E+00 0. -1.
         -1   -1    0    0    0  501 -0.00000000000E+00 -0.00000000000E+00 -0.30755166108E+02  0.30755166108E+02  0.00000000000E+00 0.  1.
         23    2    1    2    0    0 -0.28681122970E+02  0.10208640372E+02  0.18306810402E+03  0.22375414108E+03  0.12500064715E+03 0.  0.
          5    1    3    3  502    0 -0.61209579610E+01 -0.37735735161E+02  0.61410796275E+01  0.39003265165E+02  0.47000000000E+01 0.  1.
         -5    1    3    3    0  502 -0.22560165009E+02  0.47944375533E+02  0.17692702439E+03  0.18475087591E+03  0.47000000000E+01 0.  1.
        -11    1    1    2    0    0  0.29488485887E+02  0.30819029441E+02  0.51095318622E+02  0.66559108773E+02  0.00000000000E+00 0.  1.
         11    1    1    2    0    0 -0.80736291678E+00 -0.41027669813E+02  0.15438718078E+03  0.15974768579E+03  0.00000000000E+00 0. -1.
<mgrwt>
<rscale>  0 0.11920626E+03</rscale>
<asrwt>0</asrwt>
<pdfrwt beam="1">  1        1 0.64508576E-01 0.12865452E+03</pdfrwt>
<pdfrwt beam="2">  1       -1 0.47315643E-02 0.12865452E+03</pdfrwt>
<totfact> 0.10303296E+04</totfact>
</mgrwt>
</event>
<event>
 7    1  0.6095443E-006  0.1737010E+03  0.7546771E-02  0.1179824E+00
         -2   -1    0    0    0  501 -0.00000000000E+00  0.00000000000E+00  0.11099348699E+03  0.11099348699E+03  0.00000000000E+00 0.  1.
          2   -1    0    0  501    0  0.00000000000E+00 -0.00000000000E+00 -0.23989394493E+03  0.23989394493E+03  0.00000000000E+00 0. -1.
         23    2    1    2    0    0  0.11902338105E+03 -0.19478337936E+02 -0.62143684328E+02  0.18448267891E+03  0.12500420166E+03 0.  0.
          5    1    3    3  502    0  0.67166328559E+02 -0.72758691461E+02 -0.32885298261E+02  0.10444460597E+03  0.47000000000E+01 0.  1.
         -5    1    3    3    0  502  0.51857052486E+02  0.53280353524E+02 -0.29258386067E+02  0.80038072937E+02  0.47000000000E+01 0.  1.
        -11    1    1    2    0    0 -0.43636908614E+02 -0.78994772117E+01  0.19656079867E+02  0.48507143900E+02  0.00000000000E+00 0.  1.
         11    1    1    2    0    0 -0.75386472432E+02  0.27377815148E+02 -0.86412853474E+02  0.11789760911E+03  0.00000000000E+00 0. -1.
<mgrwt>
<rscale>  0 0.16811920E+03</rscale>
<asrwt>0</asrwt>
<pdfrwt beam="2">  1        2 0.36906761E-01 0.17370095E+03</pdfrwt>
<pdfrwt beam="1">  1       -2 0.17075921E-01 0.17370095E+03</pdfrwt>
<totfact> 0.37464852E+03</totfact>
</mgrwt>
</event>
<event>
 7    1  0.6095443E-006  0.2443792E+03  0.7546771E-02  0.1119567E+00
         -2   -1    0    0    0  501 -0.00000000000E+00  0.00000000000E+00  0.12573348429E+03  0.12573348429E+03  0.00000000000E+00 0. -1.
          2   -1    0    0  501    0  0.00000000000E+00 -0.00000000000E+00 -0.52135990937E+03  0.52135990937E+03  0.00000000000E+00 0.  1.
         23    2    1    2    0    0 -0.10754541139E+03  0.18036111210E+03 -0.79539834872E+02  0.25699765018E+03  0.12500024238E+03 0.  0.
          5    1    3    3  502    0 -0.11975509558E+03  0.18195666599E+03 -0.94123085658E+02  0.23734101304E+03  0.47000000000E+01 0.  1.
         -5    1    3    3    0  502  0.12209684188E+02 -0.15955538863E+01  0.14583250787E+02  0.19656637141E+02  0.47000000000E+01 0.  1.
        -11    1    1    2    0    0  0.10269785594E+02 -0.10177780570E+03 -0.12199395171E+03  0.15920651520E+03  0.00000000000E+00 0. -1.
         11    1    1    2    0    0  0.97275625794E+02 -0.78583306404E+02 -0.19409263850E+03  0.23088922829E+03  0.00000000000E+00 0.  1.
<mgrwt>
<rscale>  0 0.24033859E+03</rscale>
<asrwt>0</asrwt>
<pdfrwt beam="2">  1        2 0.80209216E-01 0.24437923E+03</pdfrwt>
<pdfrwt beam="1">  1       -2 0.19343613E-01 0.24437923E+03</pdfrwt>
<totfact> 0.13206030E+03</totfact>
</mgrwt>
</event>
<event>
 7    1  0.6095443E-006  0.1267579E+03  0.7546771E-02  0.1248321E+00
         -3   -1    0    0    0  501 -0.00000000000E+00  0.00000000000E+00  0.43932021404E+02  0.43932021404E+02  0.00000000000E+00 0.  1.
          3   -1    0    0  501    0  0.00000000000E+00 -0.00000000000E+00 -0.34575504803E+03  0.34575504803E+03  0.00000000000E+00 0. -1.
         23    2    1    2    0    0  0.16765172783E+02 -0.12613136074E+02 -0.80557964892E+02  0.15019040969E+03  0.12500964457E+03 0.  0.
          5    1    3    3  502    0  0.24185430058E+02  0.53526653447E+02 -0.27914092853E+02  0.65202179688E+02  0.47000000000E+01 0. -1.
         -5    1    3    3    0  502 -0.74202572751E+01 -0.66139789521E+02 -0.52643872039E+02  0.84988230003E+02  0.47000000000E+01 0. -1.
        -11    1    1    2    0    0  0.34207028753E+02  0.16832863894E+02 -0.68469504709E+02  0.78367973038E+02  0.00000000000E+00 0. -1.
         11    1    1    2    0    0 -0.50972201536E+02 -0.42197278203E+01 -0.15279555702E+03  0.16112868670E+03  0.00000000000E+00 0.  1.
<mgrwt>
<rscale>  0 0.11688775E+03</rscale>
<asrwt>0</asrwt>
<pdfrwt beam="2">  1        3 0.53193087E-01 0.12675793E+03</pdfrwt>
<pdfrwt beam="1">  1       -3 0.67587722E-02 0.12675793E+03</pdfrwt>
<totfact> 0.11285016E+03</totfact>
</mgrwt>
</event>
<event>
 7    1  0.6095443E-006  0.2394389E+03  0.7546771E-02  0.1122868E+00
          1   -1    0    0  501    0  0.00000000000E+00  0.00000000000E+00  0.15462564070E+03  0.15462564070E+03  0.00000000000E+00 0. -1.
         -1   -1    0    0    0  501 -0.00000000000E+00 -0.00000000000E+00 -0.56714893315E+03  0.56714893315E+03  0.00000000000E+00 0.  1.
         23    2    1    2    0    0 -0.17918936533E+03  0.97968290238E+02 -0.43526839687E+03  0.49677916923E+03  0.12499740447E+03 0.  0.
          5    1    3    3  502    0 -0.11556167199E+03  0.11523011954E+03 -0.36741527004E+03  0.40205540805E+03  0.47000000000E+01 0.  1.
         -5    1    3    3    0  502 -0.63627693344E+02 -0.17261829304E+02 -0.67853126833E+02  0.94723761181E+02  0.47000000000E+01 0.  1.
        -11    1    1    2    0    0  0.82343886939E+01  0.98433573499E+01  0.18902853325E+02  0.22847641123E+02  0.00000000000E+00 0. -1.
         11    1    1    2    0    0  0.17095497664E+03 -0.10781164759E+03  0.38422511021E+01  0.20214776349E+03  0.00000000000E+00 0.  1.
<mgrwt>
<rscale>  0 0.23544081E+03</rscale>
<asrwt>0</asrwt>
<pdfrwt beam="1">  1        1 0.23788561E-01 0.23943886E+03</pdfrwt>
<pdfrwt beam="2">  1       -1 0.87253679E-01 0.23943886E+03</pdfrwt>
<totfact> 0.27888551E+02</totfact>
</mgrwt>
</event>
<event>
 7    1  0.6095443E-006  0.1400466E+03  0.7546771E-02  0.1223501E+00
         -2   -1    0    0    0  501 -0.00000000000E+00  0.00000000000E+00  0.34276275528E+02  0.34276275528E+02  0.00000000000E+00 0. -1.
          2   -1    0    0  501    0  0.00000000000E+00 -0.00000000000E+00 -0.46890695553E+03  0.46890695553E+03  0.00000000000E+00 0.  1.
         23    2    1    2    0    0  0.54954380391E+02 -0.31107580512E+02 -0.22319111817E+03  0.26349067590E+03  0.12500158225E+03 0.  0.
          5    1    3    3  502    0  0.71641800250E+02  0.29008972365E+02 -0.12677243245E+03  0.14855102709E+03  0.47000000000E+01 0.  1.
         -5    1    3    3    0  502 -0.16687419859E+02 -0.60116552877E+02 -0.96418685722E+02  0.11493964881E+03  0.47000000000E+01 0.  1.
        -11    1    1    2    0    0 -0.55586979210E+02 -0.21039588698E+02 -0.13063469000E+03  0.14352002920E+03  0.00000000000E+00 0.  1.
         11    1    1    2    0    0  0.63259881883E+00  0.52147169211E+02 -0.80804871827E+02  0.96172525957E+02  0.00000000000E+00 0. -1.
<mgrwt>
<rscale>  0 0.13270141E+03</rscale>
<asrwt>0</asrwt>
<pdfrwt beam="2">  1        2 0.72139524E-01 0.14004664E+03</pdfrwt>
<pdfrwt beam="1">  1       -2 0.52732737E-02 0.14004664E+03</pdfrwt>
<totfact> 0.11489442E+04</totfact>
</mgrwt>
</event>
<event>
 7    1  0.6095443E-006  0.1793878E+03  0.7546771E-02  0.1174205E+00
         -2   -1    0    0    0  501 -0.00000000000E+00  0.00000000000E+00  0.69889495517E+02  0.69889495517E+02  0.00000000000E+00 0.  1.
          2   -1    0    0  501    0  0.00000000000E+00 -0.00000000000E+00 -0.70453472545E+03  0.70453472545E+03  0.00000000000E+00 0. -1.
         23    2    1    2    0    0  0.12323680863E+03  0.36927921043E+02 -0.77260424377E+02  0.19531811438E+03  0.12501604008E+03 0.  0.
          5    1    3    3  502    0  0.25296805496E+00  0.54738251888E+02 -0.26572600252E+02  0.61028954577E+02  0.47000000000E+01 0. -1.
         -5    1    3    3    0  502  0.12298384057E+03 -0.17810330845E+02 -0.50687824125E+02  0.13428915981E+03  0.47000000000E+01 0. -1.
        -11    1    1    2    0    0 -0.57553901462E+02 -0.63739692693E+02 -0.28749186851E+03  0.30004462078E+03  0.00000000000E+00 0. -1.
         11    1    1    2    0    0 -0.65682907168E+02  0.26811771649E+02 -0.26989293705E+03  0.27906148581E+03  0.00000000000E+00 0.  1.
<mgrwt>
<rscale>  0 0.17354064E+03</rscale>
<asrwt>0</asrwt>
<pdfrwt beam="2">  1        2 0.10838996E+00 0.17938783E+03</pdfrwt>
<pdfrwt beam="1">  1       -2 0.10752230E-01 0.17938783E+03</pdfrwt>
<totfact> 0.24323669E+03</totfact>
</mgrwt>
</event>
<event>
 6    1  0.6095443E-006  0.6066479E+03  0.7546771E-02  0.1033831E+00
          1   -1    0    0  501    0  0.00000000000E+00  0.00000000000E+00  0.95491643949E+03  0.95491643949E+03  0.00000000000E+00 0. -1.
         -1   -1    0    0    0  501 -0.00000000000E+00 -0.00000000000E+00 -0.17883640707E+03  0.17883640707E+03  0.00000000000E+00 0.  1.
          5    1    1    2  502    0  0.10723239908E+03 -0.14456760856E+03  0.39164365867E+03  0.43105153547E+03  0.47000000000E+01 0. -1.
         -5    1    1    2    0  502 -0.21790789885E+03  0.19745567019E+03  0.57271983758E+01  0.29415554537E+03  0.47000000000E+01 0.  1.
        -11    1    1    2    0    0  0.89213832590E+02  0.70134205754E+01  0.22994008270E+03  0.24674022296E+03  0.00000000000E+00 0. -1.
         11    1    1    2    0    0  0.21461667184E+02 -0.59901482205E+02  0.14876909268E+03  0.16180554275E+03  0.00000000000E+00 0.  1.
<mgrwt>
<rscale>  0 0.43009126E+03</rscale>
<asrwt>0</asrwt>
<pdfrwt beam="1">  1        1 0.14691022E+00 0.60664793E+03</pdfrwt>
<pdfrwt beam="2">  1       -1 0.27513294E-01 0.60664793E+03</pdfrwt>
<totfact> 0.19955869E+02</totfact>
</mgrwt>
</event>
<event>
 7    1  0.6095443E-006  0.1416022E+03  0.7546771E-02  0.1222239E+00
          3   -1    0    0  501    0  0.00000000000E+00  0.00000000000E+00  0.17864627912E+03  0.17864627912E+03  0.00000000000E+00 0. -1.
         -3   -1    0    0    0  501 -0.00000000000E+00 -0.00000000000E+00 -0.10049808143E+03  0.10049808143E+03  0.00000000000E+00 0.  1.
         23    2    1    2    0    0  0.34766417528E+02  0.56720971768E+02  0.87764722244E+02  0.16659479345E+03  0.12500082523E+03 0.  0.
          5    1    3    3  502    0 -0.85709905301E+01 -0.36572477072E+02  0.16105127708E+02  0.41139677883E+02  0.47000000000E+01 0.  1.
         -5    1    3    3    0  502  0.43337408058E+02  0.93293448840E+02  0.71659594536E+02  0.12545511557E+03  0.47000000000E+01 0.  1.
        -11    1    1    2    0    0  0.17115386456E+02 -0.53614114733E+02 -0.19657148158E+02  0.59613867731E+02  0.00000000000E+00 0.  1.
         11    1    1    2    0    0 -0.51881803984E+02 -0.31068570350E+01  0.10040623602E+02  0.52935699369E+02  0.00000000000E+00 0. -1.
<mgrwt>
<rscale>  0 0.13357976E+03</rscale>
<asrwt>0</asrwt>
<pdfrwt beam="1">  1        3 0.27484043E-01 0.14160218E+03</pdfrwt>
<pdfrwt beam="2">  1       -3 0.15461243E-01 0.14160218E+03</pdfrwt>
<totfact> 0.10325492E+03</totfact>
</mgrwt>
</event>
<event>
 6    1  0.6095443E-006  0.2355133E+03  0.7546771E-02  0.1142021E+00
         -1   -1    0    0    0  501 -0.00000000000E+00  0.00000000000E+00  0.11544095896E+03  0.11544095896E+03  0.00000000000E+00 0.  1.
          1   -1    0    0  501    0  0.00000000000E+00 -0.00000000000E+00 -0.37624541461E+03  0.37624541461E+03  0.00000000000E+00 0. -1.
          5    1    1    2  502    0  0.79639973817E+02 -0.18975993947E+02 -0.34697211732E+01  0.82077662862E+02  0.47000000000E+01 0. -1.
         -5    1    1    2    0  502 -0.13414262546E+03 -0.68364142226E+02 -0.57179441417E+02  0.16111945391E+03  0.47000000000E+01 0.  1.
        -11    1    1    2    0    0  0.66414456403E+02  0.59213265468E+02 -0.19892644946E+03  0.21791930415E+03  0.00000000000E+00 0. -1.
         11    1    1    2    0    0 -0.11911804758E+02  0.28126870705E+02 -0.12288436059E+01  0.30569952647E+02  0.00000000000E+00 0.  1.
<mgrwt>
<rscale>  0 0.20942616E+03</rscale>
<asrwt>0</asrwt>
<pdfrwt beam="2">  1        1 0.57883910E-01 0.23551330E+03</pdfrwt>
<pdfrwt beam="1">  1       -1 0.17760148E-01 0.23551330E+03</pdfrwt>
<totfact> 0.15998804E+03</totfact>
</mgrwt>
</event>
<event>
 7    1  0.6095443E-006  0.1705009E+03  0.7546771E-02  0.1183836E+00
         -2   -1    0    0    0  501 -0.00000000000E+00  0.00000000000E+00  0.79942476651E+02  0.79942476651E+02  0.00000000000E+00 0.  1.
          2   -1    0    0  501    0  0.00000000000E+00 -0.00000000000E+00 -0.32740744933E+03  0.32740744933E+03  0.00000000000E+00 0. -1.
         23    2    1    2    0    0  0.10647211912E+03  0.45988415119E+02 -0.94310227605E+02  0.19484599631E+03  0.12497718501E+03 0.  0.
          5    1    3    3  502    0  0.12606892374E+03  0.50347731279E+02 -0.47846126436E+02  0.14401253207E+03  0.47000000000E+01 0. -1.
         -5    1    3    3    0  502 -0.19596804626E+02 -0.43593161594E+01 -0.46464101169E+02  0.50833464238E+02  0.47000000000E+01 0. -1.
        -11    1    1    2    0    0 -0.11238292072E+03 -0.56921080577E+02 -0.10884666072E+03  0.16648581271E+03  0.00000000000E+00 0.  1.
         11    1    1    2    0    0  0.59108016056E+01  0.10932665457E+02 -0.44308084353E+02  0.46018116961E+02  0.00000000000E+00 0. -1.
<mgrwt>
<rscale>  0 0.16438276E+03</rscale>
<asrwt>0</asrwt>
<pdfrwt beam="2">  1        2 0.50370378E-01 0.17050086E+03</pdfrwt>
<pdfrwt beam="1">  1       -2 0.12298842E-01 0.17050086E+03</pdfrwt>
<totfact> 0.45931679E+03</totfact>
</mgrwt>
</event>
<event>
 7    1  0.6095443E-006  0.1439615E+03  0.7546771E-02  0.1217423E+00
         -1   -1    0    0    0  501 -0.00000000000E+00  0.00000000000E+00  0.74890610508E+03  0.74890610508E+03  0.00000000000E+00 0.  1.
          1   -1    0    0  501    0  0.00000000000E+00 -0.00000000000E+00 -0.24290538061E+02  0.24290538061E+02  0.00000000000E+00 0. -1.
         23    2    1    2    0    0 -0.35097977205E+02  0.62457548499E+02  0.48746559772E+03  0.50827909064E+03  0.12486837733E+03 0.  0.
          5    1    3    3  502    0 -0.31924557826E+02 -0.27200659880E+02  0.74209855594E+02  0.85371224412E+02  0.47000000000E+01 0.  1.
         -5    1    3    3    0  502 -0.31734193791E+01  0.89658208379E+02  0.41325574213E+03  0.42290786623E+03  0.47000000000E+01 0.  1.
        -11    1    1    2    0    0  0.45883584696E+02  0.72883633498E+01  0.77404729278E+02  0.90276883527E+02  0.00000000000E+00 0. -1.
         11    1    1    2    0    0 -0.10785607490E+02 -0.69745911849E+02  0.15974524002E+03  0.17464066897E+03  0.00000000000E+00 0.  1.
<mgrwt>
<rscale>  0 0.13700057E+03</rscale>
<asrwt>0</asrwt>
<pdfrwt beam="2">  1        1 0.37370064E-02 0.14396154E+03</pdfrwt>
<pdfrwt beam="1">  1       -1 0.11521631E+00 0.14396154E+03</pdfrwt>
<totfact> 0.17766098E+03</totfact>
</mgrwt>
</event>
<event>
 7    1  0.6095443E-006  0.2020950E+03  0.7546771E-02  0.1151977E+00
          2   -1    0    0  501    0  0.00000000000E+00  0.00000000000E+00  0.85855435974E+03  0.85855435974E+03  0.00000000000E+00 0. -1.
         -2   -1    0    0    0  501 -0.00000000000E+00 -0.00000000000E+00 -0.44293490435E+02  0.44293490435E+02  0.00000000000E+00 0.  1.
         23    2    1    2    0    0 -0.10761483937E+03  0.11677771480E+03  0.36097269088E+03  0.41369512667E+03  0.12499754374E+03 0.  0.
          5    1    3    3  502    0  0.87700979684E+01  0.31548395216E+02  0.10564699925E+02  0.34726340775E+02  0.47000000000E+01 0. -1.
         -5    1    3    3    0  502 -0.11638493734E+03  0.85229319588E+02  0.35040799095E+03  0.37896878589E+03  0.47000000000E+01 0. -1.
        -11    1    1    2    0    0  0.79485618256E+02 -0.13025484931E+03  0.37135553155E+03  0.40148377313E+03  0.00000000000E+00 0.  1.
         11    1    1    2    0    0  0.28129221118E+02  0.13477134502E+02  0.81932646879E+02  0.87668950374E+02  0.00000000000E+00 0. -1.
<mgrwt>
<rscale>  0 0.19737019E+03</rscale>
<asrwt>0</asrwt>
<pdfrwt beam="1">  1        2 0.13208527E+00 0.20209496E+03</pdfrwt>
<pdfrwt beam="2">  1       -2 0.68143838E-02 0.20209496E+03</pdfrwt>
<totfact> 0.38918496E+03</totfact>
</mgrwt>
</event>
<event>
 7    1  0.6095443E-006  0.1319693E+03  0.7546771E-02  0.1238357E+00
         -3   -1    0    0    0  501 -0.00000000000E+00  0.00000000000E+00  0.38579095355E+02  0.38579095355E+02  0.00000000000E+00 0.  1.
          3   -1    0    0  501    0  0.00000000000E+00 -0.00000000000E+00 -0.34699619188E+03  0.34699619188E+03  0.00000000000E+00 0. -1.
         23    2    1    2    0    0  0.49783586206E+01  0.42036548090E+02 -0.18176139714E+03  0.22461769085E+03  0.12499618443E+03 0.  0.
          5    1    3    3  502    0 -0.47781896385E+02 -0.15667738763E+02 -0.95963172943E+02  0.10844172731E+03  0.47000000000E+01 0. -1.
         -5    1    3    3    0  502  0.52760255006E+02  0.57704286853E+02 -0.85798224193E+02  0.11617596354E+03  0.47000000000E+01 0. -1.
        -11    1    1    2    0    0 -0.25286277852E+02 -0.26966788918E+02 -0.57216133505E+01  0.37407758707E+02  0.00000000000E+00 0.  1.
         11    1    1    2    0    0  0.20307919232E+02 -0.15069759172E+02 -0.12093408604E+03  0.12354983768E+03  0.00000000000E+00 0. -1.
<mgrwt>
<rscale>  0 0.12291945E+03</rscale>
<asrwt>0</asrwt>
<pdfrwt beam="2">  1        3 0.53384030E-01 0.13196932E+03</pdfrwt>
<pdfrwt beam="1">  1       -3 0.59352454E-02 0.13196932E+03</pdfrwt>
<totfact> 0.13889411E+03</totfact>
</mgrwt>
</event>
<event>
 6    1  0.6095443E-006  0.1994974E+03  0.7546771E-02  0.1176090E+00
         -2   -1    0    0    0  501 -0.00000000000E+00  0.00000000000E+00  0.20605284249E+03  0.20605284249E+03  0.00000000000E+00 0.  1.
          2   -1    0    0  501    0  0.00000000000E+00 -0.00000000000E+00 -0.11769548643E+03  0.11769548643E+03  0.00000000000E+00 0. -1.
          5    1    1    2  502    0 -0.58953372557E+02 -0.11432510521E+03  0.29951384104E+01  0.12875088610E+03  0.47000000000E+01 0. -1.
         -5    1    1    2    0  502  0.39118753026E+02  0.52725084498E+02  0.34233122595E+02  0.74190350156E+02  0.47000000000E+01 0.  1.
        -11    1    1    2    0    0  0.21792029808E+02 -0.18824933630E+02  0.10240894206E+02  0.30563811992E+02  0.00000000000E+00 0. -1.
         11    1    1    2    0    0 -0.19574102766E+01  0.80424954345E+02  0.40888200847E+02  0.90243280663E+02  0.00000000000E+00 0.  1.
<mgrwt>
<rscale>  0 0.17169623E+03</rscale>
<asrwt>0</asrwt>
<pdfrwt beam="2">  1        2 0.18106998E-01 0.19949737E+03</pdfrwt>
<pdfrwt beam="1">  1       -2 0.31700437E-01 0.19949737E+03</pdfrwt>
<totfact> 0.28306522E+03</totfact>
</mgrwt>
</event>
<event>
 7    1  0.6095443E-006  0.1276150E+03  0.7546771E-02  0.1246796E+00
          2   -1    0    0  501    0  0.00000000000E+00  0.00000000000E+00  0.46869909556E+02  0.46869909556E+02  0.00000000000E+00 0. -1.
         -2   -1    0    0    0  501 -0.00000000000E+00 -0.00000000000E+00 -0.25961401198E+03  0.25961401198E+03  0.00000000000E+00 0.  1.
         23    2    1    2    0    0  0.11928972494E+01 -0.25687496234E+02 -0.13223478477E+03  0.18377058844E+03  0.12499728159E+03 0.  0.
          5    1    3    3  502    0 -0.17455840663E+00 -0.70315555610E+02 -0.11657744056E+03  0.13622296972E+03  0.47000000000E+01 0.  1.
         -5    1    3    3    0  502  0.13674556561E+01  0.44628059376E+02 -0.15657344218E+02  0.47547618727E+02  0.47000000000E+01 0.  1.
        -11    1    1    2    0    0 -0.34779304953E+02 -0.16217303510E+02 -0.40113672345E+02  0.55513130835E+02  0.00000000000E+00 0.  1.
         11    1    1    2    0    0  0.33586407703E+02  0.41904799744E+02 -0.40395645303E+02  0.67200202257E+02  0.00000000000E+00 0. -1.
<mgrwt>
<rscale>  0 0.11778556E+03</rscale>
<asrwt>0</asrwt>
<pdfrwt beam="1">  1        2 0.72107553E-02 0.12761501E+03</pdfrwt>
<pdfrwt beam="2">  1       -2 0.39940618E-01 0.12761501E+03</pdfrwt>
<totfact> 0.54805485E+03</totfact>
</mgrwt>
</event>
<event>
 7    1  0.6095443E-006  0.1324417E+03  0.7546771E-02  0.1234077E+00
          1   -1    0    0  501    0  0.00000000000E+00  0.00000000000E+00  0.11455348424E+03  0.11455348424E+03  0.00000000000E+00 0. -1.
         -1   -1    0    0    0  501 -0.00000000000E+00 -0.00000000000E+00 -0.12544929025E+03  0.12544929025E+03  0.00000000000E+00 0.  1.
         23    2    1    2    0    0 -0.25517671889E+02  0.35544291028E+02 -0.32781092519E+01  0.13248221788E+03  0.12500497530E+03 0.  0.
          5    1    3    3  502    0  0.22115777927E+02  0.68665628436E+02 -0.13049897243E+02  0.73460642387E+02  0.47000000000E+01 0. -1.
         -5    1    3    3    0  502 -0.47633449816E+02 -0.33121337407E+02  0.97717879909E+01  0.59021575492E+02  0.47000000000E+01 0. -1.
        -11    1    1    2    0    0  0.23461150408E+02 -0.15977503954E-01  0.41018918398E+02  0.47254391333E+02  0.00000000000E+00 0. -1.
         11    1    1    2    0    0  0.20565214811E+01 -0.35528313524E+02 -0.48636615161E+02  0.60266165274E+02  0.00000000000E+00 0.  1.
<mgrwt>
<rscale>  0 0.12563717E+03</rscale>
<asrwt>0</asrwt>
<pdfrwt beam="1">  1        1 0.17623613E-01 0.13244166E+03</pdfrwt>
<pdfrwt beam="2">  1       -1 0.19299891E-01 0.13244166E+03</pdfrwt>
<totfact> 0.61104297E+03</totfact>
</mgrwt>
</event>
<event>
 7    1  0.6095443E-006  0.1273954E+03  0.7546771E-02  0.1246379E+00
         -1   -1    0    0    0  501 -0.00000000000E+00  0.00000000000E+00  0.39707910459E+02  0.39707910459E+02  0.00000000000E+00 0.  1.
          1   -1    0    0  501    0  0.00000000000E+00 -0.00000000000E+00 -0.30825437199E+03  0.30825437199E+03  0.00000000000E+00 0. -1.
         23    2    1    2    0    0 -0.66764566458E+01  0.23641627462E+02 -0.15509065987E+03  0.20070549950E+03  0.12500433244E+03 0.  0.
          5    1    3    3  502    0 -0.38983257324E+02 -0.38281410469E+02 -0.88355532870E+02  0.10399014822E+03  0.47000000000E+01 0.  1.
         -5    1    3    3    0  502  0.32306800679E+02  0.61923037931E+02 -0.66735126997E+02  0.96715351274E+02  0.47000000000E+01 0.  1.
        -11    1    1    2    0    0  0.15406358901E+02 -0.22805133771E+01  0.12022140607E+02  0.19674564814E+02  0.00000000000E+00 0.  1.
         11    1    1    2    0    0 -0.87299022549E+01 -0.21361114085E+02 -0.12547794227E+03  0.12758221814E+03  0.00000000000E+00 0. -1.
<mgrwt>
<rscale>  0 0.11803252E+03</rscale>
<asrwt>0</asrwt>
<pdfrwt beam="2">  1        1 0.47423750E-01 0.12739539E+03</pdfrwt>
<pdfrwt beam="1">  1       -1 0.61089093E-02 0.12739539E+03</pdfrwt>
<totfact> 0.10353727E+04</totfact>
</mgrwt>
</event>
<event>
 7    1  0.6095443E-006  0.1265023E+03  0.7546771E-02  0.1248776E+00
          1   -1    0    0  501    0  0.00000000000E+00  0.00000000000E+00  0.18728594897E+03  0.18728594897E+03  0.00000000000E+00 0. -1.
         -1   -1    0    0    0  501 -0.00000000000E+00 -0.00000000000E+00 -0.72379221491E+02  0.72379221491E+02  0.00000000000E+00 0.  1.
         23    2    1    2    0    0  0.11670085713E+02  0.15626877740E+02  0.20272281711E+02  0.12811638705E+03  0.12498981165E+03 0.  0.
          5    1    3    3  502    0 -0.27763644108E+02  0.54076361200E+02 -0.14687314142E+02  0.62712677917E+02  0.47000000000E+01 0.  1.
         -5    1    3    3    0  502  0.39433729822E+02 -0.38449483460E+02  0.34959595853E+02  0.65403709132E+02  0.47000000000E+01 0.  1.
        -11    1    1    2    0    0 -0.24982027247E+02  0.32754151703E+02  0.42211207335E+02  0.58980693145E+02  0.00000000000E+00 0.  1.
         11    1    1    2    0    0  0.13311941534E+02 -0.48381029443E+02  0.52423238434E+02  0.72568090269E+02  0.00000000000E+00 0. -1.
<mgrwt>
<rscale>  0 0.11662210E+03</rscale>
<asrwt>0</asrwt>
<pdfrwt beam="1">  1        1 0.28813223E-01 0.12650234E+03</pdfrwt>
<pdfrwt beam="2">  1       -1 0.11135265E-01 0.12650234E+03</pdfrwt>
<totfact> 0.77426823E+03</totfact>
</mgrwt>
</event>
<event>
 7    1  0.6095443E-006  0.1339250E+03  0.7546771E-02  0.1235459E+00
         -1   -1    0    0    0  501 -0.00000000000E+00  0.00000000000E+00  0.22686362032E+03  0.22686362032E+03  0.00000000000E+00 0.  1.
          1   -1    0    0  501    0  0.00000000000E+00 -0.00000000000E+00 -0.61135538628E+02  0.61135538628E+02  0.00000000000E+00 0. -1.
         23    2    1    2    0    0 -0.44123759515E+02 -0.19805886088E+02  0.10607766965E+03  0.17084603326E+03  0.12488681198E+03 0.  0.
          5    1    3    3  502    0  0.35119459950E+02 -0.32821703520E+02  0.17952315504E+02  0.51526850487E+02  0.47000000000E+01 0. -1.
         -5    1    3    3    0  502 -0.79243219466E+02  0.13015817432E+02  0.88125354149E+02  0.11931918278E+03  0.47000000000E+01 0. -1.
        -11    1    1    2    0    0  0.63616003708E+02 -0.91511570572E+01  0.28264300147E+02  0.70211183341E+02  0.00000000000E+00 0.  1.
         11    1    1    2    0    0 -0.19492244193E+02  0.28957043145E+02  0.31386111895E+02  0.46941942346E+02  0.00000000000E+00 0. -1.
<mgrwt>
<rscale>  0 0.12475086E+03</rscale>
<asrwt>0</asrwt>
<pdfrwt beam="2">  1        1 0.94054676E-02 0.13392496E+03</pdfrwt>
<pdfrwt beam="1">  1       -1 0.34902095E-01 0.13392496E+03</pdfrwt>
<totfact> 0.52174625E+03</totfact>
</mgrwt>
</event>
<event>
 7    1  0.6095443E-006  0.1411164E+03  0.7546771E-02  0.1223979E+00
          2   -1    0    0  501    0  0.00000000000E+00  0.00000000000E+00  0.29420440836E+03  0.29420440836E+03  0.00000000000E+00 0. -1.
         -2   -1    0    0    0  501 -0.00000000000E+00 -0.00000000000E+00 -0.53772012405E+02  0.53772012405E+02  0.00000000000E+00 0.  1.
         23    2    1    2    0    0  0.44889687854E+02  0.47705286376E+02  0.11864525596E+03  0.18436521029E+03  0.12499182206E+03 0.  0.
          5    1    3    3  502    0  0.79164082637E+02  0.62653342481E+02  0.10053017708E+03  0.14255104282E+03  0.47000000000E+01 0.  1.
         -5    1    3    3    0  502 -0.34274394783E+02 -0.14948056105E+02  0.18115078872E+02  0.41814167475E+02  0.47000000000E+01 0.  1.
        -11    1    1    2    0    0  0.88808712787E+01 -0.51658649299E+02  0.41288406031E+02  0.66724945820E+02  0.00000000000E+00 0. -1.
         11    1    1    2    0    0 -0.53770559133E+02  0.39533629238E+01  0.80498733965E+02  0.96886264650E+02  0.00000000000E+00 0.  1.
<mgrwt>
<rscale>  0 0.13237099E+03</rscale>
<asrwt>0</asrwt>
<pdfrwt beam="1">  1        2 0.45262216E-01 0.14111638E+03</pdfrwt>
<pdfrwt beam="2">  1       -2 0.82726175E-02 0.14111638E+03</pdfrwt>
<totfact> 0.95124397E+03</totfact>
</mgrwt>
</event>
<event>
 7    1  0.6095443E-006  0.1325935E+03  0.7546771E-02  0.1242850E+00
         -2   -1    0    0    0  501 -0.00000000000E+00  0.00000000000E+00  0.24338480658E+02  0.24338480658E+02  0.00000000000E+00 0.  1.
          2   -1    0    0  501    0  0.00000000000E+00 -0.00000000000E+00 -0.50669777086E+03  0.50669777086E+03  0.00000000000E+00 0. -1.
         23    2    1    2    0    0  0.44099238588E+02  0.32333135889E+01 -0.29628568288E+03  0.32460167000E+03  0.12500336447E+03 0.  0.
          5    1    3    3  502    0  0.58053378302E+02 -0.44043555858E+02 -0.23342871533E+03  0.24458349226E+03  0.47000000000E+01 0. -1.
         -5    1    3    3    0  502 -0.13954139714E+02  0.47276869447E+02 -0.62856967546E+02  0.80018177740E+02  0.47000000000E+01 0. -1.
        -11    1    1    2    0    0 -0.22453009804E+02  0.35836762886E+02 -0.66680731442E+02  0.78960313886E+02  0.00000000000E+00 0.  1.
         11    1    1    2    0    0 -0.21646228783E+02 -0.39070076475E+02 -0.11939287588E+03  0.12747426763E+03  0.00000000000E+00 0. -1.
<mgrwt>
<rscale>  0 0.12014968E+03</rscale>
<asrwt>0</asrwt>
<pdfrwt beam="2">  1        2 0.77953497E-01 0.13259351E+03</pdfrwt>
<pdfrwt beam="1">  1       -2 0.37443819E-02 0.13259351E+03</pdfrwt>
<totfact> 0.17527319E+04</totfact>
</mgrwt>
</event>
<event>
 7    1  0.6095443E-006  0.1306726E+03  0.7546771E-02  0.1240268E+00
         -2   -1    0    0    0  501 -0.00000000000E+00  0.00000000000E+00  0.17651938689E+03  0.17651938689E+03  0.00000000000E+00 0.  1.
          2   -1    0    0  501    0  0.00000000000E+00 -0.00000000000E+00 -0.76434379137E+02  0.76434379137E+02  0.00000000000E+00 0. -1.
         23    2    1    2    0    0  0.20925198194E+02  0.31816643105E+02  0.77694582053E+02  0.15202556103E+03  0.12500064171E+03 0.  0.
          5    1    3    3  502    0  0.28175352946E+02 -0.59890439911E+01  0.10211015929E+03  0.10619931164E+03  0.47000000000E+01 0. -1.
         -5    1    3    3    0  502 -0.72501547521E+01  0.37805687096E+02 -0.24415577241E+02  0.45826249386E+02  0.47000000000E+01 0. -1.
        -11    1    1    2    0    0 -0.48168688281E+02  0.74688439805E+01  0.21067995910E+02  0.53102416262E+02  0.00000000000E+00 0. -1.
         11    1    1    2    0    0  0.27243490087E+02 -0.39285487086E+02  0.13224297857E+01  0.47825788736E+02  0.00000000000E+00 0.  1.
<mgrwt>
<rscale>  0 0.12173116E+03</rscale>
<asrwt>0</asrwt>
<pdfrwt beam="2">  1        2 0.11759135E-01 0.13067258E+03</pdfrwt>
<pdfrwt beam="1">  1       -2 0.27156829E-01 0.13067258E+03</pdfrwt>
<totfact> 0.60698978E+03</totfact>
</mgrwt>
</event>
<event>
 6    1  0.6095443E-006  0.1923146E+03  0.7546771E-02  0.1212774E+00
          2   -1    0    0  501    0  0.00000000000E+00  0.00000000000E+00  0.34852218451E+03  0.34852218451E+03  0.00000000000E+00 0. -1.
         -2   -1    0    0    0  501 -0.00000000000E+00 -0.00000000000E+00 -0.45001920975E+02  0.45001920975E+02  0.00000000000E+00 0.  1.
          5    1    1    2  502    0  0.17471550111E+02  0.11497323978E+03  0.13497856510E+03  0.17822851614E+03  0.47000000000E+01 0. -1.
         -5    1    1    2    0  502 -0.24617472714E+02 -0.71160789667E+02  0.71608309470E+02  0.10401787315E+03  0.47000000000E+01 0.  1.
        -11    1    1    2    0    0  0.19643181954E+02 -0.31355549520E+02  0.66306711653E+02  0.75931581659E+02  0.00000000000E+00 0.  1.
         11    1    1    2    0    0 -0.12497259352E+02 -0.12456900592E+02  0.30626677312E+02  0.35346134539E+02  0.00000000000E+00 0. -1.
<mgrwt>
<rscale>  0 0.14041294E+03</rscale>
<asrwt>0</asrwt>
<pdfrwt beam="1">  1        2 0.53618796E-01 0.19231455E+03</pdfrwt>
<pdfrwt beam="2">  1       -2 0.69233727E-02 0.19231455E+03</pdfrwt>
<totfact> 0.10681941E+04</totfact>
</mgrwt>
</event>
<event>
 7    1  0.6669993E-006  0.1619919E+03  0.7546771E-02  0.1193736E+00
          1   -1    0    0  501    0  0.00000000000E+00  0.00000000000E+00  0.69008523855E+03  0.69008523855E+03  0.00000000000E+00 0. -1.
         -1   -1    0    0    0  501 -0.00000000000E+00 -0.00000000000E+00 -0.39182729110E+02  0.39182729110E+02  0.00000000000E+00 0.  1.
         23    2    1    2    0    0 -0.71553704677E+02  0.74133562606E+02  0.19801647285E+03  0.25583571334E+03  0.12500268373E+03 0.  0.
          5    1    3    3  502    0 -0.30166172862E+02  0.99877959734E+02  0.92510578608E+02  0.13952025652E+03  0.47000000000E+01 0.  1.
         -5    1    3    3    0  502 -0.41387531816E+02 -0.25744397128E+02  0.10550589425E+03  0.11631545681E+03  0.47000000000E+01 0.  1.
        -11    1    1    2    0    0  0.54626211636E+02 -0.16313745301E+02  0.97244292488E+02  0.11272361645E+03  0.00000000000E+00 0.  1.
         11    1    1    2    0    0  0.16927493042E+02 -0.57819817304E+02  0.35564174410E+03  0.36070863788E+03  0.00000000000E+00 0. -1.
<mgrwt>
<rscale>  0 0.15561683E+03</rscale>
<asrwt>0</asrwt>
<pdfrwt beam="1">  1        1 0.10616695E+00 0.16199194E+03</pdfrwt>
<pdfrwt beam="2">  1       -1 0.60281127E-02 0.16199194E+03</pdfrwt>
<totfact> 0.37462337E+03</totfact>
</mgrwt>
</event>
<event>
 7    1  0.6095443E-006  0.1616788E+03  0.7546771E-02  0.1194585E+00
          2   -1    0    0  501    0  0.00000000000E+00  0.00000000000E+00  0.38308940034E+03  0.38308940034E+03  0.00000000000E+00 0. -1.
         -2   -1    0    0    0  501 -0.00000000000E+00 -0.00000000000E+00 -0.70353928950E+02  0.70353928950E+02  0.00000000000E+00 0.  1.
         23    2    1    2    0    0  0.73717997106E+02 -0.71278321454E+02  0.72293662724E+02  0.17710565023E+03  0.12500038187E+03 0.  0.
          5    1    3    3  502    0  0.26494421511E+02  0.31474188160E+02 -0.24330916605E+01  0.41479981034E+02  0.47000000000E+01 0.  1.
         -5    1    3    3    0  502  0.47223575595E+02 -0.10275250961E+03  0.74726754385E+02  0.13562566920E+03  0.47000000000E+01 0.  1.
        -11    1    1    2    0    0 -0.91631905076E+02  0.60389662840E+02  0.22488286416E+03  0.25023113315E+03  0.00000000000E+00 0. -1.
         11    1    1    2    0    0  0.17913907970E+02  0.10888658614E+02  0.15558944508E+02  0.26106545910E+02  0.00000000000E+00 0.  1.
<mgrwt>
<rscale>  0 0.15489363E+03</rscale>
<asrwt>0</asrwt>
<pdfrwt beam="1">  1        2 0.58936830E-01 0.16167881E+03</pdfrwt>
<pdfrwt beam="2">  1       -2 0.10823682E-01 0.16167881E+03</pdfrwt>
<totfact> 0.47499370E+03</totfact>
</mgrwt>
</event>
<event>
 7    1  0.6095443E-006  0.2078955E+03  0.7546771E-02  0.1147099E+00
          2   -1    0    0  501    0  0.00000000000E+00  0.00000000000E+00  0.16820536955E+03  0.16820536955E+03  0.00000000000E+00 0. -1.
         -2   -1    0    0    0  501 -0.00000000000E+00 -0.00000000000E+00 -0.23882524771E+03  0.23882524771E+03  0.00000000000E+00 0.  1.
         23    2    1    2    0    0  0.24711852600E+02  0.16427075850E+03 -0.63196713473E+02  0.21728864796E+03  0.12499989673E+03 0.  0.
          5    1    3    3  502    0  0.45789590592E+02  0.12937061840E+03 -0.93626500114E+02  0.16619703678E+03  0.47000000000E+01 0.  1.
         -5    1    3    3    0  502 -0.21077737992E+02  0.34900140106E+02  0.30429786641E+02  0.51091611183E+02  0.47000000000E+01 0.  1.
        -11    1    1    2    0    0 -0.10282003240E+02 -0.18210459050E+01  0.21691741477E+02  0.24074207093E+02  0.00000000000E+00 0. -1.
         11    1    1    2    0    0 -0.14429849360E+02 -0.16244971260E+03 -0.29114906166E+02  0.16566776221E+03  0.00000000000E+00 0.  1.
<mgrwt>
<rscale>  0 0.20316154E+03</rscale>
<asrwt>0</asrwt>
<pdfrwt beam="1">  1        2 0.25877749E-01 0.20789548E+03</pdfrwt>
<pdfrwt beam="2">  1       -2 0.36742346E-01 0.20789548E+03</pdfrwt>
<totfact> 0.14384076E+03</totfact>
</mgrwt>
</event>
<event>
 7    1  0.1085593E-005  0.4541233E+03  0.7546771E-02  0.1027093E+00
         -1   -1    0    0    0  501 -0.00000000000E+00  0.00000000000E+00  0.67086396237E+03  0.67086396237E+03  0.00000000000E+00 0.  1.
          1   -1    0    0  501    0  0.00000000000E+00 -0.00000000000E+00 -0.30740675947E+03  0.30740675947E+03  0.00000000000E+00 0. -1.
         23    2    1    2    0    0 -0.28787519484E+02 -0.43562947721E+03  0.24797731605E+03  0.51741732346E+03  0.12500469852E+03 0.  0.
          5    1    3    3  502    0  0.45272023792E+01 -0.37244936223E+03  0.24484435659E+03  0.44576885484E+03  0.47000000000E+01 0. -1.
         -5    1    3    3    0  502 -0.33314721863E+02 -0.63180114981E+02  0.31329594577E+01  0.71648468628E+02  0.47000000000E+01 0. -1.
        -11    1    1    2    0    0 -0.14725397979E+02  0.76070187859E+02  0.51570502968E+02  0.93075386666E+02  0.00000000000E+00 0.  1.
         11    1    1    2    0    0  0.43512917463E+02  0.35955928935E+03  0.63909383890E+02  0.36777801171E+03  0.00000000000E+00 0. -1.
<mgrwt>
<rscale>  0 0.45211681E+03</rscale>
<asrwt>0</asrwt>
<pdfrwt beam="2">  1        1 0.47293348E-01 0.45412326E+03</pdfrwt>
<pdfrwt beam="1">  1       -1 0.10320984E+00 0.45412326E+03</pdfrwt>
<totfact> 0.78561268E+01</totfact>
</mgrwt>
</event>
<event>
 7    1  0.6095443E-006  0.1530430E+03  0.7546771E-02  0.1205276E+00
          3   -1    0    0  501    0  0.00000000000E+00  0.00000000000E+00  0.22849785179E+03  0.22849785179E+03  0.00000000000E+00 0. -1.
         -3   -1    0    0    0  501 -0.00000000000E+00 -0.00000000000E+00 -0.86345118140E+02  0.86345118140E+02  0.00000000000E+00 0.  1.
         23    2    1    2    0    0 -0.85734250671E+02  0.21093915169E+02  0.87624606919E+02  0.17635256930E+03  0.12500736765E+03 0.  0.
          5    1    3    3  502    0  0.21299528926E-01 -0.43812421915E+02  0.15226441828E+02  0.46620417185E+02  0.47000000000E+01 0.  1.
         -5    1    3    3    0  502 -0.85755550200E+02  0.64906337084E+02  0.72398165091E+02  0.12973215211E+03  0.47000000000E+01 0.  1.
        -11    1    1    2    0    0  0.68098300453E+02 -0.94725000171E+01 -0.11012843137E+02  0.69630377675E+02  0.00000000000E+00 0.  1.
         11    1    1    2    0    0  0.17635950218E+02 -0.11621415152E+02  0.65540969867E+02  0.68860022955E+02  0.00000000000E+00 0. -1.
<mgrwt>
<rscale>  0 0.14615729E+03</rscale>
<asrwt>0</asrwt>
<pdfrwt beam="1">  1        3 0.35153515E-01 0.15304299E+03</pdfrwt>
<pdfrwt beam="2">  1       -3 0.13283864E-01 0.15304299E+03</pdfrwt>
<totfact> 0.85617327E+02</totfact>
</mgrwt>
</event>
<event>
 7    1  0.6095443E-006  0.2703452E+03  0.7546771E-02  0.1103116E+00
          1   -1    0    0  501    0  0.00000000000E+00  0.00000000000E+00  0.12845726660E+04  0.12845726660E+04  0.00000000000E+00 0. -1.
         -1   -1    0    0    0  501 -0.00000000000E+00 -0.00000000000E+00 -0.54172177225E+02  0.54172177225E+02  0.00000000000E+00 0.  1.
         23    2    1    2    0    0 -0.16319978152E+03 -0.17557049448E+03  0.59572560329E+03  0.65419836283E+03  0.12500934484E+03 0.  0.
          5    1    3    3  502    0  0.73071200558E+01 -0.37632823819E+02  0.35124587039E+02  0.52205843033E+02  0.47000000000E+01 0.  1.
         -5    1    3    3    0  502 -0.17050690157E+03 -0.13793767066E+03  0.56060101625E+03  0.60199251980E+03  0.47000000000E+01 0.  1.
        -11    1    1    2    0    0  0.12822072245E+03  0.87233420837E+02  0.31589076731E+03  0.35190510120E+03  0.00000000000E+00 0.  1.
         11    1    1    2    0    0  0.34979059063E+02  0.88337073644E+02  0.31878411817E+03  0.33264137919E+03  0.00000000000E+00 0. -1.
<mgrwt>
<rscale>  0 0.26681504E+03</rscale>
<asrwt>0</asrwt>
<pdfrwt beam="1">  1        1 0.19762654E+00 0.27034516E+03</pdfrwt>
<pdfrwt beam="2">  1       -1 0.83341821E-02 0.27034516E+03</pdfrwt>
<totfact> 0.80976229E+02</totfact>
</mgrwt>
</event>
<event>
 7    1  0.6095443E-006  0.1637690E+03  0.7546771E-02  0.1191985E+00
         -1   -1    0    0    0  501 -0.00000000000E+00  0.00000000000E+00  0.61829268807E+02  0.61829268807E+02  0.00000000000E+00 0.  1.
          1   -1    0    0  501    0  0.00000000000E+00 -0.00000000000E+00 -0.37111508681E+03  0.37111508681E+03  0.00000000000E+00 0. -1.
         23    2    1    2    0    0  0.10581409313E+03  0.30549246713E+00 -0.17890070245E+03  0.24254020560E+03  0.12499429732E+03 0.  0.
          5    1    3    3  502    0  0.10891289218E+03  0.17421963219E+02 -0.66871895272E+02  0.12907162067E+03  0.47000000000E+01 0.  1.
         -5    1    3    3    0  502 -0.30987990549E+01 -0.17116470752E+02 -0.11202880718E+03  0.11346858492E+03  0.47000000000E+01 0.  1.
        -11    1    1    2    0    0 -0.36456170964E+02  0.25127308512E+02 -0.45802657181E+01  0.44513064021E+02  0.00000000000E+00 0.  1.
         11    1    1    2    0    0 -0.69357922163E+02 -0.25432800979E+02 -0.12580484983E+03  0.14589108600E+03  0.00000000000E+00 0. -1.
<mgrwt>
<rscale>  0 0.15712215E+03</rscale>
<asrwt>0</asrwt>
<pdfrwt beam="2">  1        1 0.57094629E-01 0.16376901E+03</pdfrwt>
<pdfrwt beam="1">  1       -1 0.95121951E-02 0.16376901E+03</pdfrwt>
<totfact> 0.42791556E+03</totfact>
</mgrwt>
</event>
<event>
 7    1  0.1479071E-005  0.1555713E+03  0.7546771E-02  0.1202216E+00
         -1   -1    0    0    0  501 -0.00000000000E+00  0.00000000000E+00  0.51957225240E+02  0.51957225240E+02  0.00000000000E+00 0.  1.
          1   -1    0    0  501    0  0.00000000000E+00 -0.00000000000E+00 -0.40809167279E+03  0.40809167279E+03  0.00000000000E+00 0. -1.
         23    2    1    2    0    0 -0.15470068463E+01 -0.92601338025E+02 -0.14672475884E+03  0.21384710853E+03  0.12500011975E+03 0.  0.
          5    1    3    3  502    0  0.51987879317E+02 -0.56271720075E+01 -0.60492347522E+02  0.80098806292E+02  0.47000000000E+01 0. -1.
         -5    1    3    3    0  502 -0.53534886164E+02 -0.86974166017E+02 -0.86232411318E+02  0.13374830224E+03  0.47000000000E+01 0. -1.
        -11    1    1    2    0    0  0.24447123409E+02  0.51341572986E+02 -0.18404158104E+03  0.19262638062E+03  0.00000000000E+00 0. -1.
         11    1    1    2    0    0 -0.22900116562E+02  0.41259765038E+02 -0.25368107676E+02  0.53575408880E+02  0.00000000000E+00 0.  1.
<mgrwt>
<rscale>  0 0.14859041E+03</rscale>
<asrwt>0</asrwt>
<pdfrwt beam="2">  1        1 0.62783335E-01 0.15557131E+03</pdfrwt>
<pdfrwt beam="1">  1       -1 0.79934192E-02 0.15557131E+03</pdfrwt>
<totfact> 0.49322116E+03</totfact>
</mgrwt>
</event>
<event>
 7    1  0.6095443E-006  0.1677102E+03  0.7546771E-02  0.1186903E+00
         -2   -1    0    0    0  501 -0.00000000000E+00  0.00000000000E+00  0.43182527646E+02  0.43182527646E+02  0.00000000000E+00 0.  1.
          2   -1    0    0  501    0  0.00000000000E+00 -0.00000000000E+00 -0.56583424436E+03  0.56583424436E+03  0.00000000000E+00 0. -1.
         23    2    1    2    0    0 -0.10181456355E+03 -0.46199907483E+02 -0.29497899026E+03  0.33932186991E+03  0.12500435952E+03 0.  0.
          5    1    3    3  502    0 -0.11497335021E+03 -0.54625071133E+02 -0.16561749576E+03  0.20893543154E+03  0.47000000000E+01 0.  1.
         -5    1    3    3    0  502  0.13158786656E+02  0.84251636501E+01 -0.12936149450E+03  0.13038643836E+03  0.47000000000E+01 0.  1.
        -11    1    1    2    0    0  0.76215276839E+01  0.48942277266E+02 -0.65321373037E+02  0.81977533286E+02  0.00000000000E+00 0.  1.
         11    1    1    2    0    0  0.94193035865E+02 -0.27423697833E+01 -0.16235135341E+03  0.18771736881E+03  0.00000000000E+00 0. -1.
<mgrwt>
<rscale>  0 0.16159920E+03</rscale>
<asrwt>0</asrwt>
<pdfrwt beam="2">  1        2 0.87051419E-01 0.16771025E+03</pdfrwt>
<pdfrwt beam="1">  1       -2 0.66434661E-02 0.16771025E+03</pdfrwt>
<totfact> 0.66405410E+03</totfact>
</mgrwt>
</event>
<event>
 7    1  0.6095443E-006  0.2470846E+03  0.7546771E-02  0.1117665E+00
          2   -1    0    0  501    0  0.00000000000E+00  0.00000000000E+00  0.88934988619E+03  0.88934988619E+03  0.00000000000E+00 0.  1.
         -2   -1    0    0    0  501 -0.00000000000E+00 -0.00000000000E+00 -0.65648288271E+02  0.65648288271E+02  0.00000000000E+00 0. -1.
         23    2    1    2    0    0 -0.20636140330E+03  0.53277991707E+02  0.36196194563E+03  0.43825477335E+03  0.12500889211E+03 0.  0.
          5    1    3    3  502    0 -0.19442405050E+03  0.10604594672E+02  0.24430468956E+03  0.31244205892E+03  0.47000000000E+01 0.  1.
         -5    1    3    3    0  502 -0.11937352803E+02  0.42673397035E+02  0.11765725606E+03  0.12581271443E+03  0.47000000000E+01 0.  1.
        -11    1    1    2    0    0  0.87133242190E+02 -0.49571255265E+02  0.12969075327E+03  0.16391828063E+03  0.00000000000E+00 0.  1.
         11    1    1    2    0    0  0.11922816111E+03 -0.37067364417E+01  0.33204889903E+03  0.35282512048E+03  0.00000000000E+00 0. -1.
<mgrwt>
<rscale>  0 0.24322177E+03</rscale>
<asrwt>0</asrwt>
<pdfrwt beam="1">  1        2 0.13682305E+00 0.24708459E+03</pdfrwt>
<pdfrwt beam="2">  1       -2 0.10099737E-01 0.24708459E+03</pdfrwt>
<totfact> 0.20127341E+03</totfact>
</mgrwt>
</event>
<event>
 7    1  0.6095443E-006  0.1429884E+03  0.7546771E-02  0.1219842E+00
          1   -1    0    0  501    0  0.00000000000E+00  0.00000000000E+00  0.91348459777E+03  0.91348459777E+03  0.00000000000E+00 0. -1.
         -1   -1    0    0    0  501 -0.00000000000E+00 -0.00000000000E+00 -0.18316221935E+02  0.18316221935E+02  0.00000000000E+00 0.  1.
         23    2    1    2    0    0 -0.69372120201E+02 -0.28152616809E+01  0.54106852344E+03  0.55964349004E+03  0.12500108848E+03 0.  0.
          5    1    3    3  502    0 -0.55736888089E+01  0.13023732744E+01  0.43933830717E+03  0.43940072864E+03  0.47000000000E+01 0.  1.
         -5    1    3    3    0  502 -0.63798431392E+02 -0.41176349552E+01  0.10173021628E+03  0.12024276140E+03  0.47000000000E+01 0.  1.
        -11    1    1    2    0    0 -0.11873282249E+02  0.33366829739E+01  0.43239660093E+01  0.13069237418E+02  0.00000000000E+00 0.  1.
         11    1    1    2    0    0  0.81245402450E+02 -0.52142129305E+00  0.34977588638E+03  0.35908809225E+03  0.00000000000E+00 0. -1.
<mgrwt>
<rscale>  0 0.13526770E+03</rscale>
<asrwt>0</asrwt>
<pdfrwt beam="1">  1        1 0.14053606E+00 0.14298842E+03</pdfrwt>
<pdfrwt beam="2">  1       -1 0.28178810E-02 0.14298842E+03</pdfrwt>
<totfact> 0.74831746E+03</totfact>
</mgrwt>
</event>
<event>
 7    1  0.6095443E-006  0.1938091E+03  0.7546771E-02  0.1158880E+00
         -1   -1    0    0    0  501 -0.00000000000E+00  0.00000000000E+00  0.18684344912E+03  0.18684344912E+03  0.00000000000E+00 0.  1.
          1   -1    0    0  501    0  0.00000000000E+00 -0.00000000000E+00 -0.18528732576E+03  0.18528732576E+03  0.00000000000E+00 0. -1.
         23    2    1    2    0    0  0.49569681941E+02  0.13956645669E+03 -0.13099234819E+02  0.19425131902E+03  0.12500414307E+03 0.  0.
          5    1    3    3  502    0 -0.33522538053E+02  0.56729027793E+01  0.78657918629E+01  0.35212257313E+02  0.47000000000E+01 0.  1.
         -5    1    3    3    0  502  0.83092219994E+02  0.13389355391E+03 -0.20965026682E+02  0.15903906170E+03  0.47000000000E+01 0.  1.
        -11    1    1    2    0    0 -0.19131812236E+02 -0.25921030347E+02  0.45967315472E+02  0.56133057509E+02  0.00000000000E+00 0.  1.
         11    1    1    2    0    0 -0.30437869705E+02 -0.11364542635E+03 -0.31311957290E+02  0.12174639835E+03  0.00000000000E+00 0. -1.
<mgrwt>
<rscale>  0 0.18953630E+03</rscale>
<asrwt>0</asrwt>
<pdfrwt beam="2">  1        1 0.28505742E-01 0.19380915E+03</pdfrwt>
<pdfrwt beam="1">  1       -1 0.28745146E-01 0.19380915E+03</pdfrwt>
<totfact> 0.17588085E+03</totfact>
</mgrwt>
</event>
<event>
 7    1  0.6095443E-006  0.1159900E+03  0.7546771E-02  0.1260228E+00
         -2   -1    0    0    0  501 -0.00000000000E+00  0.00000000000E+00  0.59824069909E+02  0.59824069909E+02  0.00000000000E+00 0.  1.
          2   -1    0    0  501    0  0.00000000000E+00 -0.00000000000E+00 -0.21755284978E+03  0.21755284978E+03  0.00000000000E+00 0. -1.
         23    2    1    2    0    0 -0.16595993285E+02  0.16396775995E+02 -0.32381457139E+02  0.12042528916E+03  0.11361958567E+03 0.  0.
          5    1    3    3  502    0  0.12705042036E+02  0.39446544570E+02 -0.60507264814E+02  0.73489230959E+02  0.47000000000E+01 0. -1.
         -5    1    3    3    0  502 -0.29301035321E+02 -0.23049768575E+02  0.28125807675E+02  0.46936058203E+02  0.47000000000E+01 0.  1.
        -11    1    1    2    0    0 -0.37874832761E+02 -0.12069155651E+02 -0.49996058612E+02  0.63873103506E+02  0.00000000000E+00 0.  1.
         11    1    1    2    0    0  0.54470826046E+02 -0.43276203439E+01 -0.75351264120E+02  0.93078527021E+02  0.00000000000E+00 0. -1.
<mgrwt>
<rscale>  0 0.11018500E+03</rscale>
<asrwt>0</asrwt>
<pdfrwt beam="2">  1        2 0.33469669E-01 0.11599005E+03</pdfrwt>
<pdfrwt beam="1">  1       -2 0.92037032E-02 0.11599005E+03</pdfrwt>
<totfact> 0.10942898E+04</totfact>
</mgrwt>
</event>
<event>
 7    1  0.6095443E-006  0.1276508E+03  0.7546771E-02  0.1245564E+00
          3   -1    0    0  501    0  0.00000000000E+00  0.00000000000E+00  0.12357140035E+03  0.12357140035E+03  0.00000000000E+00 0. -1.
         -3   -1    0    0    0  501 -0.00000000000E+00 -0.00000000000E+00 -0.10040800794E+03  0.10040800794E+03  0.00000000000E+00 0.  1.
         23    2    1    2    0    0 -0.13556114425E+02  0.22016449865E+02  0.77791358745E+01  0.12788757561E+03  0.12500489885E+03 0.  0.
          5    1    3    3  502    0 -0.54543615369E+02 -0.25955988712E+01  0.41878706237E+02  0.68975786672E+02  0.47000000000E+01 0.  1.
         -5    1    3    3    0  502  0.40987500944E+02  0.24612048736E+02 -0.34099570362E+02  0.58911788935E+02  0.47000000000E+01 0.  1.
        -11    1    1    2    0    0  0.11416599297E+02 -0.81485422145E+00 -0.37429913242E+02  0.39140786045E+02  0.00000000000E+00 0.  1.
         11    1    1    2    0    0  0.21395151278E+01 -0.21201595643E+02  0.52814169782E+02  0.56951046633E+02  0.00000000000E+00 0. -1.
<mgrwt>
<rscale>  0 0.11851670E+03</rscale>
<asrwt>0</asrwt>
<pdfrwt beam="1">  1        3 0.19010985E-01 0.12765076E+03</pdfrwt>
<pdfrwt beam="2">  1       -3 0.15447386E-01 0.12765076E+03</pdfrwt>
<totfact> 0.19645381E+03</totfact>
</mgrwt>
</event>
<event>
 7    1  0.6095443E-006  0.1455529E+03  0.7546771E-02  0.1215786E+00
          2   -1    0    0  501    0  0.00000000000E+00  0.00000000000E+00  0.71710096167E+03  0.71710096167E+03  0.00000000000E+00 0. -1.
         -2   -1    0    0    0  501 -0.00000000000E+00 -0.00000000000E+00 -0.24387301529E+02  0.24387301529E+02  0.00000000000E+00 0.  1.
         23    2    1    2    0    0 -0.50801893542E+02  0.54564716068E+02  0.35571776476E+03  0.38434459719E+03  0.12501000200E+03 0.  0.
          5    1    3    3  502    0  0.24348383701E+02  0.18423837942E+02  0.16554586489E+02  0.35048907646E+02  0.47000000000E+01 0. -1.
         -5    1    3    3    0  502 -0.75150277243E+02  0.36140878126E+02  0.33916317827E+03  0.34929568954E+03  0.47000000000E+01 0. -1.
        -11    1    1    2    0    0  0.65727640249E+02 -0.45118680536E+01  0.17909730881E+03  0.19083062036E+03  0.00000000000E+00 0.  1.
         11    1    1    2    0    0 -0.14925746707E+02 -0.50052848015E+02  0.15789858658E+03  0.16631304565E+03  0.00000000000E+00 0. -1.
<mgrwt>
<rscale>  0 0.13818943E+03</rscale>
<asrwt>0</asrwt>
<pdfrwt beam="1">  1        2 0.11032321E+00 0.14555288E+03</pdfrwt>
<pdfrwt beam="2">  1       -2 0.37518931E-02 0.14555288E+03</pdfrwt>
<totfact> 0.11829433E+04</totfact>
</mgrwt>
</event>
<event>
 7    1  0.6095443E-006  0.1419809E+03  0.7546771E-02  0.1221145E+00
          2   -1    0    0  501    0  0.00000000000E+00  0.00000000000E+00  0.12702231055E+03  0.12702231055E+03  0.00000000000E+00 0. -1.
         -2   -1    0    0    0  501 -0.00000000000E+00 -0.00000000000E+00 -0.26810574102E+03  0.26810574102E+03  0.00000000000E+00 0.  1.
         23    2    1    2    0    0  0.66092675646E+02 -0.12782878028E+02 -0.21627452834E+03  0.25871462038E+03  0.12500775756E+03 0.  0.
          5    1    3    3  502    0  0.67137438412E+02  0.17287038270E+02 -0.40720719686E+02  0.80539085793E+02  0.47000000000E+01 0. -1.
         -5    1    3    3    0  502 -0.10447627660E+01 -0.30069916297E+02 -0.17555380865E+03  0.17817553459E+03  0.47000000000E+01 0. -1.
        -11    1    1    2    0    0 -0.53515012817E+02 -0.33213151359E+02  0.26715603556E+02  0.68415593934E+02  0.00000000000E+00 0.  1.
         11    1    1    2    0    0 -0.12577662829E+02  0.45996029386E+02  0.48475494309E+02  0.67997837246E+02  0.00000000000E+00 0. -1.
<mgrwt>
<rscale>  0 0.13434665E+03</rscale>
<asrwt>0</asrwt>
<pdfrwt beam="1">  1        2 0.19541894E-01 0.14198093E+03</pdfrwt>
<pdfrwt beam="2">  1       -2 0.41247037E-01 0.14198093E+03</pdfrwt>
<totfact> 0.15646498E+03</totfact>
</mgrwt>
</event>
<event>
 7    1  0.6095443E-006  0.3041686E+03  0.7546771E-02  0.1084705E+00
          2   -1    0    0  501    0  0.00000000000E+00  0.00000000000E+00  0.54014849151E+03  0.54014849151E+03  0.00000000000E+00 0. -1.
         -2   -1    0    0    0  501 -0.00000000000E+00 -0.00000000000E+00 -0.16661074475E+03  0.16661074475E+03  0.00000000000E+00 0.  1.
         23    2    1    2    0    0  0.17006253378E+03 -0.21902577789E+03  0.15065673333E+03  0.33943484154E+03  0.12500001432E+03 0.  0.
          5    1    3    3  502    0  0.71814080217E+02 -0.94919929029E+01  0.39810174522E+02  0.82790700216E+02  0.47000000000E+01 0. -1.
         -5    1    3    3    0  502  0.98248453559E+02 -0.20953378498E+03  0.11084655880E+03  0.25664414132E+03  0.47000000000E+01 0. -1.
        -11    1    1    2    0    0 -0.12714489428E+03  0.90945673543E+02  0.13102920560E+03  0.20397448958E+03  0.00000000000E+00 0.  1.
         11    1    1    2    0    0 -0.42917639497E+02  0.12808010434E+03  0.91851807832E+02  0.16334990514E+03  0.00000000000E+00 0. -1.
<mgrwt>
<rscale>  0 0.30107412E+03</rscale>
<asrwt>0</asrwt>
<pdfrwt beam="1">  1        2 0.83099767E-01 0.30416864E+03</pdfrwt>
<pdfrwt beam="2">  1       -2 0.25632423E-01 0.30416864E+03</pdfrwt>
<totfact> 0.77720256E+02</totfact>
</mgrwt>
</event>
<event>
 7    1  0.6095443E-006  0.1288558E+03  0.7546771E-02  0.1243350E+00
          2   -1    0    0  501    0  0.00000000000E+00  0.00000000000E+00  0.27989454974E+03  0.27989454974E+03  0.00000000000E+00 0. -1.
         -2   -1    0    0    0  501 -0.00000000000E+00 -0.00000000000E+00 -0.51998669586E+02  0.51998669586E+02  0.00000000000E+00 0.  1.
         23    2    1    2    0    0  0.31243454797E+02  0.11920942010E+01  0.69363074275E+02  0.14633882925E+03  0.12500496917E+03 0.  0.
          5    1    3    3  502    0 -0.29005269082E+02  0.42147067580E+02  0.47908095518E+02  0.70249245948E+02  0.47000000000E+01 0. -1.
         -5    1    3    3    0  502  0.60248723879E+02 -0.40954973379E+02  0.21454978757E+02  0.76089583301E+02  0.47000000000E+01 0. -1.
        -11    1    1    2    0    0  0.25271856275E+02 -0.23479767171E+02  0.71857183716E+02  0.79708349861E+02  0.00000000000E+00 0.  1.
         11    1    1    2    0    0 -0.56515311072E+02  0.22287672970E+02  0.86675622166E+02  0.10584604022E+03  0.00000000000E+00 0. -1.
<mgrwt>
<rscale>  0 0.11984651E+03</rscale>
<asrwt>0</asrwt>
<pdfrwt beam="1">  1        2 0.43060699E-01 0.12885580E+03</pdfrwt>
<pdfrwt beam="2">  1       -2 0.79997955E-02 0.12885580E+03</pdfrwt>
<totfact> 0.10490513E+04</totfact>
</mgrwt>
</event>
<event>
 7    1  0.6095443E-006  0.1359082E+03  0.7546771E-02  0.1230799E+00
          1   -1    0    0  501    0  0.00000000000E+00  0.00000000000E+00  0.20111218273E+03  0.20111218273E+03  0.00000000000E+00 0. -1.
         -1   -1    0    0    0  501 -0.00000000000E+00 -0.00000000000E+00 -0.11285026323E+03  0.11285026323E+03  0.00000000000E+00 0.  1.
         23    2    1    2    0    0  0.10789016252E+02 -0.52406525343E+02 -0.45375667748E+02  0.14328294148E+03  0.12493279524E+03 0.  0.
          5    1    3    3  502    0 -0.35282735536E+02 -0.72463159745E+02 -0.45787874782E+02  0.92813794364E+02  0.47000000000E+01 0. -1.
         -5    1    3    3    0  502  0.46071751788E+02  0.20056634402E+02  0.41220703386E+00  0.50469147120E+02  0.47000000000E+01 0. -1.
        -11    1    1    2    0    0 -0.28925093779E+02  0.15700213614E+02  0.12443766366E+03  0.12871631557E+03  0.00000000000E+00 0. -1.
         11    1    1    2    0    0  0.18136077527E+02  0.36706311729E+02  0.91999235977E+01  0.41963188904E+02  0.00000000000E+00 0.  1.
<mgrwt>
<rscale>  0 0.12777233E+03</rscale>
<asrwt>0</asrwt>
<pdfrwt beam="1">  1        1 0.30940336E-01 0.13590824E+03</pdfrwt>
<pdfrwt beam="2">  1       -1 0.17361579E-01 0.13590824E+03</pdfrwt>
<totfact> 0.35641543E+03</totfact>
</mgrwt>
</event>
<event>
 7    1  0.6095443E-006  0.1478153E+03  0.7546771E-02  0.1213340E+00
         -3   -1    0    0    0  501 -0.00000000000E+00  0.00000000000E+00  0.59722281937E+03  0.59722281937E+03  0.00000000000E+00 0.  1.
          3   -1    0    0  501    0  0.00000000000E+00 -0.00000000000E+00 -0.32220283477E+02  0.32220283477E+02  0.00000000000E+00 0. -1.
         23    2    1    2    0    0  0.78388152504E+02 -0.89378968873E+01  0.39688726980E+03  0.42351962197E+03  0.12499910723E+03 0.  0.
          5    1    3    3  502    0  0.24816426231E+02 -0.64795436168E+02  0.20880438354E+03  0.22008103995E+03  0.47000000000E+01 0.  1.
         -5    1    3    3    0  502  0.53571726274E+02  0.55857539280E+02  0.18808288626E+03  0.20343858202E+03  0.47000000000E+01 0.  1.
        -11    1    1    2    0    0 -0.26058911464E+02  0.21955493150E+02  0.14195752521E+03  0.14598989523E+03  0.00000000000E+00 0.  1.
         11    1    1    2    0    0 -0.52329241040E+02 -0.13017596262E+02  0.26157740882E+02  0.59933585646E+02  0.00000000000E+00 0. -1.
<mgrwt>
<rscale>  0 0.13999174E+03</rscale>
<asrwt>0</asrwt>
<pdfrwt beam="2">  1        3 0.49569671E-02 0.14781531E+03</pdfrwt>
<pdfrwt beam="1">  1       -3 0.91880425E-01 0.14781531E+03</pdfrwt>
<totfact> 0.59463633E+02</totfact>
</mgrwt>
</event>
<event>
 7    1  0.6095443E-006  0.1529283E+03  0.7546771E-02  0.1203967E+00
          1   -1    0    0  501    0  0.00000000000E+00  0.00000000000E+00  0.17024116472E+03  0.17024116472E+03  0.00000000000E+00 0. -1.
         -1   -1    0    0    0  501 -0.00000000000E+00 -0.00000000000E+00 -0.15595809546E+03  0.15595809546E+03  0.00000000000E+00 0.  1.
         23    2    1    2    0    0 -0.97392522959E+01  0.92815827183E+02 -0.72109089970E+02  0.16907624801E+03  0.12115042704E+03 0.  0.
          5    1    3    3  502    0 -0.44369435623E+02  0.20675685190E+02  0.14299221289E+02  0.51212190981E+02  0.47000000000E+01 0. -1.
         -5    1    3    3    0  502  0.34630183327E+02  0.72140141993E+02 -0.86408311259E+02  0.11786405703E+03  0.47000000000E+01 0.  1.
        -11    1    1    2    0    0  0.10678459838E+02 -0.10931681173E+03  0.87684979238E+02  0.14054483418E+03  0.00000000000E+00 0. -1.
         11    1    1    2    0    0 -0.93920754196E+00  0.16500984550E+02 -0.12928200121E+01  0.16578177991E+02  0.00000000000E+00 0.  1.
<mgrwt>
<rscale>  0 0.14719149E+03</rscale>
<asrwt>0</asrwt>
<pdfrwt beam="1">  1        1 0.26190949E-01 0.15292827E+03</pdfrwt>
<pdfrwt beam="2">  1       -1 0.23993553E-01 0.15292827E+03</pdfrwt>
<totfact> 0.26199648E+03</totfact>
</mgrwt>
</event>
<event>
 7    1  0.6095443E-006  0.1545449E+03  0.7546771E-02  0.1202175E+00
          2   -1    0    0  501    0  0.00000000000E+00  0.00000000000E+00  0.22072196019E+03  0.22072196019E+03  0.00000000000E+00 0. -1.
         -2   -1    0    0    0  501 -0.00000000000E+00 -0.00000000000E+00 -0.98463205165E+02  0.98463205165E+02  0.00000000000E+00 0.  1.
         23    2    1    2    0    0 -0.87573419908E+02 -0.24291214834E+02  0.28564492198E+02  0.15716247181E+03  0.12499978135E+03 0.  0.
          5    1    3    3  502    0 -0.16377873552E+02  0.33925069906E+02 -0.29691407861E+02  0.48195589124E+02  0.47000000000E+01 0.  1.
         -5    1    3    3    0  502 -0.71195546356E+02 -0.58216284739E+02  0.58255900059E+02  0.10896688268E+03  0.47000000000E+01 0.  1.
        -11    1    1    2    0    0  0.66100703253E+02  0.54318447328E+02  0.34476331484E+02  0.92241065276E+02  0.00000000000E+00 0.  1.
         11    1    1    2    0    0  0.21472716655E+02 -0.30027232495E+02  0.59217931347E+02  0.69781628276E+02  0.00000000000E+00 0. -1.
<mgrwt>
<rscale>  0 0.14862300E+03</rscale>
<asrwt>0</asrwt>
<pdfrwt beam="1">  1        2 0.33957224E-01 0.15454486E+03</pdfrwt>
<pdfrwt beam="2">  1       -2 0.15148186E-01 0.15454486E+03</pdfrwt>
<totfact> 0.49655670E+03</totfact>
</mgrwt>
</event>
<event>
 7    1  0.6095443E-006  0.1880825E+03  0.7546771E-02  0.1165122E+00
         -1   -1    0    0    0  501 -0.00000000000E+00  0.00000000000E+00  0.72628320453E+03  0.72628320453E+03  0.00000000000E+00 0.  1.
          1   -1    0    0  501    0  0.00000000000E+00 -0.00000000000E+00 -0.65258360086E+02  0.65258360086E+02  0.00000000000E+00 0. -1.
         23    2    1    2    0    0  0.29060913232E+02  0.13749595410E+03  0.57083622808E+03  0.60102332455E+03  0.12500145316E+03 0.  0.
          5    1    3    3  502    0  0.10183365683E+02  0.10883721874E+03  0.54961908576E+03  0.56040384594E+03  0.47000000000E+01 0. -1.
         -5    1    3    3    0  502  0.18877547549E+02  0.28658735364E+02  0.21217142327E+02  0.40619478612E+02  0.47000000000E+01 0. -1.
        -11    1    1    2    0    0 -0.49928736257E+02 -0.11667131280E+03  0.97627581382E+02  0.16011314306E+03  0.00000000000E+00 0.  1.
         11    1    1    2    0    0  0.20867823025E+02 -0.20824641298E+02 -0.74389650213E+01  0.30405097000E+02  0.00000000000E+00 0. -1.
<mgrwt>
<rscale>  0 0.18279807E+03</rscale>
<asrwt>0</asrwt>
<pdfrwt beam="2">  1        1 0.10039748E-01 0.18808253E+03</pdfrwt>
<pdfrwt beam="1">  1       -1 0.11173587E+00 0.18808253E+03</pdfrwt>
<totfact> 0.49928401E+02</totfact>
</mgrwt>
</event>
<event>
 7    1  0.6095443E-006  0.1878718E+03  0.7546771E-02  0.1165357E+00
         -1   -1    0    0    0  501 -0.00000000000E+00  0.00000000000E+00  0.25200811260E+02  0.25200811260E+02  0.00000000000E+00 0.  1.
          1   -1    0    0  501    0  0.00000000000E+00 -0.00000000000E+00 -0.13064428319E+04  0.13064428319E+04  0.00000000000E+00 0. -1.
         23    2    1    2    0    0 -0.58400113574E+02 -0.12751658109E+03 -0.81074988916E+03  0.83223264941E+03  0.12499899300E+03 0.  0.
          5    1    3    3  502    0 -0.63312217744E+02 -0.14792164671E+03 -0.63132539147E+03  0.65152366833E+03  0.47000000000E+01 0. -1.
         -5    1    3    3    0  502  0.49121041699E+01  0.20405065623E+02 -0.17942449769E+03  0.18070898108E+03  0.47000000000E+01 0. -1.
        -11    1    1    2    0    0  0.66467231769E+02  0.67284730135E+02 -0.18792205334E+03  0.21038019379E+03  0.00000000000E+00 0.  1.
         11    1    1    2    0    0 -0.80671181946E+01  0.60231850956E+02 -0.28257007818E+03  0.28903080000E+03  0.00000000000E+00 0. -1.
<mgrwt>
<rscale>  0 0.18255126E+03</rscale>
<asrwt>0</asrwt>
<pdfrwt beam="2">  1        1 0.20099116E+00 0.18787176E+03</pdfrwt>
<pdfrwt beam="1">  1       -1 0.38770487E-02 0.18787176E+03</pdfrwt>
<totfact> 0.24817605E+03</totfact>
</mgrwt>
</event>
<event>
 7    1  0.6095443E-006  0.1491977E+03  0.7546771E-02  0.1209721E+00
         -4   -1    0    0    0  501 -0.00000000000E+00  0.00000000000E+00  0.24029558601E+03  0.24029558601E+03  0.00000000000E+00 0.  1.
          4   -1    0    0  501    0  0.00000000000E+00 -0.00000000000E+00 -0.87984439334E+02  0.87984439334E+02  0.00000000000E+00 0. -1.
         23    2    1    2    0    0 -0.80387871907E+02  0.13115694043E+02  0.13677848831E+03  0.20240629158E+03  0.12500288247E+03 0.  0.
          5    1    3    3  502    0 -0.96375005464E+01  0.37944391932E+01  0.13008064833E+03  0.13057696679E+03  0.47000000000E+01 0.  1.
         -5    1    3    3    0  502 -0.70750371361E+02  0.93212548503E+01  0.66978399801E+01  0.71829324792E+02  0.47000000000E+01 0.  1.
        -11    1    1    2    0    0  0.86238386967E+01  0.12319380428E+02 -0.32527896880E+02  0.35835761516E+02  0.00000000000E+00 0. -1.
         11    1    1    2    0    0  0.71764033211E+02 -0.25435074471E+02  0.48060555245E+02  0.90037972247E+02  0.00000000000E+00 0.  1.
<mgrwt>
<rscale>  0 0.14271590E+03</rscale>
<asrwt>0</asrwt>
<pdfrwt beam="2">  1        4 0.13536068E-01 0.14919769E+03</pdfrwt>
<pdfrwt beam="1">  1       -4 0.36968551E-01 0.14919769E+03</pdfrwt>
<totfact> 0.54114077E+02</totfact>
</mgrwt>
</event>
<event>
 7    1  0.6095443E-006  0.1297439E+03  0.7546771E-02  0.1244295E+00
         -2   -1    0    0    0  501 -0.00000000000E+00  0.00000000000E+00  0.31043088678E+03  0.31043088678E+03  0.00000000000E+00 0.  1.
          2   -1    0    0  501    0  0.00000000000E+00 -0.00000000000E+00 -0.40644689414E+02  0.40644689414E+02  0.00000000000E+00 0. -1.
         23    2    1    2    0    0  0.28023436180E+02  0.20547154853E+02  0.18129689084E+03  0.22293953633E+03  0.12500390267E+03 0.  0.
          5    1    3    3  502    0 -0.28927934768E+02  0.17124944858E+02  0.15720752017E+03  0.16083029424E+03  0.47000000000E+01 0. -1.
         -5    1    3    3    0  502  0.56951370948E+02  0.34222099952E+01  0.24089370671E+02  0.62109242093E+02  0.47000000000E+01 0. -1.
        -11    1    1    2    0    0 -0.31061630584E+01 -0.37340088263E+02  0.30801402946E+01  0.37595447925E+02  0.00000000000E+00 0. -1.
         11    1    1    2    0    0 -0.24917273121E+02  0.16792933410E+02  0.85409166225E+02  0.90540591933E+02  0.00000000000E+00 0.  1.
<mgrwt>
<rscale>  0 0.11927646E+03</rscale>
<asrwt>0</asrwt>
<pdfrwt beam="2">  1        2 0.62530293E-02 0.12974388E+03</pdfrwt>
<pdfrwt beam="1">  1       -2 0.47758596E-01 0.12974388E+03</pdfrwt>
<totfact> 0.46656231E+03</totfact>
</mgrwt>
</event>
<event>
 7    1  0.6095443E-006  0.1434047E+03  0.7546771E-02  0.1218888E+00
          1   -1    0    0  501    0  0.00000000000E+00  0.00000000000E+00  0.16887868884E+03  0.16887868884E+03  0.00000000000E+00 0. -1.
         -1   -1    0    0    0  501 -0.00000000000E+00 -0.00000000000E+00 -0.12294761359E+03  0.12294761359E+03  0.00000000000E+00 0.  1.
         23    2    1    2    0    0  0.61736209833E+02 -0.33584242540E+02 -0.38513989755E+02  0.14848647392E+03  0.12500257828E+03 0.  0.
          5    1    3    3  502    0  0.41261723486E+02  0.28914664503E+02 -0.60601182741E+02  0.78950497136E+02  0.47000000000E+01 0. -1.
         -5    1    3    3    0  502  0.20474486347E+02 -0.62498907043E+02  0.22087192986E+02  0.69535976780E+02  0.47000000000E+01 0. -1.
        -11    1    1    2    0    0 -0.53397893251E-01  0.40126314610E+02  0.20130333876E+01  0.40176812702E+02  0.00000000000E+00 0.  1.
         11    1    1    2    0    0 -0.61682811940E+02 -0.65420720693E+01  0.82432031617E+02  0.10316301582E+03  0.00000000000E+00 0. -1.
<mgrwt>
<rscale>  0 0.13594797E+03</rscale>
<asrwt>0</asrwt>
<pdfrwt beam="1">  1        1 0.25981337E-01 0.14340469E+03</pdfrwt>
<pdfrwt beam="2">  1       -1 0.18915018E-01 0.14340469E+03</pdfrwt>
<totfact> 0.38777936E+03</totfact>
</mgrwt>
</event>
<event>
 7    1  0.9182154E-006  0.4302040E+03  0.7546771E-02  0.1034435E+00
         -1   -1    0    0    0  501 -0.00000000000E+00  0.00000000000E+00  0.21738069127E+03  0.21738069127E+03  0.00000000000E+00 0.  1.
          1   -1    0    0  501    0  0.00000000000E+00 -0.00000000000E+00 -0.83683833921E+03  0.83683833921E+03  0.00000000000E+00 0. -1.
         23    2    1    2    0    0 -0.13795019278E+03 -0.38784040334E+03 -0.33303227731E+03  0.54404590245E+03  0.12500004835E+03 0.  0.
          5    1    3    3  502    0 -0.53174101748E+02 -0.27961008515E+03 -0.17337857644E+03  0.33330392374E+03  0.47000000000E+01 0.  1.
         -5    1    3    3    0  502 -0.84776091032E+02 -0.10823031819E+03 -0.15965370087E+03  0.21074197870E+03  0.47000000000E+01 0.  1.
        -11    1    1    2    0    0  0.74874056640E+02  0.24729657567E+03 -0.12497549013E+03  0.28702019760E+03  0.00000000000E+00 0.  1.
         11    1    1    2    0    0  0.63076136140E+02  0.14054382767E+03 -0.16144988050E+03  0.22315293043E+03  0.00000000000E+00 0. -1.
<mgrwt>
<rscale>  0 0.42818414E+03</rscale>
<asrwt>0</asrwt>
<pdfrwt beam="2">  1        1 0.12874436E+00 0.43020396E+03</pdfrwt>
<pdfrwt beam="1">  1       -1 0.33443183E-01 0.43020396E+03</pdfrwt>
<totfact> 0.17999975E+02</totfact>
</mgrwt>
</event>
<event>
 7    1  0.6095443E-006  0.2782227E+03  0.7546771E-02  0.1096664E+00
         -1   -1    0    0    0  501 -0.00000000000E+00  0.00000000000E+00  0.51095740941E+03  0.51095740941E+03  0.00000000000E+00 0.  1.
          1   -1    0    0  501    0  0.00000000000E+00 -0.00000000000E+00 -0.37873930931E+02  0.37873930931E+02  0.00000000000E+00 0. -1.
         23    2    1    2    0    0  0.11445291980E+02 -0.15501860265E+01  0.19834248539E+03  0.23473089781E+03  0.12500182035E+03 0.  0.
          5    1    3    3  502    0 -0.55235942573E+02 -0.11567723373E+02  0.10745718683E+03  0.12146587413E+03  0.47000000000E+01 0.  1.
         -5    1    3    3    0  502  0.66681234554E+02  0.10017537346E+02  0.90885298558E+02  0.11326502368E+03  0.47000000000E+01 0.  1.
        -11    1    1    2    0    0 -0.71000514128E+02  0.15650044328E+02  0.22100229879E+03  0.23265427777E+03  0.00000000000E+00 0.  1.
         11    1    1    2    0    0  0.59555222148E+02 -0.14099858302E+02  0.53738694301E+02  0.81446164761E+02  0.00000000000E+00 0. -1.
<mgrwt>
<rscale>  0 0.27822269E+03</rscale>
<asrwt>0</asrwt>
<pdfrwt beam="2">  1        1 0.58267590E-02 0.27822269E+03</pdfrwt>
<pdfrwt beam="1">  1       -1 0.78608827E-01 0.27822269E+03</pdfrwt>
<totfact> 0.22733414E+03</totfact>
</mgrwt>
</event>
<event>
 7    1  0.6095443E-006  0.2084124E+03  0.7546771E-02  0.1146589E+00
         -1   -1    0    0    0  501 -0.00000000000E+00  0.00000000000E+00  0.12351594471E+03  0.12351594471E+03  0.00000000000E+00 0.  1.
          1   -1    0    0  501    0  0.00000000000E+00 -0.00000000000E+00 -0.33570260103E+03  0.33570260103E+03  0.00000000000E+00 0. -1.
         23    2    1    2    0    0 -0.38890284649E+01 -0.16672312697E+03 -0.64434181720E+02  0.21814553466E+03  0.12499593957E+03 0.  0.
          5    1    3    3  502    0  0.15785354287E+02  0.14078308825E+02  0.68873514742E+01  0.22735474477E+02  0.47000000000E+01 0. -1.
         -5    1    3    3    0  502 -0.19674382752E+02 -0.18080143580E+03 -0.71321533194E+02  0.19541006018E+03  0.47000000000E+01 0. -1.
        -11    1    1    2    0    0 -0.11210485271E+02  0.15681746766E+03 -0.91305814655E+02  0.18180798919E+03  0.00000000000E+00 0.  1.
         11    1    1    2    0    0  0.15099513735E+02  0.99056593124E+01 -0.56446659940E+02  0.59265021892E+02  0.00000000000E+00 0. -1.
<mgrwt>
<rscale>  0 0.20377884E+03</rscale>
<asrwt>0</asrwt>
<pdfrwt beam="2">  1        1 0.51646554E-01 0.20841236E+03</pdfrwt>
<pdfrwt beam="1">  1       -1 0.19002453E-01 0.20841236E+03</pdfrwt>
<totfact> 0.16538800E+03</totfact>
</mgrwt>
</event>
<event>
 7    1  0.6095443E-006  0.1161891E+03  0.7546771E-02  0.1260162E+00
          1   -1    0    0  501    0  0.00000000000E+00  0.00000000000E+00  0.69703143866E+02  0.69703143866E+02  0.00000000000E+00 0. -1.
         -1   -1    0    0    0  501 -0.00000000000E+00 -0.00000000000E+00 -0.67888239965E+03  0.67888239965E+03  0.00000000000E+00 0.  1.
         23    2    1    2    0    0  0.23868852645E+02 -0.11779703113E+02 -0.63931341464E+03  0.64978576983E+03  0.11309916445E+03 0.  0.
          5    1    3    3  502    0  0.13574663747E+02  0.54456754374E+01 -0.65732167231E+01  0.16709998650E+02  0.47000000000E+01 0. -1.
         -5    1    3    3    0  502  0.10294188898E+02 -0.17225378550E+02 -0.63274019792E+03  0.63307577118E+03  0.47000000000E+01 0.  1.
        -11    1    1    2    0    0 -0.54956117594E+02 -0.75397636966E+01  0.80498984087E+01  0.56051973756E+02  0.00000000000E+00 0. -1.
         11    1    1    2    0    0  0.31087264949E+02  0.19319466809E+02  0.22084260446E+02  0.42747799935E+02  0.00000000000E+00 0.  1.
<mgrwt>
<rscale>  0 0.11022049E+03</rscale>
<asrwt>0</asrwt>
<pdfrwt beam="1">  1        1 0.10723561E-01 0.11618909E+03</pdfrwt>
<pdfrwt beam="2">  1       -1 0.10444345E+00 0.11618909E+03</pdfrwt>
<totfact> 0.53096893E+02</totfact>
</mgrwt>
</event>
<event>
 7    1  0.6095443E-006  0.1263653E+03  0.7546771E-02  0.1255210E+00
         -1   -1    0    0    0  501 -0.00000000000E+00  0.00000000000E+00  0.71270114190E+02  0.71270114190E+02  0.00000000000E+00 0.  1.
          1   -1    0    0  501    0  0.00000000000E+00 -0.00000000000E+00 -0.17004275632E+03  0.17004275632E+03  0.00000000000E+00 0. -1.
         23    2    1    2    0    0  0.46493759878E+01 -0.17925221597E+02 -0.18836818698E+02  0.12776157574E+03  0.12500105692E+03 0.  0.
          5    1    3    3  502    0  0.46635964759E+02  0.34436169627E+02 -0.10593694935E+01  0.58171945569E+02  0.47000000000E+01 0.  1.
         -5    1    3    3    0  502 -0.41986588771E+02 -0.52361391224E+02 -0.17777449204E+02  0.69589630174E+02  0.47000000000E+01 0.  1.
        -11    1    1    2    0    0  0.13780748402E+02  0.24939980582E+02  0.26750579923E+01  0.28619356967E+02  0.00000000000E+00 0.  1.
         11    1    1    2    0    0 -0.18430124389E+02 -0.70147589854E+01 -0.82610881424E+02  0.84931937799E+02  0.00000000000E+00 0. -1.
<mgrwt>
<rscale>  0 0.11294574E+03</rscale>
<asrwt>0</asrwt>
<pdfrwt beam="2">  1        1 0.26160424E-01 0.12636532E+03</pdfrwt>
<pdfrwt beam="1">  1       -1 0.10964633E-01 0.12636532E+03</pdfrwt>
<totfact> 0.89413534E+03</totfact>
</mgrwt>
</event>
<event>
 7    1  0.6095443E-006  0.1511767E+03  0.7546771E-02  0.1208356E+00
         -2   -1    0    0    0  501 -0.00000000000E+00  0.00000000000E+00  0.69002566895E+02  0.69002566895E+02  0.00000000000E+00 0.  1.
          2   -1    0    0  501    0  0.00000000000E+00 -0.00000000000E+00 -0.54074651429E+03  0.54074651429E+03  0.00000000000E+00 0. -1.
         23    2    1    2    0    0  0.36509925970E+02 -0.76863485790E+02 -0.34093708389E+02  0.15497344689E+03  0.12495366400E+03 0.  0.
          5    1    3    3  502    0  0.18114546592E+02 -0.10587916126E+03 -0.47826630080E+02  0.11767756852E+03  0.47000000000E+01 0.  1.
         -5    1    3    3    0  502  0.18395379377E+02  0.29015675470E+02  0.13732921691E+02  0.37295878373E+02  0.47000000000E+01 0.  1.
        -11    1    1    2    0    0 -0.37545203497E+02 -0.82913177766E+01 -0.13297152857E+03  0.13841898593E+03  0.00000000000E+00 0.  1.
         11    1    1    2    0    0  0.10352775275E+01  0.85154803567E+02 -0.30467871043E+03  0.31635664836E+03  0.00000000000E+00 0. -1.
<mgrwt>
<rscale>  0 0.14376071E+03</rscale>
<asrwt>0</asrwt>
<pdfrwt beam="2">  1        2 0.83191775E-01 0.15117668E+03</pdfrwt>
<pdfrwt beam="1">  1       -2 0.10615779E-01 0.15117668E+03</pdfrwt>
<totfact> 0.33530050E+03</totfact>
</mgrwt>
</event>
<event>
 7    1  0.6095443E-006  0.2080628E+03  0.7546771E-02  0.1146896E+00
          2   -1    0    0  501    0  0.00000000000E+00  0.00000000000E+00  0.16683791713E+03  0.16683791713E+03  0.00000000000E+00 0. -1.
         -2   -1    0    0    0  501 -0.00000000000E+00 -0.00000000000E+00 -0.33948771876E+03  0.33948771876E+03  0.00000000000E+00 0.  1.
         23    2    1    2    0    0  0.99592751725E+02  0.13321435528E+03 -0.22771408981E+03  0.30845391332E+03  0.12500131717E+03 0.  0.
          5    1    3    3  502    0  0.14538831112E+02  0.54412993881E+02 -0.16940726359E+03  0.17858628859E+03  0.47000000000E+01 0. -1.
         -5    1    3    3    0  502  0.85053920614E+02  0.78801361400E+02 -0.58306826220E+02  0.12986762473E+03  0.47000000000E+01 0. -1.
        -11    1    1    2    0    0 -0.50570272009E+02 -0.38227131382E+01  0.60227179604E+01  0.51070918128E+02  0.00000000000E+00 0.  1.
         11    1    1    2    0    0 -0.49022479716E+02 -0.12939164214E+03  0.49041570218E+02  0.14680080444E+03  0.00000000000E+00 0. -1.
<mgrwt>
<rscale>  0 0.20340702E+03</rscale>
<asrwt>0</asrwt>
<pdfrwt beam="1">  1        2 0.25667372E-01 0.20806275E+03</pdfrwt>
<pdfrwt beam="2">  1       -2 0.52228879E-01 0.20806275E+03</pdfrwt>
<totfact> 0.73301217E+02</totfact>
</mgrwt>
</event>
<event>
 7    1  0.6095443E-006  0.1288584E+03  0.7546771E-02  0.1243206E+00
         -2   -1    0    0    0  501 -0.00000000000E+00  0.00000000000E+00  0.18375819542E+02  0.18375819542E+02  0.00000000000E+00 0.  1.
          2   -1    0    0  501    0  0.00000000000E+00 -0.00000000000E+00 -0.71007345245E+03  0.71007345245E+03  0.00000000000E+00 0. -1.
         23    2    1    2    0    0 -0.12086791967E+01  0.31273916610E+02 -0.33666146233E+03  0.36047943612E+03  0.12499985953E+03 0.  0.
          5    1    3    3  502    0 -0.19668723782E+02  0.53046580065E+02 -0.61098665209E+02  0.83402249622E+02  0.47000000000E+01 0.  1.
         -5    1    3    3    0  502  0.18460044585E+02 -0.21772663455E+02 -0.27556279712E+03  0.27707718650E+03  0.47000000000E+01 0.  1.
        -11    1    1    2    0    0  0.39647724614E+02  0.85339500652E+01 -0.12715387315E+03  0.13346489362E+03  0.00000000000E+00 0.  1.
         11    1    1    2    0    0 -0.38439045417E+02 -0.39807866675E+02 -0.22788229743E+03  0.23450494226E+03  0.00000000000E+00 0. -1.
<mgrwt>
<rscale>  0 0.11993404E+03</rscale>
<asrwt>0</asrwt>
<pdfrwt beam="2">  1        2 0.10924208E+00 0.12885839E+03</pdfrwt>
<pdfrwt beam="1">  1       -2 0.28270490E-02 0.12885839E+03</pdfrwt>
<totfact> 0.18009557E+04</totfact>
</mgrwt>
</event>
<event>
 7    1  0.6095443E-006  0.1711164E+03  0.7546771E-02  0.1183604E+00
         -2   -1    0    0    0  501 -0.00000000000E+00  0.00000000000E+00  0.35318598797E+02  0.35318598797E+02  0.00000000000E+00 0.  1.
          2   -1    0    0  501    0  0.00000000000E+00 -0.00000000000E+00 -0.73080247632E+03  0.73080247632E+03  0.00000000000E+00 0. -1.
         23    2    1    2    0    0  0.98810392293E+02  0.62398203732E+02 -0.31619605466E+03  0.35952851189E+03  0.12499510561E+03 0.  0.
          5    1    3    3  502    0  0.12346429241E+03  0.25792046545E+02 -0.24572360237E+03  0.27624416723E+03  0.47000000000E+01 0. -1.
         -5    1    3    3    0  502 -0.24653900112E+02  0.36606157188E+02 -0.70472452286E+02  0.83284344663E+02  0.47000000000E+01 0. -1.
        -11    1    1    2    0    0 -0.57800796760E+02 -0.39655747431E+02 -0.33443497043E+03  0.34170200447E+03  0.00000000000E+00 0. -1.
         11    1    1    2    0    0 -0.41009595533E+02 -0.22742456301E+02 -0.44852852432E+02  0.64890558756E+02  0.00000000000E+00 0.  1.
<mgrwt>
<rscale>  0 0.16459550E+03</rscale>
<asrwt>0</asrwt>
<pdfrwt beam="2">  1        2 0.11243115E+00 0.17111635E+03</pdfrwt>
<pdfrwt beam="1">  1       -2 0.54336308E-02 0.17111635E+03</pdfrwt>
<totfact> 0.66945840E+03</totfact>
</mgrwt>
</event>
<event>
 7    1  0.6095443E-006  0.1404490E+03  0.7546771E-02  0.1217130E+00
         -2   -1    0    0    0  501 -0.00000000000E+00  0.00000000000E+00  0.27867725333E+03  0.27867725333E+03  0.00000000000E+00 0.  1.
          2   -1    0    0  501    0  0.00000000000E+00 -0.00000000000E+00 -0.85358525335E+02  0.85358525335E+02  0.00000000000E+00 0. -1.
         23    2    1    2    0    0 -0.52445092864E+02  0.66012001550E+02  0.18970922730E+03  0.23604136070E+03  0.11232925231E+03 0.  0.
          5    1    3    3  502    0  0.11080839526E+02 -0.23948146924E+02  0.19066173652E+02  0.32892365732E+02  0.47000000000E+01 0. -1.
         -5    1    3    3    0  502 -0.63525932390E+02  0.89960148474E+02  0.17064305364E+03  0.20314899497E+03  0.47000000000E+01 0.  1.
        -11    1    1    2    0    0 -0.21582810294E+02 -0.10710985334E+02 -0.21444092762E+02  0.32255108454E+02  0.00000000000E+00 0.  1.
         11    1    1    2    0    0  0.74027903158E+02 -0.55301016216E+02  0.25053593462E+02  0.95739309512E+02  0.00000000000E+00 0. -1.
<mgrwt>
<rscale>  0 0.13721249E+03</rscale>
<asrwt>0</asrwt>
<pdfrwt beam="2">  1        2 0.13132081E-01 0.14044904E+03</pdfrwt>
<pdfrwt beam="1">  1       -2 0.42873423E-01 0.14044904E+03</pdfrwt>
<totfact> 0.23058765E+03</totfact>
</mgrwt>
</event>
<event>
 7    1  0.6095443E-006  0.1289701E+03  0.7546771E-02  0.1243541E+00
          2   -1    0    0  501    0  0.00000000000E+00  0.00000000000E+00  0.61508466864E+03  0.61508466864E+03  0.00000000000E+00 0. -1.
         -2   -1    0    0    0  501 -0.00000000000E+00 -0.00000000000E+00 -0.20537123681E+02  0.20537123681E+02  0.00000000000E+00 0.  1.
         23    2    1    2    0    0  0.36962111991E+01  0.31540072296E+02  0.34488998777E+03  0.36821514704E+03  0.12499941083E+03 0.  0.
          5    1    3    3  502    0 -0.20648276784E+02  0.56634768018E+02  0.31842366845E+03  0.32411351547E+03  0.47000000000E+01 0.  1.
         -5    1    3    3    0  502  0.24344487983E+02 -0.25094695723E+02  0.26466319319E+02  0.44101631567E+02  0.47000000000E+01 0.  1.
        -11    1    1    2    0    0  0.50782539244E+01 -0.43977207578E+02  0.24819899499E+03  0.25211609343E+03  0.00000000000E+00 0. -1.
         11    1    1    2    0    0 -0.87744651236E+01  0.12437135283E+02  0.14585621941E+01  0.15290551851E+02  0.00000000000E+00 0.  1.
<mgrwt>
<rscale>  0 0.11973108E+03</rscale>
<asrwt>0</asrwt>
<pdfrwt beam="1">  1        2 0.94628396E-01 0.12897012E+03</pdfrwt>
<pdfrwt beam="2">  1       -2 0.31595580E-02 0.12897012E+03</pdfrwt>
<totfact> 0.18085250E+04</totfact>
</mgrwt>
</event>
<event>
 7    1  0.6095443E-006  0.1755387E+03  0.7546771E-02  0.1177890E+00
          1   -1    0    0  501    0  0.00000000000E+00  0.00000000000E+00  0.60375602160E+03  0.60375602160E+03  0.00000000000E+00 0. -1.
         -1   -1    0    0    0  501 -0.00000000000E+00 -0.00000000000E+00 -0.47006130652E+02  0.47006130652E+02  0.00000000000E+00 0.  1.
         23    2    1    2    0    0 -0.68509629985E+02  0.10245415558E+03  0.22914204361E+03  0.28865185929E+03  0.12499358514E+03 0.  0.
          5    1    3    3  502    0 -0.11367615442E+02  0.68479797621E+02  0.25039900245E+02  0.73944519522E+02  0.47000000000E+01 0.  1.
         -5    1    3    3    0  502 -0.57142014544E+02  0.33974357957E+02  0.20410214336E+03  0.21470733977E+03  0.47000000000E+01 0.  1.
        -11    1    1    2    0    0  0.82542469288E+01 -0.71555541202E+02  0.24460081510E+03  0.25498605220E+03  0.00000000000E+00 0. -1.
         11    1    1    2    0    0  0.60255383056E+02 -0.30898614376E+02  0.83007032240E+02  0.10712424076E+03  0.00000000000E+00 0.  1.
<mgrwt>
<rscale>  0 0.16995923E+03</rscale>
<asrwt>0</asrwt>
<pdfrwt beam="1">  1        1 0.92885536E-01 0.17553866E+03</pdfrwt>
<pdfrwt beam="2">  1       -1 0.72317128E-02 0.17553866E+03</pdfrwt>
<totfact> 0.34463007E+03</totfact>
</mgrwt>
</event>
<event>
 7    1  0.1211885E-005  0.2568829E+03  0.7546771E-02  0.1111340E+00
         -1   -1    0    0    0  501 -0.00000000000E+00  0.00000000000E+00  0.70397172887E+02  0.70397172887E+02  0.00000000000E+00 0.  1.
          1   -1    0    0  501    0  0.00000000000E+00 -0.00000000000E+00 -0.92759709663E+03  0.92759709663E+03  0.00000000000E+00 0. -1.
         23    2    1    2    0    0  0.21158907846E+03  0.74785991363E+02 -0.33323896224E+03  0.42075766908E+03  0.12500370997E+03 0.  0.
          5    1    3    3  502    0  0.16899148870E+03  0.63320402087E+02 -0.15772067148E+03  0.23971962120E+03  0.47000000000E+01 0. -1.
         -5    1    3    3    0  502  0.42597589762E+02  0.11465589276E+02 -0.17551829075E+03  0.18103804788E+03  0.47000000000E+01 0. -1.
        -11    1    1    2    0    0 -0.17494200891E+03 -0.49979939854E+02 -0.31614098005E+03  0.36475720711E+03  0.00000000000E+00 0.  1.
         11    1    1    2    0    0 -0.36647069555E+02 -0.24806051509E+02 -0.20781998146E+03  0.21247939334E+03  0.00000000000E+00 0. -1.
<mgrwt>
<rscale>  0 0.25313407E+03</rscale>
<asrwt>0</asrwt>
<pdfrwt beam="2">  1        1 0.14270723E+00 0.25688287E+03</pdfrwt>
<pdfrwt beam="1">  1       -1 0.10830336E-01 0.25688287E+03</pdfrwt>
<totfact> 0.97980443E+02</totfact>
</mgrwt>
</event>
<event>
 7    1  0.6095443E-006  0.1307763E+03  0.7546771E-02  0.1240841E+00
         -1   -1    0    0    0  501 -0.00000000000E+00  0.00000000000E+00  0.20523919626E+03  0.20523919626E+03  0.00000000000E+00 0. -1.
          1   -1    0    0  501    0  0.00000000000E+00 -0.00000000000E+00 -0.63264426565E+02  0.63264426565E+02  0.00000000000E+00 0.  1.
         23    2    1    2    0    0 -0.72546589592E+01  0.37755936851E+02  0.78036994390E+02  0.15228991150E+03  0.12499721520E+03 0.  0.
          5    1    3    3  502    0 -0.43045473912E+02 -0.29146132413E+02  0.17307868906E+02  0.54991473748E+02  0.47000000000E+01 0.  1.
         -5    1    3    3    0  502  0.35790814952E+02  0.66902069265E+02  0.60729125484E+02  0.97298437752E+02  0.47000000000E+01 0.  1.
        -11    1    1    2    0    0  0.33931111024E+02 -0.19950658214E+02  0.72956105027E+02  0.82897179199E+02  0.00000000000E+00 0. -1.
         11    1    1    2    0    0 -0.26676452065E+02 -0.17805278638E+02 -0.90183297200E+01  0.33316532129E+02  0.00000000000E+00 0.  1.
<mgrwt>
<rscale>  0 0.12137781E+03</rscale>
<asrwt>0</asrwt>
<pdfrwt beam="2">  1        1 0.97329888E-02 0.13077632E+03</pdfrwt>
<pdfrwt beam="1">  1       -1 0.31575261E-01 0.13077632E+03</pdfrwt>
<totfact> 0.59025889E+03</totfact>
</mgrwt>
</event>
<event>
 7    1  0.6095443E-006  0.2691380E+03  0.7546771E-02  0.1103124E+00
         -1   -1    0    0    0  501 -0.00000000000E+00  0.00000000000E+00  0.80876338684E+03  0.80876338684E+03  0.00000000000E+00 0.  1.
          1   -1    0    0  501    0  0.00000000000E+00 -0.00000000000E+00 -0.12987595215E+03  0.12987595215E+03  0.00000000000E+00 0. -1.
         23    2    1    2    0    0  0.23829260672E+03 -0.51597128805E+01  0.61452449086E+03  0.67087673224E+03  0.12500100377E+03 0.  0.
          5    1    3    3  502    0  0.14564734849E+03  0.51731402849E+02  0.42603782961E+03  0.45323240222E+03  0.47000000000E+01 0.  1.
         -5    1    3    3    0  502  0.92645258235E+02 -0.56891115730E+02  0.18848666125E+03  0.21764433002E+03  0.47000000000E+01 0.  1.
        -11    1    1    2    0    0 -0.16475390257E+03 -0.38745262899E+02  0.67116012483E+02  0.18207032417E+03  0.00000000000E+00 0.  1.
         11    1    1    2    0    0 -0.73538704152E+02  0.43904975779E+02 -0.27530686488E+01  0.85692282579E+02  0.00000000000E+00 0. -1.
<mgrwt>
<rscale>  0 0.26680120E+03</rscale>
<asrwt>0</asrwt>
<pdfrwt beam="2">  1        1 0.19980916E-01 0.26913796E+03</pdfrwt>
<pdfrwt beam="1">  1       -1 0.12442513E+00 0.26913796E+03</pdfrwt>
<totfact> 0.15575622E+02</totfact>
</mgrwt>
</event>
<event>
 7    1  0.6095443E-006  0.1364992E+03  0.7546771E-02  0.1228671E+00
          3   -1    0    0  501    0  0.00000000000E+00  0.00000000000E+00  0.84339808059E+02  0.84339808059E+02  0.00000000000E+00 0. -1.
         -3   -1    0    0    0  501 -0.00000000000E+00 -0.00000000000E+00 -0.18364481183E+03  0.18364481183E+03  0.00000000000E+00 0.  1.
         23    2    1    2    0    0 -0.46810874044E+01 -0.54638113310E+02 -0.75237275333E+02  0.15586104864E+03  0.12499913151E+03 0.  0.
          5    1    3    3  502    0 -0.27781848226E+02 -0.84603282231E+02 -0.76824241340E+02  0.11770131908E+03  0.47000000000E+01 0. -1.
         -5    1    3    3    0  502  0.23100760822E+02  0.29965168921E+02  0.15869660062E+01  0.38159729560E+02  0.47000000000E+01 0. -1.
        -11    1    1    2    0    0  0.26610079347E+02 -0.10514051791E+02  0.15770808490E+02  0.32670476096E+02  0.00000000000E+00 0. -1.
         11    1    1    2    0    0 -0.21928991943E+02  0.65152165101E+02 -0.39838536924E+02  0.79453095152E+02  0.00000000000E+00 0.  1.
<mgrwt>
<rscale>  0 0.12918465E+03</rscale>
<asrwt>0</asrwt>
<pdfrwt beam="1">  1        3 0.12975355E-01 0.13649915E+03</pdfrwt>
<pdfrwt beam="2">  1       -3 0.28253048E-01 0.13649915E+03</pdfrwt>
<totfact> 0.13151412E+03</totfact>
</mgrwt>
</event>
<event>
 7    1  0.6095443E-006  0.1279576E+03  0.7546771E-02  0.1245570E+00
         -2   -1    0    0    0  501 -0.00000000000E+00  0.00000000000E+00  0.13454960683E+03  0.13454960683E+03  0.00000000000E+00 0.  1.
          2   -1    0    0  501    0  0.00000000000E+00 -0.00000000000E+00 -0.10023164892E+03  0.10023164892E+03  0.00000000000E+00 0. -1.
         23    2    1    2    0    0  0.21527209890E+02  0.17006122661E+02  0.53491378097E+02  0.13868836829E+03  0.12498202668E+03 0.  0.
          5    1    3    3  502    0 -0.37139670017E+02  0.45281086031E+02  0.84290830076E+01  0.59353780684E+02  0.47000000000E+01 0.  1.
         -5    1    3    3    0  502  0.58666879907E+02 -0.28274963370E+02  0.45062295089E+02  0.79334587604E+02  0.47000000000E+01 0.  1.
        -11    1    1    2    0    0  0.16789769912E+02 -0.42993683106E+02 -0.18678099180E+02  0.49791812075E+02  0.00000000000E+00 0. -1.
         11    1    1    2    0    0 -0.38316979802E+02  0.25987560445E+02 -0.49532100730E+00  0.46301075386E+02  0.00000000000E+00 0.  1.
<mgrwt>
<rscale>  0 0.11851322E+03</rscale>
<asrwt>0</asrwt>
<pdfrwt beam="2">  1        2 0.15420254E-01 0.12795756E+03</pdfrwt>
<pdfrwt beam="1">  1       -2 0.20699940E-01 0.12795756E+03</pdfrwt>
<totfact> 0.70344024E+03</totfact>
</mgrwt>
</event>
<event>
 7    1  0.6095443E-006  0.1540359E+03  0.7546771E-02  0.1203970E+00
          1   -1    0    0  501    0  0.00000000000E+00  0.00000000000E+00  0.25983447711E+02  0.25983447711E+02  0.00000000000E+00 0. -1.
         -1   -1    0    0    0  501 -0.00000000000E+00 -0.00000000000E+00 -0.78973213676E+03  0.78973213676E+03  0.00000000000E+00 0.  1.
         23    2    1    2    0    0 -0.83692345688E+02  0.33092316740E+02 -0.48350007930E+03  0.50744396624E+03  0.12501016771E+03 0.  0.
          5    1    3    3  502    0  0.82442357778E+01 -0.36829453097E+02 -0.13617474558E+03  0.14138609328E+03  0.47000000000E+01 0.  1.
         -5    1    3    3    0  502 -0.91936581466E+02  0.69921769836E+02 -0.34732533372E+03  0.36605787296E+03  0.47000000000E+01 0.  1.
        -11    1    1    2    0    0  0.37680421334E+02  0.24663572051E+02 -0.16784927100E+03  0.17378574082E+03  0.00000000000E+00 0.  1.
         11    1    1    2    0    0  0.46011924354E+02 -0.57755888790E+02 -0.11239933875E+03  0.13448587742E+03  0.00000000000E+00 0. -1.
<mgrwt>
<rscale>  0 0.14718920E+03</rscale>
<asrwt>0</asrwt>
<pdfrwt beam="1">  1        1 0.39974538E-02 0.15403588E+03</pdfrwt>
<pdfrwt beam="2">  1       -1 0.12149724E+00 0.15403588E+03</pdfrwt>
<totfact> 0.14335216E+03</totfact>
</mgrwt>
</event>
<event>
 7    1  0.6095443E-006  0.1392526E+03  0.7546771E-02  0.1224268E+00
          4   -1    0    0  501    0  0.00000000000E+00  0.00000000000E+00  0.20903633832E+03  0.20903633832E+03  0.00000000000E+00 0. -1.
         -4   -1    0    0    0  501 -0.00000000000E+00 -0.00000000000E+00 -0.91086976645E+02  0.91086976645E+02  0.00000000000E+00 0.  1.
         23    2    1    2    0    0 -0.32181792742E+02 -0.52255147103E+02  0.35292133670E+01  0.13929727601E+03  0.12500003030E+03 0.  0.
          5    1    3    3  502    0 -0.49743906281E+02 -0.85870322630E+02 -0.71811313846E+01  0.99608368969E+02  0.47000000000E+01 0. -1.
         -5    1    3    3    0  502  0.17562113539E+02  0.33615175527E+02  0.10710344752E+02  0.39688907044E+02  0.47000000000E+01 0. -1.
        -11    1    1    2    0    0 -0.32917211008E+02  0.15640841343E+02  0.24412663350E+02  0.43865212074E+02  0.00000000000E+00 0.  1.
         11    1    1    2    0    0  0.65099003751E+02  0.36614305760E+02  0.90007484957E+02  0.11696082688E+03  0.00000000000E+00 0. -1.
<mgrwt>
<rscale>  0 0.13217192E+03</rscale>
<asrwt>0</asrwt>
<pdfrwt beam="1">  1        4 0.32159437E-01 0.13925256E+03</pdfrwt>
<pdfrwt beam="2">  1       -4 0.14013381E-01 0.13925256E+03</pdfrwt>
<totfact> 0.65787186E+02</totfact>
</mgrwt>
</event>
<event>
 7    1  0.6095443E-006  0.1600314E+03  0.7546771E-02  0.1196990E+00
         -2   -1    0    0    0  501 -0.00000000000E+00  0.00000000000E+00  0.15694278873E+03  0.15694278873E+03  0.00000000000E+00 0. -1.
          2   -1    0    0  501    0  0.00000000000E+00 -0.00000000000E+00 -0.14251562857E+03  0.14251562857E+03  0.00000000000E+00 0.  1.
         23    2    1    2    0    0  0.99929684930E+02 -0.21195932968E+00  0.37143097297E+02  0.16428524927E+03  0.12499618632E+03 0.  0.
          5    1    3    3  502    0  0.14788523253E+02  0.69847451909E+01 -0.43494011202E+02  0.46704454775E+02  0.47000000000E+01 0.  1.
         -5    1    3    3    0  502  0.85141161677E+02 -0.71967045206E+01  0.80637108499E+02  0.11758079450E+03  0.47000000000E+01 0.  1.
        -11    1    1    2    0    0 -0.44856084118E+02 -0.43832289451E+02 -0.11704376999E+02  0.63799140447E+02  0.00000000000E+00 0. -1.
         11    1    1    2    0    0 -0.55073600812E+02  0.44044248780E+02 -0.11011560142E+02  0.71374027586E+02  0.00000000000E+00 0.  1.
<mgrwt>
<rscale>  0 0.15286964E+03</rscale>
<asrwt>0</asrwt>
<pdfrwt beam="2">  1        2 0.21925481E-01 0.16003135E+03</pdfrwt>
<pdfrwt beam="1">  1       -2 0.24145044E-01 0.16003135E+03</pdfrwt>
<totfact> 0.36607258E+03</totfact>
</mgrwt>
</event>
<event>
 6    1  0.6095443E-006  0.1419986E+03  0.7546771E-02  0.1227590E+00
          1   -1    0    0  501    0  0.00000000000E+00  0.00000000000E+00  0.46515690425E+03  0.46515690425E+03  0.00000000000E+00 0. -1.
         -1   -1    0    0    0  501 -0.00000000000E+00 -0.00000000000E+00 -0.52378360326E+02  0.52378360326E+02  0.00000000000E+00 0.  1.
          5    1    1    2  502    0  0.61592803426E+01 -0.31861213693E+02  0.83495668122E+02  0.89703345910E+02  0.47000000000E+01 0. -1.
         -5    1    1    2    0  502 -0.47926570244E+02  0.42628421121E+02 -0.17835883144E+02  0.66740895635E+02  0.47000000000E+01 0.  1.
        -11    1    1    2    0    0  0.56169088420E+02 -0.32274014748E+02  0.30378689527E+03  0.31061721823E+03  0.00000000000E+00 0. -1.
         11    1    1    2    0    0 -0.14401798518E+02  0.21506807320E+02  0.43331863669E+02  0.50473804797E+02  0.00000000000E+00 0.  1.
<mgrwt>
<rscale>  0 0.12990969E+03</rscale>
<asrwt>0</asrwt>
<pdfrwt beam="1">  1        1 0.71562598E-01 0.14199857E+03</pdfrwt>
<pdfrwt beam="2">  1       -1 0.80582096E-02 0.14199857E+03</pdfrwt>
<totfact> 0.41030165E+03</totfact>
</mgrwt>
</event>
<event>
 7    1  0.6095443E-006  0.1812467E+03  0.7546771E-02  0.1171991E+00
         -2   -1    0    0    0  501 -0.00000000000E+00  0.00000000000E+00  0.62140041444E+02  0.62140041444E+02  0.00000000000E+00 0.  1.
          2   -1    0    0  501    0  0.00000000000E+00 -0.00000000000E+00 -0.61655585146E+03  0.61655585146E+03  0.00000000000E+00 0. -1.
         23    2    1    2    0    0 -0.13062535659E+03 -0.12775450303E+02 -0.12446283294E+03  0.21986672937E+03  0.12499674391E+03 0.  0.
          5    1    3    3  502    0 -0.13266186033E+03 -0.23452107978E+02 -0.14385590378E+03  0.19714406308E+03  0.47000000000E+01 0. -1.
         -5    1    3    3    0  502  0.20365037413E+01  0.10676657674E+02  0.19393070845E+02  0.22722666292E+02  0.47000000000E+01 0. -1.
        -11    1    1    2    0    0  0.87532063882E+01 -0.26438664575E+02 -0.42855231564E+02  0.51109612393E+02  0.00000000000E+00 0.  1.
         11    1    1    2    0    0  0.12187215020E+03  0.39214114878E+02 -0.38709774551E+03  0.40771955114E+03  0.00000000000E+00 0. -1.
<mgrwt>
<rscale>  0 0.17573957E+03</rscale>
<asrwt>0</asrwt>
<pdfrwt beam="2">  1        2 0.94854750E-01 0.18124674E+03</pdfrwt>
<pdfrwt beam="1">  1       -2 0.95600060E-02 0.18124674E+03</pdfrwt>
<totfact> 0.34304276E+03</totfact>
</mgrwt>
</event>
<event>
 7    1  0.6095443E-006  0.1294087E+03  0.7546771E-02  0.1240790E+00
         -2   -1    0    0    0  501 -0.00000000000E+00  0.00000000000E+00  0.23201671971E+03  0.23201671971E+03  0.00000000000E+00 0.  1.
          2   -1    0    0  501    0  0.00000000000E+00 -0.00000000000E+00 -0.60948261793E+02  0.60948261793E+02  0.00000000000E+00 0. -1.
         23    2    1    2    0    0  0.33492006596E+02  0.73563475758E+00  0.13342670989E+03  0.18587440341E+03  0.12499740504E+03 0.  0.
          5    1    3    3  502    0 -0.80870435469E+01  0.53589684963E+02  0.29184964323E+02  0.61734161939E+02  0.47000000000E+01 0.  1.
         -5    1    3    3    0  502  0.41579050142E+02 -0.52854050205E+02  0.10424174557E+03  0.12414024147E+03  0.47000000000E+01 0.  1.
        -11    1    1    2    0    0 -0.16068876967E+02  0.35138306850E+02 -0.14653539447E+02  0.41323548173E+02  0.00000000000E+00 0. -1.
         11    1    1    2    0    0 -0.17423129628E+02 -0.35873941607E+02  0.52295287470E+02  0.65767029916E+02  0.00000000000E+00 0.  1.
<mgrwt>
<rscale>  0 0.12140914E+03</rscale>
<asrwt>0</asrwt>
<pdfrwt beam="2">  1        2 0.93766558E-02 0.12940868E+03</pdfrwt>
<pdfrwt beam="1">  1       -2 0.35694879E-01 0.12940868E+03</pdfrwt>
<totfact> 0.48753210E+03</totfact>
</mgrwt>
</event>
<event>
 7    1  0.6095443E-006  0.1401257E+03  0.7546771E-02  0.1223966E+00
         -1   -1    0    0    0  501 -0.00000000000E+00  0.00000000000E+00  0.29824863590E+03  0.29824863590E+03  0.00000000000E+00 0.  1.
          1   -1    0    0  501    0  0.00000000000E+00 -0.00000000000E+00 -0.53144819442E+02  0.53144819442E+02  0.00000000000E+00 0. -1.
         23    2    1    2    0    0  0.62141443093E+02  0.12154009859E+02  0.13998571800E+03  0.19806870323E+03  0.12500372414E+03 0.  0.
          5    1    3    3  502    0  0.49898356729E+02  0.53292644378E+02  0.28499050833E+02  0.78512660428E+02  0.47000000000E+01 0. -1.
         -5    1    3    3    0  502  0.12243086363E+02 -0.41138634519E+02  0.11148666717E+03  0.11955604280E+03  0.47000000000E+01 0. -1.
        -11    1    1    2    0    0  0.88330069192E+01 -0.17680980935E+02 -0.66131180887E+01  0.20841603319E+02  0.00000000000E+00 0. -1.
         11    1    1    2    0    0 -0.70974450012E+02  0.55269710761E+01  0.11173121655E+03  0.13248314879E+03  0.00000000000E+00 0.  1.
<mgrwt>
<rscale>  0 0.13237997E+03</rscale>
<asrwt>0</asrwt>
<pdfrwt beam="2">  1        1 0.81761263E-02 0.14012569E+03</pdfrwt>
<pdfrwt beam="1">  1       -1 0.45884404E-01 0.14012569E+03</pdfrwt>
<totfact> 0.39039157E+03</totfact>
</mgrwt>
</event>
<event>
 7    1  0.6095443E-006  0.1405518E+03  0.7546771E-02  0.1223955E+00
          2   -1    0    0  501    0  0.00000000000E+00  0.00000000000E+00  0.46330605977E+03  0.46330605977E+03  0.00000000000E+00 0. -1.
         -2   -1    0    0    0  501 -0.00000000000E+00 -0.00000000000E+00 -0.34257865306E+02  0.34257865306E+02  0.00000000000E+00 0.  1.
         23    2    1    2    0    0  0.54093270226E+02 -0.34678774416E+02  0.25938510520E+03  0.29501768735E+03  0.12500441502E+03 0.  0.
          5    1    3    3  502    0  0.62900698519E+02  0.24839465009E+02  0.19647389268E+03  0.20784026895E+03  0.47000000000E+01 0.  1.
         -5    1    3    3    0  502 -0.88074282927E+01 -0.59518239425E+02  0.62911212520E+02  0.87177418396E+02  0.47000000000E+01 0.  1.
        -11    1    1    2    0    0 -0.51856825536E+02  0.55901174120E+02  0.80559895849E+02  0.11092325474E+03  0.00000000000E+00 0.  1.
         11    1    1    2    0    0 -0.22364446906E+01 -0.21222399703E+02  0.89103193419E+02  0.91622982987E+02  0.00000000000E+00 0. -1.
<mgrwt>
<rscale>  0 0.13238761E+03</rscale>
<asrwt>0</asrwt>
<pdfrwt beam="1">  1        2 0.71277851E-01 0.14055178E+03</pdfrwt>
<pdfrwt beam="2">  1       -2 0.52704412E-02 0.14055178E+03</pdfrwt>
<totfact> 0.11653088E+04</totfact>
</mgrwt>
</event>
<event>
 7    1  0.6095443E-006  0.1646152E+03  0.7546771E-02  0.1190687E+00
          2   -1    0    0  501    0  0.00000000000E+00  0.00000000000E+00  0.39065617411E+03  0.39065617411E+03  0.00000000000E+00 0. -1.
         -2   -1    0    0    0  501 -0.00000000000E+00 -0.00000000000E+00 -0.62450371123E+02  0.62450371123E+02  0.00000000000E+00 0.  1.
         23    2    1    2    0    0  0.38050366198E+02 -0.10012738933E+03  0.12828194655E+03  0.20869693822E+03  0.12499931901E+03 0.  0.
          5    1    3    3  502    0  0.13649472225E+02  0.26058354181E+02  0.43737825527E+01  0.30109232612E+02  0.47000000000E+01 0.  1.
         -5    1    3    3    0  502  0.24400893973E+02 -0.12618574351E+03  0.12390816399E+03  0.17858770561E+03  0.47000000000E+01 0.  1.
        -11    1    1    2    0    0 -0.56183769963E+02  0.31580090846E+02  0.12855288030E+03  0.14380459373E+03  0.00000000000E+00 0. -1.
         11    1    1    2    0    0  0.18133403765E+02  0.68547298482E+02  0.71370976144E+02  0.10060501328E+03  0.00000000000E+00 0.  1.
<mgrwt>
<rscale>  0 0.15824997E+03</rscale>
<asrwt>0</asrwt>
<pdfrwt beam="1">  1        2 0.60100948E-01 0.16461517E+03</pdfrwt>
<pdfrwt beam="2">  1       -2 0.96077497E-02 0.16461517E+03</pdfrwt>
<totfact> 0.56205904E+03</totfact>
</mgrwt>
</event>
<event>
 7    1  0.6095443E-006  0.1248636E+03  0.7546771E-02  0.1264217E+00
          2   -1    0    0  501    0  0.00000000000E+00  0.00000000000E+00  0.33563497958E+02  0.33563497958E+02  0.00000000000E+00 0. -1.
         -2   -1    0    0    0  501 -0.00000000000E+00 -0.00000000000E+00 -0.11991592539E+04  0.11991592539E+04  0.00000000000E+00 0.  1.
         23    2    1    2    0    0  0.42997996130E+02  0.39361527205E+02 -0.11552023581E+04  0.11619308933E+04  0.11042080941E+03 0.  0.
          5    1    3    3  502    0  0.45536695801E+02  0.72421341307E+02 -0.65038146224E+03  0.65600044037E+03  0.47000000000E+01 0. -1.
         -5    1    3    3    0  502 -0.25386996714E+01 -0.33059814102E+02 -0.50482089587E+03  0.50593045294E+03  0.47000000000E+01 0.  1.
        -11    1    1    2    0    0 -0.10089614860E+02 -0.15184450513E+02  0.14212654939E+02  0.23116388684E+02  0.00000000000E+00 0.  1.
         11    1    1    2    0    0 -0.32908381270E+02 -0.24177076692E+02 -0.24606052802E+02  0.47675469894E+02  0.00000000000E+00 0. -1.
<mgrwt>
<rscale>  0 0.10805372E+03</rscale>
<asrwt>0</asrwt>
<pdfrwt beam="1">  1        2 0.51636144E-02 0.12486358E+03</pdfrwt>
<pdfrwt beam="2">  1       -2 0.18448606E+00 0.12486358E+03</pdfrwt>
<totfact> 0.27036009E+02</totfact>
</mgrwt>
</event>
<event>
 6    1  0.6095443E-006  0.1326173E+03  0.7546771E-02  0.1241018E+00
          3   -1    0    0  501    0  0.00000000000E+00  0.00000000000E+00  0.12700945482E+03  0.12700945482E+03  0.00000000000E+00 0. -1.
         -3   -1    0    0    0  501 -0.00000000000E+00 -0.00000000000E+00 -0.10902293008E+03  0.10902293008E+03  0.00000000000E+00 0.  1.
          5    1    1    2  502    0  0.34047789242E+02 -0.37911626033E+02  0.45134498875E+01  0.51371242642E+02  0.47000000000E+01 0. -1.
         -5    1    1    2    0  502 -0.47890116494E+02  0.62059643523E+02 -0.27610696659E+02  0.83242436185E+02  0.47000000000E+01 0.  1.
        -11    1    1    2    0    0  0.19907539861E+02  0.30058397720E+02  0.59569918530E+01  0.36541800295E+02  0.00000000000E+00 0.  1.
         11    1    1    2    0    0 -0.60652126086E+01 -0.54206415210E+02  0.35126779663E+02  0.64876905779E+02  0.00000000000E+00 0. -1.
<mgrwt>
<rscale>  0 0.12126882E+03</rscale>
<asrwt>0</asrwt>
<pdfrwt beam="1">  1        3 0.19539916E-01 0.13261734E+03</pdfrwt>
<pdfrwt beam="2">  1       -3 0.16772758E-01 0.13261734E+03</pdfrwt>
<totfact> 0.16361381E+03</totfact>
</mgrwt>
</event>
<event>
 7    1  0.6095443E-006  0.1301159E+03  0.7546771E-02  0.1241231E+00
         -4   -1    0    0    0  501 -0.00000000000E+00  0.00000000000E+00  0.45904450358E+02  0.45904450358E+02  0.00000000000E+00 0.  1.
          4   -1    0    0  501    0  0.00000000000E+00 -0.00000000000E+00 -0.28412169691E+03  0.28412169691E+03  0.00000000000E+00 0. -1.
         23    2    1    2    0    0 -0.33914550637E+02 -0.12473630478E+02 -0.12473985281E+03  0.18025028765E+03  0.12499738844E+03 0.  0.
          5    1    3    3  502    0 -0.45542085661E+01  0.43823659456E+02 -0.10439870982E+03  0.11341267370E+03  0.47000000000E+01 0. -1.
         -5    1    3    3    0  502 -0.29360342071E+02 -0.56297289934E+02 -0.20341142991E+02  0.66837613950E+02  0.47000000000E+01 0. -1.
        -11    1    1    2    0    0 -0.72601800369E+01  0.13738071495E+02  0.10751237364E+02  0.18895341421E+02  0.00000000000E+00 0.  1.
         11    1    1    2    0    0  0.41174730674E+02 -0.12644410165E+01 -0.12422863111E+03  0.13088051820E+03  0.00000000000E+00 0. -1.
<mgrwt>
<rscale>  0 0.12113800E+03</rscale>
<asrwt>0</asrwt>
<pdfrwt beam="2">  1        4 0.43711030E-01 0.13011585E+03</pdfrwt>
<pdfrwt beam="1">  1       -4 0.70622231E-02 0.13011585E+03</pdfrwt>
<totfact> 0.11319255E+03</totfact>
</mgrwt>
</event>
<event>
 7    1  0.6095443E-006  0.1941612E+03  0.7546771E-02  0.1159341E+00
          2   -1    0    0  501    0  0.00000000000E+00  0.00000000000E+00  0.95485511153E+02  0.95485511153E+02  0.00000000000E+00 0. -1.
         -2   -1    0    0    0  501 -0.00000000000E+00 -0.00000000000E+00 -0.37228629567E+03  0.37228629567E+03  0.00000000000E+00 0.  1.
         23    2    1    2    0    0 -0.62017114486E+02 -0.13500840130E+03 -0.19477496421E+03  0.27501977445E+03  0.12500079497E+03 0.  0.
          5    1    3    3  502    0 -0.61378514035E+02 -0.14977001634E+02 -0.11349530174E+03  0.12998040652E+03  0.47000000000E+01 0. -1.
         -5    1    3    3    0  502 -0.63860045070E+00 -0.12003139966E+03 -0.81279662474E+02  0.14503936792E+03  0.47000000000E+01 0. -1.
        -11    1    1    2    0    0  0.66382043416E+02  0.42214035262E+02 -0.55055039823E+02  0.96019049522E+02  0.00000000000E+00 0. -1.
         11    1    1    2    0    0 -0.43649289302E+01  0.92794366034E+02 -0.26970780481E+02  0.96732982855E+02  0.00000000000E+00 0.  1.
<mgrwt>
<rscale>  0 0.18902791E+03</rscale>
<asrwt>0</asrwt>
<pdfrwt beam="1">  1        2 0.14690079E-01 0.19416125E+03</pdfrwt>
<pdfrwt beam="2">  1       -2 0.57274814E-01 0.19416125E+03</pdfrwt>
<totfact> 0.11519181E+03</totfact>
</mgrwt>
</event>
<event>
 7    1  0.6095443E-006  0.1300924E+03  0.7546771E-02  0.1242772E+00
          1   -1    0    0  501    0  0.00000000000E+00  0.00000000000E+00  0.50024519855E+03  0.50024519855E+03  0.00000000000E+00 0. -1.
         -1   -1    0    0    0  501 -0.00000000000E+00 -0.00000000000E+00 -0.25278678355E+02  0.25278678355E+02  0.00000000000E+00 0.  1.
         23    2    1    2    0    0 -0.15963804871E+02  0.32322393902E+02  0.27246953704E+03  0.30193325684E+03  0.12499785101E+03 0.  0.
          5    1    3    3  502    0 -0.51490593697E+01  0.19708316687E+02 -0.69123996173E+01  0.22018215811E+02  0.47000000000E+01 0. -1.
         -5    1    3    3    0  502 -0.10814745501E+02  0.12614077216E+02  0.27938193666E+03  0.27991504103E+03  0.47000000000E+01 0. -1.
        -11    1    1    2    0    0 -0.29696655645E+02  0.10528794726E+02  0.55661223948E+02  0.63960290230E+02  0.00000000000E+00 0.  1.
         11    1    1    2    0    0  0.45660460516E+02 -0.42851188628E+02  0.14683575921E+03  0.15963032984E+03  0.00000000000E+00 0. -1.
<mgrwt>
<rscale>  0 0.12019747E+03</rscale>
<asrwt>0</asrwt>
<pdfrwt beam="1">  1        1 0.76960792E-01 0.13009244E+03</pdfrwt>
<pdfrwt beam="2">  1       -1 0.38890278E-02 0.13009244E+03</pdfrwt>
<totfact> 0.10970070E+04</totfact>
</mgrwt>
</event>
<event>
 7    1  0.6095443E-006  0.1513566E+03  0.7546771E-02  0.1207486E+00
         -1   -1    0    0    0  501 -0.00000000000E+00  0.00000000000E+00  0.12655168674E+03  0.12655168674E+03  0.00000000000E+00 0.  1.
          1   -1    0    0  501    0  0.00000000000E+00 -0.00000000000E+00 -0.15162737079E+03  0.15162737079E+03  0.00000000000E+00 0. -1.
         23    2    1    2    0    0 -0.70202910679E+02 -0.48534400181E+02 -0.86206419022E+01  0.15160190228E+03  0.12499913856E+03 0.  0.
          5    1    3    3  502    0 -0.54891128759E+02 -0.27140492406E+02  0.55096645278E+02  0.82506803752E+02  0.47000000000E+01 0.  1.
         -5    1    3    3    0  502 -0.15311781919E+02 -0.21393907775E+02 -0.63717287181E+02  0.69095098532E+02  0.47000000000E+01 0.  1.
        -11    1    1    2    0    0  0.87169946888E+02  0.17194794638E+02 -0.18964810516E+02  0.90851112492E+02  0.00000000000E+00 0.  1.
         11    1    1    2    0    0 -0.16967036209E+02  0.31339605543E+02  0.25097683684E+01  0.35726042750E+02  0.00000000000E+00 0. -1.
<mgrwt>
<rscale>  0 0.14443238E+03</rscale>
<asrwt>0</asrwt>
<pdfrwt beam="2">  1        1 0.23327288E-01 0.15135660E+03</pdfrwt>
<pdfrwt beam="1">  1       -1 0.19469490E-01 0.15135660E+03</pdfrwt>
<totfact> 0.42528280E+03</totfact>
</mgrwt>
</event>
<event>
 7    1  0.6095443E-006  0.1564417E+03  0.7546771E-02  0.1201656E+00
          1   -1    0    0  501    0  0.00000000000E+00  0.00000000000E+00  0.18313699032E+03  0.18313699032E+03  0.00000000000E+00 0. -1.
         -1   -1    0    0    0  501 -0.00000000000E+00 -0.00000000000E+00 -0.16418137087E+03  0.16418137087E+03  0.00000000000E+00 0.  1.
         23    2    1    2    0    0  0.80622181097E+02 -0.48469233881E+02 -0.88309091073E+02  0.17964551068E+03  0.12499924489E+03 0.  0.
          5    1    3    3  502    0 -0.15196648756E+02 -0.94883179889E+01  0.21724723672E+02  0.28548553909E+02  0.47000000000E+01 0. -1.
         -5    1    3    3    0  502  0.95818829853E+02 -0.38980915892E+02 -0.11003381475E+03  0.15109695677E+03  0.47000000000E+01 0. -1.
        -11    1    1    2    0    0 -0.89045470850E+01  0.12012505645E+02  0.81992653668E+02  0.83344984889E+02  0.00000000000E+00 0. -1.
         11    1    1    2    0    0 -0.71717634012E+02  0.36456728236E+02  0.25272056853E+02  0.84327865617E+02  0.00000000000E+00 0.  1.
<mgrwt>
<rscale>  0 0.14904096E+03</rscale>
<asrwt>0</asrwt>
<pdfrwt beam="1">  1        1 0.28174922E-01 0.15644173E+03</pdfrwt>
<pdfrwt beam="2">  1       -1 0.25258672E-01 0.15644173E+03</pdfrwt>
<totfact> 0.21988811E+03</totfact>
</mgrwt>
</event>
<event>
 7    1  0.6095443E-006  0.1350833E+03  0.7546771E-02  0.1232489E+00
          1   -1    0    0  501    0  0.00000000000E+00  0.00000000000E+00  0.90559459411E+02  0.90559459411E+02  0.00000000000E+00 0. -1.
         -1   -1    0    0    0  501 -0.00000000000E+00 -0.00000000000E+00 -0.16698723447E+03  0.16698723447E+03  0.00000000000E+00 0.  1.
         23    2    1    2    0    0  0.41197679792E+02  0.30419498409E+02 -0.71878241048E+02  0.15301628147E+03  0.12499962462E+03 0.  0.
          5    1    3    3  502    0  0.48473570527E+02 -0.40506945642E+02 -0.28828997848E+02  0.69596701084E+02  0.47000000000E+01 0.  1.
         -5    1    3    3    0  502 -0.72758907352E+01  0.70926444050E+02 -0.43049243200E+02  0.83419580386E+02  0.47000000000E+01 0.  1.
        -11    1    1    2    0    0 -0.30020393154E+02 -0.56731802254E+01 -0.45854031907E+02  0.55099920337E+02  0.00000000000E+00 0.  1.
         11    1    1    2    0    0 -0.11177286637E+02 -0.24746318183E+02  0.41304497897E+02  0.49430492074E+02  0.00000000000E+00 0. -1.
<mgrwt>
<rscale>  0 0.12666569E+03</rscale>
<asrwt>0</asrwt>
<pdfrwt beam="1">  1        1 0.13932225E-01 0.13508331E+03</pdfrwt>
<pdfrwt beam="2">  1       -1 0.25690343E-01 0.13508331E+03</pdfrwt>
<totfact> 0.52096713E+03</totfact>
</mgrwt>
</event>
<event>
 7    1  0.6095443E-006  0.1627510E+03  0.7546771E-02  0.1192862E+00
          3   -1    0    0  501    0  0.00000000000E+00  0.00000000000E+00  0.52549883143E+03  0.52549883143E+03  0.00000000000E+00 0. -1.
         -3   -1    0    0    0  501 -0.00000000000E+00 -0.00000000000E+00 -0.70521680013E+02  0.70521680013E+02  0.00000000000E+00 0.  1.
         23    2    1    2    0    0 -0.78283000106E+02  0.68803918160E+02  0.53579994542E+02  0.17134386066E+03  0.12500278202E+03 0.  0.
          5    1    3    3  502    0  0.13211103746E+02  0.17345993003E+02 -0.29786947599E+02  0.37212484232E+02  0.47000000000E+01 0.  1.
         -5    1    3    3    0  502 -0.91494103853E+02  0.51457925157E+02  0.83366942141E+02  0.13413137643E+03  0.47000000000E+01 0.  1.
        -11    1    1    2    0    0  0.32858871928E+02 -0.66249737192E+02  0.34174663401E+03  0.34965625263E+03  0.00000000000E+00 0. -1.
         11    1    1    2    0    0  0.45424128178E+02 -0.25541809680E+01  0.59650522861E+02  0.75020398151E+02  0.00000000000E+00 0.  1.
<mgrwt>
<rscale>  0 0.15636584E+03</rscale>
<asrwt>0</asrwt>
<pdfrwt beam="1">  1        3 0.80845971E-01 0.16275105E+03</pdfrwt>
<pdfrwt beam="2">  1       -3 0.10849490E-01 0.16275105E+03</pdfrwt>
<totfact> 0.22420018E+02</totfact>
</mgrwt>
</event>
<event>
 7    1  0.6095443E-006  0.1545191E+03  0.7546771E-02  0.1205481E+00
          1   -1    0    0  501    0  0.00000000000E+00  0.00000000000E+00  0.34293851565E+02  0.34293851565E+02  0.00000000000E+00 0. -1.
         -1   -1    0    0    0  501 -0.00000000000E+00 -0.00000000000E+00 -0.75615403096E+03  0.75615403096E+03  0.00000000000E+00 0.  1.
         23    2    1    2    0    0  0.41602341981E+02 -0.80749636959E+02 -0.59053722761E+03  0.61041819242E+03  0.12499957483E+03 0.  0.
          5    1    3    3  502    0  0.48901187726E+02 -0.52482209870E+01 -0.78373082061E+02  0.92646100708E+02  0.47000000000E+01 0. -1.
         -5    1    3    3    0  502 -0.72988457449E+01 -0.75501415972E+02 -0.51216414555E+03  0.51777209171E+03  0.47000000000E+01 0. -1.
        -11    1    1    2    0    0  0.61527887291E+01  0.26849025433E+02 -0.95897724197E+02  0.99775249847E+02  0.00000000000E+00 0.  1.
         11    1    1    2    0    0 -0.47755130710E+02  0.53900611526E+02 -0.35425227583E+02  0.80254440260E+02  0.00000000000E+00 0. -1.
<mgrwt>
<rscale>  0 0.14599629E+03</rscale>
<asrwt>0</asrwt>
<pdfrwt beam="1">  1        1 0.52759770E-02 0.15451910E+03</pdfrwt>
<pdfrwt beam="2">  1       -1 0.11633139E+00 0.15451910E+03</pdfrwt>
<totfact> 0.10839696E+03</totfact>
</mgrwt>
</event>
<event>
 7    1  0.6095443E-006  0.1546444E+03  0.7546771E-02  0.1203257E+00
         -2   -1    0    0    0  501 -0.00000000000E+00  0.00000000000E+00  0.32173194306E+03  0.32173194306E+03  0.00000000000E+00 0.  1.
          2   -1    0    0  501    0  0.00000000000E+00 -0.00000000000E+00 -0.72132872500E+02  0.72132872500E+02  0.00000000000E+00 0. -1.
         23    2    1    2    0    0 -0.87906462548E+02 -0.23733581609E+02  0.20646335414E+03  0.25795740253E+03  0.12499630340E+03 0.  0.
          5    1    3    3  502    0 -0.22813746016E+02  0.50024325445E+02  0.88407451552E+02  0.10421548653E+03  0.47000000000E+01 0. -1.
         -5    1    3    3    0  502 -0.65092716532E+02 -0.73757907054E+02  0.11805590259E+03  0.15374191600E+03  0.47000000000E+01 0. -1.
        -11    1    1    2    0    0  0.38095587147E+02  0.14173115224E+02 -0.27407123980E+02  0.49023478050E+02  0.00000000000E+00 0. -1.
         11    1    1    2    0    0  0.49810875401E+02  0.95604663847E+01  0.70542840396E+02  0.86883934975E+02  0.00000000000E+00 0.  1.
<mgrwt>
<rscale>  0 0.14775677E+03</rscale>
<asrwt>0</asrwt>
<pdfrwt beam="2">  1        2 0.11097365E-01 0.15464445E+03</pdfrwt>
<pdfrwt beam="1">  1       -2 0.49497221E-01 0.15464445E+03</pdfrwt>
<totfact> 0.21449143E+03</totfact>
</mgrwt>
</event>
<event>
 7    1  0.6095443E-006  0.1309308E+03  0.7546771E-02  0.1238935E+00
          3   -1    0    0  501    0  0.00000000000E+00  0.00000000000E+00  0.12893265324E+03  0.12893265324E+03  0.00000000000E+00 0. -1.
         -3   -1    0    0    0  501 -0.00000000000E+00 -0.00000000000E+00 -0.10510292504E+03  0.10510292504E+03  0.00000000000E+00 0.  1.
         23    2    1    2    0    0 -0.26043893799E+02 -0.28988255291E+02  0.26025790031E+02  0.13349234183E+03  0.12499704089E+03 0.  0.
          5    1    3    3  502    0 -0.64841333052E+02  0.17714249886E+02  0.26993900446E+02  0.72587559418E+02  0.47000000000E+01 0. -1.
         -5    1    3    3    0  502  0.38797439253E+02 -0.46702505178E+02 -0.96811041533E+00  0.60904782408E+02  0.47000000000E+01 0. -1.
        -11    1    1    2    0    0 -0.33547044608E+02  0.14361407841E+02 -0.11980639046E+02  0.38408201585E+02  0.00000000000E+00 0.  1.
         11    1    1    2    0    0  0.59590938407E+02  0.14626847450E+02  0.97845772112E+01  0.62135034865E+02  0.00000000000E+00 0. -1.
<mgrwt>
<rscale>  0 0.12255854E+03</rscale>
<asrwt>0</asrwt>
<pdfrwt beam="1">  1        3 0.19835793E-01 0.13093076E+03</pdfrwt>
<pdfrwt beam="2">  1       -3 0.16169681E-01 0.13093076E+03</pdfrwt>
<totfact> 0.16935769E+03</totfact>
</mgrwt>
</event>
<event>
 6    1  0.6095443E-006  0.1565057E+03  0.7546771E-02  0.1206035E+00
          3   -1    0    0  501    0  0.00000000000E+00  0.00000000000E+00  0.13241248368E+03  0.13241248368E+03  0.00000000000E+00 0. -1.
         -3   -1    0    0    0  501 -0.00000000000E+00 -0.00000000000E+00 -0.14760653091E+03  0.14760653091E+03  0.00000000000E+00 0.  1.
          5    1    1    2  502    0 -0.29002999061E+02 -0.38565092737E+02 -0.37781544621E+02  0.61465237707E+02  0.47000000000E+01 0. -1.
         -5    1    1    2    0  502 -0.14145342997E+02  0.98269602226E+02  0.60457832423E+00  0.99395477589E+02  0.47000000000E+01 0.  1.
        -11    1    1    2    0    0  0.68090752205E+02 -0.21936523910E+02  0.91954047777E+01  0.72125703366E+02  0.00000000000E+00 0. -1.
         11    1    1    2    0    0 -0.24942410146E+02 -0.37767985579E+02  0.12787514290E+02  0.47032595934E+02  0.00000000000E+00 0.  1.
<mgrwt>
<rscale>  0 0.14556231E+03</rscale>
<asrwt>0</asrwt>
<pdfrwt beam="1">  1        3 0.20371151E-01 0.15650573E+03</pdfrwt>
<pdfrwt beam="2">  1       -3 0.22708697E-01 0.15650573E+03</pdfrwt>
<totfact> 0.91591714E+02</totfact>
</mgrwt>
</event>
<event>
 7    1  0.6095443E-006  0.1231539E+03  0.7546771E-02  0.1240994E+00
          2   -1    0    0  501    0  0.00000000000E+00  0.00000000000E+00  0.67765444576E+03  0.67765444576E+03  0.00000000000E+00 0. -1.
         -2   -1    0    0    0  501 -0.00000000000E+00 -0.00000000000E+00 -0.28273005485E+02  0.28273005485E+02  0.00000000000E+00 0.  1.
         23    2    1    2    0    0  0.40493098373E+02  0.34339534132E+02  0.15403012075E+03  0.19721096943E+03  0.11112152691E+03 0.  0.
          5    1    3    3  502    0  0.77253088238E+02  0.24916617107E+02  0.80964003695E+02  0.11474379001E+03  0.47000000000E+01 0. -1.
         -5    1    3    3    0  502 -0.36759989865E+02  0.94229170243E+01  0.73066117054E+02  0.82467179420E+02  0.47000000000E+01 0.  1.
        -11    1    1    2    0    0 -0.71888587487E+02 -0.42123813621E+02  0.36906781741E+03  0.37835623231E+03  0.00000000000E+00 0.  1.
         11    1    1    2    0    0  0.31395489114E+02  0.77842794897E+01  0.12628350212E+03  0.13036024951E+03  0.00000000000E+00 0. -1.
<mgrwt>
<rscale>  0 0.12128395E+03</rscale>
<asrwt>0</asrwt>
<pdfrwt beam="1">  1        2 0.10425452E+00 0.12315392E+03</pdfrwt>
<pdfrwt beam="2">  1       -2 0.43496937E-02 0.12315392E+03</pdfrwt>
<totfact> 0.10043443E+04</totfact>
</mgrwt>
</event>
<event>
 7    1  0.6095443E-006  0.1231040E+03  0.7546771E-02  0.1249954E+00
         -1   -1    0    0    0  501 -0.00000000000E+00  0.00000000000E+00  0.70797920791E+03  0.70797920791E+03  0.00000000000E+00 0. -1.
          1   -1    0    0  501    0  0.00000000000E+00 -0.00000000000E+00 -0.17111116606E+02  0.17111116606E+02  0.00000000000E+00 0.  1.
         23    2    1    2    0    0  0.16358780992E+02 -0.31602437715E+02  0.40120322289E+03  0.41966489566E+03  0.11784852486E+03 0.  0.
          5    1    3    3  502    0 -0.10142977999E+02 -0.67912497043E+02  0.31388546647E+03  0.32134275053E+03  0.47000000000E+01 0. -1.
         -5    1    3    3    0  502  0.26501758991E+02  0.36310059328E+02  0.87317756420E+02  0.98322145136E+02  0.47000000000E+01 0.  1.
        -11    1    1    2    0    0 -0.48646395449E+02 -0.33873993276E+01  0.16157703118E+03  0.16877524483E+03  0.00000000000E+00 0.  1.
         11    1    1    2    0    0  0.32287614457E+02  0.34989837043E+02  0.12808783724E+03  0.13665018402E+03  0.00000000000E+00 0. -1.
<mgrwt>
<rscale>  0 0.11593738E+03</rscale>
<asrwt>0</asrwt>
<pdfrwt beam="2">  1        1 0.26324800E-02 0.12310402E+03</pdfrwt>
<pdfrwt beam="1">  1       -1 0.10891986E+00 0.12310402E+03</pdfrwt>
<totfact> 0.32521294E+03</totfact>
</mgrwt>
</event>
<event>
 6    1  0.6095443E-006  0.1367926E+03  0.7546771E-02  0.1234595E+00
         -2   -1    0    0    0  501 -0.00000000000E+00  0.00000000000E+00  0.56250452831E+03  0.56250452831E+03  0.00000000000E+00 0.  1.
          2   -1    0    0  501    0  0.00000000000E+00 -0.00000000000E+00 -0.27077484671E+02  0.27077484671E+02  0.00000000000E+00 0. -1.
          5    1    1    2  502    0 -0.47893518382E+02 -0.10133814082E+02  0.63044294040E+02  0.79957215446E+02  0.47000000000E+01 0. -1.
         -5    1    1    2    0  502  0.61229921139E+02 -0.83992507088E+01  0.34176125228E+03  0.34733628405E+03  0.47000000000E+01 0.  1.
        -11    1    1    2    0    0  0.38323054611E+01  0.51961083894E+02  0.45236981526E+02  0.69000183348E+02  0.00000000000E+00 0.  1.
         11    1    1    2    0    0 -0.17168708219E+02 -0.33428019103E+02  0.85384515794E+02  0.93288330141E+02  0.00000000000E+00 0. -1.
<mgrwt>
<rscale>  0 0.12530388E+03</rscale>
<asrwt>0</asrwt>
<pdfrwt beam="2">  1        2 0.41657673E-02 0.13679256E+03</pdfrwt>
<pdfrwt beam="1">  1       -2 0.86539149E-01 0.13679256E+03</pdfrwt>
<totfact> 0.22991388E+03</totfact>
</mgrwt>
</event>
<event>
 7    1  0.6095443E-006  0.1282402E+03  0.7546771E-02  0.1245046E+00
         -2   -1    0    0    0  501 -0.00000000000E+00  0.00000000000E+00  0.63250628537E+02  0.63250628537E+02  0.00000000000E+00 0.  1.
          2   -1    0    0  501    0  0.00000000000E+00 -0.00000000000E+00 -0.19730377228E+03  0.19730377228E+03  0.00000000000E+00 0. -1.
         23    2    1    2    0    0  0.19771533844E+02 -0.20495830034E+02 -0.67282098451E+02  0.14481859788E+03  0.12503820585E+03 0.  0.
          5    1    3    3  502    0  0.34433421009E+01 -0.58822398205E+02 -0.81385069997E+02  0.10058603658E+03  0.47000000000E+01 0. -1.
         -5    1    3    3    0  502  0.16328191743E+02  0.38326568172E+02  0.14102971546E+02  0.44232561308E+02  0.47000000000E+01 0. -1.
        -11    1    1    2    0    0 -0.18655687912E+01  0.47408842215E+02 -0.68542825240E+02  0.83361847143E+02  0.00000000000E+00 0.  1.
         11    1    1    2    0    0 -0.17905965053E+02 -0.26913012182E+02  0.17717799525E+01  0.32373955788E+02  0.00000000000E+00 0. -1.
<mgrwt>
<rscale>  0 0.11882654E+03</rscale>
<asrwt>0</asrwt>
<pdfrwt beam="2">  1        2 0.30354427E-01 0.12824019E+03</pdfrwt>
<pdfrwt beam="1">  1       -2 0.97308658E-02 0.12824019E+03</pdfrwt>
<totfact> 0.11235854E+04</totfact>
</mgrwt>
</event>
<event>
 7    1  0.6095443E-006  0.1282619E+03  0.7546771E-02  0.1245212E+00
          3   -1    0    0  501    0  0.00000000000E+00  0.00000000000E+00  0.20714681520E+02  0.20714681520E+02  0.00000000000E+00 0. -1.
         -3   -1    0    0    0  501 -0.00000000000E+00 -0.00000000000E+00 -0.60185658159E+03  0.60185658159E+03  0.00000000000E+00 0.  1.
         23    2    1    2    0    0  0.27501298687E+02 -0.83697762147E+01 -0.36209710461E+03  0.38414245133E+03  0.12499894066E+03 0.  0.
          5    1    3    3  502    0  0.45122356100E+02  0.32789440474E+02 -0.31119347113E+03  0.31618766722E+03  0.47000000000E+01 0.  1.
         -5    1    3    3    0  502 -0.17621057413E+02 -0.41159216688E+02 -0.50903633479E+02  0.67954784115E+02  0.47000000000E+01 0.  1.
        -11    1    1    2    0    0  0.18509448022E+02 -0.29044308678E+02 -0.69827106189E+02  0.77858822823E+02  0.00000000000E+00 0.  1.
         11    1    1    2    0    0 -0.46010746710E+02  0.37414084892E+02 -0.14921768927E+03  0.16056998895E+03  0.00000000000E+00 0. -1.
<mgrwt>
<rscale>  0 0.11872698E+03</rscale>
<asrwt>0</asrwt>
<pdfrwt beam="1">  1        3 0.31868740E-02 0.12826188E+03</pdfrwt>
<pdfrwt beam="2">  1       -3 0.92593324E-01 0.12826188E+03</pdfrwt>
<totfact> 0.11418090E+03</totfact>
</mgrwt>
</event>
<event>
 7    1  0.6095443E-006  0.1274674E+03  0.7546771E-02  0.1243512E+00
          2   -1    0    0  501    0  0.00000000000E+00  0.00000000000E+00  0.47298615624E+03  0.47298615624E+03  0.00000000000E+00 0. -1.
         -2   -1    0    0    0  501 -0.00000000000E+00 -0.00000000000E+00 -0.27648924596E+02  0.27648924596E+02  0.00000000000E+00 0.  1.
         23    2    1    2    0    0 -0.19418390093E+02  0.15630414224E+02  0.21741098357E+03  0.25202276970E+03  0.12500622764E+03 0.  0.
          5    1    3    3  502    0  0.40286361723E+02  0.44757081479E+02  0.11423756120E+03  0.12922266702E+03  0.47000000000E+01 0. -1.
         -5    1    3    3    0  502 -0.59704751817E+02 -0.29126667254E+02  0.10317342237E+03  0.12280010268E+03  0.47000000000E+01 0. -1.
        -11    1    1    2    0    0  0.16182915657E+02  0.32458689286E+02  0.37455182649E+02  0.52137740424E+02  0.00000000000E+00 0.  1.
         11    1    1    2    0    0  0.32354744368E+01 -0.48089103510E+02  0.19047106543E+03  0.19647457071E+03  0.00000000000E+00 0. -1.
<mgrwt>
<rscale>  0 0.11974885E+03</rscale>
<asrwt>0</asrwt>
<pdfrwt beam="1">  1        2 0.72767095E-01 0.12746741E+03</pdfrwt>
<pdfrwt beam="2">  1       -2 0.42536811E-02 0.12746741E+03</pdfrwt>
<totfact> 0.15586264E+04</totfact>
</mgrwt>
</event>
<event>
 7    1  0.6095443E-006  0.1293521E+03  0.7546771E-02  0.1242507E+00
          4   -1    0    0  501    0  0.00000000000E+00  0.00000000000E+00  0.37845547235E+03  0.37845547235E+03  0.00000000000E+00 0. -1.
         -4   -1    0    0    0  501 -0.00000000000E+00 -0.00000000000E+00 -0.34726334503E+02  0.34726334503E+02  0.00000000000E+00 0.  1.
         23    2    1    2    0    0 -0.22697056753E+01  0.33200998025E+02  0.16301633120E+03  0.20810163423E+03  0.12499803237E+03 0.  0.
          5    1    3    3  502    0  0.55708728712E+02  0.39404274867E+02  0.67507265416E+02  0.96101405902E+02  0.47000000000E+01 0.  1.
         -5    1    3    3    0  502 -0.57978434388E+02 -0.62032768415E+01  0.95509065788E+02  0.11200022833E+03  0.47000000000E+01 0.  1.
        -11    1    1    2    0    0  0.30015504664E+02 -0.51784746334E+02  0.14109369692E+03  0.15326454836E+03  0.00000000000E+00 0. -1.
         11    1    1    2    0    0 -0.27745798988E+02  0.18583748309E+02  0.39619109727E+02  0.51815624268E+02  0.00000000000E+00 0.  1.
<mgrwt>
<rscale>  0 0.12035814E+03</rscale>
<asrwt>0</asrwt>
<pdfrwt beam="1">  1        4 0.58223916E-01 0.12935210E+03</pdfrwt>
<pdfrwt beam="2">  1       -4 0.53425133E-02 0.12935210E+03</pdfrwt>
<totfact> 0.99204107E+02</totfact>
</mgrwt>
</event>
<event>
 7    1  0.6095443E-006  0.1317071E+03  0.7546771E-02  0.1238754E+00
          1   -1    0    0  501    0  0.00000000000E+00  0.00000000000E+00  0.34284066090E+03  0.34284066090E+03  0.00000000000E+00 0. -1.
         -1   -1    0    0    0  501 -0.00000000000E+00 -0.00000000000E+00 -0.40225718755E+02  0.40225718755E+02  0.00000000000E+00 0.  1.
         23    2    1    2    0    0 -0.14218653110E+02 -0.38932236805E+02  0.13687999774E+03  0.18995496472E+03  0.12501546177E+03 0.  0.
          5    1    3    3  502    0 -0.39249466103E+01 -0.18420666099E+02 -0.22010104159E+02  0.29347245705E+02  0.47000000000E+01 0.  1.
         -5    1    3    3    0  502 -0.10293706500E+02 -0.20511570707E+02  0.15889010190E+03  0.16060771902E+03  0.47000000000E+01 0.  1.
        -11    1    1    2    0    0  0.96700412491E+01 -0.34229953551E+01 -0.87615856237E+01  0.13490440230E+02  0.00000000000E+00 0.  1.
         11    1    1    2    0    0  0.45486118611E+01  0.42355232160E+02  0.17449653003E+03  0.17962097470E+03  0.00000000000E+00 0. -1.
<mgrwt>
<rscale>  0 0.12267119E+03</rscale>
<asrwt>0</asrwt>
<pdfrwt beam="1">  1        1 0.52744715E-01 0.13170708E+03</pdfrwt>
<pdfrwt beam="2">  1       -1 0.61885723E-02 0.13170708E+03</pdfrwt>
<totfact> 0.89237096E+03</totfact>
</mgrwt>
</event>
<event>
 7    1  0.6095443E-006  0.1291331E+03  0.7546771E-02  0.1242311E+00
         -1   -1    0    0    0  501 -0.00000000000E+00  0.00000000000E+00  0.13467084354E+04  0.13467084354E+04  0.00000000000E+00 0.  1.
          1   -1    0    0  501    0  0.00000000000E+00 -0.00000000000E+00 -0.11657105864E+02  0.11657105864E+02  0.00000000000E+00 0. -1.
         23    2    1    2    0    0 -0.31997059522E+02  0.50613501467E+01  0.10286089414E+04  0.10366830297E+04  0.12500368275E+03 0.  0.
          5    1    3    3  502    0  0.28760142047E+02  0.11399123993E+02  0.78030190706E+03  0.78092908895E+03  0.47000000000E+01 0. -1.
         -5    1    3    3    0  502 -0.60757201569E+02 -0.63377738460E+01  0.24830703432E+03  0.25575394076E+03  0.47000000000E+01 0. -1.
        -11    1    1    2    0    0 -0.14591974093E+02  0.33481345308E+02  0.95520012567E+02  0.10226435837E+03  0.00000000000E+00 0. -1.
         11    1    1    2    0    0  0.46589033615E+02 -0.38542695455E+02  0.21092237553E+03  0.21941815314E+03  0.00000000000E+00 0.  1.
<mgrwt>
<rscale>  0 0.12047791E+03</rscale>
<asrwt>0</asrwt>
<pdfrwt beam="2">  1        1 0.17934020E-02 0.12913307E+03</pdfrwt>
<pdfrwt beam="1">  1       -1 0.20718579E+00 0.12913307E+03</pdfrwt>
<totfact> 0.10337012E+03</totfact>
</mgrwt>
</event>
<event>
 7    1  0.6095443E-006  0.1437297E+03  0.7546771E-02  0.1219205E+00
         -1   -1    0    0    0  501 -0.00000000000E+00  0.00000000000E+00  0.14232067665E+03  0.14232067665E+03  0.00000000000E+00 0.  1.
          1   -1    0    0  501    0  0.00000000000E+00 -0.00000000000E+00 -0.11874061113E+03  0.11874061113E+03  0.00000000000E+00 0. -1.
         23    2    1    2    0    0 -0.69895730497E+02  0.12134071092E+02 -0.28975298323E+01  0.14375893465E+03  0.12500234714E+03 0.  0.
          5    1    3    3  502    0 -0.45246544271E+02  0.43205141779E+02 -0.51275036541E+02  0.81025634319E+02  0.47000000000E+01 0. -1.
         -5    1    3    3    0  502 -0.24649186226E+02 -0.31071070687E+02  0.48377506709E+02  0.62733300332E+02  0.47000000000E+01 0. -1.
        -11    1    1    2    0    0  0.77133237021E+02  0.60779596634E+00 -0.10198708691E+02  0.77806936247E+02  0.00000000000E+00 0. -1.
         11    1    1    2    0    0 -0.72375065241E+01 -0.12741867058E+02  0.36676304040E+02  0.39495416884E+02  0.00000000000E+00 0.  1.
<mgrwt>
<rscale>  0 0.13572123E+03</rscale>
<asrwt>0</asrwt>
<pdfrwt beam="2">  1        1 0.18267786E-01 0.14372973E+03</pdfrwt>
<pdfrwt beam="1">  1       -1 0.21895489E-01 0.14372973E+03</pdfrwt>
<totfact> 0.47874558E+03</totfact>
</mgrwt>
</event>
<event>
 7    1  0.6095443E-006  0.1534265E+03  0.7546771E-02  0.1205382E+00
         -2   -1    0    0    0  501 -0.00000000000E+00  0.00000000000E+00  0.36170194096E+03  0.36170194096E+03  0.00000000000E+00 0.  1.
          2   -1    0    0  501    0  0.00000000000E+00 -0.00000000000E+00 -0.54958309965E+02  0.54958309965E+02  0.00000000000E+00 0. -1.
         23    2    1    2    0    0 -0.40100993915E+02  0.79417553566E+02  0.19563682689E+03  0.24862315329E+03  0.12499786714E+03 0.  0.
          5    1    3    3  502    0 -0.34099139595E+02  0.85061425649E+02  0.53599414991E+02  0.10626939702E+03  0.47000000000E+01 0. -1.
         -5    1    3    3    0  502 -0.60018543204E+01 -0.56438720829E+01  0.14203741190E+03  0.14235375628E+03  0.47000000000E+01 0. -1.
        -11    1    1    2    0    0  0.31608522339E+02 -0.86825642204E+02  0.12154286527E+03  0.15267763074E+03  0.00000000000E+00 0.  1.
         11    1    1    2    0    0  0.84924715767E+01  0.74080886378E+01 -0.10436061165E+02  0.15359466898E+02  0.00000000000E+00 0. -1.
<mgrwt>
<rscale>  0 0.14607363E+03</rscale>
<asrwt>0</asrwt>
<pdfrwt beam="2">  1        2 0.84551248E-02 0.15342654E+03</pdfrwt>
<pdfrwt beam="1">  1       -2 0.55646451E-01 0.15342654E+03</pdfrwt>
<totfact> 0.23729558E+03</totfact>
</mgrwt>
</event>
<event>
 7    1  0.6095443E-006  0.2163323E+03  0.7546771E-02  0.1141881E+00
          2   -1    0    0  501    0  0.00000000000E+00  0.00000000000E+00  0.52730840217E+03  0.52730840217E+03  0.00000000000E+00 0. -1.
         -2   -1    0    0    0  501 -0.00000000000E+00 -0.00000000000E+00 -0.78667456195E+02  0.78667456195E+02  0.00000000000E+00 0.  1.
         23    2    1    2    0    0  0.15726595555E+03  0.80263175359E+02  0.25128724265E+03  0.33157947736E+03  0.12499965358E+03 0.  0.
          5    1    3    3  502    0  0.32964911985E+02  0.17316419219E+02 -0.68980021506E+01  0.38160401340E+02  0.47000000000E+01 0. -1.
         -5    1    3    3    0  502  0.12430104356E+03  0.62946756139E+02  0.25818524480E+03  0.29341907602E+03  0.47000000000E+01 0. -1.
        -11    1    1    2    0    0 -0.79546684561E+02 -0.65128859964E+02  0.15090946043E+03  0.18260095474E+03  0.00000000000E+00 0. -1.
         11    1    1    2    0    0 -0.77719270987E+02 -0.15134315394E+02  0.46444242898E+02  0.91795426267E+02  0.00000000000E+00 0.  1.
<mgrwt>
<rscale>  0 0.20960251E+03</rscale>
<asrwt>0</asrwt>
<pdfrwt beam="1">  1        2 0.81124367E-01 0.21633232E+03</pdfrwt>
<pdfrwt beam="2">  1       -2 0.12102686E-01 0.21633232E+03</pdfrwt>
<totfact> 0.28305270E+03</totfact>
</mgrwt>
</event>
<event>
 7    1  0.6095443E-006  0.1585898E+03  0.7546771E-02  0.1198000E+00
         -1   -1    0    0    0  501 -0.00000000000E+00  0.00000000000E+00  0.26632824171E+03  0.26632824171E+03  0.00000000000E+00 0.  1.
          1   -1    0    0  501    0  0.00000000000E+00 -0.00000000000E+00 -0.82769040187E+02  0.82769040187E+02  0.00000000000E+00 0. -1.
         23    2    1    2    0    0  0.61228890569E+02 -0.75994951196E+02  0.69399479518E+02  0.17310978601E+03  0.12500600228E+03 0.  0.
          5    1    3    3  502    0  0.65608871760E+02 -0.27007072885E+01  0.74425207281E+02  0.99363068353E+02  0.47000000000E+01 0.  1.
         -5    1    3    3    0  502 -0.43799811911E+01 -0.73294243908E+02 -0.50257277637E+01  0.73746717654E+02  0.47000000000E+01 0.  1.
        -11    1    1    2    0    0 -0.69567616793E+02  0.13886363300E+02  0.66770426170E+02  0.97420604612E+02  0.00000000000E+00 0. -1.
         11    1    1    2    0    0  0.83387262240E+01  0.62108587896E+02  0.47389295839E+02  0.78566891281E+02  0.00000000000E+00 0.  1.
<mgrwt>
<rscale>  0 0.15203081E+03</rscale>
<asrwt>0</asrwt>
<pdfrwt beam="2">  1        1 0.12733699E-01 0.15858975E+03</pdfrwt>
<pdfrwt beam="1">  1       -1 0.40973575E-01 0.15858975E+03</pdfrwt>
<totfact> 0.26699203E+03</totfact>
</mgrwt>
</event>
<event>
 6    1  0.6095443E-006  0.2469280E+03  0.7546771E-02  0.1150693E+00
          2   -1    0    0  501    0  0.00000000000E+00  0.00000000000E+00  0.25786849741E+03  0.25786849741E+03  0.00000000000E+00 0. -1.
         -2   -1    0    0    0  501 -0.00000000000E+00 -0.00000000000E+00 -0.12173476177E+03  0.12173476177E+03  0.00000000000E+00 0.  1.
          5    1    1    2  502    0  0.21409931151E+02 -0.71412538458E+02  0.18425303213E+03  0.19882003332E+03  0.47000000000E+01 0. -1.
         -5    1    1    2    0  502 -0.33082011301E+02  0.20839423438E+02 -0.64533271018E+02  0.75599828764E+02  0.47000000000E+01 0.  1.
        -11    1    1    2    0    0  0.38749121897E+02  0.61217119579E+02  0.21663291466E+02  0.75619629558E+02  0.00000000000E+00 0.  1.
         11    1    1    2    0    0 -0.27077041747E+02 -0.10644004559E+02 -0.52493169399E+01  0.29563767539E+02  0.00000000000E+00 0. -1.
<mgrwt>
<rscale>  0 0.19887318E+03</rscale>
<asrwt>0</asrwt>
<pdfrwt beam="1">  1        2 0.39672076E-01 0.24692800E+03</pdfrwt>
<pdfrwt beam="2">  1       -2 0.18728425E-01 0.24692800E+03</pdfrwt>
<totfact> 0.30101111E+03</totfact>
</mgrwt>
</event>
<event>
 7    1  0.6095443E-006  0.1347563E+03  0.7546771E-02  0.1229795E+00
         -2   -1    0    0    0  501 -0.00000000000E+00  0.00000000000E+00  0.43812987429E+02  0.43812987429E+02  0.00000000000E+00 0. -1.
          2   -1    0    0  501    0  0.00000000000E+00 -0.00000000000E+00 -0.35746339983E+03  0.35746339983E+03  0.00000000000E+00 0.  1.
         23    2    1    2    0    0  0.44257958619E+02  0.24002643142E+02 -0.20835691029E+03  0.24813676696E+03  0.12499743706E+03 0.  0.
          5    1    3    3  502    0 -0.37329945700E+02 -0.12767917233E+02 -0.34834409190E+02  0.52840047502E+02  0.47000000000E+01 0.  1.
         -5    1    3    3    0  502  0.81587904319E+02  0.36770560376E+02 -0.17352250110E+03  0.19529671946E+03  0.47000000000E+01 0.  1.
        -11    1    1    2    0    0  0.14575456186E+02 -0.21684498045E+02 -0.87965381029E+02  0.91763661861E+02  0.00000000000E+00 0.  1.
         11    1    1    2    0    0 -0.58833414806E+02 -0.23181450972E+01 -0.17328121081E+02  0.61375958441E+02  0.00000000000E+00 0. -1.
<mgrwt>
<rscale>  0 0.12843580E+03</rscale>
<asrwt>0</asrwt>
<pdfrwt beam="2">  1        2 0.54994370E-01 0.13475627E+03</pdfrwt>
<pdfrwt beam="1">  1       -2 0.67404595E-02 0.13475627E+03</pdfrwt>
<totfact> 0.10565252E+04</totfact>
</mgrwt>
</event>
<event>
 7    1  0.6095443E-006  0.1319752E+03  0.7546771E-02  0.1237438E+00
          2   -1    0    0  501    0  0.00000000000E+00  0.00000000000E+00  0.12699482080E+03  0.12699482080E+03  0.00000000000E+00 0.  1.
         -2   -1    0    0    0  501 -0.00000000000E+00 -0.00000000000E+00 -0.10745347331E+03  0.10745347331E+03  0.00000000000E+00 0. -1.
         23    2    1    2    0    0  0.41616352690E+02  0.78199505324E+01  0.37104823387E+01  0.13202734324E+03  0.12499751696E+03 0.  0.
          5    1    3    3  502    0 -0.30287591539E+02  0.41759861827E+02  0.72101765324E+01  0.52300104270E+02  0.47000000000E+01 0.  1.
         -5    1    3    3    0  502  0.71903944228E+02 -0.33939911295E+02 -0.34996941937E+01  0.79727238970E+02  0.47000000000E+01 0.  1.
        -11    1    1    2    0    0 -0.15990965968E+02 -0.41647756799E+02  0.34165356823E+02  0.56191798741E+02  0.00000000000E+00 0.  1.
         11    1    1    2    0    0 -0.25625386722E+02  0.33827806266E+02 -0.18334491678E+02  0.46229152129E+02  0.00000000000E+00 0. -1.
<mgrwt>
<rscale>  0 0.12349624E+03</rscale>
<asrwt>0</asrwt>
<pdfrwt beam="1">  1        2 0.19537665E-01 0.13197519E+03</pdfrwt>
<pdfrwt beam="2">  1       -2 0.16531304E-01 0.13197519E+03</pdfrwt>
<totfact> 0.78275047E+03</totfact>
</mgrwt>
</event>
<event>
 7    1  0.6095443E-006  0.1309882E+03  0.7546771E-02  0.1234828E+00
          2   -1    0    0  501    0  0.00000000000E+00  0.00000000000E+00  0.37336806800E+03  0.37336806800E+03  0.00000000000E+00 0. -1.
         -2   -1    0    0    0  501 -0.00000000000E+00 -0.00000000000E+00 -0.49578422043E+02  0.49578422043E+02  0.00000000000E+00 0.  1.
         23    2    1    2    0    0  0.30928107716E+02 -0.56026451681E+02  0.74239292265E+02  0.15056357939E+03  0.11429089109E+03 0.  0.
          5    1    3    3  502    0  0.51574123479E+02 -0.25515958571E+02  0.92609128641E+02  0.10913063301E+03  0.47000000000E+01 0. -1.
         -5    1    3    3    0  502 -0.20646015763E+02 -0.30510493110E+02 -0.18369836376E+02  0.41432946373E+02  0.47000000000E+01 0.  1.
        -11    1    1    2    0    0 -0.48748253505E+02  0.64017907695E+02  0.14324041887E+03  0.16429395097E+03  0.00000000000E+00 0. -1.
         11    1    1    2    0    0  0.17820145790E+02 -0.79914560140E+01  0.10630993482E+03  0.10808895969E+03  0.00000000000E+00 0.  1.
<mgrwt>
<rscale>  0 0.12515420E+03</rscale>
<asrwt>0</asrwt>
<pdfrwt beam="1">  1        2 0.57441240E-01 0.13098824E+03</pdfrwt>
<pdfrwt beam="2">  1       -2 0.76274498E-02 0.13098824E+03</pdfrwt>
<totfact> 0.83297544E+03</totfact>
</mgrwt>
</event>
<event>
 7    1  0.6095443E-006  0.1280888E+03  0.7546771E-02  0.1242691E+00
          2   -1    0    0  501    0  0.00000000000E+00  0.00000000000E+00  0.15017329058E+02  0.15017329058E+02  0.00000000000E+00 0. -1.
         -2   -1    0    0    0  501 -0.00000000000E+00 -0.00000000000E+00 -0.87335723230E+03  0.87335723230E+03  0.00000000000E+00 0.  1.
         23    2    1    2    0    0  0.20907231930E+02 -0.18503702589E+02 -0.53231332192E+03  0.54750727520E+03  0.12500897705E+03 0.  0.
          5    1    3    3  502    0  0.51722205539E+02 -0.52228609188E+02 -0.22416385394E+03  0.23595452438E+03  0.47000000000E+01 0. -1.
         -5    1    3    3    0  502 -0.30814973609E+02  0.33724906599E+02 -0.30814946799E+03  0.31155275082E+03  0.47000000000E+01 0. -1.
        -11    1    1    2    0    0 -0.51745269718E+02 -0.14538810307E+02 -0.15930922528E+03  0.16813202908E+03  0.00000000000E+00 0.  1.
         11    1    1    2    0    0  0.30838037788E+02  0.33042512896E+02 -0.16671735604E+03  0.17273525708E+03  0.00000000000E+00 0. -1.
<mgrwt>
<rscale>  0 0.12024646E+03</rscale>
<asrwt>0</asrwt>
<pdfrwt beam="1">  1        2 0.23103585E-02 0.12808881E+03</pdfrwt>
<pdfrwt beam="2">  1       -2 0.13436264E+00 0.12808881E+03</pdfrwt>
<totfact> 0.17988183E+03</totfact>
</mgrwt>
</event>
<event>
 7    1  0.6095443E-006  0.1692931E+03  0.7546771E-02  0.1181711E+00
         -1   -1    0    0    0  501 -0.00000000000E+00  0.00000000000E+00  0.46807003417E+03  0.46807003417E+03  0.00000000000E+00 0.  1.
          1   -1    0    0  501    0  0.00000000000E+00 -0.00000000000E+00 -0.11208212435E+03  0.11208212435E+03  0.00000000000E+00 0. -1.
         23    2    1    2    0    0 -0.99820625590E+00 -0.12689662606E+03  0.38419107802E+03  0.41983680119E+03  0.11205536614E+03 0.  0.
          5    1    3    3  502    0 -0.34519595968E+02 -0.16856346591E+02  0.35088196854E+02  0.52239931897E+02  0.47000000000E+01 0. -1.
         -5    1    3    3    0  502  0.33521389712E+02 -0.11004027947E+03  0.34910288117E+03  0.36759686929E+03  0.47000000000E+01 0.  1.
        -11    1    1    2    0    0  0.33087570882E+02  0.14017272639E+02  0.92968880704E+01  0.37117427267E+02  0.00000000000E+00 0.  1.
         11    1    1    2    0    0 -0.32089364626E+02  0.11287935342E+03 -0.37500056277E+02  0.12319793006E+03  0.00000000000E+00 0. -1.
<mgrwt>
<rscale>  0 0.16634761E+03</rscale>
<asrwt>0</asrwt>
<pdfrwt beam="2">  1        1 0.17243404E-01 0.16929310E+03</pdfrwt>
<pdfrwt beam="1">  1       -1 0.72010773E-01 0.16929310E+03</pdfrwt>
<totfact> 0.62727247E+02</totfact>
</mgrwt>
</event>
<event>
 7    1  0.6095443E-006  0.1334864E+03  0.7546771E-02  0.1232479E+00
         -2   -1    0    0    0  501 -0.00000000000E+00  0.00000000000E+00  0.12044771561E+03  0.12044771561E+03  0.00000000000E+00 0.  1.
          2   -1    0    0  501    0  0.00000000000E+00 -0.00000000000E+00 -0.12183275850E+03  0.12183275850E+03  0.00000000000E+00 0. -1.
         23    2    1    2    0    0 -0.19609648325E+02 -0.42550661517E+02  0.73122631261E+01  0.13368654980E+03  0.12499410907E+03 0.  0.
          5    1    3    3  502    0  0.53128093517E+02 -0.18583321121E+02  0.73596260374E+01  0.56957775940E+02  0.47000000000E+01 0.  1.
         -5    1    3    3    0  502 -0.72737741842E+02 -0.23967340397E+02 -0.47362911306E-01  0.76728773855E+02  0.47000000000E+01 0.  1.
        -11    1    1    2    0    0 -0.33971059126E+02  0.35419760426E+02 -0.20633691009E+02  0.53238533896E+02  0.00000000000E+00 0.  1.
         11    1    1    2    0    0  0.53580707451E+02  0.71309010913E+01  0.11936384997E+02  0.55355390416E+02  0.00000000000E+00 0. -1.
<mgrwt>
<rscale>  0 0.12667177E+03</rscale>
<asrwt>0</asrwt>
<pdfrwt beam="2">  1        2 0.18743501E-01 0.13348642E+03</pdfrwt>
<pdfrwt beam="1">  1       -2 0.18530418E-01 0.13348642E+03</pdfrwt>
<totfact> 0.67926392E+03</totfact>
</mgrwt>
</event>
<event>
 7    1  0.6095443E-006  0.1564178E+03  0.7546771E-02  0.1201315E+00
         -1   -1    0    0    0  501 -0.00000000000E+00  0.00000000000E+00  0.13380521333E+03  0.13380521333E+03  0.00000000000E+00 0.  1.
          1   -1    0    0  501    0  0.00000000000E+00 -0.00000000000E+00 -0.15769948581E+03  0.15769948581E+03  0.00000000000E+00 0. -1.
         23    2    1    2    0    0  0.64745512614E+02  0.68181305436E+02  0.11612560436E+02  0.15684829333E+03  0.12500345494E+03 0.  0.
          5    1    3    3  502    0  0.16887430932E+02  0.35799643490E+02 -0.55392560130E+02  0.68243867968E+02  0.47000000000E+01 0. -1.
         -5    1    3    3    0  502  0.47858081682E+02  0.32381661945E+02  0.67005120565E+02  0.88604425367E+02  0.47000000000E+01 0. -1.
        -11    1    1    2    0    0  0.17516908927E+02 -0.18868592782E+02  0.11081085740E+02  0.28029562129E+02  0.00000000000E+00 0.  1.
         11    1    1    2    0    0 -0.82262421542E+02 -0.49312712654E+02 -0.46587918660E+02  0.10662684368E+03  0.00000000000E+00 0. -1.
<mgrwt>
<rscale>  0 0.14931700E+03</rscale>
<asrwt>0</asrwt>
<pdfrwt beam="2">  1        1 0.24261459E-01 0.15641782E+03</pdfrwt>
<pdfrwt beam="1">  1       -1 0.20585418E-01 0.15641782E+03</pdfrwt>
<totfact> 0.37061118E+03</totfact>
</mgrwt>
</event>
<event>
 7    1  0.6095443E-006  0.1492664E+03  0.7546771E-02  0.1211395E+00
         -4   -1    0    0    0  501 -0.00000000000E+00  0.00000000000E+00  0.12009174749E+04  0.12009174749E+04  0.00000000000E+00 0.  1.
          4   -1    0    0  501    0  0.00000000000E+00 -0.00000000000E+00 -0.16460503254E+02  0.16460503254E+02  0.00000000000E+00 0. -1.
         23    2    1    2    0    0  0.21485722506E+02 -0.78709420454E+02  0.82246916482E+03  0.83590429425E+03  0.12499461158E+03 0.  0.
          5    1    3    3  502    0  0.29215739576E+01  0.18079951478E+02  0.20499231665E+02  0.27887788344E+02  0.47000000000E+01 0. -1.
         -5    1    3    3    0  502  0.18564148549E+02 -0.96789371932E+02  0.80196993315E+03  0.80801650590E+03  0.47000000000E+01 0. -1.
        -11    1    1    2    0    0 -0.35258136611E+02  0.93402077637E+02  0.31192331463E+03  0.32751066932E+03  0.00000000000E+00 0.  1.
         11    1    1    2    0    0  0.13772414105E+02 -0.14692657183E+02  0.50064492228E+02  0.53963014625E+02  0.00000000000E+00 0. -1.
<mgrwt>
<rscale>  0 0.14144704E+03</rscale>
<asrwt>0</asrwt>
<pdfrwt beam="2">  1        4 0.25323861E-02 0.14926641E+03</pdfrwt>
<pdfrwt beam="1">  1       -4 0.18475647E+00 0.14926641E+03</pdfrwt>
<totfact> 0.21869722E+02</totfact>
</mgrwt>
</event>
<event>
 7    1  0.6095443E-006  0.1365841E+03  0.7546771E-02  0.1230151E+00
         -3   -1    0    0    0  501 -0.00000000000E+00  0.00000000000E+00  0.92646288750E+03  0.92646288750E+03  0.00000000000E+00 0.  1.
          3   -1    0    0  501    0  0.00000000000E+00 -0.00000000000E+00 -0.18341198755E+02  0.18341198755E+02  0.00000000000E+00 0. -1.
         23    2    1    2    0    0  0.36089036290E+02  0.41603058900E+02  0.67542209182E+03  0.68909376331E+03  0.12498791724E+03 0.  0.
          5    1    3    3  502    0  0.32303628113E+02  0.56443143955E+02  0.15160650552E+03  0.16503325545E+03  0.47000000000E+01 0.  1.
         -5    1    3    3    0  502  0.37854081769E+01 -0.14840085055E+02  0.52381558630E+03  0.52406050786E+03  0.47000000000E+01 0.  1.
        -11    1    1    2    0    0 -0.28087932681E+02  0.24267197926E+02  0.58296161701E+02  0.69110573189E+02  0.00000000000E+00 0. -1.
         11    1    1    2    0    0 -0.80011036089E+01 -0.65870256825E+02  0.17440343522E+03  0.18659974976E+03  0.00000000000E+00 0.  1.
<mgrwt>
<rscale>  0 0.12820041E+03</rscale>
<asrwt>0</asrwt>
<pdfrwt beam="2">  1        3 0.28217236E-02 0.13658409E+03</pdfrwt>
<pdfrwt beam="1">  1       -3 0.14253272E+00 0.13658409E+03</pdfrwt>
<totfact> 0.50748748E+02</totfact>
</mgrwt>
</event>
<event>
 7    1  0.6095443E-006  0.1679157E+03  0.7546771E-02  0.1186883E+00
          3   -1    0    0  501    0  0.00000000000E+00  0.00000000000E+00  0.19518827657E+03  0.19518827657E+03  0.00000000000E+00 0. -1.
         -3   -1    0    0    0  501 -0.00000000000E+00 -0.00000000000E+00 -0.12958926552E+03  0.12958926552E+03  0.00000000000E+00 0.  1.
         23    2    1    2    0    0 -0.35905551099E+02  0.10621247754E+03  0.37416882550E+01  0.16795734006E+03  0.12500147546E+03 0.  0.
          5    1    3    3  502    0 -0.32222971922E+02  0.34375355118E+01 -0.43697329238E+02  0.54604790563E+02  0.47000000000E+01 0. -1.
         -5    1    3    3    0  502 -0.36825791775E+01  0.10277494202E+03  0.47439017493E+02  0.11335254950E+03  0.47000000000E+01 0. -1.
        -11    1    1    2    0    0 -0.25432986224E+02 -0.61488054878E+02  0.17125687263E+02  0.68708855654E+02  0.00000000000E+00 0.  1.
         11    1    1    2    0    0  0.61338537324E+02 -0.44724422657E+02  0.44731635529E+02  0.88111346375E+02  0.00000000000E+00 0. -1.
<mgrwt>
<rscale>  0 0.16161741E+03</rscale>
<asrwt>0</asrwt>
<pdfrwt beam="1">  1        3 0.30028966E-01 0.16791566E+03</pdfrwt>
<pdfrwt beam="2">  1       -3 0.19936810E-01 0.16791566E+03</pdfrwt>
<totfact> 0.57730652E+02</totfact>
</mgrwt>
</event>
<event>
 7    1  0.6095443E-006  0.1279739E+03  0.7546771E-02  0.1245562E+00
         -1   -1    0    0    0  501 -0.00000000000E+00  0.00000000000E+00  0.61031357598E+02  0.61031357598E+02  0.00000000000E+00 0.  1.
          1   -1    0    0  501    0  0.00000000000E+00 -0.00000000000E+00 -0.20789375215E+03  0.20789375215E+03  0.00000000000E+00 0. -1.
         23    2    1    2    0    0 -0.27459506061E+02  0.12918155389E+01 -0.62088226393E+02  0.14224020640E+03  0.12498654007E+03 0.  0.
          5    1    3    3  502    0  0.34012705117E+02 -0.29046874230E+02  0.61599814133E+01  0.45394056691E+02  0.47000000000E+01 0.  1.
         -5    1    3    3    0  502 -0.61472211178E+02  0.30338689769E+02 -0.68248207806E+02  0.96846149705E+02  0.47000000000E+01 0.  1.
        -11    1    1    2    0    0 -0.72780578485E+01  0.18787008765E+02 -0.84180012794E+02  0.86557474423E+02  0.00000000000E+00 0. -1.
         11    1    1    2    0    0  0.34737563909E+02 -0.20078824304E+02 -0.59415536427E+00  0.40127428928E+02  0.00000000000E+00 0.  1.
<mgrwt>
<rscale>  0 0.11851821E+03</rscale>
<asrwt>0</asrwt>
<pdfrwt beam="2">  1        1 0.31983654E-01 0.12797394E+03</pdfrwt>
<pdfrwt beam="1">  1       -1 0.93894397E-02 0.12797394E+03</pdfrwt>
<totfact> 0.88309836E+03</totfact>
</mgrwt>
</event>
<event>
 7    1  0.6095443E-006  0.1302500E+03  0.7546771E-02  0.1231664E+00
          1   -1    0    0  501    0  0.00000000000E+00  0.00000000000E+00  0.92190993855E+02  0.92190993855E+02  0.00000000000E+00 0. -1.
         -1   -1    0    0    0  501 -0.00000000000E+00 -0.00000000000E+00 -0.16797436173E+03  0.16797436173E+03  0.00000000000E+00 0.  1.
         23    2    1    2    0    0 -0.16787377859E+01  0.36575288511E+02 -0.44131864327E+02  0.13752340164E+03  0.12499797862E+03 0.  0.
          5    1    3    3  502    0  0.14315800595E+02 -0.41387762609E+02  0.42762652111E+01  0.44252293552E+02  0.47000000000E+01 0.  1.
         -5    1    3    3    0  502 -0.15994538381E+02  0.77963051120E+02 -0.48408129538E+02  0.93271108084E+02  0.47000000000E+01 0.  1.
        -11    1    1    2    0    0 -0.46731592220E+02  0.13634604861E+00  0.11494039486E+02  0.48124559690E+02  0.00000000000E+00 0. -1.
         11    1    1    2    0    0  0.48410330006E+02 -0.36711634559E+02 -0.43145543033E+02  0.74517394257E+02  0.00000000000E+00 0.  1.
<mgrwt>
<rscale>  0 0.12720414E+03</rscale>
<asrwt>0</asrwt>
<pdfrwt beam="1">  1        1 0.14183230E-01 0.13025001E+03</pdfrwt>
<pdfrwt beam="2">  1       -1 0.25842209E-01 0.13025001E+03</pdfrwt>
<totfact> 0.50290888E+03</totfact>
</mgrwt>
</event>
<event>
 7    1  0.6095443E-006  0.1261004E+03  0.7546771E-02  0.1248496E+00
         -4   -1    0    0    0  501 -0.00000000000E+00  0.00000000000E+00  0.13289645540E+03  0.13289645540E+03  0.00000000000E+00 0. -1.
          4   -1    0    0  501    0  0.00000000000E+00 -0.00000000000E+00 -0.90607415787E+02  0.90607415787E+02  0.00000000000E+00 0.  1.
         23    2    1    2    0    0  0.74002495052E+01 -0.14665930064E+02  0.32486894242E+02  0.13021793525E+03  0.12502583399E+03 0.  0.
          5    1    3    3  502    0 -0.92062662832E+01 -0.50347762629E+02 -0.27520277663E+02  0.58301871524E+02  0.47000000000E+01 0. -1.
         -5    1    3    3    0  502  0.16606515788E+02  0.35681832565E+02  0.60007171905E+02  0.71916063726E+02  0.47000000000E+01 0. -1.
        -11    1    1    2    0    0 -0.46782729022E+02  0.22896890981E+02  0.96982074765E+00  0.52094451755E+02  0.00000000000E+00 0.  1.
         11    1    1    2    0    0  0.39382479517E+02 -0.82309609174E+01  0.88323246191E+01  0.41191484177E+02  0.00000000000E+00 0. -1.
<mgrwt>
<rscale>  0 0.11678544E+03</rscale>
<asrwt>0</asrwt>
<pdfrwt beam="2">  1        4 0.13939602E-01 0.12610041E+03</pdfrwt>
<pdfrwt beam="1">  1       -4 0.20445609E-01 0.12610041E+03</pdfrwt>
<totfact> 0.15043938E+03</totfact>
</mgrwt>
</event>
<event>
 7    1  0.6095443E-006  0.1252104E+03  0.7546771E-02  0.1249773E+00
         -1   -1    0    0    0  501 -0.00000000000E+00  0.00000000000E+00  0.99656546329E+02  0.99656546329E+02  0.00000000000E+00 0.  1.
          1   -1    0    0  501    0  0.00000000000E+00 -0.00000000000E+00 -0.11878272506E+03  0.11878272506E+03  0.00000000000E+00 0. -1.
         23    2    1    2    0    0 -0.56603579159E+01  0.45186045713E+01 -0.96296892713E+01  0.12558016485E+03  0.12500075780E+03 0.  0.
          5    1    3    3  502    0  0.44758824390E+02  0.10320192660E+02 -0.44259545292E+02  0.63959800552E+02  0.47000000000E+01 0. -1.
         -5    1    3    3    0  502 -0.50419182306E+02 -0.58015880886E+01  0.34629856020E+02  0.61620364302E+02  0.47000000000E+01 0. -1.
        -11    1    1    2    0    0 -0.29851479545E+02  0.15489400384E+02 -0.31894926210E+02  0.46349958719E+02  0.00000000000E+00 0. -1.
         11    1    1    2    0    0  0.35511837461E+02 -0.20008004955E+02  0.22398436747E+02  0.46509147819E+02  0.00000000000E+00 0.  1.
<mgrwt>
<rscale>  0 0.11604213E+03</rscale>
<asrwt>0</asrwt>
<pdfrwt beam="2">  1        1 0.18274265E-01 0.12521041E+03</pdfrwt>
<pdfrwt beam="1">  1       -1 0.15331776E-01 0.12521041E+03</pdfrwt>
<totfact> 0.83613658E+03</totfact>
</mgrwt>
</event>
<event>
 7    1  0.6095443E-006  0.1311707E+03  0.7546771E-02  0.1239791E+00
         -2   -1    0    0    0  501 -0.00000000000E+00  0.00000000000E+00  0.51583696867E+02  0.51583696867E+02  0.00000000000E+00 0.  1.
          2   -1    0    0  501    0  0.00000000000E+00 -0.00000000000E+00 -0.26018275987E+03  0.26018275987E+03  0.00000000000E+00 0. -1.
         23    2    1    2    0    0  0.38735669253E+02  0.89651168468E+01 -0.97359282224E+02  0.16335413543E+03  0.12499967334E+03 0.  0.
          5    1    3    3  502    0  0.42028461068E+02  0.11617488531E+02 -0.12631718469E+03  0.13371416801E+03  0.47000000000E+01 0. -1.
         -5    1    3    3    0  502 -0.32927918150E+01 -0.26523716842E+01  0.28957902466E+02  0.29639967421E+02  0.47000000000E+01 0. -1.
        -11    1    1    2    0    0 -0.66740218176E+02 -0.14839207366E+02 -0.67004407329E+02  0.95729041565E+02  0.00000000000E+00 0.  1.
         11    1    1    2    0    0  0.28004548923E+02  0.58740905193E+01 -0.44235373454E+02  0.52683279742E+02  0.00000000000E+00 0. -1.
<mgrwt>
<rscale>  0 0.12202654E+03</rscale>
<asrwt>0</asrwt>
<pdfrwt beam="2">  1        2 0.40028117E-01 0.13117067E+03</pdfrwt>
<pdfrwt beam="1">  1       -2 0.79359533E-02 0.13117067E+03</pdfrwt>
<totfact> 0.11491831E+04</totfact>
</mgrwt>
</event>
<event>
 7    1  0.6095443E-006  0.1260039E+03  0.7546771E-02  0.1248893E+00
          1   -1    0    0  501    0  0.00000000000E+00  0.00000000000E+00  0.15074538387E+03  0.15074538387E+03  0.00000000000E+00 0. -1.
         -1   -1    0    0    0  501 -0.00000000000E+00 -0.00000000000E+00 -0.92063581546E+02  0.92063581546E+02  0.00000000000E+00 0.  1.
         23    2    1    2    0    0  0.12729397463E+02  0.99881691524E+01 -0.12030644107E+02  0.12657689157E+03  0.12496068181E+03 0.  0.
          5    1    3    3  502    0 -0.15026629268E+02 -0.52087182818E+01 -0.63690227013E+02  0.65813868981E+02  0.47000000000E+01 0. -1.
         -5    1    3    3    0  502  0.27756026732E+02  0.15196887434E+02  0.51659582905E+02  0.60763022584E+02  0.47000000000E+01 0. -1.
        -11    1    1    2    0    0 -0.13804799835E+02  0.29654127674E+02 -0.26708431786E+01  0.32818793242E+02  0.00000000000E+00 0.  1.
         11    1    1    2    0    0  0.10754023718E+01 -0.39642296827E+02  0.73383289611E+02  0.83413280610E+02  0.00000000000E+00 0. -1.
<mgrwt>
<rscale>  0 0.11655390E+03</rscale>
<asrwt>0</asrwt>
<pdfrwt beam="1">  1        1 0.23191598E-01 0.12600386E+03</pdfrwt>
<pdfrwt beam="2">  1       -1 0.14163628E-01 0.12600386E+03</pdfrwt>
<totfact> 0.70019626E+03</totfact>
</mgrwt>
</event>
<event>
 7    1  0.6095443E-006  0.1746686E+03  0.7546771E-02  0.1178678E+00
         -1   -1    0    0    0  501 -0.00000000000E+00  0.00000000000E+00  0.81800523143E+02  0.81800523143E+02  0.00000000000E+00 0.  1.
          1   -1    0    0  501    0  0.00000000000E+00 -0.00000000000E+00 -0.32984245023E+03  0.32984245023E+03  0.00000000000E+00 0. -1.
         23    2    1    2    0    0 -0.52072638574E+01  0.12189295614E+03 -0.12926620708E+03  0.21729900809E+03  0.12499639303E+03 0.  0.
          5    1    3    3  502    0 -0.16808280503E+01  0.13965780554E+03 -0.13822032636E+03  0.19655553019E+03  0.47000000000E+01 0. -1.
         -5    1    3    3    0  502 -0.35264358070E+01 -0.17764849397E+02  0.89541192723E+01  0.20743477904E+02  0.47000000000E+01 0. -1.
        -11    1    1    2    0    0  0.38135032064E+02 -0.67814796838E+02 -0.10302180688E+03  0.12909926426E+03  0.00000000000E+00 0. -1.
         11    1    1    2    0    0 -0.32927768207E+02 -0.54078159302E+02 -0.15753913130E+02  0.65244701022E+02  0.00000000000E+00 0.  1.
<mgrwt>
<rscale>  0 0.16920659E+03</rscale>
<asrwt>0</asrwt>
<pdfrwt beam="2">  1        1 0.50744992E-01 0.17466856E+03</pdfrwt>
<pdfrwt beam="1">  1       -1 0.12584696E-01 0.17466856E+03</pdfrwt>
<totfact> 0.32311422E+03</totfact>
</mgrwt>
</event>
<event>
 7    1  0.6095443E-006  0.1543472E+03  0.7546771E-02  0.1203145E+00
         -2   -1    0    0    0  501 -0.00000000000E+00  0.00000000000E+00  0.80348939378E+02  0.80348939378E+02  0.00000000000E+00 0.  1.
          2   -1    0    0  501    0  0.00000000000E+00 -0.00000000000E+00 -0.28358448290E+03  0.28358448290E+03  0.00000000000E+00 0. -1.
         23    2    1    2    0    0  0.74947624529E+02  0.50892320471E+02 -0.48311185796E+02  0.16173134844E+03  0.12496352943E+03 0.  0.
          5    1    3    3  502    0  0.28382310814E+02 -0.32062841608E+02 -0.50604706043E+02  0.66456810432E+02  0.47000000000E+01 0.  1.
         -5    1    3    3    0  502  0.46565313715E+02  0.82955162079E+02  0.22935202469E+01  0.95274538005E+02  0.47000000000E+01 0.  1.
        -11    1    1    2    0    0 -0.46222108834E+02 -0.82559561303E+00 -0.11558692172E+02  0.47652579342E+02  0.00000000000E+00 0.  1.
         11    1    1    2    0    0 -0.28725515695E+02 -0.50066724858E+02 -0.14336566555E+03  0.15454949450E+03  0.00000000000E+00 0. -1.
<mgrwt>
<rscale>  0 0.14784576E+03</rscale>
<asrwt>0</asrwt>
<pdfrwt beam="2">  1        2 0.43628381E-01 0.15434720E+03</pdfrwt>
<pdfrwt beam="1">  1       -2 0.12361376E-01 0.15434720E+03</pdfrwt>
<totfact> 0.52819704E+03</totfact>
</mgrwt>
</event>
<event>
 7    1  0.6095443E-006  0.3912413E+03  0.7546771E-02  0.1047694E+00
         -2   -1    0    0    0  501 -0.00000000000E+00  0.00000000000E+00  0.20068612980E+03  0.20068612980E+03  0.00000000000E+00 0.  1.
          2   -1    0    0  501    0  0.00000000000E+00 -0.00000000000E+00 -0.83421512832E+03  0.83421512832E+03  0.00000000000E+00 0. -1.
         23    2    1    2    0    0 -0.34188978511E+03 -0.14336846134E+03 -0.15067910650E+03  0.41925401008E+03  0.12500636368E+03 0.  0.
          5    1    3    3  502    0 -0.91729077569E+02 -0.47420225493E+02 -0.10513639727E+03  0.14744033874E+03  0.47000000000E+01 0. -1.
         -5    1    3    3    0  502 -0.25016070754E+03 -0.95948235842E+02 -0.45542709229E+02  0.27181367133E+03  0.47000000000E+01 0. -1.
        -11    1    1    2    0    0  0.22925060954E+03  0.99441612316E+02 -0.25108471404E+03  0.35424286847E+03  0.00000000000E+00 0.  1.
         11    1    1    2    0    0  0.11263917557E+03  0.43926849020E+02 -0.23176517797E+03  0.26140437957E+03  0.00000000000E+00 0. -1.
<mgrwt>
<rscale>  0 0.38889471E+03</rscale>
<asrwt>0</asrwt>
<pdfrwt beam="2">  1        2 0.12834079E+00 0.39124127E+03</pdfrwt>
<pdfrwt beam="1">  1       -2 0.30874789E-01 0.39124127E+03</pdfrwt>
<totfact> 0.32504740E+02</totfact>
</mgrwt>
</event>
<event>
 7    1  0.6095443E-006  0.1383363E+03  0.7546771E-02  0.1226689E+00
          1   -1    0    0  501    0  0.00000000000E+00  0.00000000000E+00  0.19702586676E+03  0.19702586676E+03  0.00000000000E+00 0. -1.
         -1   -1    0    0    0  501 -0.00000000000E+00 -0.00000000000E+00 -0.80544605100E+02  0.80544605100E+02  0.00000000000E+00 0.  1.
         23    2    1    2    0    0 -0.53692861968E+02  0.25079090235E+02  0.40318105685E+02  0.14409189263E+03  0.12500015873E+03 0.  0.
          5    1    3    3  502    0  0.43863539643E+00  0.16617933878E+02  0.76394928517E+02  0.78323835647E+02  0.47000000000E+01 0.  1.
         -5    1    3    3    0  502 -0.54131497364E+02  0.84611563567E+01 -0.36076822832E+02  0.65768056984E+02  0.47000000000E+01 0.  1.
        -11    1    1    2    0    0  0.23004082445E+01  0.31396136428E+02  0.33663447514E+02  0.46089445204E+02  0.00000000000E+00 0. -1.
         11    1    1    2    0    0  0.51392453723E+02 -0.56475226663E+02  0.42499708460E+02  0.87389134024E+02  0.00000000000E+00 0.  1.
<mgrwt>
<rscale>  0 0.13051809E+03</rscale>
<asrwt>0</asrwt>
<pdfrwt beam="1">  1        1 0.30311672E-01 0.13833627E+03</pdfrwt>
<pdfrwt beam="2">  1       -1 0.12391478E-01 0.13833627E+03</pdfrwt>
<totfact> 0.62049077E+03</totfact>
</mgrwt>
</event>
<event>
 7    1  0.6095443E-006  0.1412647E+03  0.7546771E-02  0.1222061E+00
          2   -1    0    0  501    0  0.00000000000E+00  0.00000000000E+00  0.17827285928E+03  0.17827285928E+03  0.00000000000E+00 0. -1.
         -2   -1    0    0    0  501 -0.00000000000E+00 -0.00000000000E+00 -0.93015663642E+02  0.93015663642E+02  0.00000000000E+00 0.  1.
         23    2    1    2    0    0 -0.65419785544E+02  0.71248291617E+01  0.26961809501E+02  0.14381462808E+03  0.12500078618E+03 0.  0.
          5    1    3    3  502    0 -0.48664168231E+02  0.37952802748E+02  0.66431183931E+02  0.90795422267E+02  0.47000000000E+01 0. -1.
         -5    1    3    3    0  502 -0.16755617313E+02 -0.30827973586E+02 -0.39469374431E+02  0.53019205812E+02  0.47000000000E+01 0. -1.
        -11    1    1    2    0    0  0.80561830795E+02  0.39237600339E+01  0.17436426770E+02  0.82520503224E+02  0.00000000000E+00 0.  1.
         11    1    1    2    0    0 -0.15142045251E+02 -0.11048589196E+02  0.40858959367E+02  0.44953391620E+02  0.00000000000E+00 0. -1.
<mgrwt>
<rscale>  0 0.13370367E+03</rscale>
<asrwt>0</asrwt>
<pdfrwt beam="1">  1        2 0.27426594E-01 0.14126467E+03</pdfrwt>
<pdfrwt beam="2">  1       -2 0.14310102E-01 0.14126467E+03</pdfrwt>
<totfact> 0.68313753E+03</totfact>
</mgrwt>
</event>
<event>
 7    1  0.6095443E-006  0.2315284E+03  0.7546771E-02  0.1128463E+00
         -2   -1    0    0    0  501 -0.00000000000E+00  0.00000000000E+00  0.28601005277E+03  0.28601005277E+03  0.00000000000E+00 0.  1.
          2   -1    0    0  501    0  0.00000000000E+00 -0.00000000000E+00 -0.20964289945E+03  0.20964289945E+03  0.00000000000E+00 0. -1.
         23    2    1    2    0    0 -0.15089600165E+03 -0.12333495628E+03  0.14041435916E+03  0.27077960946E+03  0.12499715952E+03 0.  0.
          5    1    3    3  502    0 -0.12770818870E+03 -0.24785680615E+02  0.79615230276E+02  0.15259222234E+03  0.47000000000E+01 0.  1.
         -5    1    3    3    0  502 -0.23187812949E+02 -0.98549275662E+02  0.60799128886E+02  0.11818738713E+03  0.47000000000E+01 0.  1.
        -11    1    1    2    0    0  0.13439991310E+03  0.55018873383E+02 -0.40777924892E+02  0.15084181194E+03  0.00000000000E+00 0.  1.
         11    1    1    2    0    0  0.16496088552E+02  0.68316082894E+02 -0.23269280959E+02  0.74031530822E+02  0.00000000000E+00 0. -1.
<mgrwt>
<rscale>  0 0.22742861E+03</rscale>
<asrwt>0</asrwt>
<pdfrwt beam="2">  1        2 0.32252754E-01 0.23152841E+03</pdfrwt>
<pdfrwt beam="1">  1       -2 0.44001547E-01 0.23152841E+03</pdfrwt>
<totfact> 0.80111379E+02</totfact>
</mgrwt>
</event>
<event>
 6    1  0.6095443E-006  0.1519702E+03  0.7546771E-02  0.1210798E+00
          2   -1    0    0  501    0  0.00000000000E+00  0.00000000000E+00  0.34667391135E+02  0.34667391135E+02  0.00000000000E+00 0. -1.
         -2   -1    0    0    0  501 -0.00000000000E+00 -0.00000000000E+00 -0.66172479933E+03  0.66172479933E+03  0.00000000000E+00 0.  1.
          5    1    1    2  502    0  0.72134438400E+02 -0.49745957683E+02 -0.47957810222E+03  0.48754003285E+03  0.47000000000E+01 0. -1.
         -5    1    1    2    0  502 -0.30861318992E+02 -0.82686949533E+01 -0.29507742242E+02  0.43744590276E+02  0.47000000000E+01 0.  1.
        -11    1    1    2    0    0 -0.66555026116E+02  0.45984366374E+02 -0.10893522169E+03  0.13568719901E+03  0.00000000000E+00 0.  1.
         11    1    1    2    0    0  0.25281906708E+02  0.12030286262E+02 -0.90363420452E+01  0.29420368317E+02  0.00000000000E+00 0. -1.
<mgrwt>
<rscale>  0 0.14189807E+03</rscale>
<asrwt>0</asrwt>
<pdfrwt beam="1">  1        2 0.53334449E-02 0.15197024E+03</pdfrwt>
<pdfrwt beam="2">  1       -2 0.10180381E+00 0.15197024E+03</pdfrwt>
<totfact> 0.11564852E+03</totfact>
</mgrwt>
</event>
<event>
 7    1  0.6095443E-006  0.1938506E+03  0.7546771E-02  0.1159644E+00
          1   -1    0    0  501    0  0.00000000000E+00  0.00000000000E+00  0.99137360433E+03  0.99137360433E+03  0.00000000000E+00 0. -1.
         -1   -1    0    0    0  501 -0.00000000000E+00 -0.00000000000E+00 -0.40229471186E+02  0.40229471186E+02  0.00000000000E+00 0.  1.
         23    2    1    2    0    0  0.11201314576E+03  0.96986581488E+02  0.29669823078E+03  0.35441206719E+03  0.12499892565E+03 0.  0.
          5    1    3    3  502    0  0.95467252408E+02  0.12555110326E+03  0.26490481592E+03  0.30834027844E+03  0.47000000000E+01 0.  1.
         -5    1    3    3    0  502  0.16545893349E+02 -0.28564521768E+02  0.31793414864E+02  0.46071788757E+02  0.47000000000E+01 0.  1.
        -11    1    1    2    0    0 -0.75971978012E+02 -0.10923325136E+03  0.45112322251E+03  0.47033584440E+03  0.00000000000E+00 0.  1.
         11    1    1    2    0    0 -0.36041167745E+02  0.12246669875E+02  0.20332267985E+03  0.20685516391E+03  0.00000000000E+00 0. -1.
<mgrwt>
<rscale>  0 0.18869468E+03</rscale>
<asrwt>0</asrwt>
<pdfrwt beam="1">  1        1 0.15251900E+00 0.19385065E+03</pdfrwt>
<pdfrwt beam="2">  1       -1 0.61891501E-02 0.19385065E+03</pdfrwt>
<totfact> 0.20614660E+03</totfact>
</mgrwt>
</event>
<event>
 7    1  0.6095443E-006  0.1258662E+03  0.7546771E-02  0.1247724E+00
         -2   -1    0    0    0  501 -0.00000000000E+00  0.00000000000E+00  0.16910511648E+03  0.16910511648E+03  0.00000000000E+00 0.  1.
          2   -1    0    0  501    0  0.00000000000E+00 -0.00000000000E+00 -0.79874168619E+02  0.79874168619E+02  0.00000000000E+00 0. -1.
         23    2    1    2    0    0  0.12459451881E+02  0.78753249468E+01  0.89141419033E+02  0.15423519867E+03  0.12500018095E+03 0.  0.
          5    1    3    3  502    0 -0.27106819525E+02 -0.48794390226E+02  0.32572342332E+02  0.64797528251E+02  0.47000000000E+01 0.  1.
         -5    1    3    3    0  502  0.39566271406E+02  0.56669715173E+02  0.56569076700E+02  0.89437670417E+02  0.47000000000E+01 0.  1.
        -11    1    1    2    0    0  0.34633242380E+02 -0.93902252868E+01 -0.22642325792E+02  0.42430092222E+02  0.00000000000E+00 0. -1.
         11    1    1    2    0    0 -0.47092694261E+02  0.15149003399E+01  0.22731854619E+02  0.52313994210E+02  0.00000000000E+00 0.  1.
<mgrwt>
<rscale>  0 0.11723839E+03</rscale>
<asrwt>0</asrwt>
<pdfrwt beam="2">  1        2 0.12288334E-01 0.12586621E+03</pdfrwt>
<pdfrwt beam="1">  1       -2 0.26016172E-01 0.12586621E+03</pdfrwt>
<totfact> 0.61917664E+03</totfact>
</mgrwt>
</event>
<event>
 7    1  0.6095443E-006  0.1384903E+03  0.7546771E-02  0.1225968E+00
          2   -1    0    0  501    0  0.00000000000E+00  0.00000000000E+00  0.32072632234E+03  0.32072632234E+03  0.00000000000E+00 0. -1.
         -2   -1    0    0    0  501 -0.00000000000E+00 -0.00000000000E+00 -0.50507366959E+02  0.50507366959E+02  0.00000000000E+00 0.  1.
         23    2    1    2    0    0  0.58824595758E+02  0.97081230611E+01  0.11248670215E+03  0.17841755310E+03  0.12499993750E+03 0.  0.
          5    1    3    3  502    0 -0.36767331560E+02  0.11220180982E+02  0.14270558933E+02  0.41273090308E+02  0.47000000000E+01 0. -1.
         -5    1    3    3    0  502  0.95591927319E+02 -0.15120579205E+01  0.98216143214E+02  0.13714446280E+03  0.47000000000E+01 0. -1.
        -11    1    1    2    0    0  0.13831510960E+02 -0.17647276495E+02  0.91416732391E+02  0.94126277013E+02  0.00000000000E+00 0. -1.
         11    1    1    2    0    0 -0.72656106718E+02  0.79391534341E+01  0.66315520839E+02  0.98689859179E+02  0.00000000000E+00 0.  1.
<mgrwt>
<rscale>  0 0.13100760E+03</rscale>
<asrwt>0</asrwt>
<pdfrwt beam="1">  1        2 0.49342510E-01 0.13849031E+03</pdfrwt>
<pdfrwt beam="2">  1       -2 0.77703643E-02 0.13849031E+03</pdfrwt>
<totfact> 0.95498795E+03</totfact>
</mgrwt>
</event>
<event>
 7    1  0.6095443E-006  0.1638100E+03  0.7546771E-02  0.1191633E+00
          1   -1    0    0  501    0  0.00000000000E+00  0.00000000000E+00  0.65074002519E+03  0.65074002519E+03  0.00000000000E+00 0. -1.
         -1   -1    0    0    0  501 -0.00000000000E+00 -0.00000000000E+00 -0.42823082670E+02  0.42823082670E+02  0.00000000000E+00 0.  1.
         23    2    1    2    0    0 -0.94874361004E+02 -0.46981887830E+02  0.17985434909E+03  0.24327206382E+03  0.12500107194E+03 0.  0.
          5    1    3    3  502    0 -0.70285584631E+02 -0.23237907151E+02  0.19267786748E+03  0.20646286435E+03  0.47000000000E+01 0.  1.
         -5    1    3    3    0  502 -0.24588776374E+02 -0.23743980678E+02 -0.12823518390E+02  0.36809199474E+02  0.47000000000E+01 0.  1.
        -11    1    1    2    0    0 -0.10494128099E+02  0.27145918169E+02  0.56324628660E+02  0.63399458921E+02  0.00000000000E+00 0.  1.
         11    1    1    2    0    0  0.10536848910E+03  0.19835969660E+02  0.37173796476E+03  0.38689158512E+03  0.00000000000E+00 0. -1.
<mgrwt>
<rscale>  0 0.15742641E+03</rscale>
<asrwt>0</asrwt>
<pdfrwt beam="1">  1        1 0.10011384E+00 0.16380998E+03</pdfrwt>
<pdfrwt beam="2">  1       -1 0.65881670E-02 0.16380998E+03</pdfrwt>
<totfact> 0.35650148E+03</totfact>
</mgrwt>
</event>
<event>
 7    1  0.6095443E-006  0.1319264E+03  0.7546771E-02  0.1235184E+00
          2   -1    0    0  501    0  0.00000000000E+00  0.00000000000E+00  0.51190048680E+03  0.51190048680E+03  0.00000000000E+00 0. -1.
         -2   -1    0    0    0  501 -0.00000000000E+00 -0.00000000000E+00 -0.46801593681E+02  0.46801593681E+02  0.00000000000E+00 0.  1.
         23    2    1    2    0    0 -0.38912485319E+02  0.39174987908E+02  0.69471578208E+02  0.14910019088E+03  0.11981529765E+03 0.  0.
          5    1    3    3  502    0  0.40949822047E+02  0.19424361417E+02  0.42730272715E+02  0.62467271018E+02  0.47000000000E+01 0. -1.
         -5    1    3    3    0  502 -0.79862307367E+02  0.19750626491E+02  0.26741305493E+02  0.86632919864E+02  0.47000000000E+01 0.  1.
        -11    1    1    2    0    0  0.20749684836E+01  0.25770988692E+02  0.53472216061E+02  0.59394673522E+02  0.00000000000E+00 0.  1.
         11    1    1    2    0    0  0.36837516835E+02 -0.64945976600E+02  0.34215509885E+03  0.35020721607E+03  0.00000000000E+00 0. -1.
<mgrwt>
<rscale>  0 0.12492690E+03</rscale>
<asrwt>0</asrwt>
<pdfrwt beam="1">  1        2 0.78753917E-01 0.13192637E+03</pdfrwt>
<pdfrwt beam="2">  1       -2 0.72002455E-02 0.13192637E+03</pdfrwt>
<totfact> 0.64782724E+03</totfact>
</mgrwt>
</event>
<event>
 7    1  0.6095443E-006  0.1415795E+03  0.7546771E-02  0.1223914E+00
         -1   -1    0    0    0  501 -0.00000000000E+00  0.00000000000E+00  0.68448126198E+03  0.68448126198E+03  0.00000000000E+00 0.  1.
          1   -1    0    0  501    0  0.00000000000E+00 -0.00000000000E+00 -0.23137621816E+02  0.23137621816E+02  0.00000000000E+00 0. -1.
         23    2    1    2    0    0 -0.55810193962E+02  0.36121450998E+02  0.41566867499E+03  0.43911866839E+03  0.12500088234E+03 0.  0.
          5    1    3    3  502    0  0.19250457991E+02 -0.33558177167E+02  0.10791258698E+03  0.11473424866E+03  0.47000000000E+01 0. -1.
         -5    1    3    3    0  502 -0.75060651953E+02  0.69679628165E+02  0.30775608802E+03  0.32438441973E+03  0.47000000000E+01 0. -1.
        -11    1    1    2    0    0  0.55802929848E+02 -0.59949685250E+02  0.21179995805E+03  0.22708402403E+03  0.00000000000E+00 0.  1.
         11    1    1    2    0    0  0.72641135728E-02  0.23828234251E+02  0.33875007122E+02  0.41416191372E+02  0.00000000000E+00 0. -1.
<mgrwt>
<rscale>  0 0.13241620E+03</rscale>
<asrwt>0</asrwt>
<pdfrwt beam="2">  1        1 0.35596347E-02 0.14157951E+03</pdfrwt>
<pdfrwt beam="1">  1       -1 0.10530479E+00 0.14157951E+03</pdfrwt>
<totfact> 0.23301455E+03</totfact>
</mgrwt>
</event>
<event>
 7    1  0.6095443E-006  0.1270318E+03  0.7546771E-02  0.1248720E+00
         -2   -1    0    0    0  501 -0.00000000000E+00  0.00000000000E+00  0.82713341729E+02  0.82713341729E+02  0.00000000000E+00 0.  1.
          2   -1    0    0  501    0  0.00000000000E+00 -0.00000000000E+00 -0.18887330329E+03  0.18887330329E+03  0.00000000000E+00 0. -1.
         23    2    1    2    0    0  0.21771139300E+02  0.28706975374E+01  0.64781350468E+01  0.12719686479E+03  0.12511935409E+03 0.  0.
          5    1    3    3  502    0 -0.99614204113E+01 -0.45213831980E+02 -0.33131034111E+02  0.57125090111E+02  0.47000000000E+01 0.  1.
         -5    1    3    3    0  502  0.31732559712E+02  0.48084529518E+02  0.39609169158E+02  0.70071774676E+02  0.47000000000E+01 0.  1.
        -11    1    1    2    0    0  0.64115795492E+00 -0.41332166148E+02 -0.31981714423E+02  0.52264606566E+02  0.00000000000E+00 0.  1.
         11    1    1    2    0    0 -0.22412297255E+02  0.38461468611E+02 -0.80656382180E+02  0.92125173662E+02  0.00000000000E+00 0. -1.
<mgrwt>
<rscale>  0 0.11665482E+03</rscale>
<asrwt>0</asrwt>
<pdfrwt beam="2">  1        2 0.29057431E-01 0.12703179E+03</pdfrwt>
<pdfrwt beam="1">  1       -2 0.12725130E-01 0.12703179E+03</pdfrwt>
<totfact> 0.76964425E+03</totfact>
</mgrwt>
</event>
<event>
 7    1  0.6095443E-006  0.1376077E+03  0.7546771E-02  0.1228195E+00
          1   -1    0    0  501    0  0.00000000000E+00  0.00000000000E+00  0.49819638856E+03  0.49819638856E+03  0.00000000000E+00 0. -1.
         -1   -1    0    0    0  501 -0.00000000000E+00 -0.00000000000E+00 -0.47365982034E+02  0.47365982034E+02  0.00000000000E+00 0.  1.
         23    2    1    2    0    0 -0.51009355705E+02 -0.26613655862E+02  0.79631400109E+02  0.15898753160E+03  0.12500253707E+03 0.  0.
          5    1    3    3  502    0 -0.65804197825E+02 -0.37377966309E+02 -0.13452245669E+01  0.75836695905E+02  0.47000000000E+01 0.  1.
         -5    1    3    3    0  502  0.14794842120E+02  0.10764310447E+02  0.80976624676E+02  0.83150835694E+02  0.47000000000E+01 0.  1.
        -11    1    1    2    0    0  0.64877504217E+02  0.32533789000E+02  0.36134482209E+03  0.36856155311E+03  0.00000000000E+00 0. -1.
         11    1    1    2    0    0 -0.13868148512E+02 -0.59201331378E+01  0.98541843242E+01  0.18013285881E+02  0.00000000000E+00 0.  1.
<mgrwt>
<rscale>  0 0.12950284E+03</rscale>
<asrwt>0</asrwt>
<pdfrwt beam="1">  1        1 0.76645595E-01 0.13760769E+03</pdfrwt>
<pdfrwt beam="2">  1       -1 0.72870745E-02 0.13760769E+03</pdfrwt>
<totfact> 0.43616290E+03</totfact>
</mgrwt>
</event>
<event>
 7    1  0.6095443E-006  0.1258352E+03  0.7546771E-02  0.1247141E+00
         -1   -1    0    0    0  501 -0.00000000000E+00  0.00000000000E+00  0.64276989007E+02  0.64276989007E+02  0.00000000000E+00 0.  1.
          1   -1    0    0  501    0  0.00000000000E+00 -0.00000000000E+00 -0.19884881851E+03  0.19884881851E+03  0.00000000000E+00 0. -1.
         23    2    1    2    0    0 -0.76699729641E+01 -0.12292965459E+02 -0.50570678431E+02  0.13561667195E+03  0.12499817082E+03 0.  0.
          5    1    3    3  502    0 -0.28780981038E+02 -0.55376652621E+02 -0.59767204757E+02  0.86539743988E+02  0.47000000000E+01 0.  1.
         -5    1    3    3    0  502  0.21111008074E+02  0.43083687162E+02  0.91965263259E+01  0.49076927958E+02  0.47000000000E+01 0.  1.
        -11    1    1    2    0    0 -0.21736641705E+02 -0.27483010870E+01 -0.91122964643E+02  0.93719952180E+02  0.00000000000E+00 0. -1.
         11    1    1    2    0    0  0.29406614669E+02  0.15041266546E+02  0.71218135708E+01  0.33789183390E+02  0.00000000000E+00 0.  1.
<mgrwt>
<rscale>  0 0.11758152E+03</rscale>
<asrwt>0</asrwt>
<pdfrwt beam="2">  1        1 0.30592125E-01 0.12583516E+03</pdfrwt>
<pdfrwt beam="1">  1       -1 0.98887679E-02 0.12583516E+03</pdfrwt>
<totfact> 0.86133528E+03</totfact>
</mgrwt>
</event>
<event>
 7    1  0.6095443E-006  0.1386287E+03  0.7546771E-02  0.1224390E+00
          2   -1    0    0  501    0  0.00000000000E+00  0.00000000000E+00  0.38163979454E+02  0.38163979454E+02  0.00000000000E+00 0. -1.
         -2   -1    0    0    0  501 -0.00000000000E+00 -0.00000000000E+00 -0.42306618673E+03  0.42306618673E+03  0.00000000000E+00 0.  1.
         23    2    1    2    0    0  0.96854283222E+01  0.59162228668E+02 -0.18811782119E+03  0.23367977677E+03  0.12499578632E+03 0.  0.
          5    1    3    3  502    0  0.64929469848E+02  0.22666842408E+02 -0.70341797493E+02  0.98486954841E+02  0.47000000000E+01 0.  1.
         -5    1    3    3    0  502 -0.55244041525E+02  0.36495386260E+02 -0.11777602370E+03  0.13519282193E+03  0.47000000000E+01 0.  1.
        -11    1    1    2    0    0 -0.44157383037E+02 -0.85084588433E+01 -0.12678150356E+03  0.13452069726E+03  0.00000000000E+00 0.  1.
         11    1    1    2    0    0  0.34471954715E+02 -0.50653769824E+02 -0.70002882521E+02  0.93029692145E+02  0.00000000000E+00 0. -1.
<mgrwt>
<rscale>  0 0.13208770E+03</rscale>
<asrwt>0</asrwt>
<pdfrwt beam="1">  1        2 0.58713816E-02 0.13862873E+03</pdfrwt>
<pdfrwt beam="2">  1       -2 0.65087104E-01 0.13862873E+03</pdfrwt>
<totfact> 0.27173081E+03</totfact>
</mgrwt>
</event>
<event>
 7    1  0.6095443E-006  0.1451830E+03  0.7546771E-02  0.1217514E+00
         -1   -1    0    0    0  501 -0.00000000000E+00  0.00000000000E+00  0.14586351421E+03  0.14586351421E+03  0.00000000000E+00 0.  1.
          1   -1    0    0  501    0  0.00000000000E+00 -0.00000000000E+00 -0.11645249581E+03  0.11645249581E+03  0.00000000000E+00 0. -1.
         23    2    1    2    0    0  0.71234888414E+02  0.19437401724E+02  0.25115410306E+02  0.14733931265E+03  0.12500346917E+03 0.  0.
          5    1    3    3  502    0 -0.22667280984E+00  0.59711965936E+02  0.25689101125E+02  0.65173538903E+02  0.47000000000E+01 0.  1.
         -5    1    3    3    0  502  0.71461561224E+02 -0.40274564213E+02 -0.57369081942E+00  0.82165773752E+02  0.47000000000E+01 0.  1.
        -11    1    1    2    0    0 -0.18098489674E+02 -0.41960267962E+02 -0.22972496389E+02  0.51146407560E+02  0.00000000000E+00 0. -1.
         11    1    1    2    0    0 -0.53136398740E+02  0.22522866239E+02  0.27268104488E+02  0.63830289808E+02  0.00000000000E+00 0.  1.
<mgrwt>
<rscale>  0 0.13693465E+03</rscale>
<asrwt>0</asrwt>
<pdfrwt beam="2">  1        1 0.17915769E-01 0.14518295E+03</pdfrwt>
<pdfrwt beam="1">  1       -1 0.22440541E-01 0.14518295E+03</pdfrwt>
<totfact> 0.47190241E+03</totfact>
</mgrwt>
</event>
<event>
 7    1  0.6095443E-006  0.1340152E+03  0.7546771E-02  0.1245311E+00
          2   -1    0    0  501    0  0.00000000000E+00  0.00000000000E+00  0.10224694961E+03  0.10224694961E+03  0.00000000000E+00 0. -1.
         -2   -1    0    0    0  501 -0.00000000000E+00 -0.00000000000E+00 -0.12123659979E+03  0.12123659979E+03  0.00000000000E+00 0.  1.
         23    2    1    2    0    0  0.24811696130E+02 -0.41412114284E+02 -0.37248049382E+02  0.13909529052E+03  0.12501799545E+03 0.  0.
          5    1    3    3  502    0 -0.29634874394E+01  0.29761715237E+02  0.25916183466E+02  0.39853237222E+02  0.47000000000E+01 0.  1.
         -5    1    3    3    0  502  0.27775183570E+02 -0.71173829521E+02 -0.63164232848E+02  0.99242053295E+02  0.47000000000E+01 0.  1.
        -11    1    1    2    0    0 -0.10792670471E+02  0.58230074817E+02  0.66148642237E+01  0.59590097984E+02  0.00000000000E+00 0.  1.
         11    1    1    2    0    0 -0.14019025659E+02 -0.16817960533E+02  0.11643534983E+02  0.24798160896E+02  0.00000000000E+00 0. -1.
<mgrwt>
<rscale>  0 0.11866795E+03</rscale>
<asrwt>0</asrwt>
<pdfrwt beam="1">  1        2 0.15730300E-01 0.13401523E+03</pdfrwt>
<pdfrwt beam="2">  1       -2 0.18651785E-01 0.13401523E+03</pdfrwt>
<totfact> 0.82234610E+03</totfact>
</mgrwt>
</event>
<event>
 7    1  0.6095443E-006  0.1292287E+03  0.7546771E-02  0.1242835E+00
         -2   -1    0    0    0  501 -0.00000000000E+00  0.00000000000E+00  0.55773617428E+02  0.55773617428E+02  0.00000000000E+00 0.  1.
          2   -1    0    0  501    0  0.00000000000E+00 -0.00000000000E+00 -0.24352425275E+03  0.24352425275E+03  0.00000000000E+00 0. -1.
         23    2    1    2    0    0 -0.26222004297E+02  0.20548508818E+02 -0.14331112657E+03  0.19297183242E+03  0.12486078001E+03 0.  0.
          5    1    3    3  502    0 -0.31296769460E+02  0.71249440719E+02 -0.82858989600E+02  0.11377026298E+03  0.47000000000E+01 0. -1.
         -5    1    3    3    0  502  0.50747651626E+01 -0.50700931902E+02 -0.60452136968E+02  0.79201569436E+02  0.47000000000E+01 0. -1.
        -11    1    1    2    0    0 -0.38388947301E+01  0.25252607785E+02  0.11513813703E+02  0.28017837509E+02  0.00000000000E+00 0.  1.
         11    1    1    2    0    0  0.30060899027E+02 -0.45801116603E+02 -0.55953322453E+02  0.78308200247E+02  0.00000000000E+00 0. -1.
<mgrwt>
<rscale>  0 0.12015904E+03</rscale>
<asrwt>0</asrwt>
<pdfrwt beam="2">  1        2 0.37465270E-01 0.12922867E+03</pdfrwt>
<pdfrwt beam="1">  1       -2 0.85805565E-02 0.12922867E+03</pdfrwt>
<totfact> 0.10914193E+04</totfact>
</mgrwt>
</event>
<event>
 7    1  0.6095443E-006  0.1403978E+03  0.7546771E-02  0.1225211E+00
          1   -1    0    0  501    0  0.00000000000E+00  0.00000000000E+00  0.49498409347E+03  0.49498409347E+03  0.00000000000E+00 0. -1.
         -1   -1    0    0    0  501 -0.00000000000E+00 -0.00000000000E+00 -0.58518337332E+02  0.58518337332E+02  0.00000000000E+00 0.  1.
         23    2    1    2    0    0 -0.19745001700E+02  0.60801001875E+02  0.45084822266E+02  0.14745909355E+03  0.12499966460E+03 0.  0.
          5    1    3    3  502    0  0.68248427869E+00 -0.26601812271E+02  0.50648075597E+02  0.57405920972E+02  0.47000000000E+01 0. -1.
         -5    1    3    3    0  502 -0.20427485979E+02  0.87402814146E+02 -0.55632533318E+01  0.90053172580E+02  0.47000000000E+01 0. -1.
        -11    1    1    2    0    0 -0.30347317968E+02 -0.47327326503E+02  0.20880882675E+03  0.21624514254E+03  0.00000000000E+00 0.  1.
         11    1    1    2    0    0  0.50092319668E+02 -0.13473675372E+02  0.18257210713E+03  0.18979819472E+03  0.00000000000E+00 0. -1.
<mgrwt>
<rscale>  0 0.13152462E+03</rscale>
<asrwt>0</asrwt>
<pdfrwt beam="1">  1        1 0.76151396E-01 0.14039780E+03</pdfrwt>
<pdfrwt beam="2">  1       -1 0.90028215E-02 0.14039780E+03</pdfrwt>
<totfact> 0.31988523E+03</totfact>
</mgrwt>
</event>
<event>
 7    1  0.6095443E-006  0.1387645E+03  0.7546771E-02  0.1226015E+00
          1   -1    0    0  501    0  0.00000000000E+00  0.00000000000E+00  0.21276541320E+03  0.21276541320E+03  0.00000000000E+00 0. -1.
         -1   -1    0    0    0  501 -0.00000000000E+00 -0.00000000000E+00 -0.74476975211E+02  0.74476975211E+02  0.00000000000E+00 0.  1.
         23    2    1    2    0    0  0.49623204710E+01 -0.60328439323E+02  0.55463381953E+02  0.14943818947E+03  0.12486568992E+03 0.  0.
          5    1    3    3  502    0  0.61340328639E+02 -0.52038890108E+02  0.23508365604E+02  0.83936971917E+02  0.47000000000E+01 0.  1.
         -5    1    3    3    0  502 -0.56378008168E+02 -0.82895492154E+01  0.31955016348E+02  0.65501217553E+02  0.47000000000E+01 0.  1.
        -11    1    1    2    0    0 -0.42580802736E+02  0.32054314706E+02  0.15210727326E+02  0.55425355918E+02  0.00000000000E+00 0.  1.
         11    1    1    2    0    0  0.37618482265E+02  0.28274124618E+02  0.67614328706E+02  0.82378843019E+02  0.00000000000E+00 0. -1.
<mgrwt>
<rscale>  0 0.13097591E+03</rscale>
<asrwt>0</asrwt>
<pdfrwt beam="1">  1        1 0.32733140E-01 0.13876450E+03</pdfrwt>
<pdfrwt beam="2">  1       -1 0.11457996E-01 0.13876450E+03</pdfrwt>
<totfact> 0.63655135E+03</totfact>
</mgrwt>
</event>
<event>
 7    1  0.6095443E-006  0.2287954E+03  0.7546771E-02  0.1130562E+00
          2   -1    0    0  501    0  0.00000000000E+00  0.00000000000E+00  0.43557427135E+03  0.43557427135E+03  0.00000000000E+00 0. -1.
         -2   -1    0    0    0  501 -0.00000000000E+00 -0.00000000000E+00 -0.19395385551E+03  0.19395385551E+03  0.00000000000E+00 0.  1.
         23    2    1    2    0    0 -0.18056161276E+03  0.64175421879E+02 -0.81595368792E+02  0.24290977849E+03  0.12500550189E+03 0.  0.
          5    1    3    3  502    0 -0.42639414626E+02 -0.99896104805E+01 -0.73927063973E+02  0.86053546033E+02  0.47000000000E+01 0. -1.
         -5    1    3    3    0  502 -0.13792219813E+03  0.74165032359E+02 -0.76683048191E+01  0.15685623246E+03  0.47000000000E+01 0. -1.
        -11    1    1    2    0    0  0.13915018756E+03 -0.87104557448E+02  0.23776750072E+03  0.28893487679E+03  0.00000000000E+00 0. -1.
         11    1    1    2    0    0  0.41411425201E+02  0.22929135569E+02  0.85448283922E+02  0.97683471582E+02  0.00000000000E+00 0.  1.
<mgrwt>
<rscale>  0 0.22451403E+03</rscale>
<asrwt>0</asrwt>
<pdfrwt beam="1">  1        2 0.67011426E-01 0.22879545E+03</pdfrwt>
<pdfrwt beam="2">  1       -2 0.29839055E-01 0.22879545E+03</pdfrwt>
<totfact> 0.75244165E+02</totfact>
</mgrwt>
</event>
<event>
 7    1  0.6095443E-006  0.1420907E+03  0.7546771E-02  0.1220969E+00
          1   -1    0    0  501    0  0.00000000000E+00  0.00000000000E+00  0.29416615085E+03  0.29416615085E+03  0.00000000000E+00 0. -1.
         -1   -1    0    0    0  501 -0.00000000000E+00 -0.00000000000E+00 -0.55856355245E+02  0.55856355245E+02  0.00000000000E+00 0.  1.
         23    2    1    2    0    0  0.59999554897E+02 -0.31152167888E+02  0.12379232384E+03  0.18845243565E+03  0.12497750561E+03 0.  0.
          5    1    3    3  502    0  0.63040368100E+02 -0.20844748464E+02  0.14759848762E+03  0.16191354204E+03  0.47000000000E+01 0. -1.
         -5    1    3    3    0  502 -0.30408132033E+01 -0.10307419424E+02 -0.23806163779E+02  0.26538893609E+02  0.47000000000E+01 0. -1.
        -11    1    1    2    0    0 -0.46588205002E+02  0.37800267233E+02  0.12803949862E+03  0.14139814092E+03  0.00000000000E+00 0. -1.
         11    1    1    2    0    0 -0.13411349894E+02 -0.66480993454E+01 -0.13522026850E+02  0.20171929532E+02  0.00000000000E+00 0.  1.
<mgrwt>
<rscale>  0 0.13447085E+03</rscale>
<asrwt>0</asrwt>
<pdfrwt beam="1">  1        1 0.45256330E-01 0.14209075E+03</pdfrwt>
<pdfrwt beam="2">  1       -1 0.85932856E-02 0.14209075E+03</pdfrwt>
<totfact> 0.66232478E+03</totfact>
</mgrwt>
</event>
<event>
 7    1  0.6095443E-006  0.1295633E+03  0.7546771E-02  0.1241806E+00
         -2   -1    0    0    0  501 -0.00000000000E+00  0.00000000000E+00  0.16934316968E+03  0.16934316968E+03  0.00000000000E+00 0.  1.
          2   -1    0    0  501    0  0.00000000000E+00 -0.00000000000E+00 -0.11117964811E+03  0.11117964811E+03  0.00000000000E+00 0. -1.
         23    2    1    2    0    0 -0.32601236025E+02  0.99757538152E+01  0.10983710066E+03  0.16985531203E+03  0.12499712833E+03 0.  0.
          5    1    3    3  502    0 -0.78952364242E+02  0.19458701408E+02  0.76897777924E+02  0.11201551290E+03  0.47000000000E+01 0.  1.
         -5    1    3    3    0  502  0.46351128216E+02 -0.94829475928E+01  0.32939322736E+02  0.57839799138E+02  0.47000000000E+01 0.  1.
        -11    1    1    2    0    0 -0.91243425465E+01  0.87422134785E+01 -0.62423241413E+02  0.63689410359E+02  0.00000000000E+00 0. -1.
         11    1    1    2    0    0  0.41725578572E+02 -0.18717967294E+02  0.10749662325E+02  0.46978095394E+02  0.00000000000E+00 0.  1.
<mgrwt>
<rscale>  0 0.12078580E+03</rscale>
<asrwt>0</asrwt>
<pdfrwt beam="2">  1        2 0.17104561E-01 0.12956326E+03</pdfrwt>
<pdfrwt beam="1">  1       -2 0.26052795E-01 0.12956326E+03</pdfrwt>
<totfact> 0.41986267E+03</totfact>
</mgrwt>
</event>
<event>
 7    1  0.6095443E-006  0.1307812E+03  0.7546771E-02  0.1239327E+00
          1   -1    0    0  501    0  0.00000000000E+00  0.00000000000E+00  0.77256735793E+03  0.77256735793E+03  0.00000000000E+00 0. -1.
         -1   -1    0    0    0  501 -0.00000000000E+00 -0.00000000000E+00 -0.18394852230E+02  0.18394852230E+02  0.00000000000E+00 0.  1.
         23    2    1    2    0    0 -0.14580760892E+02 -0.35585068037E+02  0.32603624236E+03  0.35128812445E+03  0.12499927757E+03 0.  0.
          5    1    3    3  502    0  0.30181461401E+02 -0.57854597690E+02  0.98296702438E+02  0.11807796914E+03  0.47000000000E+01 0.  1.
         -5    1    3    3    0  502 -0.44762222292E+02  0.22269529653E+02  0.22773953992E+03  0.23321015531E+03  0.47000000000E+01 0.  1.
        -11    1    1    2    0    0 -0.18024934949E+02 -0.23499010763E+02  0.86299411153E+02  0.91239739983E+02  0.00000000000E+00 0.  1.
         11    1    1    2    0    0  0.32605695840E+02  0.59084078800E+02  0.34183685219E+03  0.34843434573E+03  0.00000000000E+00 0. -1.
<mgrwt>
<rscale>  0 0.12231438E+03</rscale>
<asrwt>0</asrwt>
<pdfrwt beam="1">  1        1 0.11885649E+00 0.13078117E+03</pdfrwt>
<pdfrwt beam="2">  1       -1 0.28299779E-02 0.13078117E+03</pdfrwt>
<totfact> 0.95806693E+03</totfact>
</mgrwt>
</event>
<event>
 7    1  0.6095443E-006  0.1598303E+03  0.7546771E-02  0.1196552E+00
          2   -1    0    0  501    0  0.00000000000E+00  0.00000000000E+00  0.40301641275E+03  0.40301641275E+03  0.00000000000E+00 0.  1.
         -2   -1    0    0    0  501 -0.00000000000E+00 -0.00000000000E+00 -0.56002356283E+02  0.56002356283E+02  0.00000000000E+00 0. -1.
         23    2    1    2    0    0 -0.96474294831E+02 -0.24768844787E+02  0.14362522878E+03  0.21488123040E+03  0.12499980641E+03 0.  0.
          5    1    3    3  502    0 -0.81391378124E+01 -0.57941760240E+02  0.86310736995E+02  0.10437972248E+03  0.47000000000E+01 0.  1.
         -5    1    3    3    0  502 -0.88335157019E+02  0.33172915454E+02  0.57314491782E+02  0.11050150792E+03  0.47000000000E+01 0.  1.
        -11    1    1    2    0    0  0.11360848186E+03  0.13229095468E+02  0.17317610875E+03  0.20753761288E+03  0.00000000000E+00 0. -1.
         11    1    1    2    0    0 -0.17134187027E+02  0.11539749319E+02  0.30212718938E+02  0.36599925752E+02  0.00000000000E+00 0.  1.
<mgrwt>
<rscale>  0 0.15323606E+03</rscale>
<asrwt>0</asrwt>
<pdfrwt beam="1">  1        2 0.62002523E-01 0.15983034E+03</pdfrwt>
<pdfrwt beam="2">  1       -2 0.86157474E-02 0.15983034E+03</pdfrwt>
<totfact> 0.64368299E+03</totfact>
</mgrwt>
</event>
<event>
 7    1  0.6095443E-006  0.1430000E+03  0.7546771E-02  0.1217160E+00
          2   -1    0    0  501    0  0.00000000000E+00  0.00000000000E+00  0.67172881006E+02  0.67172881006E+02  0.00000000000E+00 0. -1.
         -2   -1    0    0    0  501 -0.00000000000E+00 -0.00000000000E+00 -0.26305217026E+03  0.26305217026E+03  0.00000000000E+00 0.  1.
         23    2    1    2    0    0  0.30470693277E+02  0.62421586828E+02 -0.12461506157E+03  0.18967847950E+03  0.12499637741E+03 0.  0.
          5    1    3    3  502    0 -0.32574238630E+02  0.10178865094E+02  0.64700186193E+01  0.35051982225E+02  0.47000000000E+01 0.  1.
         -5    1    3    3    0  502  0.63044931907E+02  0.52242721734E+02 -0.13108508019E+03  0.15462649728E+03  0.47000000000E+01 0.  1.
        -11    1    1    2    0    0 -0.16478032067E+02 -0.38426321401E+02 -0.95137898485E+02  0.10391981257E+03  0.00000000000E+00 0.  1.
         11    1    1    2    0    0 -0.13992661210E+02 -0.23995265427E+02  0.23873670803E+02  0.36626759183E+02  0.00000000000E+00 0. -1.
<mgrwt>
<rscale>  0 0.13719032E+03</rscale>
<asrwt>0</asrwt>
<pdfrwt beam="1">  1        2 0.10334289E-01 0.14300004E+03</pdfrwt>
<pdfrwt beam="2">  1       -2 0.40469565E-01 0.14300004E+03</pdfrwt>
<totfact> 0.34415888E+03</totfact>
</mgrwt>
</event>
<event>
 7    1  0.6095443E-006  0.1404950E+03  0.7546771E-02  0.1224955E+00
         -2   -1    0    0    0  501 -0.00000000000E+00  0.00000000000E+00  0.94524325319E+02  0.94524325319E+02  0.00000000000E+00 0.  1.
          2   -1    0    0  501    0  0.00000000000E+00 -0.00000000000E+00 -0.16404545335E+03  0.16404545335E+03  0.00000000000E+00 0. -1.
         23    2    1    2    0    0 -0.17254995082E+02  0.57977796290E+02 -0.36139135797E+02  0.14506858872E+03  0.12680575137E+03 0.  0.
          5    1    3    3  502    0 -0.69425652939E+02  0.37513761956E+02 -0.40196297416E+02  0.88685037904E+02  0.47000000000E+01 0. -1.
         -5    1    3    3    0  502  0.52170657857E+02  0.20464034335E+02  0.40571616193E+01  0.56383550818E+02  0.47000000000E+01 0. -1.
        -11    1    1    2    0    0 -0.91545893543E+01 -0.74181346457E+02 -0.34877267554E+02  0.82480921796E+02  0.00000000000E+00 0. -1.
         11    1    1    2    0    0  0.26409584436E+02  0.16203550166E+02  0.14952753163E+01  0.31020268154E+02  0.00000000000E+00 0.  1.
<mgrwt>
<rscale>  0 0.13169957E+03</rscale>
<asrwt>0</asrwt>
<pdfrwt beam="2">  1        2 0.25237762E-01 0.14049505E+03</pdfrwt>
<pdfrwt beam="1">  1       -2 0.14542204E-01 0.14049505E+03</pdfrwt>
<totfact> 0.72886738E+03</totfact>
</mgrwt>
</event>
<event>
 7    1  0.6095443E-006  0.1705042E+03  0.7546771E-02  0.1183456E+00
         -1   -1    0    0    0  501 -0.00000000000E+00  0.00000000000E+00  0.17931624502E+04  0.17931624502E+04  0.00000000000E+00 0.  1.
          1   -1    0    0  501    0  0.00000000000E+00 -0.00000000000E+00 -0.16744683851E+02  0.16744683851E+02  0.00000000000E+00 0. -1.
         23    2    1    2    0    0  0.96449198363E+02 -0.64377695304E+02  0.12925479147E+04  0.13037453011E+04  0.12499905148E+03 0.  0.
          5    1    3    3  502    0  0.11467952716E+03 -0.61391328677E+02  0.77561581581E+03  0.78646186997E+03  0.47000000000E+01 0.  1.
         -5    1    3    3    0  502 -0.18230328797E+02 -0.29863666270E+01  0.51693209887E+03  0.51728343112E+03  0.47000000000E+01 0.  1.
        -11    1    1    2    0    0 -0.55717498333E+02 -0.19479991174E+01  0.10010001650E+03  0.11457856530E+03  0.00000000000E+00 0. -1.
         11    1    1    2    0    0 -0.40731700031E+02  0.66325694421E+02  0.38376983521E+03  0.39158326770E+03  0.00000000000E+00 0.  1.
<mgrwt>
<rscale>  0 0.16473130E+03</rscale>
<asrwt>0</asrwt>
<pdfrwt beam="2">  1        1 0.25761066E-02 0.17050425E+03</pdfrwt>
<pdfrwt beam="1">  1       -1 0.27587099E+00 0.17050425E+03</pdfrwt>
<totfact> 0.23199440E+02</totfact>
</mgrwt>
</event>
<event>
 7    1  0.6095443E-006  0.1564321E+03  0.7546771E-02  0.1201455E+00
         -2   -1    0    0    0  501 -0.00000000000E+00  0.00000000000E+00  0.99333393066E+02  0.99333393066E+02  0.00000000000E+00 0.  1.
          2   -1    0    0  501    0  0.00000000000E+00 -0.00000000000E+00 -0.25384571143E+03  0.25384571143E+03  0.00000000000E+00 0. -1.
         23    2    1    2    0    0 -0.73625053083E+02 -0.58512266394E+02 -0.65413858521E+01  0.15656884884E+03  0.12500672358E+03 0.  0.
          5    1    3    3  502    0 -0.35612574332E+02  0.69105065098E+01  0.50030715669E+02  0.61977197913E+02  0.47000000000E+01 0. -1.
         -5    1    3    3    0  502 -0.38012478752E+02 -0.65422772904E+02 -0.56572101521E+02  0.94591650931E+02  0.47000000000E+01 0. -1.
        -11    1    1    2    0    0  0.27493685047E+02 -0.52783168052E+01 -0.10128909366E+03  0.10508683952E+03  0.00000000000E+00 0. -1.
         11    1    1    2    0    0  0.46131368037E+02  0.63790583199E+02 -0.46681838850E+02  0.91523416131E+02  0.00000000000E+00 0.  1.
<mgrwt>
<rscale>  0 0.14920363E+03</rscale>
<asrwt>0</asrwt>
<pdfrwt beam="2">  1        2 0.39053185E-01 0.15643214E+03</pdfrwt>
<pdfrwt beam="1">  1       -2 0.15282061E-01 0.15643214E+03</pdfrwt>
<totfact> 0.42151062E+03</totfact>
</mgrwt>
</event>
<event>
 7    1  0.6095443E-006  0.1315223E+03  0.7546771E-02  0.1243456E+00
          2   -1    0    0  501    0  0.00000000000E+00  0.00000000000E+00  0.10811388679E+03  0.10811388679E+03  0.00000000000E+00 0. -1.
         -2   -1    0    0    0  501 -0.00000000000E+00 -0.00000000000E+00 -0.15431764193E+03  0.15431764193E+03  0.00000000000E+00 0.  1.
         23    2    1    2    0    0 -0.26421567543E+02  0.31223805825E+02 -0.92497744901E+02  0.16079160709E+03  0.12500033126E+03 0.  0.
          5    1    3    3  502    0  0.93709134492E+01  0.48473148532E+02 -0.10724041419E+03  0.11815268335E+03  0.47000000000E+01 0. -1.
         -5    1    3    3    0  502 -0.35792480992E+02 -0.17249342707E+02  0.14742669290E+02  0.42638923734E+02  0.47000000000E+01 0. -1.
        -11    1    1    2    0    0  0.81598982973E+01 -0.48494144874E+02  0.24335969833E+00  0.49176470504E+02  0.00000000000E+00 0.  1.
         11    1    1    2    0    0  0.18261669245E+02  0.17270339049E+02  0.46050630062E+02  0.52463451122E+02  0.00000000000E+00 0. -1.
<mgrwt>
<rscale>  0 0.11978258E+03</rscale>
<asrwt>0</asrwt>
<pdfrwt beam="1">  1        2 0.16632906E-01 0.13152227E+03</pdfrwt>
<pdfrwt beam="2">  1       -2 0.23741176E-01 0.13152227E+03</pdfrwt>
<totfact> 0.51037885E+03</totfact>
</mgrwt>
</event>
<event>
 7    1  0.6095443E-006  0.2658905E+03  0.7546771E-02  0.1105689E+00
         -2   -1    0    0    0  501 -0.00000000000E+00  0.00000000000E+00  0.15152987050E+03  0.15152987050E+03  0.00000000000E+00 0.  1.
          2   -1    0    0  501    0  0.00000000000E+00 -0.00000000000E+00 -0.44602751659E+03  0.44602751659E+03  0.00000000000E+00 0. -1.
         23    2    1    2    0    0 -0.22447906475E+03 -0.68390259280E+02 -0.12679894390E+03  0.29457719672E+03  0.12501869692E+03 0.  0.
          5    1    3    3  502    0 -0.10816079412E+03 -0.94994859357E+02 -0.49371702807E+02  0.15225779365E+03  0.47000000000E+01 0. -1.
         -5    1    3    3    0  502 -0.11631827062E+03  0.26604600078E+02 -0.77427241096E+02  0.14231940307E+03  0.47000000000E+01 0. -1.
        -11    1    1    2    0    0  0.10680793372E+03 -0.14445728525E+02 -0.82657722939E+02  0.13582677549E+03  0.00000000000E+00 0. -1.
         11    1    1    2    0    0  0.11767113103E+03  0.82835987804E+02 -0.85040979252E+02  0.16715341488E+03  0.00000000000E+00 0.  1.
<mgrwt>
<rscale>  0 0.26243544E+03</rscale>
<asrwt>0</asrwt>
<pdfrwt beam="2">  1        2 0.68619616E-01 0.26589049E+03</pdfrwt>
<pdfrwt beam="1">  1       -2 0.23312288E-01 0.26589049E+03</pdfrwt>
<totfact> 0.11394209E+03</totfact>
</mgrwt>
</event>
<event>
 7    1  0.6095443E-006  0.1251502E+03  0.7546771E-02  0.1252439E+00
          3   -1    0    0  501    0  0.00000000000E+00  0.00000000000E+00  0.84040605927E+02  0.84040605927E+02  0.00000000000E+00 0. -1.
         -3   -1    0    0    0  501 -0.00000000000E+00 -0.00000000000E+00 -0.16999900330E+03  0.16999900330E+03  0.00000000000E+00 0.  1.
         23    2    1    2    0    0  0.38365032953E+01  0.45843469358E+01 -0.10606381758E+03  0.16404908420E+03  0.12500733432E+03 0.  0.
          5    1    3    3  502    0 -0.39870295458E+02 -0.15002985516E+02  0.48624618869E+01  0.43133091355E+02  0.47000000000E+01 0.  1.
         -5    1    3    3    0  502  0.43706798753E+02  0.19587332452E+02 -0.11092627946E+03  0.12091599284E+03  0.47000000000E+01 0.  1.
        -11    1    1    2    0    0  0.61756891894E+01 -0.37695561507E+02 -0.14690629923E+02  0.40925653346E+02  0.00000000000E+00 0.  1.
         11    1    1    2    0    0 -0.10012192485E+02  0.33111214571E+02  0.34796050126E+02  0.49064871681E+02  0.00000000000E+00 0. -1.
<mgrwt>
<rscale>  0 0.11450992E+03</rscale>
<asrwt>0</asrwt>
<pdfrwt beam="1">  1        3 0.12929324E-01 0.12515018E+03</pdfrwt>
<pdfrwt beam="2">  1       -3 0.26153693E-01 0.12515018E+03</pdfrwt>
<totfact> 0.15010146E+03</totfact>
</mgrwt>
</event>
<event>
 7    1  0.6095443E-006  0.1412768E+03  0.7546771E-02  0.1222631E+00
          1   -1    0    0  501    0  0.00000000000E+00  0.00000000000E+00  0.65326191960E+03  0.65326191960E+03  0.00000000000E+00 0. -1.
         -1   -1    0    0    0  501 -0.00000000000E+00 -0.00000000000E+00 -0.30637940942E+02  0.30637940942E+02  0.00000000000E+00 0.  1.
         23    2    1    2    0    0  0.53544004308E+02 -0.38310381342E+02  0.18851744869E+03  0.23558007601E+03  0.12499799213E+03 0.  0.
          5    1    3    3  502    0  0.48290665117E+02  0.20063833118E+02  0.16342426413E+03  0.17165117490E+03  0.47000000000E+01 0.  1.
         -5    1    3    3    0  502  0.52533391912E+01 -0.58374214460E+02  0.25093184558E+02  0.63928901114E+02  0.47000000000E+01 0.  1.
        -11    1    1    2    0    0 -0.72250622677E+02  0.42611527865E+01  0.30656018740E+03  0.31498802898E+03  0.00000000000E+00 0.  1.
         11    1    1    2    0    0  0.18706618369E+02  0.34049228556E+02  0.12754634258E+03  0.13333175556E+03  0.00000000000E+00 0. -1.
<mgrwt>
<rscale>  0 0.13330600E+03</rscale>
<asrwt>0</asrwt>
<pdfrwt beam="1">  1        1 0.10050182E+00 0.14127683E+03</pdfrwt>
<pdfrwt beam="2">  1       -1 0.47135299E-02 0.14127683E+03</pdfrwt>
<totfact> 0.58017057E+03</totfact>
</mgrwt>
</event>
<event>
 7    1  0.6095443E-006  0.2725009E+03  0.7546771E-02  0.1101356E+00
          2   -1    0    0  501    0  0.00000000000E+00  0.00000000000E+00  0.17931829276E+03  0.17931829276E+03  0.00000000000E+00 0. -1.
         -2   -1    0    0    0  501 -0.00000000000E+00 -0.00000000000E+00 -0.40348304550E+03  0.40348304550E+03  0.00000000000E+00 0.  1.
         23    2    1    2    0    0 -0.19925408299E+03  0.13758848448E+03 -0.81765167832E+02  0.28450356069E+03  0.12499581083E+03 0.  0.
          5    1    3    3  502    0  0.46322613797E+01 -0.98567951909E+01 -0.23296506160E+02  0.26142521993E+02  0.47000000000E+01 0.  1.
         -5    1    3    3    0  502 -0.20388634437E+03  0.14744527967E+03 -0.58468661673E+02  0.25836103869E+03  0.47000000000E+01 0.  1.
        -11    1    1    2    0    0  0.42936343653E+02 -0.69915997528E+02 -0.86014201655E+02  0.11887059856E+03  0.00000000000E+00 0. -1.
         11    1    1    2    0    0  0.15631773934E+03 -0.67672486954E+02 -0.56385383257E+02  0.17942717901E+03  0.00000000000E+00 0.  1.
<mgrwt>
<rscale>  0 0.26986629E+03</rscale>
<asrwt>0</asrwt>
<pdfrwt beam="1">  1        2 0.27587430E-01 0.27250089E+03</pdfrwt>
<pdfrwt beam="2">  1       -2 0.62074314E-01 0.27250089E+03</pdfrwt>
<totfact> 0.47579756E+02</totfact>
</mgrwt>
</event>
<event>
 7    1  0.6095443E-006  0.3420694E+03  0.7546771E-02  0.1067163E+00
         -2   -1    0    0    0  501 -0.00000000000E+00  0.00000000000E+00  0.98750006779E+02  0.98750006779E+02  0.00000000000E+00 0. -1.
          2   -1    0    0  501    0  0.00000000000E+00 -0.00000000000E+00 -0.19890114229E+04  0.19890114229E+04  0.00000000000E+00 0.  1.
         23    2    1    2    0    0 -0.41426355678E+02 -0.31570520149E+03 -0.27463154418E+03  0.43867296507E+03  0.12500227209E+03 0.  0.
          5    1    3    3  502    0 -0.25682108860E+02 -0.64687173489E+02 -0.13250146639E+03  0.14974221090E+03  0.47000000000E+01 0. -1.
         -5    1    3    3    0  502 -0.15744246817E+02 -0.25101802800E+03 -0.14213007779E+03  0.28893075416E+03  0.47000000000E+01 0. -1.
        -11    1    1    2    0    0  0.61378057341E+02  0.18859908328E+03 -0.85920802816E+03  0.88180231106E+03  0.00000000000E+00 0. -1.
         11    1    1    2    0    0 -0.19951701663E+02  0.12710611821E+03 -0.75642184376E+03  0.76728615353E+03  0.00000000000E+00 0.  1.
<mgrwt>
<rscale>  0 0.33914066E+03</rscale>
<asrwt>0</asrwt>
<pdfrwt beam="2">  1        2 0.30600175E+00 0.34206942E+03</pdfrwt>
<pdfrwt beam="1">  1       -2 0.15192309E-01 0.34206942E+03</pdfrwt>
<totfact> 0.24984694E+02</totfact>
</mgrwt>
</event>
<event>
 7    1  0.6095443E-006  0.1537063E+03  0.7546771E-02  0.1205212E+00
          1   -1    0    0  501    0  0.00000000000E+00  0.00000000000E+00  0.17581604865E+03  0.17581604865E+03  0.00000000000E+00 0. -1.
         -1   -1    0    0    0  501 -0.00000000000E+00 -0.00000000000E+00 -0.11121014709E+03  0.11121014709E+03  0.00000000000E+00 0.  1.
         23    2    1    2    0    0 -0.24354640926E+02  0.86085227964E+02  0.39663685920E+02  0.15874143267E+03  0.12498727719E+03 0.  0.
          5    1    3    3  502    0 -0.26322689834E+02  0.95667619837E+02  0.73265417422E+02  0.12343050221E+03  0.47000000000E+01 0. -1.
         -5    1    3    3    0  502  0.19680489077E+01 -0.95823918737E+01 -0.33601731501E+02  0.35310930466E+02  0.47000000000E+01 0. -1.
        -11    1    1    2    0    0  0.91848162952E+01 -0.58465859501E+02 -0.28928556993E+02  0.65874721914E+02  0.00000000000E+00 0.  1.
         11    1    1    2    0    0  0.15169824631E+02 -0.27619368462E+02  0.53870772633E+02  0.62410041160E+02  0.00000000000E+00 0. -1.
<mgrwt>
<rscale>  0 0.14620782E+03</rscale>
<asrwt>0</asrwt>
<pdfrwt beam="1">  1        1 0.27048623E-01 0.15370633E+03</pdfrwt>
<pdfrwt beam="2">  1       -1 0.17109253E-01 0.15370633E+03</pdfrwt>
<totfact> 0.43424116E+03</totfact>
</mgrwt>
</event>
<event>
 7    1  0.6095443E-006  0.2875255E+03  0.7546771E-02  0.1093232E+00
          1   -1    0    0  501    0  0.00000000000E+00  0.00000000000E+00  0.44450361373E+03  0.44450361373E+03  0.00000000000E+00 0. -1.
         -1   -1    0    0    0  501 -0.00000000000E+00 -0.00000000000E+00 -0.18347683205E+03  0.18347683205E+03  0.00000000000E+00 0.  1.
         23    2    1    2    0    0 -0.17845770155E+03 -0.18761556120E+03  0.81305371975E+02  0.29880004365E+03  0.12499661005E+03 0.  0.
          5    1    3    3  502    0 -0.98670510462E+02 -0.16910977079E+03  0.20978520932E+02  0.19696744033E+03  0.47000000000E+01 0. -1.
         -5    1    3    3    0  502 -0.79787191091E+02 -0.18505790411E+02  0.60326851043E+02  0.10183260331E+03  0.47000000000E+01 0. -1.
        -11    1    1    2    0    0  0.40411534676E+02 -0.64423656464E+00  0.41264456100E+02  0.57760388787E+02  0.00000000000E+00 0. -1.
         11    1    1    2    0    0  0.13804616688E+03  0.18825979776E+03  0.13845695360E+03  0.27142001334E+03  0.00000000000E+00 0.  1.
<mgrwt>
<rscale>  0 0.28454553E+03</rscale>
<asrwt>0</asrwt>
<pdfrwt beam="1">  1        1 0.68385171E-01 0.28752548E+03</pdfrwt>
<pdfrwt beam="2">  1       -1 0.28227205E-01 0.28752548E+03</pdfrwt>
<totfact> 0.60101582E+02</totfact>
</mgrwt>
</event>
<event>
 7    1  0.6095443E-006  0.1521094E+03  0.7546771E-02  0.1207171E+00
         -2   -1    0    0    0  501 -0.00000000000E+00  0.00000000000E+00  0.18784957906E+03  0.18784957906E+03  0.00000000000E+00 0.  1.
          2   -1    0    0  501    0  0.00000000000E+00 -0.00000000000E+00 -0.10374216416E+03  0.10374216416E+03  0.00000000000E+00 0. -1.
         23    2    1    2    0    0 -0.61039237696E+02 -0.61564664891E+02  0.65929929903E+02  0.16578309936E+03  0.12498513461E+03 0.  0.
          5    1    3    3  502    0 -0.99676549322E+02 -0.48452192706E+02  0.50886608361E+02  0.12204329713E+03  0.47000000000E+01 0.  1.
         -5    1    3    3    0  502  0.38637311626E+02 -0.13112472185E+02  0.15043321542E+02  0.43739802234E+02  0.47000000000E+01 0.  1.
        -11    1    1    2    0    0 -0.16935427343E+02  0.64006502551E+01  0.24062157451E+02  0.30112529688E+02  0.00000000000E+00 0.  1.
         11    1    1    2    0    0  0.77974665040E+02  0.55164014636E+02 -0.58846724541E+01  0.95696114177E+02  0.00000000000E+00 0. -1.
<mgrwt>
<rscale>  0 0.14467699E+03</rscale>
<asrwt>0</asrwt>
<pdfrwt beam="2">  1        2 0.15960333E-01 0.15210944E+03</pdfrwt>
<pdfrwt beam="1">  1       -2 0.28899935E-01 0.15210944E+03</pdfrwt>
<totfact> 0.38215269E+03</totfact>
</mgrwt>
</event>
<event>
 7    1  0.6095443E-006  0.1398392E+03  0.7546771E-02  0.1223137E+00
         -1   -1    0    0    0  501 -0.00000000000E+00  0.00000000000E+00  0.59448356605E+02  0.59448356605E+02  0.00000000000E+00 0.  1.
          1   -1    0    0  501    0  0.00000000000E+00 -0.00000000000E+00 -0.31475637741E+03  0.31475637741E+03  0.00000000000E+00 0. -1.
         23    2    1    2    0    0  0.47348351808E+02  0.41047721331E+02 -0.69708550280E+02  0.15625071170E+03  0.12501288365E+03 0.  0.
          5    1    3    3  502    0  0.50290205383E+02  0.34843889725E+02 -0.10411521180E+03  0.12085225995E+03  0.47000000000E+01 0. -1.
         -5    1    3    3    0  502 -0.29418535751E+01  0.62038316062E+01  0.34406661518E+02  0.35398451744E+02  0.47000000000E+01 0. -1.
        -11    1    1    2    0    0  0.20838246285E+02 -0.20073482053E+02 -0.14055241046E+02  0.32167172565E+02  0.00000000000E+00 0.  1.
         11    1    1    2    0    0 -0.68186598093E+02 -0.20974239278E+02 -0.17154422948E+03  0.18578684975E+03  0.00000000000E+00 0. -1.
<mgrwt>
<rscale>  0 0.13295396E+03</rscale>
<asrwt>0</asrwt>
<pdfrwt beam="2">  1        1 0.48424058E-01 0.13983920E+03</pdfrwt>
<pdfrwt beam="1">  1       -1 0.91459010E-02 0.13983920E+03</pdfrwt>
<totfact> 0.55352322E+03</totfact>
</mgrwt>
</event>
<event>
 7    1  0.9604289E-006  0.1602382E+03  0.7546771E-02  0.1194739E+00
         -1   -1    0    0    0  501 -0.00000000000E+00  0.00000000000E+00  0.56413587195E+02  0.56413587195E+02  0.00000000000E+00 0.  1.
          1   -1    0    0  501    0  0.00000000000E+00 -0.00000000000E+00 -0.40735748706E+03  0.40735748706E+03  0.00000000000E+00 0. -1.
         23    2    1    2    0    0  0.74509351201E+02 -0.67079628615E+02 -0.15226113599E+03  0.22104235076E+03  0.12499978923E+03 0.  0.
          5    1    3    3  502    0  0.38001620088E+02 -0.24738060018E+02  0.12269164706E+02  0.47209290879E+02  0.47000000000E+01 0.  1.
         -5    1    3    3    0  502  0.36507731114E+02 -0.42341568597E+02 -0.16453030069E+03  0.17383305988E+03  0.47000000000E+01 0.  1.
        -11    1    1    2    0    0 -0.56815062040E+02  0.48262320887E+02 -0.45396440500E+02  0.87281382334E+02  0.00000000000E+00 0.  1.
         11    1    1    2    0    0 -0.17694289161E+02  0.18817307728E+02 -0.15328632337E+03  0.15544734116E+03  0.00000000000E+00 0. -1.
<mgrwt>
<rscale>  0 0.15476337E+03</rscale>
<asrwt>0</asrwt>
<pdfrwt beam="2">  1        1 0.62670385E-01 0.16023816E+03</pdfrwt>
<pdfrwt beam="1">  1       -1 0.86790130E-02 0.16023816E+03</pdfrwt>
<totfact> 0.43697662E+03</totfact>
</mgrwt>
</event>
<event>
 7    1  0.6095443E-006  0.1309731E+03  0.7546771E-02  0.1240441E+00
         -1   -1    0    0    0  501 -0.00000000000E+00  0.00000000000E+00  0.61538626655E+02  0.61538626655E+02  0.00000000000E+00 0.  1.
          1   -1    0    0  501    0  0.00000000000E+00 -0.00000000000E+00 -0.25455888294E+03  0.25455888294E+03  0.00000000000E+00 0. -1.
         23    2    1    2    0    0 -0.32515023515E+02 -0.21715969658E+02 -0.44180398643E+02  0.13822399125E+03  0.12500061616E+03 0.  0.
          5    1    3    3  502    0 -0.45898115970E+02 -0.44636214775E+02  0.21118710330E+02  0.67580460527E+02  0.47000000000E+01 0.  1.
         -5    1    3    3    0  502  0.13383092455E+02  0.22920245117E+02 -0.65299108973E+02  0.70643530720E+02  0.47000000000E+01 0.  1.
        -11    1    1    2    0    0  0.40815877825E+02 -0.24945579230E+02 -0.93397409611E+02  0.10493471269E+03  0.00000000000E+00 0. -1.
         11    1    1    2    0    0 -0.83008543106E+01  0.46661548888E+02 -0.55442448033E+02  0.72938805658E+02  0.00000000000E+00 0.  1.
<mgrwt>
<rscale>  0 0.12162428E+03</rscale>
<asrwt>0</asrwt>
<pdfrwt beam="2">  1        1 0.39162906E-01 0.13097314E+03</pdfrwt>
<pdfrwt beam="1">  1       -1 0.94674808E-02 0.13097314E+03</pdfrwt>
<totfact> 0.68003865E+03</totfact>
</mgrwt>
</event>
<event>
 7    1  0.6095443E-006  0.1666720E+03  0.7546771E-02  0.1188679E+00
         -1   -1    0    0    0  501 -0.00000000000E+00  0.00000000000E+00  0.15040656571E+03  0.15040656571E+03  0.00000000000E+00 0.  1.
          1   -1    0    0  501    0  0.00000000000E+00 -0.00000000000E+00 -0.21631478295E+03  0.21631478295E+03  0.00000000000E+00 0. -1.
         23    2    1    2    0    0  0.96961263802E+02  0.52449225888E+02  0.60096472082E+02  0.17717547531E+03  0.12500862019E+03 0.  0.
          5    1    3    3  502    0 -0.17618530934E+02  0.23209411714E+02  0.50434593171E+02  0.58436526357E+02  0.47000000000E+01 0.  1.
         -5    1    3    3    0  502  0.11457979474E+03  0.29239814174E+02  0.96618789109E+01  0.11873894895E+03  0.47000000000E+01 0.  1.
        -11    1    1    2    0    0 -0.94783108309E+02 -0.35314891472E+02 -0.13607638825E+03  0.16955165177E+03  0.00000000000E+00 0. -1.
         11    1    1    2    0    0 -0.21781554934E+01 -0.17134334416E+02  0.10071698921E+02  0.19994221575E+02  0.00000000000E+00 0.  1.
<mgrwt>
<rscale>  0 0.16001569E+03</rscale>
<asrwt>0</asrwt>
<pdfrwt beam="2">  1        1 0.33279197E-01 0.16667202E+03</pdfrwt>
<pdfrwt beam="1">  1       -1 0.23139472E-01 0.16667202E+03</pdfrwt>
<totfact> 0.20671454E+03</totfact>
</mgrwt>
</event>
<event>
 7    1  0.6095443E-006  0.1205619E+03  0.7546771E-02  0.1253272E+00
          1   -1    0    0  501    0  0.00000000000E+00  0.00000000000E+00  0.20877654822E+03  0.20877654822E+03  0.00000000000E+00 0. -1.
         -1   -1    0    0    0  501 -0.00000000000E+00 -0.00000000000E+00 -0.77872590426E+02  0.77872590426E+02  0.00000000000E+00 0.  1.
         23    2    1    2    0    0  0.32489689314E+02 -0.66587952017E+01 -0.41800459080E+01  0.12063434591E+03  0.11591053949E+03 0.  0.
          5    1    3    3  502    0 -0.30659497790E+02  0.33306319908E+02  0.15101953998E+01  0.45537747427E+02  0.47000000000E+01 0. -1.
         -5    1    3    3    0  502  0.63149187104E+02 -0.39965115110E+02 -0.56902413078E+01  0.75096598483E+02  0.47000000000E+01 0.  1.
        -11    1    1    2    0    0 -0.41282239228E+02  0.40484694227E+02  0.10514565158E+03  0.11999517402E+03  0.00000000000E+00 0. -1.
         11    1    1    2    0    0  0.87925499146E+01 -0.33825899025E+02  0.29938352122E+02  0.46019618715E+02  0.00000000000E+00 0.  1.
<mgrwt>
<rscale>  0 0.11403681E+03</rscale>
<asrwt>0</asrwt>
<pdfrwt beam="1">  1        1 0.32119469E-01 0.12056190E+03</pdfrwt>
<pdfrwt beam="2">  1       -1 0.11980399E-01 0.12056190E+03</pdfrwt>
<totfact> 0.60275912E+03</totfact>
</mgrwt>
</event>
<event>
 7    1  0.6095443E-006  0.1811709E+03  0.7546771E-02  0.1172332E+00
         -2   -1    0    0    0  501 -0.00000000000E+00  0.00000000000E+00  0.17886401072E+02  0.17886401072E+02  0.00000000000E+00 0. -1.
          2   -1    0    0  501    0  0.00000000000E+00 -0.00000000000E+00 -0.16292272202E+04  0.16292272202E+04  0.00000000000E+00 0.  1.
         23    2    1    2    0    0  0.11498396044E+03  0.63066642583E+02 -0.79209620249E+03  0.81255109991E+03  0.12499673353E+03 0.  0.
          5    1    3    3  502    0  0.13488547500E+03  0.27487093371E+02 -0.66033125644E+03  0.67454361601E+03  0.47000000000E+01 0.  1.
         -5    1    3    3    0  502 -0.19901514557E+02  0.35579549212E+02 -0.13176494605E+03  0.13800748390E+03  0.47000000000E+01 0.  1.
        -11    1    1    2    0    0  0.12290615454E+02  0.64842579940E+01 -0.59936738491E+02  0.61526558906E+02  0.00000000000E+00 0. -1.
         11    1    1    2    0    0 -0.12727457589E+03 -0.69550900577E+02 -0.75930787810E+03  0.77303596241E+03  0.00000000000E+00 0.  1.
<mgrwt>
<rscale>  0 0.17539890E+03</rscale>
<asrwt>0</asrwt>
<pdfrwt beam="2">  1        2 0.25065036E+00 0.18117090E+03</pdfrwt>
<pdfrwt beam="1">  1       -2 0.27517538E-02 0.18117090E+03</pdfrwt>
<totfact> 0.55692023E+03</totfact>
</mgrwt>
</event>
<event>
 7    1  0.6095443E-006  0.1604603E+03  0.7546771E-02  0.1195800E+00
         -1   -1    0    0    0  501 -0.00000000000E+00  0.00000000000E+00  0.54345052660E+02  0.54345052660E+02  0.00000000000E+00 0.  1.
          1   -1    0    0  501    0  0.00000000000E+00 -0.00000000000E+00 -0.40352029151E+03  0.40352029151E+03  0.00000000000E+00 0. -1.
         23    2    1    2    0    0 -0.45679469244E+02 -0.89634087706E+02 -0.18532424971E+03  0.24513786245E+03  0.12500644177E+03 0.  0.
          5    1    3    3  502    0 -0.25559692907E+02 -0.11874726333E+03 -0.12066869753E+03  0.17128115779E+03  0.47000000000E+01 0.  1.
         -5    1    3    3    0  502 -0.20119776337E+02  0.29113175625E+02 -0.64655552178E+02  0.73856704654E+02  0.47000000000E+01 0.  1.
        -11    1    1    2    0    0 -0.22131713648E+02  0.34036960725E+02 -0.22586364258E+02  0.46459350994E+02  0.00000000000E+00 0.  1.
         11    1    1    2    0    0  0.67811182893E+02  0.55597126981E+02 -0.14126462488E+03  0.16626813073E+03  0.00000000000E+00 0. -1.
<mgrwt>
<rscale>  0 0.15386685E+03</rscale>
<asrwt>0</asrwt>
<pdfrwt beam="2">  1        1 0.62080046E-01 0.16046026E+03</pdfrwt>
<pdfrwt beam="1">  1       -1 0.83607771E-02 0.16046026E+03</pdfrwt>
<totfact> 0.46812111E+03</totfact>
</mgrwt>
</event>
<event>
 7    1  0.6095443E-006  0.1254618E+03  0.7546771E-02  0.1250166E+00
          1   -1    0    0  501    0  0.00000000000E+00  0.00000000000E+00  0.19281813229E+03  0.19281813229E+03  0.00000000000E+00 0. -1.
         -1   -1    0    0    0  501 -0.00000000000E+00 -0.00000000000E+00 -0.10594395161E+03  0.10594395161E+03  0.00000000000E+00 0.  1.
         23    2    1    2    0    0  0.32545189385E+01  0.10355191430E+02 -0.49404079128E+02  0.13483849381E+03  0.12499133768E+03 0.  0.
          5    1    3    3  502    0  0.28217975760E+02  0.39786713023E+02  0.21861039439E+02  0.53658473092E+02  0.47000000000E+01 0. -1.
         -5    1    3    3    0  502 -0.24963456822E+02 -0.29431521593E+02 -0.71265118566E+02  0.81180020720E+02  0.47000000000E+01 0. -1.
        -11    1    1    2    0    0 -0.46837070171E+02 -0.64027499830E+01  0.67652531477E+02  0.82532244395E+02  0.00000000000E+00 0. -1.
         11    1    1    2    0    0  0.43582551233E+02 -0.39524414473E+01  0.68625728332E+02  0.81391345697E+02  0.00000000000E+00 0.  1.
<mgrwt>
<rscale>  0 0.11581451E+03</rscale>
<asrwt>0</asrwt>
<pdfrwt beam="1">  1        1 0.29664328E-01 0.12546177E+03</pdfrwt>
<pdfrwt beam="2">  1       -1 0.16299069E-01 0.12546177E+03</pdfrwt>
<totfact> 0.41313085E+03</totfact>
</mgrwt>
</event>
<event>
 7    1  0.6095443E-006  0.1721850E+03  0.7546771E-02  0.1181961E+00
          1   -1    0    0  501    0  0.00000000000E+00  0.00000000000E+00  0.55537368276E+02  0.55537368276E+02  0.00000000000E+00 0. -1.
         -1   -1    0    0    0  501 -0.00000000000E+00 -0.00000000000E+00 -0.48939799877E+03  0.48939799877E+03  0.00000000000E+00 0.  1.
         23    2    1    2    0    0 -0.87823960737E+02 -0.79423582741E+02 -0.29259437988E+03  0.33949836588E+03  0.12500606274E+03 0.  0.
          5    1    3    3  502    0 -0.39249225669E+02  0.31583655880E+02 -0.76843912233E+02  0.92006010030E+02  0.47000000000E+01 0. -1.
         -5    1    3    3    0  502 -0.48574735069E+02 -0.11100723862E+03 -0.21575046764E+03  0.24749235584E+03  0.47000000000E+01 0. -1.
        -11    1    1    2    0    0  0.63056374910E+02  0.81321698158E+01 -0.10243531034E+03  0.12056214749E+03  0.00000000000E+00 0.  1.
         11    1    1    2    0    0  0.24767585827E+02  0.71291412926E+02 -0.38830940275E+02  0.84874853680E+02  0.00000000000E+00 0. -1.
<mgrwt>
<rscale>  0 0.16611480E+03</rscale>
<asrwt>0</asrwt>
<pdfrwt beam="1">  1        1 0.85442101E-02 0.17218499E+03</pdfrwt>
<pdfrwt beam="2">  1       -1 0.75292003E-01 0.17218499E+03</pdfrwt>
<totfact> 0.14488010E+03</totfact>
</mgrwt>
</event>
<event>
 7    1  0.6095443E-006  0.1318273E+03  0.7546771E-02  0.1238457E+00
          1   -1    0    0  501    0  0.00000000000E+00  0.00000000000E+00  0.49398647957E+03  0.49398647957E+03  0.00000000000E+00 0. -1.
         -1   -1    0    0    0  501 -0.00000000000E+00 -0.00000000000E+00 -0.39385846241E+02  0.39385846241E+02  0.00000000000E+00 0.  1.
         23    2    1    2    0    0 -0.61054776907E+01 -0.41430615147E+02  0.10104601762E+03  0.16609858090E+03  0.12499867267E+03 0.  0.
          5    1    3    3  502    0 -0.31942501294E+02  0.37006347113E+02  0.37678188646E+02  0.61899345838E+02  0.47000000000E+01 0. -1.
         -5    1    3    3    0  502  0.25837023603E+02 -0.78436962260E+02  0.63367828978E+02  0.10419923506E+03  0.47000000000E+01 0. -1.
        -11    1    1    2    0    0  0.13471752581E+02 -0.20418918714E+02  0.35091090586E+02  0.42776220001E+02  0.00000000000E+00 0.  1.
         11    1    1    2    0    0 -0.73662748901E+01  0.61849533861E+02  0.31846352512E+03  0.32449752491E+03  0.00000000000E+00 0. -1.
<mgrwt>
<rscale>  0 0.12285670E+03</rscale>
<asrwt>0</asrwt>
<pdfrwt beam="1">  1        1 0.75997915E-01 0.13182731E+03</pdfrwt>
<pdfrwt beam="2">  1       -1 0.60593613E-02 0.13182731E+03</pdfrwt>
<totfact> 0.57986623E+03</totfact>
</mgrwt>
</event>
<event>
 7    1  0.6095443E-006  0.1595892E+03  0.7546771E-02  0.1198682E+00
          1   -1    0    0  501    0  0.00000000000E+00  0.00000000000E+00  0.19370448844E+03  0.19370448844E+03  0.00000000000E+00 0. -1.
         -1   -1    0    0    0  501 -0.00000000000E+00 -0.00000000000E+00 -0.11837633479E+03  0.11837633479E+03  0.00000000000E+00 0.  1.
         23    2    1    2    0    0  0.99224986770E+02  0.11645760744E+01 -0.50461194577E+01  0.15966892240E+03  0.12498698821E+03 0.  0.
          5    1    3    3  502    0  0.31702087414E+02  0.16703420914E+02  0.56370161502E+02  0.66960523627E+02  0.47000000000E+01 0.  1.
         -5    1    3    3    0  502  0.67522899356E+02 -0.15538844839E+02 -0.61416280960E+02  0.92708398775E+02  0.47000000000E+01 0.  1.
        -11    1    1    2    0    0 -0.84715500667E+02  0.11143109148E+02  0.18160531964E+02  0.87353819927E+02  0.00000000000E+00 0.  1.
         11    1    1    2    0    0 -0.14509486103E+02 -0.12307685222E+02  0.62213741145E+02  0.65058080895E+02  0.00000000000E+00 0. -1.
<mgrwt>
<rscale>  0 0.15146669E+03</rscale>
<asrwt>0</asrwt>
<pdfrwt beam="1">  1        1 0.29800691E-01 0.15958916E+03</pdfrwt>
<pdfrwt beam="2">  1       -1 0.18211744E-01 0.15958916E+03</pdfrwt>
<totfact> 0.34889503E+03</totfact>
</mgrwt>
</event>
<event>
 7    1  0.6095443E-006  0.1473220E+03  0.7546771E-02  0.1212502E+00
          2   -1    0    0  501    0  0.00000000000E+00  0.00000000000E+00  0.12431868609E+04  0.12431868609E+04  0.00000000000E+00 0.  1.
         -2   -1    0    0    0  501 -0.00000000000E+00 -0.00000000000E+00 -0.14645341633E+02  0.14645341633E+02  0.00000000000E+00 0. -1.
         23    2    1    2    0    0  0.74340603520E+02  0.23416276963E+02  0.64338234275E+03  0.66003378518E+03  0.12501564405E+03 0.  0.
          5    1    3    3  502    0  0.25438030316E+02 -0.10682010636E+02  0.21524535943E+02  0.35307143543E+02  0.47000000000E+01 0. -1.
         -5    1    3    3    0  502  0.48902573204E+02  0.34098287599E+02  0.62185780680E+03  0.62472664163E+03  0.47000000000E+01 0. -1.
        -11    1    1    2    0    0  0.10699819329E+02 -0.34716048101E+02  0.16033693823E+03  0.16440080259E+03  0.00000000000E+00 0. -1.
         11    1    1    2    0    0 -0.85040422849E+02  0.11299771138E+02  0.42482223831E+03  0.43339761479E+03  0.00000000000E+00 0.  1.
<mgrwt>
<rscale>  0 0.14061669E+03</rscale>
<asrwt>0</asrwt>
<pdfrwt beam="1">  1        2 0.19125943E+00 0.14732196E+03</pdfrwt>
<pdfrwt beam="2">  1       -2 0.22531305E-02 0.14732196E+03</pdfrwt>
<totfact> 0.11891132E+04</totfact>
</mgrwt>
</event>
<event>
 7    1  0.6095443E-006  0.1530452E+03  0.7546771E-02  0.1202998E+00
          1   -1    0    0  501    0  0.00000000000E+00  0.00000000000E+00  0.12401621979E+03  0.12401621979E+03  0.00000000000E+00 0. -1.
         -1   -1    0    0    0  501 -0.00000000000E+00 -0.00000000000E+00 -0.18783131952E+03  0.18783131952E+03  0.00000000000E+00 0.  1.
         23    2    1    2    0    0  0.97591235177E+02 -0.11923187515E+02 -0.87146501516E+02  0.17611738675E+03  0.11728857407E+03 0.  0.
          5    1    3    3  502    0 -0.21362938045E+02 -0.15165629784E+02 -0.39972025345E+02  0.48023163773E+02  0.47000000000E+01 0. -1.
         -5    1    3    3    0  502  0.11895417322E+03  0.32424422688E+01 -0.47174476172E+02  0.12809422298E+03  0.47000000000E+01 0.  1.
        -11    1    1    2    0    0 -0.11111869104E+02  0.19040142907E+02  0.41577801074E+02  0.47060750303E+02  0.00000000000E+00 0. -1.
         11    1    1    2    0    0 -0.86479366073E+02 -0.71169553917E+01 -0.18246399288E+02  0.88669402262E+02  0.00000000000E+00 0.  1.
<mgrwt>
<rscale>  0 0.14796382E+03</rscale>
<asrwt>0</asrwt>
<pdfrwt beam="1">  1        1 0.19079419E-01 0.15304516E+03</pdfrwt>
<pdfrwt beam="2">  1       -1 0.28897126E-01 0.15304516E+03</pdfrwt>
<totfact> 0.28760645E+03</totfact>
</mgrwt>
</event>
<event>
 7    1  0.6095443E-006  0.1469148E+03  0.7546771E-02  0.1213761E+00
         -2   -1    0    0    0  501 -0.00000000000E+00  0.00000000000E+00  0.40297215712E+02  0.40297215712E+02  0.00000000000E+00 0.  1.
          2   -1    0    0  501    0  0.00000000000E+00 -0.00000000000E+00 -0.51694359956E+03  0.51694359956E+03  0.00000000000E+00 0. -1.
         23    2    1    2    0    0  0.25551496672E+02  0.72833282629E+02 -0.15330567144E+03  0.21233603363E+03  0.12500558483E+03 0.  0.
          5    1    3    3  502    0 -0.25732978573E+02 -0.24683255471E+02 -0.29325393311E+02  0.46406012323E+02  0.47000000000E+01 0.  1.
         -5    1    3    3    0  502  0.51284475245E+02  0.97516538099E+02 -0.12398027813E+03  0.16593002130E+03  0.47000000000E+01 0.  1.
        -11    1    1    2    0    0  0.26370967220E+01 -0.49072277745E+02 -0.29318610392E+03  0.29727619188E+03  0.00000000000E+00 0. -1.
         11    1    1    2    0    0 -0.28188593394E+02 -0.23761004884E+02 -0.30154608477E+02  0.47628589765E+02  0.00000000000E+00 0.  1.
<mgrwt>
<rscale>  0 0.13967946E+03</rscale>
<asrwt>0</asrwt>
<pdfrwt beam="2">  1        2 0.79529782E-01 0.14691481E+03</pdfrwt>
<pdfrwt beam="1">  1       -2 0.61995719E-02 0.14691481E+03</pdfrwt>
<totfact> 0.81051705E+03</totfact>
</mgrwt>
</event>
<event>
 7    1  0.6095443E-006  0.1272381E+03  0.7546771E-02  0.1245048E+00
          1   -1    0    0  501    0  0.00000000000E+00  0.00000000000E+00  0.60006826384E+02  0.60006826384E+02  0.00000000000E+00 0.  1.
         -1   -1    0    0    0  501 -0.00000000000E+00 -0.00000000000E+00 -0.21006030717E+03  0.21006030717E+03  0.00000000000E+00 0. -1.
         23    2    1    2    0    0  0.23124051144E+02  0.54372873888E+01 -0.94344595296E+02  0.15839957643E+03  0.12500094926E+03 0.  0.
          5    1    3    3  502    0  0.39401781615E+01  0.30358598383E+02 -0.11591063674E+03  0.11997722788E+03  0.47000000000E+01 0. -1.
         -5    1    3    3    0  502  0.19183872982E+02 -0.24921310994E+02  0.21566041448E+02  0.38422348549E+02  0.47000000000E+01 0. -1.
        -11    1    1    2    0    0 -0.32154650423E+02 -0.44694674167E+02 -0.22571163038E+02  0.59506242056E+02  0.00000000000E+00 0.  1.
         11    1    1    2    0    0  0.90305992794E+01  0.39257386779E+02 -0.33137722449E+02  0.52161315063E+02  0.00000000000E+00 0. -1.
<mgrwt>
<rscale>  0 0.11882505E+03</rscale>
<asrwt>0</asrwt>
<pdfrwt beam="1">  1        1 0.92318193E-02 0.12723806E+03</pdfrwt>
<pdfrwt beam="2">  1       -1 0.32316971E-01 0.12723806E+03</pdfrwt>
<totfact> 0.60756064E+03</totfact>
</mgrwt>
</event>
<event>
 7    1  0.6095443E-006  0.1305540E+03  0.7546771E-02  0.1240303E+00
          1   -1    0    0  501    0  0.00000000000E+00  0.00000000000E+00  0.17556954861E+02  0.17556954861E+02  0.00000000000E+00 0. -1.
         -1   -1    0    0    0  501 -0.00000000000E+00 -0.00000000000E+00 -0.80812748626E+03  0.80812748626E+03  0.00000000000E+00 0.  1.
         23    2    1    2    0    0  0.27917348572E+02 -0.25338229524E+02 -0.33449565108E+03  0.35907058533E+03  0.12499176145E+03 0.  0.
          5    1    3    3  502    0  0.17319102392E+02  0.36231384110E+02 -0.36210073011E+02  0.54276365848E+02  0.47000000000E+01 0.  1.
         -5    1    3    3    0  502  0.10598246180E+02 -0.61569613634E+02 -0.29828557807E+03  0.30479421948E+03  0.47000000000E+01 0.  1.
        -11    1    1    2    0    0 -0.43124949883E+01 -0.33861646130E+02 -0.13282764634E+03  0.13714369225E+03  0.00000000000E+00 0. -1.
         11    1    1    2    0    0 -0.23604853584E+02  0.59199875653E+02 -0.32324723398E+03  0.32947016355E+03  0.00000000000E+00 0.  1.
<mgrwt>
<rscale>  0 0.12170945E+03</rscale>
<asrwt>0</asrwt>
<pdfrwt beam="1">  1        1 0.27010702E-02 0.13055399E+03</pdfrwt>
<pdfrwt beam="2">  1       -1 0.12432729E+00 0.13055399E+03</pdfrwt>
<totfact> 0.23173339E+03</totfact>
</mgrwt>
</event>
<event>
 7    1  0.6095443E-006  0.1465927E+03  0.7546771E-02  0.1214175E+00
          1   -1    0    0  501    0  0.00000000000E+00  0.00000000000E+00  0.15419851917E+02  0.15419851917E+02  0.00000000000E+00 0. -1.
         -1   -1    0    0    0  501 -0.00000000000E+00 -0.00000000000E+00 -0.12611848637E+04  0.12611848637E+04  0.00000000000E+00 0.  1.
         23    2    1    2    0    0  0.12112339990E+02 -0.75618912209E+02 -0.86840499044E+03  0.88069100246E+03  0.12499794285E+03 0.  0.
          5    1    3    3  502    0  0.62003916381E+02 -0.52959152704E+02 -0.66443663660E+03  0.66943804161E+03  0.47000000000E+01 0.  1.
         -5    1    3    3    0  502 -0.49891576391E+02 -0.22659759505E+02 -0.20396835384E+03  0.21125296085E+03  0.47000000000E+01 0.  1.
        -11    1    1    2    0    0  0.27801577847E+02 -0.43036681505E+00 -0.47348127016E+02  0.54908633914E+02  0.00000000000E+00 0. -1.
         11    1    1    2    0    0 -0.39913917837E+02  0.76049279024E+02 -0.33001189432E+03  0.34100507925E+03  0.00000000000E+00 0.  1.
<mgrwt>
<rscale>  0 0.13937333E+03</rscale>
<asrwt>0</asrwt>
<pdfrwt beam="1">  1        1 0.23722849E-02 0.14659268E+03</pdfrwt>
<pdfrwt beam="2">  1       -1 0.19402844E+00 0.14659268E+03</pdfrwt>
<totfact> 0.85772343E+02</totfact>
</mgrwt>
</event>
<event>
 7    1  0.6095443E-006  0.1315117E+03  0.7546771E-02  0.1239994E+00
          1   -1    0    0  501    0  0.00000000000E+00  0.00000000000E+00  0.50891481736E+03  0.50891481736E+03  0.00000000000E+00 0. -1.
         -1   -1    0    0    0  501 -0.00000000000E+00 -0.00000000000E+00 -0.30217028721E+02  0.30217028721E+02  0.00000000000E+00 0.  1.
         23    2    1    2    0    0  0.38652834480E+02 -0.13294978454E+02  0.16641124288E+03  0.21210379714E+03  0.12499808374E+03 0.  0.
          5    1    3    3  502    0 -0.14368700067E+02  0.31060550559E+02  0.30771016027E+01  0.34681059628E+02  0.47000000000E+01 0.  1.
         -5    1    3    3    0  502  0.53021534547E+02 -0.44355529013E+02  0.16333414128E+03  0.17742273751E+03  0.47000000000E+01 0.  1.
        -11    1    1    2    0    0  0.26548578169E+02 -0.43052977127E+01  0.58108171565E+02  0.64030634807E+02  0.00000000000E+00 0.  1.
         11    1    1    2    0    0 -0.65201412649E+02  0.17600276167E+02  0.25417837419E+03  0.26299741413E+03  0.00000000000E+00 0. -1.
<mgrwt>
<rscale>  0 0.12190044E+03</rscale>
<asrwt>0</asrwt>
<pdfrwt beam="1">  1        1 0.78294581E-01 0.13151167E+03</pdfrwt>
<pdfrwt beam="2">  1       -1 0.46487740E-02 0.13151167E+03</pdfrwt>
<totfact> 0.82586004E+03</totfact>
</mgrwt>
</event>
<event>
 6    1  0.6095443E-006  0.1852859E+03  0.7546771E-02  0.1176553E+00
         -2   -1    0    0    0  501 -0.00000000000E+00  0.00000000000E+00  0.27007708129E+02  0.27007708129E+02  0.00000000000E+00 0.  1.
          2   -1    0    0  501    0  0.00000000000E+00 -0.00000000000E+00 -0.98577123259E+03  0.98577123259E+03  0.00000000000E+00 0. -1.
          5    1    1    2  502    0  0.97910506944E+02  0.15856907779E+01 -0.34872526061E+03  0.36224353572E+03  0.47000000000E+01 0. -1.
         -5    1    1    2    0  502 -0.27941263627E+02  0.67927443517E+02 -0.10859702909E+03  0.13118786729E+03  0.47000000000E+01 0.  1.
        -11    1    1    2    0    0  0.42692582951E+01 -0.56558774955E+02 -0.27186907093E+03  0.27772272741E+03  0.00000000000E+00 0. -1.
         11    1    1    2    0    0 -0.74238501612E+02 -0.12954359340E+02 -0.22957216382E+03  0.24162481030E+03  0.00000000000E+00 0.  1.
<mgrwt>
<rscale>  0 0.17124762E+03</rscale>
<asrwt>0</asrwt>
<pdfrwt beam="2">  1        2 0.15165713E+00 0.18528592E+03</pdfrwt>
<pdfrwt beam="1">  1       -2 0.41550316E-02 0.18528592E+03</pdfrwt>
<totfact> 0.68390787E+03</totfact>
</mgrwt>
</event>
<event>
 7    1  0.6095443E-006  0.1290346E+03  0.7546771E-02  0.1244460E+00
         -1   -1    0    0    0  501 -0.00000000000E+00  0.00000000000E+00  0.27832898769E+03  0.27832898769E+03  0.00000000000E+00 0.  1.
          1   -1    0    0  501    0  0.00000000000E+00 -0.00000000000E+00 -0.49240067279E+02  0.49240067279E+02  0.00000000000E+00 0. -1.
         23    2    1    2    0    0 -0.31898352358E+02 -0.30066062713E+01  0.18040014324E+03  0.22179750710E+03  0.12499351149E+03 0.  0.
          5    1    3    3  502    0  0.11231718799E+02  0.46878962370E+02  0.12980405491E+03  0.13854591762E+03  0.47000000000E+01 0. -1.
         -5    1    3    3    0  502 -0.43130071158E+02 -0.49885568641E+02  0.50596088328E+02  0.83251589480E+02  0.47000000000E+01 0. -1.
        -11    1    1    2    0    0 -0.81293828116E+01  0.17176802154E+02  0.59076295906E+02  0.62057538906E+02  0.00000000000E+00 0.  1.
         11    1    1    2    0    0  0.40027735170E+02 -0.14170195883E+02 -0.10387518727E+02  0.43714008962E+02  0.00000000000E+00 0. -1.
<mgrwt>
<rscale>  0 0.11917765E+03</rscale>
<asrwt>0</asrwt>
<pdfrwt beam="2">  1        1 0.75753951E-02 0.12903458E+03</pdfrwt>
<pdfrwt beam="1">  1       -1 0.42819843E-01 0.12903458E+03</pdfrwt>
<totfact> 0.48669439E+03</totfact>
</mgrwt>
</event>
<event>
 7    1  0.6095443E-006  0.1261361E+03  0.7546771E-02  0.1249471E+00
          3   -1    0    0  501    0  0.00000000000E+00  0.00000000000E+00  0.48538802491E+02  0.48538802491E+02  0.00000000000E+00 0. -1.
         -3   -1    0    0    0  501 -0.00000000000E+00 -0.00000000000E+00 -0.25242169721E+03  0.25242169721E+03  0.00000000000E+00 0.  1.
         23    2    1    2    0    0  0.16172413521E+02  0.49547201379E+01 -0.14713168598E+03  0.19379901527E+03  0.12499691632E+03 0.  0.
          5    1    3    3  502    0 -0.52048751255E+02  0.19498652779E+02 -0.57278627181E+02  0.79951242011E+02  0.47000000000E+01 0.  1.
         -5    1    3    3    0  502  0.68221164776E+02 -0.14543932641E+02 -0.89853058801E+02  0.11384777326E+03  0.47000000000E+01 0.  1.
        -11    1    1    2    0    0  0.47994772879E+00 -0.40583890590E+02 -0.31899425570E+01  0.40711893333E+02  0.00000000000E+00 0. -1.
         11    1    1    2    0    0 -0.16652361250E+02  0.35629170452E+02 -0.53561266175E+02  0.66449591094E+02  0.00000000000E+00 0.  1.
<mgrwt>
<rscale>  0 0.11621739E+03</rscale>
<asrwt>0</asrwt>
<pdfrwt beam="1">  1        3 0.74675081E-02 0.12613614E+03</pdfrwt>
<pdfrwt beam="2">  1       -3 0.38834107E-01 0.12613614E+03</pdfrwt>
<totfact> 0.17793885E+03</totfact>
</mgrwt>
</event>
<event>
 7    1  0.6095443E-006  0.1761411E+03  0.7546771E-02  0.1173092E+00
          2   -1    0    0  501    0  0.00000000000E+00  0.00000000000E+00  0.26104799318E+03  0.26104799318E+03  0.00000000000E+00 0. -1.
         -2   -1    0    0    0  501 -0.00000000000E+00 -0.00000000000E+00 -0.12212453500E+03  0.12212453500E+03  0.00000000000E+00 0.  1.
         23    2    1    2    0    0 -0.27420003841E+02  0.12103191361E+03  0.23951992133E+02  0.17776213220E+03  0.12500038798E+03 0.  0.
          5    1    3    3  502    0  0.30886962830E+02  0.17847004619E+02 -0.30574759379E+02  0.47216797411E+02  0.47000000000E+01 0.  1.
         -5    1    3    3    0  502 -0.58306966671E+02  0.10318490899E+03  0.54526751512E+02  0.13054533479E+03  0.47000000000E+01 0.  1.
        -11    1    1    2    0    0  0.34874181183E+02 -0.20064440077E+02 -0.12955327930E+02  0.42268555576E+02  0.00000000000E+00 0.  1.
         11    1    1    2    0    0 -0.74541773417E+01 -0.10096747353E+03  0.12792679398E+03  0.16314184040E+03  0.00000000000E+00 0. -1.
<mgrwt>
<rscale>  0 0.17464188E+03</rscale>
<asrwt>0</asrwt>
<pdfrwt beam="1">  1        2 0.40161229E-01 0.17614107E+03</pdfrwt>
<pdfrwt beam="2">  1       -2 0.18788390E-01 0.17614107E+03</pdfrwt>
<totfact> 0.29164546E+03</totfact>
</mgrwt>
</event>
<event>
 6    1  0.6095443E-006  0.1607471E+03  0.7546771E-02  0.1199843E+00
         -1   -1    0    0    0  501 -0.00000000000E+00  0.00000000000E+00  0.31797619879E+03  0.31797619879E+03  0.00000000000E+00 0.  1.
          1   -1    0    0  501    0  0.00000000000E+00 -0.00000000000E+00 -0.65875643590E+02  0.65875643590E+02  0.00000000000E+00 0. -1.
          5    1    1    2  502    0  0.58201245699E+02 -0.89374990064E+01  0.10700294870E+03  0.12222514030E+03  0.47000000000E+01 0. -1.
         -5    1    1    2    0  502 -0.28519988210E+02  0.89151987150E+02  0.70711856131E+02  0.11740410188E+03  0.47000000000E+01 0.  1.
        -11    1    1    2    0    0 -0.36007934438E+02 -0.27682399443E+02  0.78983671691E+02  0.91111508468E+02  0.00000000000E+00 0.  1.
         11    1    1    2    0    0  0.63266769490E+01 -0.52532088701E+02 -0.45979213296E+01  0.53111091733E+02  0.00000000000E+00 0. -1.
<mgrwt>
<rscale>  0 0.15051377E+03</rscale>
<asrwt>0</asrwt>
<pdfrwt beam="2">  1        1 0.10134715E-01 0.16074707E+03</pdfrwt>
<pdfrwt beam="1">  1       -1 0.48919414E-01 0.16074707E+03</pdfrwt>
<totfact> 0.26283069E+03</totfact>
</mgrwt>
</event>
<event>
 7    1  0.6095443E-006  0.1467136E+03  0.7546771E-02  0.1214588E+00
          1   -1    0    0  501    0  0.00000000000E+00  0.00000000000E+00  0.20555191238E+03  0.20555191238E+03  0.00000000000E+00 0. -1.
         -1   -1    0    0    0  501 -0.00000000000E+00 -0.00000000000E+00 -0.10478556467E+03  0.10478556467E+03  0.00000000000E+00 0.  1.
         23    2    1    2    0    0 -0.13895030797E+02  0.75573226420E+02 -0.11475777440E+02  0.14716177603E+03  0.12498204040E+03 0.  0.
          5    1    3    3  502    0 -0.50009952162E+02  0.16772183420E+02 -0.45738694805E+02  0.69974421429E+02  0.47000000000E+01 0. -1.
         -5    1    3    3    0  502  0.36114921364E+02  0.58801043000E+02  0.34262917366E+02  0.77187354596E+02  0.47000000000E+01 0. -1.
        -11    1    1    2    0    0 -0.23186485969E+02 -0.27342829676E+02  0.39402168600E+00  0.35852457647E+02  0.00000000000E+00 0. -1.
         11    1    1    2    0    0  0.37081516766E+02 -0.48230396744E+02  0.11184810347E+03  0.12732324338E+03  0.00000000000E+00 0.  1.
<mgrwt>
<rscale>  0 0.13906807E+03</rscale>
<asrwt>0</asrwt>
<pdfrwt beam="1">  1        1 0.31623371E-01 0.14671365E+03</pdfrwt>
<pdfrwt beam="2">  1       -1 0.16120856E-01 0.14671365E+03</pdfrwt>
<totfact> 0.39156911E+03</totfact>
</mgrwt>
</event>
<event>
 7    1  0.6095443E-006  0.3053166E+03  0.7546771E-02  0.1084090E+00
         -2   -1    0    0    0  501 -0.00000000000E+00  0.00000000000E+00  0.41576800404E+03  0.41576800404E+03  0.00000000000E+00 0. -1.
          2   -1    0    0  501    0  0.00000000000E+00 -0.00000000000E+00 -0.24555580669E+03  0.24555580669E+03  0.00000000000E+00 0.  1.
         23    2    1    2    0    0 -0.22746599474E+03 -0.16078463058E+03  0.20205995553E+03  0.36612351051E+03  0.12500289247E+03 0.  0.
          5    1    3    3  502    0  0.10464022789E+02 -0.16936264998E+02  0.38279212889E+02  0.43401854619E+02  0.47000000000E+01 0.  1.
         -5    1    3    3    0  502 -0.23793001753E+03 -0.14384836558E+03  0.16378074264E+03  0.32272165589E+03  0.47000000000E+01 0.  1.
        -11    1    1    2    0    0  0.14268947360E+03  0.74712566484E+02 -0.58720240070E+02  0.17143605239E+03  0.00000000000E+00 0.  1.
         11    1    1    2    0    0  0.84776521145E+02  0.86072064092E+02  0.26872481889E+02  0.12376424782E+03  0.00000000000E+00 0. -1.
<mgrwt>
<rscale>  0 0.30231271E+03</rscale>
<asrwt>0</asrwt>
<pdfrwt beam="2">  1        2 0.37777816E-01 0.30531656E+03</pdfrwt>
<pdfrwt beam="1">  1       -2 0.63964309E-01 0.30531656E+03</pdfrwt>
<totfact> 0.31592934E+02</totfact>
</mgrwt>
</event>
<event>
 7    1  0.6095443E-006  0.1271776E+03  0.7546771E-02  0.1247665E+00
         -1   -1    0    0    0  501 -0.00000000000E+00  0.00000000000E+00  0.26782641079E+03  0.26782641079E+03  0.00000000000E+00 0.  1.
          1   -1    0    0  501    0  0.00000000000E+00 -0.00000000000E+00 -0.75789067037E+02  0.75789067037E+02  0.00000000000E+00 0. -1.
         23    2    1    2    0    0 -0.23360566841E+02  0.22449076011E+01  0.21412827117E+03  0.24904831569E+03  0.12499356520E+03 0.  0.
          5    1    3    3  502    0  0.65343211671E+01 -0.24072969444E+02 -0.53460271987E+01  0.25939838430E+02  0.47000000000E+01 0. -1.
         -5    1    3    3    0  502 -0.29894888008E+02  0.26317877045E+02  0.21947429837E+03  0.22310847726E+03  0.47000000000E+01 0. -1.
        -11    1    1    2    0    0  0.60783266481E+01 -0.44785795818E+02 -0.17324782950E+02  0.48403116285E+02  0.00000000000E+00 0.  1.
         11    1    1    2    0    0  0.17282240193E+02  0.42540888217E+02 -0.47661444671E+01  0.46164045852E+02  0.00000000000E+00 0. -1.
<mgrwt>
<rscale>  0 0.11727267E+03</rscale>
<asrwt>0</asrwt>
<pdfrwt beam="2">  1        1 0.11659857E-01 0.12717762E+03</pdfrwt>
<pdfrwt beam="1">  1       -1 0.41204063E-01 0.12717762E+03</pdfrwt>
<totfact> 0.29356022E+03</totfact>
</mgrwt>
</event>
<event>
 7    1  0.6095443E-006  0.1701562E+03  0.7546771E-02  0.1183094E+00
          1   -1    0    0  501    0  0.00000000000E+00  0.00000000000E+00  0.62554587997E+02  0.62554587997E+02  0.00000000000E+00 0. -1.
         -1   -1    0    0    0  501 -0.00000000000E+00 -0.00000000000E+00 -0.44362886075E+03  0.44362886075E+03  0.00000000000E+00 0.  1.
         23    2    1    2    0    0 -0.71225995878E+02 -0.90857984195E+02 -0.26935706189E+03  0.31860061375E+03  0.12499923405E+03 0.  0.
          5    1    3    3  502    0 -0.68659331664E+02 -0.24183997430E+02 -0.22932631072E+03  0.24064832504E+03  0.47000000000E+01 0. -1.
         -5    1    3    3    0  502 -0.25666642132E+01 -0.66673986765E+02 -0.40030751168E+02  0.77952288712E+02  0.47000000000E+01 0. -1.
        -11    1    1    2    0    0  0.86357930816E+02  0.40503536786E+02 -0.88459552742E+02  0.13008966592E+03  0.00000000000E+00 0.  1.
         11    1    1    2    0    0 -0.15131934939E+02  0.50354447409E+02 -0.23257658117E+02  0.57493169072E+02  0.00000000000E+00 0. -1.
<mgrwt>
<rscale>  0 0.16506491E+03</rscale>
<asrwt>0</asrwt>
<pdfrwt beam="1">  1        1 0.96237827E-02 0.17015618E+03</pdfrwt>
<pdfrwt beam="2">  1       -1 0.68250595E-01 0.17015618E+03</pdfrwt>
<totfact> 0.15020177E+03</totfact>
</mgrwt>
</event>
<event>
 7    1  0.6095443E-006  0.1502921E+03  0.7546771E-02  0.1209237E+00
         -1   -1    0    0    0  501 -0.00000000000E+00  0.00000000000E+00  0.16625958211E+03  0.16625958211E+03  0.00000000000E+00 0.  1.
          1   -1    0    0  501    0  0.00000000000E+00 -0.00000000000E+00 -0.11542402617E+03  0.11542402617E+03  0.00000000000E+00 0. -1.
         23    2    1    2    0    0 -0.67465743923E+02  0.49113723692E+02  0.49403076877E+02  0.15820359281E+03  0.12499571318E+03 0.  0.
          5    1    3    3  502    0 -0.62396549225E+02  0.49950352731E+02 -0.24688664141E+02  0.83785364057E+02  0.47000000000E+01 0.  1.
         -5    1    3    3    0  502 -0.50691946983E+01 -0.83662903916E+00  0.74091741017E+02  0.74418228748E+02  0.47000000000E+01 0.  1.
        -11    1    1    2    0    0  0.80987432349E+02 -0.21522386848E+02  0.21835283947E+02  0.86596518170E+02  0.00000000000E+00 0.  1.
         11    1    1    2    0    0 -0.13521688426E+02 -0.27591336844E+02 -0.20402804877E+02  0.36883497306E+02  0.00000000000E+00 0. -1.
<mgrwt>
<rscale>  0 0.14308495E+03</rscale>
<asrwt>0</asrwt>
<pdfrwt beam="2">  1        1 0.17757542E-01 0.15029209E+03</pdfrwt>
<pdfrwt beam="1">  1       -1 0.25578397E-01 0.15029209E+03</pdfrwt>
<totfact> 0.38594017E+03</totfact>
</mgrwt>
</event>
<event>
 6    1  0.6095443E-006  0.2023794E+03  0.7546771E-02  0.1178013E+00
          2   -1    0    0  501    0  0.00000000000E+00  0.00000000000E+00  0.41534230997E+03  0.41534230997E+03  0.00000000000E+00 0. -1.
         -2   -1    0    0    0  501 -0.00000000000E+00 -0.00000000000E+00 -0.21554739558E+03  0.21554739558E+03  0.00000000000E+00 0.  1.
          5    1    1    2  502    0 -0.46594842956E+02 -0.22361126752E+02  0.33828964398E+02  0.61948270452E+02  0.47000000000E+01 0. -1.
         -5    1    1    2    0  502  0.47751681464E+01  0.29573765921E+02 -0.19342814338E+03  0.19579056799E+03  0.47000000000E+01 0.  1.
        -11    1    1    2    0    0  0.23287482780E+02  0.40409873304E+02  0.12941276711E+03  0.13756063756E+03  0.00000000000E+00 0.  1.
         11    1    1    2    0    0  0.18532192029E+02 -0.47622512473E+02  0.22998132626E+03  0.23559022956E+03  0.00000000000E+00 0. -1.
<mgrwt>
<rscale>  0 0.16984139E+03</rscale>
<asrwt>0</asrwt>
<pdfrwt beam="1">  1        2 0.63898817E-01 0.20237937E+03</pdfrwt>
<pdfrwt beam="2">  1       -2 0.33161138E-01 0.20237937E+03</pdfrwt>
<totfact> 0.65313572E+02</totfact>
</mgrwt>
</event>
<event>
 7    1  0.6095443E-006  0.1907458E+03  0.7546771E-02  0.1162558E+00
          1   -1    0    0  501    0  0.00000000000E+00  0.00000000000E+00  0.76166598915E+03  0.76166598915E+03  0.00000000000E+00 0. -1.
         -1   -1    0    0    0  501 -0.00000000000E+00 -0.00000000000E+00 -0.47467213178E+02  0.47467213178E+02  0.00000000000E+00 0.  1.
         23    2    1    2    0    0 -0.10263741800E+03 -0.10113085976E+03  0.24944396859E+03  0.31401634036E+03  0.12498831216E+03 0.  0.
          5    1    3    3  502    0 -0.15047134875E+02  0.17608580040E+02 -0.60439548691E+00  0.23641777701E+02  0.47000000000E+01 0.  1.
         -5    1    3    3    0  502 -0.87590283125E+02 -0.11873943980E+03  0.25004836408E+03  0.29037456266E+03  0.47000000000E+01 0.  1.
        -11    1    1    2    0    0  0.22983269850E+02 -0.94890597053E+01  0.27349755030E+02  0.36963252661E+02  0.00000000000E+00 0.  1.
         11    1    1    2    0    0  0.79654148151E+02  0.11061991946E+03  0.43740505235E+03  0.45815360931E+03  0.00000000000E+00 0. -1.
<mgrwt>
<rscale>  0 0.18552794E+03</rscale>
<asrwt>0</asrwt>
<pdfrwt beam="1">  1        1 0.11717937E+00 0.19074582E+03</pdfrwt>
<pdfrwt beam="2">  1       -1 0.73026487E-02 0.19074582E+03</pdfrwt>
<totfact> 0.24408575E+03</totfact>
</mgrwt>
</event>
<event>
 7    1  0.6095443E-006  0.3100560E+03  0.7546771E-02  0.1081477E+00
          2   -1    0    0  501    0  0.00000000000E+00  0.00000000000E+00  0.22165676802E+03  0.22165676802E+03  0.00000000000E+00 0. -1.
         -2   -1    0    0    0  501 -0.00000000000E+00 -0.00000000000E+00 -0.42419479300E+03  0.42419479300E+03  0.00000000000E+00 0.  1.
         23    2    1    2    0    0 -0.16551486622E+03 -0.23046436730E+03 -0.72744895057E+02  0.31847533150E+03  0.12500288590E+03 0.  0.
          5    1    3    3  502    0 -0.17585741718E+02  0.11285674704E+02  0.93490860824E+01  0.23369214275E+02  0.47000000000E+01 0.  1.
         -5    1    3    3    0  502 -0.14792912450E+03 -0.24175004201E+03 -0.82093981139E+02  0.29510611723E+03  0.47000000000E+01 0.  1.
        -11    1    1    2    0    0  0.13335767578E+03  0.10233892730E+03 -0.80487303078E+02  0.18637524430E+03  0.00000000000E+00 0.  1.
         11    1    1    2    0    0  0.32157190441E+02  0.12812544000E+03 -0.49305826849E+02  0.14100098522E+03  0.00000000000E+00 0. -1.
<mgrwt>
<rscale>  0 0.30765109E+03</rscale>
<asrwt>0</asrwt>
<pdfrwt beam="1">  1        2 0.34101041E-01 0.31005599E+03</pdfrwt>
<pdfrwt beam="2">  1       -2 0.65260737E-01 0.31005599E+03</pdfrwt>
<totfact> 0.33869746E+02</totfact>
</mgrwt>
</event>
<event>
 7    1  0.6095443E-006  0.1284957E+03  0.7546771E-02  0.1243184E+00
         -1   -1    0    0    0  501 -0.00000000000E+00  0.00000000000E+00  0.51631826217E+02  0.51631826217E+02  0.00000000000E+00 0.  1.
          1   -1    0    0  501    0  0.00000000000E+00 -0.00000000000E+00 -0.24825651140E+03  0.24825651140E+03  0.00000000000E+00 0. -1.
         23    2    1    2    0    0  0.60715711243E+01 -0.28361931387E+02 -0.10321781763E+03  0.16481824817E+03  0.12517936701E+03 0.  0.
          5    1    3    3  502    0  0.54100318640E+02  0.22136962184E+02 -0.46537904381E+02  0.74864919127E+02  0.47000000000E+01 0. -1.
         -5    1    3    3    0  502 -0.48028747516E+02 -0.50498893571E+02 -0.56679913253E+02  0.89953329044E+02  0.47000000000E+01 0. -1.
        -11    1    1    2    0    0 -0.32762960358E+02  0.13676409187E+02 -0.98026093782E+02  0.10425723381E+03  0.00000000000E+00 0. -1.
         11    1    1    2    0    0  0.26691389234E+02  0.14685522200E+02  0.46192262306E+01  0.30812855637E+02  0.00000000000E+00 0.  1.
<mgrwt>
<rscale>  0 0.11994738E+03</rscale>
<asrwt>0</asrwt>
<pdfrwt beam="2">  1        1 0.38193309E-01 0.12849567E+03</pdfrwt>
<pdfrwt beam="1">  1       -1 0.79433579E-02 0.12849567E+03</pdfrwt>
<totfact> 0.91348162E+03</totfact>
</mgrwt>
</event>
<event>
 7    1  0.6095443E-006  0.2035001E+03  0.7546771E-02  0.1150560E+00
         -1   -1    0    0    0  501 -0.00000000000E+00  0.00000000000E+00  0.51870817990E+02  0.51870817990E+02  0.00000000000E+00 0.  1.
          1   -1    0    0  501    0  0.00000000000E+00 -0.00000000000E+00 -0.78267677204E+03  0.78267677204E+03  0.00000000000E+00 0. -1.
         23    2    1    2    0    0  0.66762871543E+02 -0.14604407131E+03 -0.27443468819E+03  0.34165288679E+03  0.12500458068E+03 0.  0.
          5    1    3    3  502    0  0.57636262751E+02 -0.75414598793E+00 -0.76105864585E+02  0.95586087608E+02  0.47000000000E+01 0. -1.
         -5    1    3    3    0  502  0.91266087926E+01 -0.14528992533E+03 -0.19832882361E+03  0.24606679919E+03  0.47000000000E+01 0. -1.
        -11    1    1    2    0    0  0.20039921195E+02  0.60953258279E+02 -0.17492777674E+03  0.18632397917E+03  0.00000000000E+00 0.  1.
         11    1    1    2    0    0 -0.86802792738E+02  0.85090813034E+02 -0.28144348911E+03  0.30657072407E+03  0.00000000000E+00 0. -1.
<mgrwt>
<rscale>  0 0.19902995E+03</rscale>
<asrwt>0</asrwt>
<pdfrwt beam="2">  1        1 0.12041181E+00 0.20350012E+03</pdfrwt>
<pdfrwt beam="1">  1       -1 0.79801262E-02 0.20350012E+03</pdfrwt>
<totfact> 0.20498788E+03</totfact>
</mgrwt>
</event>
<event>
 7    1  0.6095443E-006  0.1490261E+03  0.7546771E-02  0.1210999E+00
          1   -1    0    0  501    0  0.00000000000E+00  0.00000000000E+00  0.21775033943E+03  0.21775033943E+03  0.00000000000E+00 0. -1.
         -1   -1    0    0    0  501 -0.00000000000E+00 -0.00000000000E+00 -0.84659763180E+02  0.84659763180E+02  0.00000000000E+00 0.  1.
         23    2    1    2    0    0 -0.18109032301E+02  0.79077189421E+02  0.82758308702E+02  0.17046321239E+03  0.12501052028E+03 0.  0.
          5    1    3    3  502    0  0.40993477853E+02  0.78478724017E+02  0.39485635539E+02  0.97059676301E+02  0.47000000000E+01 0. -1.
         -5    1    3    3    0  502 -0.59102510154E+02  0.59846540459E+00  0.43272673163E+02  0.73403536086E+02  0.47000000000E+01 0. -1.
        -11    1    1    2    0    0  0.28684096774E+02 -0.87756693489E+02  0.14327676015E+02  0.93430706729E+02  0.00000000000E+00 0.  1.
         11    1    1    2    0    0 -0.10575064474E+02  0.86795040675E+01  0.36004591538E+02  0.38516183499E+02  0.00000000000E+00 0. -1.
<mgrwt>
<rscale>  0 0.14174567E+03</rscale>
<asrwt>0</asrwt>
<pdfrwt beam="1">  1        1 0.33500052E-01 0.14902607E+03</pdfrwt>
<pdfrwt beam="2">  1       -1 0.13024579E-01 0.14902607E+03</pdfrwt>
<totfact> 0.50950946E+03</totfact>
</mgrwt>
</event>
<event>
 7    1  0.6095443E-006  0.1390034E+03  0.7546771E-02  0.1225414E+00
          1   -1    0    0  501    0  0.00000000000E+00  0.00000000000E+00  0.35786973642E+03  0.35786973642E+03  0.00000000000E+00 0. -1.
         -1   -1    0    0    0  501 -0.00000000000E+00 -0.00000000000E+00 -0.62801493385E+02  0.62801493385E+02  0.00000000000E+00 0.  1.
         23    2    1    2    0    0  0.51711763668E+02 -0.31963543024E+02  0.43381044545E+02  0.14561545031E+03  0.12500467895E+03 0.  0.
          5    1    3    3  502    0  0.82608774681E+02  0.10311595901E+02  0.11606253351E+02  0.84186304000E+02  0.47000000000E+01 0. -1.
         -5    1    3    3    0  502 -0.30897011013E+02 -0.42275138924E+02  0.31774791194E+02  0.61429146307E+02  0.47000000000E+01 0. -1.
        -11    1    1    2    0    0 -0.33794913782E+02 -0.20764101958E+02  0.40651172879E+02  0.56795791957E+02  0.00000000000E+00 0.  1.
         11    1    1    2    0    0 -0.17916849886E+02  0.52727644981E+02  0.21103602561E+03  0.21825998754E+03  0.00000000000E+00 0. -1.
<mgrwt>
<rscale>  0 0.13138565E+03</rscale>
<asrwt>0</asrwt>
<pdfrwt beam="1">  1        1 0.55056881E-01 0.13900340E+03</pdfrwt>
<pdfrwt beam="2">  1       -1 0.96617684E-02 0.13900340E+03</pdfrwt>
<totfact> 0.43380189E+03</totfact>
</mgrwt>
</event>
<event>
 7    1  0.6095443E-006  0.1428033E+03  0.7546771E-02  0.1221169E+00
          2   -1    0    0  501    0  0.00000000000E+00  0.00000000000E+00  0.47404510752E+03  0.47404510752E+03  0.00000000000E+00 0.  1.
         -2   -1    0    0    0  501 -0.00000000000E+00 -0.00000000000E+00 -0.34393781776E+02  0.34393781776E+02  0.00000000000E+00 0. -1.
         23    2    1    2    0    0  0.46469408547E+02 -0.51082590584E+02  0.22691602067E+03  0.26811127298E+03  0.12499574901E+03 0.  0.
          5    1    3    3  502    0  0.69831730469E+02 -0.29511604161E+02  0.56438203166E+02  0.94629626107E+02  0.47000000000E+01 0. -1.
         -5    1    3    3    0  502 -0.23362321922E+02 -0.21570986423E+02  0.17047781750E+03  0.17348164687E+03  0.47000000000E+01 0. -1.
        -11    1    1    2    0    0 -0.18656290403E+02  0.73650247618E+02  0.14637599900E+03  0.16491922031E+03  0.00000000000E+00 0. -1.
         11    1    1    2    0    0 -0.27813118145E+02 -0.22567657034E+02  0.66359306074E+02  0.75408396001E+02  0.00000000000E+00 0.  1.
<mgrwt>
<rscale>  0 0.13432967E+03</rscale>
<asrwt>0</asrwt>
<pdfrwt beam="1">  1        2 0.72930012E-01 0.14280327E+03</pdfrwt>
<pdfrwt beam="2">  1       -2 0.52913514E-02 0.14280327E+03</pdfrwt>
<totfact> 0.11311071E+04</totfact>
</mgrwt>
</event>
<event>
 6    1  0.6095443E-006  0.1661023E+03  0.7546771E-02  0.1199550E+00
          1   -1    0    0  501    0  0.00000000000E+00  0.00000000000E+00  0.55795544056E+02  0.55795544056E+02  0.00000000000E+00 0. -1.
         -1   -1    0    0    0  501 -0.00000000000E+00 -0.00000000000E+00 -0.39686406242E+03  0.39686406242E+03  0.00000000000E+00 0.  1.
          5    1    1    2  502    0 -0.12628451989E+02  0.13161026844E+02  0.15970984030E+02  0.24695197066E+02  0.47000000000E+01 0. -1.
         -5    1    1    2    0  502 -0.55074704061E+02 -0.90801611402E+01 -0.29306167387E+03  0.29836706763E+03  0.47000000000E+01 0.  1.
        -11    1    1    2    0    0 -0.55926449895E+01  0.30374744828E+02 -0.24897821780E+02  0.39671202789E+02  0.00000000000E+00 0.  1.
         11    1    1    2    0    0  0.73295801040E+02 -0.34455610532E+02 -0.39080006746E+02  0.89926138994E+02  0.00000000000E+00 0. -1.
<mgrwt>
<rscale>  0 0.15075339E+03</rscale>
<asrwt>0</asrwt>
<pdfrwt beam="1">  1        1 0.85839299E-02 0.16610231E+03</pdfrwt>
<pdfrwt beam="2">  1       -1 0.61056009E-01 0.16610231E+03</pdfrwt>
<totfact> 0.21721352E+03</totfact>
</mgrwt>
</event>
<event>
 7    1  0.6095443E-006  0.1689762E+03  0.7546771E-02  0.1185127E+00
          2   -1    0    0  501    0  0.00000000000E+00  0.00000000000E+00  0.28356399590E+03  0.28356399590E+03  0.00000000000E+00 0. -1.
         -2   -1    0    0    0  501 -0.00000000000E+00 -0.00000000000E+00 -0.10049782020E+03  0.10049782020E+03  0.00000000000E+00 0.  1.
         23    2    1    2    0    0  0.74084346277E+02 -0.86255784127E+02  0.29648168316E+02  0.17155752049E+03  0.12499767315E+03 0.  0.
          5    1    3    3  502    0  0.70521051339E+02 -0.88947079338E+02 -0.25165047995E+02  0.11636224149E+03  0.47000000000E+01 0. -1.
         -5    1    3    3    0  502  0.35632949376E+01  0.26912952117E+01  0.54813216311E+02  0.55195278993E+02  0.47000000000E+01 0. -1.
        -11    1    1    2    0    0 -0.47343778764E+02 -0.78908366382E+01  0.38296137696E+02  0.61402710469E+02  0.00000000000E+00 0.  1.
         11    1    1    2    0    0 -0.26740567513E+02  0.94146620765E+02  0.11512186969E+03  0.15110158514E+03  0.00000000000E+00 0. -1.
<mgrwt>
<rscale>  0 0.16320320E+03</rscale>
<asrwt>0</asrwt>
<pdfrwt beam="1">  1        2 0.43625230E-01 0.16897624E+03</pdfrwt>
<pdfrwt beam="2">  1       -2 0.15461203E-01 0.16897624E+03</pdfrwt>
<totfact> 0.36879427E+03</totfact>
</mgrwt>
</event>
<event>
 7    1  0.6095443E-006  0.1754570E+03  0.7546771E-02  0.1173860E+00
         -1   -1    0    0    0  501 -0.00000000000E+00  0.00000000000E+00  0.14395501965E+03  0.14395501965E+03  0.00000000000E+00 0.  1.
          1   -1    0    0  501    0  0.00000000000E+00 -0.00000000000E+00 -0.22143705788E+03  0.22143705788E+03  0.00000000000E+00 0. -1.
         23    2    1    2    0    0 -0.22137516346E+02  0.11192248011E+03  0.96095747648E+01  0.16950916500E+03  0.12499720760E+03 0.  0.
          5    1    3    3  502    0 -0.48645064954E+02  0.18616499784E+02 -0.34703994417E+02  0.62764429712E+02  0.47000000000E+01 0. -1.
         -5    1    3    3    0  502  0.26507548608E+02  0.93305980324E+02  0.44313569182E+02  0.10674473529E+03  0.47000000000E+01 0. -1.
        -11    1    1    2    0    0 -0.14579445599E+02 -0.88845956912E+02  0.89760334061E+01  0.90480569568E+02  0.00000000000E+00 0.  1.
         11    1    1    2    0    0  0.36716961945E+02 -0.23076523196E+02 -0.96067646405E+02  0.10540234297E+03  0.00000000000E+00 0. -1.
<mgrwt>
<rscale>  0 0.17388079E+03</rscale>
<asrwt>0</asrwt>
<pdfrwt beam="2">  1        1 0.34067240E-01 0.17545702E+03</pdfrwt>
<pdfrwt beam="1">  1       -1 0.22146926E-01 0.17545702E+03</pdfrwt>
<totfact> 0.21604634E+03</totfact>
</mgrwt>
</event>
<event>
 7    1  0.6095443E-006  0.2307375E+03  0.7546771E-02  0.1128756E+00
         -2   -1    0    0    0  501 -0.00000000000E+00  0.00000000000E+00  0.39946139341E+02  0.39946139341E+02  0.00000000000E+00 0.  1.
          2   -1    0    0  501    0  0.00000000000E+00 -0.00000000000E+00 -0.12560256418E+04  0.12560256418E+04  0.00000000000E+00 0. -1.
         23    2    1    2    0    0  0.18491845353E+03  0.58479137034E+02 -0.58377548230E+03  0.62772096362E+03  0.12500060203E+03 0.  0.
          5    1    3    3  502    0  0.34443045898E+02 -0.88213481684E+01 -0.21619080862E+02  0.41876177613E+02  0.47000000000E+01 0. -1.
         -5    1    3    3    0  502  0.15047540763E+03  0.67300485202E+02 -0.56215640144E+03  0.58584478601E+03  0.47000000000E+01 0. -1.
        -11    1    1    2    0    0 -0.13293964554E+03  0.52348628943E+01 -0.42053278585E+03  0.44107615796E+03  0.00000000000E+00 0. -1.
         11    1    1    2    0    0 -0.51978807983E+02 -0.63713999928E+02 -0.21177123428E+03  0.22717465953E+03  0.00000000000E+00 0.  1.
<mgrwt>
<rscale>  0 0.22701902E+03</rscale>
<asrwt>0</asrwt>
<pdfrwt beam="2">  1        2 0.19323469E+00 0.23073750E+03</pdfrwt>
<pdfrwt beam="1">  1       -2 0.61455606E-02 0.23073750E+03</pdfrwt>
<totfact> 0.26445593E+03</totfact>
</mgrwt>
</event>
<event>
 7    1  0.6095443E-006  0.1302015E+03  0.7546771E-02  0.1239899E+00
         -3   -1    0    0    0  501 -0.00000000000E+00  0.00000000000E+00  0.32170920305E+03  0.32170920305E+03  0.00000000000E+00 0.  1.
          3   -1    0    0  501    0  0.00000000000E+00 -0.00000000000E+00 -0.41397349198E+02  0.41397349198E+02  0.00000000000E+00 0. -1.
         23    2    1    2    0    0  0.35147062320E+02  0.96350766830E+01  0.14812408360E+03  0.19721353542E+03  0.12499713484E+03 0.  0.
          5    1    3    3  502    0 -0.26062396694E+02  0.86020550522E+01 -0.83949072099E+01  0.29082784248E+02  0.47000000000E+01 0.  1.
         -5    1    3    3    0  502  0.61209459014E+02  0.10330216309E+01  0.15651899081E+03  0.16813075118E+03  0.47000000000E+01 0.  1.
        -11    1    1    2    0    0 -0.48976282004E+02 -0.30915003435E+02  0.12756416129E+03  0.14009649847E+03  0.00000000000E+00 0.  1.
         11    1    1    2    0    0  0.13829219684E+02  0.21279926752E+02  0.46236089587E+01  0.25796518359E+02  0.00000000000E+00 0. -1.
<mgrwt>
<rscale>  0 0.12195959E+03</rscale>
<asrwt>0</asrwt>
<pdfrwt beam="2">  1        3 0.63688232E-02 0.13020151E+03</pdfrwt>
<pdfrwt beam="1">  1       -3 0.49493722E-01 0.13020151E+03</pdfrwt>
<totfact> 0.14397804E+03</totfact>
</mgrwt>
</event>
<event>
 7    1  0.6095443E-006  0.1762659E+03  0.7546771E-02  0.1176926E+00
          1   -1    0    0  501    0  0.00000000000E+00  0.00000000000E+00  0.35599577505E+03  0.35599577505E+03  0.00000000000E+00 0. -1.
         -1   -1    0    0    0  501 -0.00000000000E+00 -0.00000000000E+00 -0.78197714793E+02  0.78197714793E+02  0.00000000000E+00 0.  1.
         23    2    1    2    0    0  0.10610338705E+03 -0.64722161422E+02  0.12548490557E+03  0.21637038815E+03  0.12499118537E+03 0.  0.
          5    1    3    3  502    0  0.92688981592E+02 -0.38088959272E+01  0.12252093201E+03  0.15375052448E+03  0.47000000000E+01 0. -1.
         -5    1    3    3    0  502  0.13414405457E+02 -0.60913265494E+02  0.29639735596E+01  0.62619863671E+02  0.47000000000E+01 0. -1.
        -11    1    1    2    0    0 -0.14055421001E+02  0.14047902053E+02 -0.11683698147E+02  0.23052271341E+02  0.00000000000E+00 0.  1.
         11    1    1    2    0    0 -0.92047966049E+02  0.50674259369E+02  0.16399685283E+03  0.19477083035E+03  0.00000000000E+00 0. -1.
<mgrwt>
<rscale>  0 0.17088735E+03</rscale>
<asrwt>0</asrwt>
<pdfrwt beam="1">  1        1 0.54768580E-01 0.17626594E+03</pdfrwt>
<pdfrwt beam="2">  1       -1 0.12030418E-01 0.17626594E+03</pdfrwt>
<totfact> 0.31500141E+03</totfact>
</mgrwt>
</event>
<event>
 7    1  0.6095443E-006  0.1633312E+03  0.7546771E-02  0.1191516E+00
          2   -1    0    0  501    0  0.00000000000E+00  0.00000000000E+00  0.25204036769E+03  0.25204036769E+03  0.00000000000E+00 0. -1.
         -2   -1    0    0    0  501 -0.00000000000E+00 -0.00000000000E+00 -0.10380537527E+03  0.10380537527E+03  0.00000000000E+00 0.  1.
         23    2    1    2    0    0  0.22255426604E+02  0.10274803368E+03  0.19169648098E+02  0.16445234099E+03  0.12499853843E+03 0.  0.
          5    1    3    3  502    0 -0.38962511587E+02 -0.15608759401E+01 -0.87445978720E+01  0.40237689233E+02  0.47000000000E+01 0. -1.
         -5    1    3    3    0  502  0.61217938191E+02  0.10430890962E+03  0.27914245970E+02  0.12421465175E+03  0.47000000000E+01 0. -1.
        -11    1    1    2    0    0  0.28786206378E+02 -0.85120493188E+01  0.11074361427E+02  0.31995970719E+02  0.00000000000E+00 0.  1.
         11    1    1    2    0    0 -0.51041632982E+02 -0.94235984360E+02  0.11799098289E+03  0.15939743125E+03  0.00000000000E+00 0. -1.
<mgrwt>
<rscale>  0 0.15752842E+03</rscale>
<asrwt>0</asrwt>
<pdfrwt beam="1">  1        2 0.38775441E-01 0.16333125E+03</pdfrwt>
<pdfrwt beam="2">  1       -2 0.15970058E-01 0.16333125E+03</pdfrwt>
<totfact> 0.39588914E+03</totfact>
</mgrwt>
</event>
<event>
 7    1  0.6095443E-006  0.1284476E+03  0.7546771E-02  0.1255364E+00
         -4   -1    0    0    0  501 -0.00000000000E+00  0.00000000000E+00  0.17465382782E+03  0.17465382782E+03  0.00000000000E+00 0.  1.
          4   -1    0    0  501    0  0.00000000000E+00 -0.00000000000E+00 -0.60848546623E+02  0.60848546623E+02  0.00000000000E+00 0. -1.
         23    2    1    2    0    0  0.16168323767E+02  0.24742810295E+02  0.58993042806E+02  0.14134694281E+03  0.12500063115E+03 0.  0.
          5    1    3    3  502    0 -0.13809690557E+02  0.42989449155E+01 -0.36253721207E+02  0.39314256727E+02  0.47000000000E+01 0. -1.
         -5    1    3    3    0  502  0.29978014324E+02  0.20443865379E+02  0.95246764014E+02  0.10203268608E+03  0.47000000000E+01 0. -1.
        -11    1    1    2    0    0 -0.34889935637E+02  0.33537004687E+01  0.48448891246E+02  0.59798411171E+02  0.00000000000E+00 0.  1.
         11    1    1    2    0    0  0.18721611870E+02 -0.28096510763E+02  0.63633471438E+01  0.34357020461E+02  0.00000000000E+00 0. -1.
<mgrwt>
<rscale>  0 0.11285989E+03</rscale>
<asrwt>0</asrwt>
<pdfrwt beam="2">  1        4 0.93613149E-02 0.12844757E+03</pdfrwt>
<pdfrwt beam="1">  1       -4 0.26869819E-01 0.12844757E+03</pdfrwt>
<totfact> 0.18042168E+03</totfact>
</mgrwt>
</event>
<event>
 7    1  0.6095443E-006  0.1949156E+03  0.7546771E-02  0.1158994E+00
          1   -1    0    0  501    0  0.00000000000E+00  0.00000000000E+00  0.29906810791E+02  0.29906810791E+02  0.00000000000E+00 0. -1.
         -1   -1    0    0    0  501 -0.00000000000E+00 -0.00000000000E+00 -0.11620268153E+04  0.11620268153E+04  0.00000000000E+00 0.  1.
         23    2    1    2    0    0 -0.24177032679E+01 -0.14947992388E+03 -0.68589586576E+03  0.71305345688E+03  0.12506798459E+03 0.  0.
          5    1    3    3  502    0  0.41638051090E+01 -0.73625433487E+02 -0.56696485043E+03  0.57175980390E+03  0.47000000000E+01 0. -1.
         -5    1    3    3    0  502 -0.65815083769E+01 -0.75854490397E+02 -0.11893101533E+03  0.14129365298E+03  0.47000000000E+01 0. -1.
        -11    1    1    2    0    0 -0.26334099289E+02  0.68655060408E+02 -0.11321409391E+03  0.13499790060E+03  0.00000000000E+00 0. -1.
         11    1    1    2    0    0  0.28751802557E+02  0.80824863477E+02 -0.33301004488E+03  0.34388226865E+03  0.00000000000E+00 0.  1.
<mgrwt>
<rscale>  0 0.18941057E+03</rscale>
<asrwt>0</asrwt>
<pdfrwt beam="1">  1        1 0.46010483E-02 0.19491561E+03</pdfrwt>
<pdfrwt beam="2">  1       -1 0.17877334E+00 0.19491561E+03</pdfrwt>
<totfact> 0.43569440E+02</totfact>
</mgrwt>
</event>
<event>
 7    1  0.6095443E-006  0.2808022E+03  0.7546771E-02  0.1097050E+00
          2   -1    0    0  501    0  0.00000000000E+00  0.00000000000E+00  0.15307494693E+04  0.15307494693E+04  0.00000000000E+00 0. -1.
         -2   -1    0    0    0  501 -0.00000000000E+00 -0.00000000000E+00 -0.49187332182E+02  0.49187332182E+02  0.00000000000E+00 0.  1.
         23    2    1    2    0    0 -0.24870503126E+03  0.36973185562E+02  0.74485020699E+03  0.79602243912E+03  0.12501473395E+03 0.  0.
          5    1    3    3  502    0 -0.14956886056E+03  0.80446518431E+02  0.40103977373E+03  0.43554273785E+03  0.47000000000E+01 0. -1.
         -5    1    3    3    0  502 -0.99136170703E+02 -0.43473332869E+02  0.34381043326E+03  0.36047970127E+03  0.47000000000E+01 0. -1.
        -11    1    1    2    0    0  0.17735992343E+03 -0.68142280802E+02  0.51520026405E+03  0.54911858915E+03  0.00000000000E+00 0.  1.
         11    1    1    2    0    0  0.71345107836E+02  0.31169095240E+02  0.22151166606E+03  0.23479577320E+03  0.00000000000E+00 0. -1.
<mgrwt>
<rscale>  0 0.27752287E+03</rscale>
<asrwt>0</asrwt>
<pdfrwt beam="1">  1        2 0.23549988E+00 0.28080223E+03</pdfrwt>
<pdfrwt beam="2">  1       -2 0.75672830E-02 0.28080223E+03</pdfrwt>
<totfact> 0.13557148E+03</totfact>
</mgrwt>
</event>
<event>
 7    1  0.6095443E-006  0.1464018E+03  0.7546771E-02  0.1214951E+00
         -4   -1    0    0    0  501 -0.00000000000E+00  0.00000000000E+00  0.16540738731E+03  0.16540738731E+03  0.00000000000E+00 0.  1.
          4   -1    0    0  501    0  0.00000000000E+00 -0.00000000000E+00 -0.12955670267E+03  0.12955670267E+03  0.00000000000E+00 0. -1.
         23    2    1    2    0    0  0.32726809493E+02 -0.68828568583E+02  0.82225935654E+02  0.16791246981E+03  0.12500030845E+03 0.  0.
          5    1    3    3  502    0  0.77692555103E+01 -0.10190503655E+03  0.71611797971E+02  0.12488129329E+03  0.47000000000E+01 0. -1.
         -5    1    3    3    0  502  0.24957553982E+02  0.33076467967E+02  0.10614137682E+02  0.43031176520E+02  0.47000000000E+01 0. -1.
        -11    1    1    2    0    0 -0.21174647113E+02  0.26549455131E+02 -0.69604885045E+02  0.77447267674E+02  0.00000000000E+00 0. -1.
         11    1    1    2    0    0 -0.11552162380E+02  0.42279113453E+02  0.23229634030E+02  0.49604352502E+02  0.00000000000E+00 0.  1.
<mgrwt>
<rscale>  0 0.13880103E+03</rscale>
<asrwt>0</asrwt>
<pdfrwt beam="2">  1        4 0.19931800E-01 0.14640182E+03</pdfrwt>
<pdfrwt beam="1">  1       -4 0.25447291E-01 0.14640182E+03</pdfrwt>
<totfact> 0.55351241E+02</totfact>
</mgrwt>
</event>
<event>
 7    1  0.6095443E-006  0.2064388E+03  0.7546771E-02  0.1148387E+00
         -1   -1    0    0    0  501 -0.00000000000E+00  0.00000000000E+00  0.16827795503E+03  0.16827795503E+03  0.00000000000E+00 0.  1.
          1   -1    0    0  501    0  0.00000000000E+00 -0.00000000000E+00 -0.42187967312E+03  0.42187967312E+03  0.00000000000E+00 0. -1.
         23    2    1    2    0    0 -0.31985432373E+02  0.16114558470E+03  0.68331951487E+02  0.21745394344E+03  0.12500397821E+03 0.  0.
          5    1    3    3  502    0 -0.65641628375E+02  0.34616274509E+02  0.14222511358E+02  0.75706536480E+02  0.47000000000E+01 0.  1.
         -5    1    3    3    0  502  0.33656196002E+02  0.12652931020E+03  0.54109440129E+02  0.14174740696E+03  0.47000000000E+01 0.  1.
        -11    1    1    2    0    0 -0.23872954654E+02 -0.38981099961E+02 -0.41418079384E+02  0.61683882967E+02  0.00000000000E+00 0.  1.
         11    1    1    2    0    0  0.55858387027E+02 -0.12216448474E+03 -0.28051559020E+03  0.31101980175E+03  0.00000000000E+00 0. -1.
<mgrwt>
<rscale>  0 0.20161095E+03</rscale>
<asrwt>0</asrwt>
<pdfrwt beam="2">  1        1 0.64904564E-01 0.20643876E+03</pdfrwt>
<pdfrwt beam="1">  1       -1 0.25888917E-01 0.20643876E+03</pdfrwt>
<totfact> 0.74482215E+02</totfact>
</mgrwt>
</event>
<event>
 7    1  0.6095443E-006  0.1127837E+03  0.7546771E-02  0.1338552E+00
         -2   -1    0    0    0  501 -0.00000000000E+00  0.00000000000E+00  0.33773289297E+03  0.33773289297E+03  0.00000000000E+00 0.  1.
          2   -1    0    0  501    0  0.00000000000E+00 -0.00000000000E+00 -0.14574631821E+02  0.14574631821E+02  0.00000000000E+00 0. -1.
         23    2    1    2    0    0 -0.63757609951E+01 -0.71894204316E+01  0.29086000083E+03  0.31196106457E+03  0.11237360736E+03 0.  0.
          5    1    3    3  502    0  0.37819055288E+02 -0.31493841231E+02  0.72162879042E+02  0.87474076674E+02  0.47000000000E+01 0. -1.
         -5    1    3    3    0  502 -0.44194816283E+02  0.24304420799E+02  0.21869712178E+03  0.22448698789E+03  0.47000000000E+01 0.  1.
        -11    1    1    2    0    0 -0.39295949426E+01  0.92601884917E+01  0.52916430938E+01  0.11366366787E+02  0.00000000000E+00 0. -1.
         11    1    1    2    0    0  0.10305355938E+02 -0.20707680601E+01  0.27006617229E+02  0.28980093435E+02  0.00000000000E+00 0.  1.
<mgrwt>
<rscale>  0 0.76744567E+02</rscale>
<asrwt>0</asrwt>
<pdfrwt beam="2">  1        2 0.22422513E-02 0.11278371E+03</pdfrwt>
<pdfrwt beam="1">  1       -2 0.51958901E-01 0.11278371E+03</pdfrwt>
<totfact> 0.15128082E+04</totfact>
</mgrwt>
</event>
<event>
 6    1  0.6095443E-006  0.1429750E+03  0.7546771E-02  0.1255485E+00
         -2   -1    0    0    0  501 -0.00000000000E+00  0.00000000000E+00  0.52160033702E+03  0.52160033702E+03  0.00000000000E+00 0. -1.
          2   -1    0    0  501    0  0.00000000000E+00 -0.00000000000E+00 -0.27803790470E+02  0.27803790470E+02  0.00000000000E+00 0.  1.
          5    1    1    2  502    0  0.44773342228E+02  0.41091386613E+01  0.55442387345E+02  0.71536602584E+02  0.47000000000E+01 0.  1.
         -5    1    1    2    0  502 -0.57317480269E+02 -0.33326813712E+02  0.41056156236E+03  0.41590726916E+03  0.47000000000E+01 0. -1.
        -11    1    1    2    0    0  0.66464511838E+01 -0.99622140177E+01 -0.23151642607E+01  0.12197582016E+02  0.00000000000E+00 0. -1.
         11    1    1    2    0    0  0.58976868575E+01  0.39179889068E+02  0.30107761112E+02  0.49762673731E+02  0.00000000000E+00 0.  1.
<mgrwt>
<rscale>  0 0.11279192E+03</rscale>
<asrwt>0</asrwt>
<pdfrwt beam="2">  1        2 0.42775066E-02 0.14297499E+03</pdfrwt>
<pdfrwt beam="1">  1       -2 0.80246198E-01 0.14297499E+03</pdfrwt>
<totfact> 0.26305270E+03</totfact>
</mgrwt>
</event>
<event>
 7    1  0.6095443E-006  0.1328761E+03  0.7546771E-02  0.1242621E+00
         -1   -1    0    0    0  501 -0.00000000000E+00  0.00000000000E+00  0.16401660544E+03  0.16401660544E+03  0.00000000000E+00 0.  1.
          1   -1    0    0  501    0  0.00000000000E+00 -0.00000000000E+00 -0.77908575959E+02  0.77908575959E+02  0.00000000000E+00 0. -1.
         23    2    1    2    0    0  0.32789182507E+02  0.30906407945E+02  0.73351979710E+02  0.15177803761E+03  0.12500289289E+03 0.  0.
          5    1    3    3  502    0 -0.22754454784E+00  0.13009070101E+02 -0.34664243633E+02  0.37322747328E+02  0.47000000000E+01 0. -1.
         -5    1    3    3    0  502  0.33016727055E+02  0.17897337843E+02  0.10801622334E+03  0.11445529028E+03  0.47000000000E+01 0. -1.
        -11    1    1    2    0    0  0.12002896727E+02  0.11896075279E+02 -0.14684086235E+02  0.22387686916E+02  0.00000000000E+00 0. -1.
         11    1    1    2    0    0 -0.44792079234E+02 -0.42802483224E+02  0.27440136006E+02  0.67759456877E+02  0.00000000000E+00 0.  1.
<mgrwt>
<rscale>  0 0.12028879E+03</rscale>
<asrwt>0</asrwt>
<pdfrwt beam="2">  1        1 0.11985935E-01 0.13287611E+03</pdfrwt>
<pdfrwt beam="1">  1       -1 0.25233324E-01 0.13287611E+03</pdfrwt>
<totfact> 0.65236197E+03</totfact>
</mgrwt>
</event>
<event>
 7    1  0.6095443E-006  0.1576221E+03  0.7546771E-02  0.1199855E+00
         -2   -1    0    0    0  501 -0.00000000000E+00  0.00000000000E+00  0.15452919099E+03  0.15452919099E+03  0.00000000000E+00 0.  1.
          2   -1    0    0  501    0  0.00000000000E+00 -0.00000000000E+00 -0.14471597358E+03  0.14471597358E+03  0.00000000000E+00 0. -1.
         23    2    1    2    0    0  0.12988680712E+01 -0.96017433532E+02  0.44362725188E+02  0.16374606967E+03  0.12499475727E+03 0.  0.
          5    1    3    3  502    0 -0.60962460680E+02 -0.46705445487E+02  0.31549377449E+02  0.83158123281E+02  0.47000000000E+01 0.  1.
         -5    1    3    3    0  502  0.62261328751E+02 -0.49311988046E+02  0.12813347739E+02  0.80587946389E+02  0.47000000000E+01 0.  1.
        -11    1    1    2    0    0 -0.16997452199E+02 -0.65784566576E+01 -0.25460683364E+02  0.31311912599E+02  0.00000000000E+00 0. -1.
         11    1    1    2    0    0  0.15698584127E+02  0.10259589019E+03 -0.90888244145E+01  0.10418718231E+03  0.00000000000E+00 0.  1.
<mgrwt>
<rscale>  0 0.15050382E+03</rscale>
<asrwt>0</asrwt>
<pdfrwt beam="2">  1        2 0.22263996E-01 0.15762209E+03</pdfrwt>
<pdfrwt beam="1">  1       -2 0.23773722E-01 0.15762209E+03</pdfrwt>
<totfact> 0.36936432E+03</totfact>
</mgrwt>
</event>
<event>
 7    1  0.6095443E-006  0.4603554E+03  0.7546771E-02  0.1024678E+00
          2   -1    0    0  501    0  0.00000000000E+00  0.00000000000E+00  0.12785356804E+04  0.12785356804E+04  0.00000000000E+00 0. -1.
         -2   -1    0    0    0  501 -0.00000000000E+00 -0.00000000000E+00 -0.41439423018E+02  0.41439423018E+02  0.00000000000E+00 0.  1.
         23    2    1    2    0    0 -0.68565602360E+02  0.10409431925E+03  0.27196117066E+03  0.32422476387E+03  0.12498779954E+03 0.  0.
          5    1    3    3  502    0 -0.31526480471E+02  0.31061471923E+02  0.48102410766E+01  0.44765638923E+02  0.47000000000E+01 0. -1.
         -5    1    3    3    0  502 -0.37039121888E+02  0.73032847323E+02  0.26715092959E+03  0.27945912495E+03  0.47000000000E+01 0. -1.
        -11    1    1    2    0    0  0.32550853077E+02 -0.15476551065E+03  0.85298854101E+03  0.86752600676E+03  0.00000000000E+00 0. -1.
         11    1    1    2    0    0  0.36014749283E+02  0.50671191400E+02  0.11214654575E+03  0.12822433282E+03  0.00000000000E+00 0.  1.
<mgrwt>
<rscale>  0 0.46035543E+03</rscale>
<asrwt>0</asrwt>
<pdfrwt beam="1">  1        2 0.19669777E+00 0.46035543E+03</pdfrwt>
<pdfrwt beam="2">  1       -2 0.63752968E-02 0.46035543E+03</pdfrwt>
<totfact> 0.24290355E+03</totfact>
</mgrwt>
</event>
<event>
 7    1  0.6095443E-006  0.1453217E+03  0.7546771E-02  0.1214011E+00
          2   -1    0    0  501    0  0.00000000000E+00  0.00000000000E+00  0.36810341857E+03  0.36810341857E+03  0.00000000000E+00 0. -1.
         -2   -1    0    0    0  501 -0.00000000000E+00 -0.00000000000E+00 -0.51270028131E+02  0.51270028131E+02  0.00000000000E+00 0.  1.
         23    2    1    2    0    0 -0.16568434606E+02  0.72238149833E+02  0.12714175230E+03  0.19308912849E+03  0.12500209216E+03 0.  0.
          5    1    3    3  502    0  0.69592432501E+01 -0.19026651602E+02  0.88847662702E+02  0.91249338110E+02  0.47000000000E+01 0.  1.
         -5    1    3    3    0  502 -0.23527677856E+02  0.91264801435E+02  0.38294089601E+02  0.10183979038E+03  0.47000000000E+01 0.  1.
        -11    1    1    2    0    0 -0.26262646214E+02 -0.54419761531E+02  0.16044150117E+03  0.17144302940E+03  0.00000000000E+00 0. -1.
         11    1    1    2    0    0  0.42831080821E+02 -0.17818388302E+02  0.29250136961E+02  0.54841288809E+02  0.00000000000E+00 0.  1.
<mgrwt>
<rscale>  0 0.13949402E+03</rscale>
<asrwt>0</asrwt>
<pdfrwt beam="1">  1        2 0.56631293E-01 0.14532167E+03</pdfrwt>
<pdfrwt beam="2">  1       -2 0.78876969E-02 0.14532167E+03</pdfrwt>
<totfact> 0.80861798E+03</totfact>
</mgrwt>
</event>
<event>
 7    1  0.6095443E-006  0.1824438E+03  0.7546771E-02  0.1168926E+00
          2   -1    0    0  501    0  0.00000000000E+00  0.00000000000E+00  0.11140081629E+04  0.11140081629E+04  0.00000000000E+00 0.  1.
         -2   -1    0    0    0  501 -0.00000000000E+00 -0.00000000000E+00 -0.27972874758E+02  0.27972874758E+02  0.00000000000E+00 0. -1.
         23    2    1    2    0    0 -0.10285215820E+03  0.97706979756E+02  0.62718488577E+03  0.65318192542E+03  0.11471933761E+03 0.  0.
          5    1    3    3  502    0 -0.83909955825E+02  0.10568804394E+03  0.34918605049E+03  0.37438460329E+03  0.47000000000E+01 0. -1.
         -5    1    3    3    0  502 -0.18942202373E+02 -0.79810641811E+01  0.27799883528E+03  0.27879732214E+03  0.47000000000E+01 0.  1.
        -11    1    1    2    0    0  0.11869823390E+03 -0.74670455410E+02  0.37168129643E+03  0.39725550186E+03  0.00000000000E+00 0.  1.
         11    1    1    2    0    0 -0.15846075707E+02 -0.23036524346E+02  0.87169105909E+02  0.91543610341E+02  0.00000000000E+00 0. -1.
<mgrwt>
<rscale>  0 0.17884430E+03</rscale>
<asrwt>0</asrwt>
<pdfrwt beam="1">  1        2 0.17138584E+00 0.18244382E+03</pdfrwt>
<pdfrwt beam="2">  1       -2 0.43035201E-02 0.18244382E+03</pdfrwt>
<totfact> 0.54440360E+03</totfact>
</mgrwt>
</event>
<event>
 6    1  0.6095443E-006  0.1663137E+03  0.7546771E-02  0.1202454E+00
         -2   -1    0    0    0  501 -0.00000000000E+00  0.00000000000E+00  0.19673554830E+02  0.19673554830E+02  0.00000000000E+00 0.  1.
          2   -1    0    0  501    0  0.00000000000E+00 -0.00000000000E+00 -0.98846264109E+03  0.98846264109E+03  0.00000000000E+00 0. -1.
          5    1    1    2  502    0 -0.27788598548E+02  0.10613368598E+03 -0.31830305002E+03  0.33671276656E+03  0.47000000000E+01 0. -1.
         -5    1    1    2    0  502  0.15075857916E+02 -0.54231006866E+02 -0.15835733791E+03  0.16812917673E+03  0.47000000000E+01 0.  1.
        -11    1    1    2    0    0 -0.39521353765E+02 -0.22282792549E+02 -0.21468666975E+03  0.21942840841E+03  0.00000000000E+00 0. -1.
         11    1    1    2    0    0  0.52234094397E+02 -0.29619886565E+02 -0.27744202858E+03  0.28386584423E+03  0.00000000000E+00 0.  1.
<mgrwt>
<rscale>  0 0.14839939E+03</rscale>
<asrwt>0</asrwt>
<pdfrwt beam="2">  1        2 0.15207118E+00 0.16631375E+03</pdfrwt>
<pdfrwt beam="1">  1       -2 0.30267006E-02 0.16631375E+03</pdfrwt>
<totfact> 0.10864557E+04</totfact>
</mgrwt>
</event>
<event>
 7    1  0.6095443E-006  0.1398640E+03  0.7546771E-02  0.1226029E+00
         -1   -1    0    0    0  501 -0.00000000000E+00  0.00000000000E+00  0.17886144304E+03  0.17886144304E+03  0.00000000000E+00 0.  1.
          1   -1    0    0  501    0  0.00000000000E+00 -0.00000000000E+00 -0.85662998865E+02  0.85662998865E+02  0.00000000000E+00 0. -1.
         23    2    1    2    0    0 -0.43843835070E+02  0.44895123845E+02  0.47808336907E+02  0.14780923059E+03  0.12499631015E+03 0.  0.
          5    1    3    3  502    0  0.21484162558E+02  0.48223553818E+01 -0.30649830108E+02  0.38030598706E+02  0.47000000000E+01 0. -1.
         -5    1    3    3    0  502 -0.65327997629E+02  0.40072768463E+02  0.78458167015E+02  0.10977863188E+03  0.47000000000E+01 0. -1.
        -11    1    1    2    0    0 -0.19015546605E+02 -0.24717799260E+01  0.35352536213E+02  0.40218186500E+02  0.00000000000E+00 0.  1.
         11    1    1    2    0    0  0.62859381675E+02 -0.42423343919E+02  0.10037571060E+02  0.76497024822E+02  0.00000000000E+00 0. -1.
<mgrwt>
<rscale>  0 0.13096624E+03</rscale>
<asrwt>0</asrwt>
<pdfrwt beam="2">  1        1 0.13178923E-01 0.13986398E+03</pdfrwt>
<pdfrwt beam="1">  1       -1 0.27517145E-01 0.13986398E+03</pdfrwt>
<totfact> 0.50101137E+03</totfact>
</mgrwt>
</event>
<event>
 7    1  0.6095443E-006  0.1299824E+03  0.7546771E-02  0.1241335E+00
         -2   -1    0    0    0  501 -0.00000000000E+00  0.00000000000E+00  0.72904123205E+02  0.72904123205E+02  0.00000000000E+00 0.  1.
          2   -1    0    0  501    0  0.00000000000E+00 -0.00000000000E+00 -0.17801182488E+03  0.17801182488E+03  0.00000000000E+00 0. -1.
         23    2    1    2    0    0  0.14811352035E+02 -0.32400498979E+02 -0.61078893782E+02  0.14361776606E+03  0.12500505181E+03 0.  0.
          5    1    3    3  502    0  0.87754622229E+01 -0.27083290592E+02 -0.99750338758E+02  0.10383994149E+03  0.47000000000E+01 0.  1.
         -5    1    3    3    0  502  0.60358898117E+01 -0.53172083869E+01  0.38671444976E+02  0.39777824568E+02  0.47000000000E+01 0.  1.
        -11    1    1    2    0    0  0.32557662943E+02  0.23526745656E+01  0.47178740362E+01  0.32981734784E+02  0.00000000000E+00 0.  1.
         11    1    1    2    0    0 -0.47369014977E+02  0.30047824413E+02 -0.48746681932E+02  0.74316447246E+02  0.00000000000E+00 0. -1.
<mgrwt>
<rscale>  0 0.12107437E+03</rscale>
<asrwt>0</asrwt>
<pdfrwt beam="2">  1        2 0.27386434E-01 0.12998243E+03</pdfrwt>
<pdfrwt beam="1">  1       -2 0.11216019E-01 0.12998243E+03</pdfrwt>
<totfact> 0.10055719E+04</totfact>
</mgrwt>
</event>
<event>
 7    1  0.6095443E-006  0.1510574E+03  0.7546771E-02  0.1211062E+00
          3   -1    0    0  501    0  0.00000000000E+00  0.00000000000E+00  0.19549876210E+03  0.19549876210E+03  0.00000000000E+00 0. -1.
         -3   -1    0    0    0  501 -0.00000000000E+00 -0.00000000000E+00 -0.92153324985E+02  0.92153324985E+02  0.00000000000E+00 0.  1.
         23    2    1    2    0    0 -0.64342431597E+02  0.55257146456E+02  0.50148817686E+02  0.15916420907E+03  0.12500016318E+03 0.  0.
          5    1    3    3  502    0 -0.40578675067E+02  0.94382787897E+02  0.46897472642E+02  0.11303186481E+03  0.47000000000E+01 0. -1.
         -5    1    3    3    0  502 -0.23763756530E+02 -0.39125641441E+02  0.32513450436E+01  0.46132344263E+02  0.47000000000E+01 0. -1.
        -11    1    1    2    0    0  0.48797634604E+02 -0.62499809370E+02  0.74619662774E+01  0.79643683082E+02  0.00000000000E+00 0.  1.
         11    1    1    2    0    0  0.15544796993E+02  0.72426629139E+01  0.45734653150E+02  0.48844194930E+02  0.00000000000E+00 0. -1.
<mgrwt>
<rscale>  0 0.14169820E+03</rscale>
<asrwt>0</asrwt>
<pdfrwt beam="1">  1        3 0.30076733E-01 0.15105741E+03</pdfrwt>
<pdfrwt beam="2">  1       -3 0.14177435E-01 0.15105741E+03</pdfrwt>
<totfact> 0.10245803E+03</totfact>
</mgrwt>
</event>
<event>
 7    1  0.6095443E-006  0.1251090E+03  0.7546771E-02  0.1247480E+00
         -1   -1    0    0    0  501 -0.00000000000E+00  0.00000000000E+00  0.55330900704E+02  0.55330900704E+02  0.00000000000E+00 0.  1.
          1   -1    0    0  501    0  0.00000000000E+00 -0.00000000000E+00 -0.24797259735E+03  0.24797259735E+03  0.00000000000E+00 0. -1.
         23    2    1    2    0    0  0.29373116102E+02 -0.19433491118E+02 -0.59319985995E+02  0.13845981559E+03  0.12004923685E+03 0.  0.
          5    1    3    3  502    0 -0.24141561560E+02  0.19900979031E+02  0.18018508616E+02  0.36409073233E+02  0.47000000000E+01 0. -1.
         -5    1    3    3    0  502  0.53514677663E+02 -0.39334470149E+02 -0.77338494611E+02  0.10205074236E+03  0.47000000000E+01 0.  1.
        -11    1    1    2    0    0 -0.24514761478E+02  0.52987236271E+02 -0.10711275665E+03  0.12199083316E+03  0.00000000000E+00 0. -1.
         11    1    1    2    0    0 -0.48583546247E+01 -0.33553745154E+02 -0.26208953998E+02  0.42852849300E+02  0.00000000000E+00 0.  1.
<mgrwt>
<rscale>  0 0.11738165E+03</rscale>
<asrwt>0</asrwt>
<pdfrwt beam="2">  1        1 0.38149630E-01 0.12510899E+03</pdfrwt>
<pdfrwt beam="1">  1       -1 0.85124463E-02 0.12510899E+03</pdfrwt>
<totfact> 0.82247461E+03</totfact>
</mgrwt>
</event>
<event>
 7    1  0.6095443E-006  0.1389538E+03  0.7546771E-02  0.1226141E+00
         -1   -1    0    0    0  501 -0.00000000000E+00  0.00000000000E+00  0.36623671619E+02  0.36623671619E+02  0.00000000000E+00 0.  1.
          1   -1    0    0  501    0  0.00000000000E+00 -0.00000000000E+00 -0.42250577963E+03  0.42250577963E+03  0.00000000000E+00 0. -1.
         23    2    1    2    0    0 -0.46849351274E+02 -0.38452523842E+02 -0.20236547519E+03  0.24547902404E+03  0.12503882353E+03 0.  0.
          5    1    3    3  502    0  0.21048434715E+02 -0.38665870626E+02 -0.15835710901E+03  0.16442977263E+03  0.47000000000E+01 0.  1.
         -5    1    3    3    0  502 -0.67897785989E+02  0.21334678398E+00 -0.44008366178E+02  0.81049251401E+02  0.47000000000E+01 0.  1.
        -11    1    1    2    0    0 -0.33224797509E+01  0.31557769822E+02 -0.10577628163E+02  0.33448735781E+02  0.00000000000E+00 0.  1.
         11    1    1    2    0    0  0.50171831025E+02  0.68947540196E+01 -0.17293900466E+03  0.18020169143E+03  0.00000000000E+00 0. -1.
<mgrwt>
<rscale>  0 0.13088994E+03</rscale>
<asrwt>0</asrwt>
<pdfrwt beam="2">  1        1 0.65000894E-01 0.13895383E+03</pdfrwt>
<pdfrwt beam="1">  1       -1 0.56344106E-02 0.13895383E+03</pdfrwt>
<totfact> 0.79220023E+03</totfact>
</mgrwt>
</event>
<event>
 7    1  0.6095443E-006  0.2082348E+03  0.7546771E-02  0.1146712E+00
          2   -1    0    0  501    0  0.00000000000E+00  0.00000000000E+00  0.92151631104E+03  0.92151631104E+03  0.00000000000E+00 0. -1.
         -2   -1    0    0    0  501 -0.00000000000E+00 -0.00000000000E+00 -0.43280248078E+02  0.43280248078E+02  0.00000000000E+00 0.  1.
         23    2    1    2    0    0  0.13384709484E+03 -0.99089849563E+02  0.42887725172E+03  0.47675720395E+03  0.12501156505E+03 0.  0.
          5    1    3    3  502    0  0.10562660980E+03 -0.10749410208E+03  0.41906766422E+03  0.44536699460E+03  0.47000000000E+01 0.  1.
         -5    1    3    3    0  502  0.28220485046E+02  0.84042525131E+01  0.98095874907E+01  0.31390209354E+02  0.47000000000E+01 0.  1.
        -11    1    1    2    0    0 -0.15189683036E+02  0.35551537208E+02  0.34234776951E+02  0.51639696179E+02  0.00000000000E+00 0.  1.
         11    1    1    2    0    0 -0.11865741181E+03  0.63538312355E+02  0.41512403429E+03  0.43639965899E+03  0.00000000000E+00 0. -1.
<mgrwt>
<rscale>  0 0.20363015E+03</rscale>
<asrwt>0</asrwt>
<pdfrwt beam="1">  1        2 0.14177172E+00 0.20823481E+03</pdfrwt>
<pdfrwt beam="2">  1       -2 0.66585004E-02 0.20823481E+03</pdfrwt>
<totfact> 0.36756538E+03</totfact>
</mgrwt>
</event>
<event>
 6    1  0.6095443E-006  0.1473172E+03  0.7546771E-02  0.1214705E+00
          3   -1    0    0  501    0  0.00000000000E+00  0.00000000000E+00  0.16435366666E+03  0.16435366666E+03  0.00000000000E+00 0. -1.
         -3   -1    0    0    0  501 -0.00000000000E+00 -0.00000000000E+00 -0.10674440106E+03  0.10674440106E+03  0.00000000000E+00 0.  1.
          5    1    1    2  502    0 -0.23864749926E+02 -0.64245986048E+02 -0.23984037942E+02  0.72762607761E+02  0.47000000000E+01 0. -1.
         -5    1    1    2    0  502  0.61044367942E+02  0.16382984780E+01  0.45099458802E+02  0.76060173965E+02  0.47000000000E+01 0.  1.
        -11    1    1    2    0    0 -0.33741531395E+02 -0.15150561351E+02  0.17215089225E+01  0.37026936723E+02  0.00000000000E+00 0. -1.
         11    1    1    2    0    0 -0.34380866214E+01  0.77758248921E+02  0.34772335816E+02  0.85248349268E+02  0.00000000000E+00 0.  1.
<mgrwt>
<rscale>  0 0.13898247E+03</rscale>
<asrwt>0</asrwt>
<pdfrwt beam="1">  1        3 0.25285180E-01 0.14731721E+03</pdfrwt>
<pdfrwt beam="2">  1       -3 0.16422215E-01 0.14731721E+03</pdfrwt>
<totfact> 0.10899303E+03</totfact>
</mgrwt>
</event>
<event>
 7    1  0.6095443E-006  0.1499394E+03  0.7546771E-02  0.1209994E+00
          1   -1    0    0  501    0  0.00000000000E+00  0.00000000000E+00  0.80318847924E+02  0.80318847924E+02  0.00000000000E+00 0. -1.
         -1   -1    0    0    0  501 -0.00000000000E+00 -0.00000000000E+00 -0.35286727163E+03  0.35286727163E+03  0.00000000000E+00 0.  1.
         23    2    1    2    0    0 -0.67695930457E+02 -0.46797729087E+02 -0.27228123793E+03  0.31083579285E+03  0.12533575363E+03 0.  0.
          5    1    3    3  502    0 -0.73127655820E+02 -0.11082258765E+01 -0.63429092925E+02  0.96923795013E+02  0.47000000000E+01 0. -1.
         -5    1    3    3    0  502  0.54317253634E+01 -0.45689503211E+02 -0.20885214501E+03  0.21391199784E+03  0.47000000000E+01 0.  1.
        -11    1    1    2    0    0  0.90186462505E+02  0.35040782105E+02 -0.31712872310E+01  0.96806567403E+02  0.00000000000E+00 0.  1.
         11    1    1    2    0    0 -0.22490532048E+02  0.11756946983E+02  0.29041014563E+01  0.25543759305E+02  0.00000000000E+00 0. -1.
<mgrwt>
<rscale>  0 0.14250753E+03</rscale>
<asrwt>0</asrwt>
<pdfrwt beam="1">  1        1 0.12356746E-01 0.14993938E+03</pdfrwt>
<pdfrwt beam="2">  1       -1 0.54287273E-01 0.14993938E+03</pdfrwt>
<totfact> 0.16643734E+03</totfact>
</mgrwt>
</event>
<event>
 7    1  0.6095443E-006  0.1279275E+03  0.7546771E-02  0.1244529E+00
          2   -1    0    0  501    0  0.00000000000E+00  0.00000000000E+00  0.28303201608E+03  0.28303201608E+03  0.00000000000E+00 0. -1.
         -2   -1    0    0    0  501 -0.00000000000E+00 -0.00000000000E+00 -0.44784744216E+02  0.44784744216E+02  0.00000000000E+00 0.  1.
         23    2    1    2    0    0  0.18426148543E+02  0.18658542928E+02  0.12039420625E+03  0.17567076472E+03  0.12521097597E+03 0.  0.
          5    1    3    3  502    0 -0.34867079824E+02  0.47879477984E+02  0.89242791421E+02  0.10721251554E+03  0.47000000000E+01 0. -1.
         -5    1    3    3    0  502  0.53293228367E+02 -0.29220935056E+02  0.31151414833E+02  0.68458249184E+02  0.47000000000E+01 0. -1.
        -11    1    1    2    0    0  0.28272868941E+02  0.92694432007E+01  0.81357076062E+02  0.86627083067E+02  0.00000000000E+00 0. -1.
         11    1    1    2    0    0 -0.46699017483E+02 -0.27927986129E+02  0.36495989552E+02  0.65518912510E+02  0.00000000000E+00 0.  1.
<mgrwt>
<rscale>  0 0.11913623E+03</rscale>
<asrwt>0</asrwt>
<pdfrwt beam="1">  1        2 0.43543386E-01 0.12792753E+03</pdfrwt>
<pdfrwt beam="2">  1       -2 0.68899608E-02 0.12792753E+03</pdfrwt>
<totfact> 0.13029828E+04</totfact>
</mgrwt>
</event>
<event>
 7    1  0.6095443E-006  0.1465791E+03  0.7546771E-02  0.1218591E+00
         -4   -1    0    0    0  501 -0.00000000000E+00  0.00000000000E+00  0.54321166327E+02  0.54321166327E+02  0.00000000000E+00 0.  1.
          4   -1    0    0  501    0  0.00000000000E+00 -0.00000000000E+00 -0.32650516086E+03  0.32650516086E+03  0.00000000000E+00 0. -1.
         23    2    1    2    0    0  0.70941024587E+02  0.28795723157E+02 -0.10172022674E+03  0.17841648623E+03  0.12499446144E+03 0.  0.
          5    1    3    3  502    0  0.10149376927E+03  0.35346038133E+02 -0.99832655966E+02  0.14676163262E+03  0.47000000000E+01 0.  1.
         -5    1    3    3    0  502 -0.30552744682E+02 -0.65503149762E+01 -0.18875707707E+01  0.31654853614E+02  0.47000000000E+01 0.  1.
        -11    1    1    2    0    0 -0.44017424924E+02  0.23809936118E+02 -0.77581133160E+02  0.92321606233E+02  0.00000000000E+00 0.  1.
         11    1    1    2    0    0 -0.26923599663E+02 -0.52605659276E+02 -0.92882634632E+02  0.11008823472E+03  0.00000000000E+00 0. -1.
<mgrwt>
<rscale>  0 0.13616060E+03</rscale>
<asrwt>0</asrwt>
<pdfrwt beam="2">  1        4 0.50231562E-01 0.14657912E+03</pdfrwt>
<pdfrwt beam="1">  1       -4 0.83571026E-02 0.14657912E+03</pdfrwt>
<totfact> 0.66334780E+02</totfact>
</mgrwt>
</event>
<event>
 7    1  0.6095443E-006  0.1499787E+03  0.7546771E-02  0.1209602E+00
         -2   -1    0    0    0  501 -0.00000000000E+00  0.00000000000E+00  0.57420604646E+02  0.57420604646E+02  0.00000000000E+00 0.  1.
          2   -1    0    0  501    0  0.00000000000E+00 -0.00000000000E+00 -0.34185416449E+03  0.34185416449E+03  0.00000000000E+00 0. -1.
         23    2    1    2    0    0 -0.41088329318E+02  0.71970670300E+02 -0.11144756352E+03  0.18685337332E+03  0.12500238204E+03 0.  0.
          5    1    3    3  502    0 -0.57181603489E+02  0.10027444101E+03 -0.97301159750E+02  0.15104404982E+03  0.47000000000E+01 0.  1.
         -5    1    3    3    0  502  0.16093274171E+02 -0.28303770706E+02 -0.14146403774E+02  0.35809323498E+02  0.47000000000E+01 0.  1.
        -11    1    1    2    0    0 -0.91180858821E+01 -0.56668040539E+02 -0.41446820088E+02  0.70797211838E+02  0.00000000000E+00 0.  1.
         11    1    1    2    0    0  0.50206415200E+02 -0.15302629761E+02 -0.13153917623E+03  0.14162418398E+03  0.00000000000E+00 0. -1.
<mgrwt>
<rscale>  0 0.14280653E+03</rscale>
<asrwt>0</asrwt>
<pdfrwt beam="2">  1        2 0.52592949E-01 0.14997874E+03</pdfrwt>
<pdfrwt beam="1">  1       -2 0.88339391E-02 0.14997874E+03</pdfrwt>
<totfact> 0.73537820E+03</totfact>
</mgrwt>
</event>
<event>
 7    1  0.6095443E-006  0.1423493E+03  0.7546771E-02  0.1220806E+00
         -1   -1    0    0    0  501 -0.00000000000E+00  0.00000000000E+00  0.32444094275E+02  0.32444094275E+02  0.00000000000E+00 0.  1.
          1   -1    0    0  501    0  0.00000000000E+00 -0.00000000000E+00 -0.52559009869E+03  0.52559009869E+03  0.00000000000E+00 0. -1.
         23    2    1    2    0    0  0.52231277942E+02  0.43692988200E+02 -0.21864692137E+03  0.26090191956E+03  0.12500460707E+03 0.  0.
          5    1    3    3  502    0 -0.49380518852E+01 -0.21996503208E+02 -0.14481931950E+03  0.14663886187E+03  0.47000000000E+01 0.  1.
         -5    1    3    3    0  502  0.57169329827E+02  0.65689491408E+02 -0.73827601875E+02  0.11426305769E+03  0.47000000000E+01 0.  1.
        -11    1    1    2    0    0 -0.39937747402E+02  0.90612909240E+01 -0.43003475452E+02  0.59383748297E+02  0.00000000000E+00 0.  1.
         11    1    1    2    0    0 -0.12293530539E+02 -0.52754279124E+02 -0.23149560759E+03  0.23774852511E+03  0.00000000000E+00 0. -1.
<mgrwt>
<rscale>  0 0.13458583E+03</rscale>
<asrwt>0</asrwt>
<pdfrwt beam="2">  1        1 0.80860017E-01 0.14234934E+03</pdfrwt>
<pdfrwt beam="1">  1       -1 0.49913990E-02 0.14234934E+03</pdfrwt>
<totfact> 0.71615688E+03</totfact>
</mgrwt>
</event>
<event>
 7    1  0.6095443E-006  0.1692100E+03  0.7546771E-02  0.1185101E+00
         -2   -1    0    0    0  501 -0.00000000000E+00  0.00000000000E+00  0.10488534343E+03  0.10488534343E+03  0.00000000000E+00 0.  1.
          2   -1    0    0  501    0  0.00000000000E+00 -0.00000000000E+00 -0.24651975712E+03  0.24651975712E+03  0.00000000000E+00 0. -1.
         23    2    1    2    0    0  0.11200118374E+03 -0.27049412766E+02 -0.42388100052E+02  0.17443843347E+03  0.12391965202E+03 0.  0.
          5    1    3    3  502    0  0.56272286931E+02 -0.54639505015E+02  0.25159482181E+02  0.82505365452E+02  0.47000000000E+01 0. -1.
         -5    1    3    3    0  502  0.55728896813E+02  0.27590092249E+02 -0.67547582233E+02  0.91933068021E+02  0.47000000000E+01 0.  1.
        -11    1    1    2    0    0 -0.25619858414E+01  0.11320463413E+02  0.14343751654E+02  0.18451554809E+02  0.00000000000E+00 0.  1.
         11    1    1    2    0    0 -0.10943919790E+03  0.15728949352E+02 -0.11359006530E+03  0.15851511227E+03  0.00000000000E+00 0. -1.
<mgrwt>
<rscale>  0 0.16322694E+03</rscale>
<asrwt>0</asrwt>
<pdfrwt beam="2">  1        2 0.37926116E-01 0.16920998E+03</pdfrwt>
<pdfrwt beam="1">  1       -2 0.16136207E-01 0.16920998E+03</pdfrwt>
<totfact> 0.39921133E+03</totfact>
</mgrwt>
</event>
<event>
 6    1  0.6095443E-006  0.3506472E+03  0.7546771E-02  0.1097770E+00
          4   -1    0    0  501    0  0.00000000000E+00  0.00000000000E+00  0.11213067112E+03  0.11213067112E+03  0.00000000000E+00 0. -1.
         -4   -1    0    0    0  501 -0.00000000000E+00 -0.00000000000E+00 -0.57220378248E+03  0.57220378248E+03  0.00000000000E+00 0.  1.
          5    1    1    2  502    0  0.13387658982E+02  0.19571139857E+03 -0.11799994105E+03  0.22897217523E+03  0.47000000000E+01 0. -1.
         -5    1    1    2    0  502 -0.32377881200E+02 -0.99336396042E+02 -0.29397060651E+03  0.31202059909E+03  0.47000000000E+01 0.  1.
        -11    1    1    2    0    0  0.19149224994E+02 -0.11453662942E+03 -0.36244822649E+02  0.12165122057E+03  0.00000000000E+00 0.  1.
         11    1    1    2    0    0 -0.15900277681E+00  0.18161626897E+02 -0.11857741150E+02  0.21690458700E+02  0.00000000000E+00 0. -1.
<mgrwt>
<rscale>  0 0.27622309E+03</rscale>
<asrwt>0</asrwt>
<pdfrwt beam="1">  1        4 0.17250872E-01 0.35064719E+03</pdfrwt>
<pdfrwt beam="2">  1       -4 0.88031351E-01 0.35064719E+03</pdfrwt>
<totfact> 0.63712757E+01</totfact>
</mgrwt>
</event>
<event>
 7    1  0.6095443E-006  0.1268343E+03  0.7546771E-02  0.1246960E+00
          4   -1    0    0  501    0  0.00000000000E+00  0.00000000000E+00  0.25569733673E+03  0.25569733673E+03  0.00000000000E+00 0. -1.
         -4   -1    0    0    0  501 -0.00000000000E+00 -0.00000000000E+00 -0.53704188910E+02  0.53704188910E+02  0.00000000000E+00 0.  1.
         23    2    1    2    0    0 -0.15258966971E+02 -0.15063190940E+02  0.63063442768E+02  0.14164720299E+03  0.12500878572E+03 0.  0.
          5    1    3    3  502    0 -0.38690119841E+02  0.45674335920E+01 -0.26196084512E+02  0.47181687833E+02  0.47000000000E+01 0.  1.
         -5    1    3    3    0  502  0.23431152870E+02 -0.19630624532E+02  0.89259527280E+02  0.94465515161E+02  0.47000000000E+01 0.  1.
        -11    1    1    2    0    0  0.47860794218E+02 -0.14495034866E+02  0.72843079220E+02  0.88356526920E+02  0.00000000000E+00 0.  1.
         11    1    1    2    0    0 -0.32601827247E+02  0.29558225806E+02  0.66086625836E+02  0.79397795732E+02  0.00000000000E+00 0. -1.
<mgrwt>
<rscale>  0 0.11768857E+03</rscale>
<asrwt>0</asrwt>
<pdfrwt beam="1">  1        4 0.39338051E-01 0.12683427E+03</pdfrwt>
<pdfrwt beam="2">  1       -4 0.82621831E-02 0.12683427E+03</pdfrwt>
<totfact> 0.10701233E+03</totfact>
</mgrwt>
</event>
<event>
 7    1  0.6095443E-006  0.1589115E+03  0.7546771E-02  0.1199010E+00
          1   -1    0    0  501    0  0.00000000000E+00  0.00000000000E+00  0.19230831896E+02  0.19230831896E+02  0.00000000000E+00 0. -1.
         -1   -1    0    0    0  501 -0.00000000000E+00 -0.00000000000E+00 -0.11086500563E+04  0.11086500563E+04  0.00000000000E+00 0.  1.
         23    2    1    2    0    0 -0.97610961143E+02 -0.99917718123E+01 -0.67644486003E+03  0.69486005704E+03  0.12500045988E+03 0.  0.
          5    1    3    3  502    0 -0.27679468562E+02 -0.63233188384E+02 -0.34901110514E+03  0.35580251630E+03  0.47000000000E+01 0.  1.
         -5    1    3    3    0  502 -0.69931492581E+02  0.53241416572E+02 -0.32743375489E+03  0.33905754074E+03  0.47000000000E+01 0.  1.
        -11    1    1    2    0    0  0.15714022144E+02  0.21830729027E+02 -0.26399371409E+02  0.37688699004E+02  0.00000000000E+00 0. -1.
         11    1    1    2    0    0  0.81896938999E+02 -0.11838957215E+02 -0.38657499300E+03  0.39533213219E+03  0.00000000000E+00 0.  1.
<mgrwt>
<rscale>  0 0.15119663E+03</rscale>
<asrwt>0</asrwt>
<pdfrwt beam="1">  1        1 0.29585899E-02 0.15891145E+03</pdfrwt>
<pdfrwt beam="2">  1       -1 0.17056152E+00 0.15891145E+03</pdfrwt>
<totfact> 0.91529781E+02</totfact>
</mgrwt>
</event>
<event>
 7    1  0.6095443E-006  0.1325315E+03  0.7546771E-02  0.1235627E+00
         -2   -1    0    0    0  501 -0.00000000000E+00  0.00000000000E+00  0.18948124868E+03  0.18948124868E+03  0.00000000000E+00 0.  1.
          2   -1    0    0  501    0  0.00000000000E+00 -0.00000000000E+00 -0.74423941628E+02  0.74423941628E+02  0.00000000000E+00 0. -1.
         23    2    1    2    0    0  0.41825618270E+02 -0.13774894503E+02  0.78081014165E+02  0.15382210540E+03  0.12500186108E+03 0.  0.
          5    1    3    3  502    0  0.71475993790E+01  0.36122997732E+02  0.84738697158E+02  0.92513220342E+02  0.47000000000E+01 0. -1.
         -5    1    3    3    0  502  0.34678018891E+02 -0.49897892235E+02 -0.66576829928E+01  0.61308885054E+02  0.47000000000E+01 0. -1.
        -11    1    1    2    0    0 -0.44728475441E+02  0.50100584861E+02  0.26076290601E+02  0.72046360423E+02  0.00000000000E+00 0. -1.
         11    1    1    2    0    0  0.29028571712E+01 -0.36325690358E+02  0.10900002281E+02  0.38036724484E+02  0.00000000000E+00 0.  1.
<mgrwt>
<rscale>  0 0.12464378E+03</rscale>
<asrwt>0</asrwt>
<pdfrwt beam="2">  1        2 0.11449837E-01 0.13253149E+03</pdfrwt>
<pdfrwt beam="1">  1       -2 0.29150961E-01 0.13253149E+03</pdfrwt>
<totfact> 0.55318704E+03</totfact>
</mgrwt>
</event>
<event>
 7    1  0.6095443E-006  0.1796814E+03  0.7546771E-02  0.1174960E+00
          2   -1    0    0  501    0  0.00000000000E+00  0.00000000000E+00  0.33440267547E+03  0.33440267547E+03  0.00000000000E+00 0. -1.
         -2   -1    0    0    0  501 -0.00000000000E+00 -0.00000000000E+00 -0.83732436175E+02  0.83732436175E+02  0.00000000000E+00 0.  1.
         23    2    1    2    0    0 -0.12695167990E+03  0.23326059203E+02  0.15333540405E+03  0.23621421163E+03  0.12499829428E+03 0.  0.
          5    1    3    3  502    0 -0.13469366475E+03  0.36875742765E+02  0.16496748367E+03  0.21619103680E+03  0.47000000000E+01 0. -1.
         -5    1    3    3    0  502  0.77419848431E+01 -0.13549683562E+02 -0.11632079615E+02  0.20023174826E+02  0.47000000000E+01 0. -1.
        -11    1    1    2    0    0  0.32860461881E+02 -0.40060388788E+02  0.60110645371E+02  0.79359526157E+02  0.00000000000E+00 0. -1.
         11    1    1    2    0    0  0.94091218021E+02  0.16734329585E+02  0.37224189867E+02  0.10256137385E+03  0.00000000000E+00 0.  1.
<mgrwt>
<rscale>  0 0.17279850E+03</rscale>
<asrwt>0</asrwt>
<pdfrwt beam="1">  1        2 0.51446565E-01 0.17968141E+03</pdfrwt>
<pdfrwt beam="2">  1       -2 0.12881913E-01 0.17968141E+03</pdfrwt>
<totfact> 0.41776123E+03</totfact>
</mgrwt>
</event>
<event>
 7    1  0.6095443E-006  0.2364967E+03  0.7546771E-02  0.1124942E+00
         -2   -1    0    0    0  501 -0.00000000000E+00  0.00000000000E+00  0.41105394315E+02  0.41105394315E+02  0.00000000000E+00 0.  1.
          2   -1    0    0  501    0  0.00000000000E+00 -0.00000000000E+00 -0.14741493176E+04  0.14741493176E+04  0.00000000000E+00 0. -1.
         23    2    1    2    0    0  0.19952500104E+03 -0.22255305392E+02 -0.45681867251E+03  0.51440642756E+03  0.12500059401E+03 0.  0.
          5    1    3    3  502    0  0.22254087917E+02  0.41469709337E+02 -0.10910759012E+03  0.11891819643E+03  0.47000000000E+01 0.  1.
         -5    1    3    3    0  502  0.17727091312E+03 -0.63725014729E+02 -0.34771108239E+03  0.39548823113E+03  0.47000000000E+01 0.  1.
        -11    1    1    2    0    0 -0.23782595288E+02  0.27235091243E+02 -0.83767446932E+02  0.91237860558E+02  0.00000000000E+00 0.  1.
         11    1    1    2    0    0 -0.17574240575E+03 -0.49797858516E+01 -0.89245780389E+03  0.90961042385E+03  0.00000000000E+00 0. -1.
<mgrwt>
<rscale>  0 0.23242847E+03</rscale>
<asrwt>0</asrwt>
<pdfrwt beam="2">  1        2 0.22679220E+00 0.23649667E+03</pdfrwt>
<pdfrwt beam="1">  1       -2 0.63239070E-02 0.23649667E+03</pdfrwt>
<totfact> 0.19245222E+03</totfact>
</mgrwt>
</event>
<event>
 7    1  0.6095443E-006  0.1838451E+03  0.7546771E-02  0.1170011E+00
         -1   -1    0    0    0  501 -0.00000000000E+00  0.00000000000E+00  0.16363021065E+03  0.16363021065E+03  0.00000000000E+00 0.  1.
          1   -1    0    0  501    0  0.00000000000E+00 -0.00000000000E+00 -0.27766777699E+03  0.27766777699E+03  0.00000000000E+00 0. -1.
         23    2    1    2    0    0  0.92443983310E+02  0.98133788229E+02  0.70285078924E+02  0.19682229178E+03  0.12499156683E+03 0.  0.
          5    1    3    3  502    0  0.43497287053E+02  0.75677136704E+02 -0.21756538787E+02  0.90080408418E+02  0.47000000000E+01 0.  1.
         -5    1    3    3    0  502  0.48946696257E+02  0.22456651525E+02  0.92041617711E+02  0.10674188336E+03  0.47000000000E+01 0.  1.
        -11    1    1    2    0    0 -0.86342818253E+01 -0.59699148730E+02 -0.37262480815E+02  0.70901563157E+02  0.00000000000E+00 0.  1.
         11    1    1    2    0    0 -0.83809701485E+02 -0.38434639499E+02 -0.14706016445E+03  0.17357413270E+03  0.00000000000E+00 0. -1.
<mgrwt>
<rscale>  0 0.17773702E+03</rscale>
<asrwt>0</asrwt>
<pdfrwt beam="2">  1        1 0.42718118E-01 0.18384510E+03</pdfrwt>
<pdfrwt beam="1">  1       -1 0.25173879E-01 0.18384510E+03</pdfrwt>
<totfact> 0.13214193E+03</totfact>
</mgrwt>
</event>
<event>
 7    1  0.6095443E-006  0.1255099E+03  0.7546771E-02  0.1249824E+00
         -2   -1    0    0    0  501 -0.00000000000E+00  0.00000000000E+00  0.45131849672E+03  0.45131849672E+03  0.00000000000E+00 0.  1.
          2   -1    0    0  501    0  0.00000000000E+00 -0.00000000000E+00 -0.28529087291E+02  0.28529087291E+02  0.00000000000E+00 0. -1.
         23    2    1    2    0    0 -0.30078028053E+01 -0.10672497863E+02  0.31060588504E+03  0.33500560980E+03  0.12501917329E+03 0.  0.
          5    1    3    3  502    0  0.10160769102E+02 -0.55670492651E+02  0.25888123224E+03  0.26503589830E+03  0.47000000000E+01 0. -1.
         -5    1    3    3    0  502 -0.13168571907E+02  0.44997994788E+02  0.51724652802E+02  0.69969711508E+02  0.47000000000E+01 0. -1.
        -11    1    1    2    0    0  0.22162229064E+02  0.46142097944E+02  0.66414367485E+02  0.83851808616E+02  0.00000000000E+00 0. -1.
         11    1    1    2    0    0 -0.19154426259E+02 -0.35469600081E+02  0.45769156911E+02  0.60990165597E+02  0.00000000000E+00 0.  1.
<mgrwt>
<rscale>  0 0.11601257E+03</rscale>
<asrwt>0</asrwt>
<pdfrwt beam="2">  1        2 0.43890907E-02 0.12550993E+03</pdfrwt>
<pdfrwt beam="1">  1       -2 0.69433610E-01 0.12550993E+03</pdfrwt>
<totfact> 0.34408701E+03</totfact>
</mgrwt>
</event>
<event>
 7    1  0.6095443E-006  0.1430902E+03  0.7546771E-02  0.1219183E+00
          2   -1    0    0  501    0  0.00000000000E+00  0.00000000000E+00  0.31741759004E+03  0.31741759004E+03  0.00000000000E+00 0.  1.
         -2   -1    0    0    0  501 -0.00000000000E+00 -0.00000000000E+00 -0.53151783896E+02  0.53151783896E+02  0.00000000000E+00 0. -1.
         23    2    1    2    0    0 -0.67573575780E+02  0.16832843129E+02  0.13129351631E+03  0.19419779472E+03  0.12500105318E+03 0.  0.
          5    1    3    3  502    0 -0.41543181790E+02 -0.34049467735E+02  0.12545874135E+03  0.13655470694E+03  0.47000000000E+01 0.  1.
         -5    1    3    3    0  502 -0.26030393990E+02  0.50882310863E+02  0.58347749619E+01  0.57643087781E+02  0.47000000000E+01 0.  1.
        -11    1    1    2    0    0 -0.12986874436E+02 -0.31414054700E+02  0.38229440714E+02  0.51156542862E+02  0.00000000000E+00 0.  1.
         11    1    1    2    0    0  0.80560450216E+02  0.14581211571E+02  0.94742849118E+02  0.12521503635E+03  0.00000000000E+00 0. -1.
<mgrwt>
<rscale>  0 0.13573688E+03</rscale>
<asrwt>0</asrwt>
<pdfrwt beam="1">  1        2 0.48833474E-01 0.14309017E+03</pdfrwt>
<pdfrwt beam="2">  1       -2 0.81771977E-02 0.14309017E+03</pdfrwt>
<totfact> 0.89439301E+03</totfact>
</mgrwt>
</event>
<event>
 7    1  0.6095443E-006  0.2089140E+03  0.7546771E-02  0.1146360E+00
         -2   -1    0    0    0  501 -0.00000000000E+00  0.00000000000E+00  0.61282624618E+02  0.61282624618E+02  0.00000000000E+00 0.  1.
          2   -1    0    0  501    0  0.00000000000E+00 -0.00000000000E+00 -0.69790216433E+03  0.69790216433E+03  0.00000000000E+00 0. -1.
         23    2    1    2    0    0 -0.10841713800E+02  0.16704209785E+03 -0.23256641616E+03  0.31262147189E+03  0.12499776619E+03 0.  0.
          5    1    3    3  502    0 -0.21180400702E+02  0.15395468458E+03 -0.24578198739E+03  0.29082903845E+03  0.47000000000E+01 0.  1.
         -5    1    3    3    0  502  0.10338686902E+02  0.13087413263E+02  0.13215571226E+02  0.21792433449E+02  0.47000000000E+01 0.  1.
        -11    1    1    2    0    0  0.27151489408E+02 -0.98086465685E+01 -0.37091408493E+02  0.47001973454E+02  0.00000000000E+00 0.  1.
         11    1    1    2    0    0 -0.16309775609E+02 -0.15723345128E+03 -0.36696171506E+03  0.39956134360E+03  0.00000000000E+00 0. -1.
<mgrwt>
<rscale>  0 0.20405816E+03</rscale>
<asrwt>0</asrwt>
<pdfrwt beam="2">  1        2 0.10736956E+00 0.20891397E+03</pdfrwt>
<pdfrwt beam="1">  1       -2 0.94280968E-02 0.20891397E+03</pdfrwt>
<totfact> 0.30415643E+03</totfact>
</mgrwt>
</event>
<event>
 7    1  0.6095443E-006  0.1927134E+03  0.7546771E-02  0.1163599E+00
          2   -1    0    0  501    0  0.00000000000E+00  0.00000000000E+00  0.25749216048E+03  0.25749216048E+03  0.00000000000E+00 0. -1.
         -2   -1    0    0    0  501 -0.00000000000E+00 -0.00000000000E+00 -0.21812852683E+03  0.21812852683E+03  0.00000000000E+00 0.  1.
         23    2    1    2    0    0  0.14100271483E+03  0.40377727696E+02 -0.13697839220E+03  0.23643508975E+03  0.12500538089E+03 0.  0.
          5    1    3    3  502    0  0.87435791093E+02 -0.33280312156E+02 -0.10271182319E+03  0.13901224897E+03  0.47000000000E+01 0. -1.
         -5    1    3    3    0  502  0.53566923739E+02  0.73658039852E+02 -0.34266569018E+02  0.97422840781E+02  0.47000000000E+01 0. -1.
        -11    1    1    2    0    0 -0.11837576632E+03 -0.13439863497E+02  0.10159137649E+03  0.15657030293E+03  0.00000000000E+00 0.  1.
         11    1    1    2    0    0 -0.22626948510E+02 -0.26937864199E+02  0.74750649364E+02  0.82615294630E+02  0.00000000000E+00 0. -1.
<mgrwt>
<rscale>  0 0.18441303E+03</rscale>
<asrwt>0</asrwt>
<pdfrwt beam="1">  1        2 0.39614178E-01 0.19271344E+03</pdfrwt>
<pdfrwt beam="2">  1       -2 0.33558235E-01 0.19271344E+03</pdfrwt>
<totfact> 0.10680913E+03</totfact>
</mgrwt>
</event>
<event>
 7    1  0.6095443E-006  0.2541693E+03  0.7546771E-02  0.1114086E+00
         -2   -1    0    0    0  501 -0.00000000000E+00  0.00000000000E+00  0.47150547685E+02  0.47150547685E+02  0.00000000000E+00 0.  1.
          2   -1    0    0  501    0  0.00000000000E+00 -0.00000000000E+00 -0.14473740667E+04  0.14473740667E+04  0.00000000000E+00 0. -1.
         23    2    1    2    0    0  0.12960598860E+03 -0.17938287505E+03 -0.45735731692E+03  0.52323776286E+03  0.12500445193E+03 0.  0.
          5    1    3    3  502    0  0.11058810403E+03 -0.17479833618E+03 -0.45856865293E+03  0.50308198788E+03  0.47000000000E+01 0.  1.
         -5    1    3    3    0  502  0.19017884567E+02 -0.45845388651E+01  0.12113360079E+01  0.20155774977E+02  0.47000000000E+01 0.  1.
        -11    1    1    2    0    0 -0.29193226688E+02  0.36927979710E+02 -0.99148525340E+02  0.10975586657E+03  0.00000000000E+00 0.  1.
         11    1    1    2    0    0 -0.10041276191E+03  0.14245489534E+03 -0.84371767676E+03  0.86153098496E+03  0.00000000000E+00 0. -1.
<mgrwt>
<rscale>  0 0.24876752E+03</rscale>
<asrwt>0</asrwt>
<pdfrwt beam="2">  1        2 0.22267289E+00 0.25416932E+03</pdfrwt>
<pdfrwt beam="1">  1       -2 0.72539317E-02 0.25416932E+03</pdfrwt>
<totfact> 0.16075373E+03</totfact>
</mgrwt>
</event>
<event>
 7    1  0.6095443E-006  0.1828113E+03  0.7546771E-02  0.1170226E+00
          1   -1    0    0  501    0  0.00000000000E+00  0.00000000000E+00  0.30295205545E+03  0.30295205545E+03  0.00000000000E+00 0. -1.
         -1   -1    0    0    0  501 -0.00000000000E+00 -0.00000000000E+00 -0.10030243119E+03  0.10030243119E+03  0.00000000000E+00 0.  1.
         23    2    1    2    0    0  0.10179459983E+03 -0.86261095716E+02  0.13470614062E+03  0.22708086423E+03  0.12496742530E+03 0.  0.
          5    1    3    3  502    0  0.12775058443E+03 -0.60016362674E+02  0.12506700322E+03  0.18864257448E+03  0.47000000000E+01 0.  1.
         -5    1    3    3    0  502 -0.25955984596E+02 -0.26244733042E+02  0.96391373956E+01  0.38438289746E+02  0.47000000000E+01 0.  1.
        -11    1    1    2    0    0 -0.11342009564E+03  0.49353449681E+02  0.55016781529E+02  0.13537624363E+03  0.00000000000E+00 0. -1.
         11    1    1    2    0    0  0.11625495805E+02  0.36907646035E+02  0.12926702113E+02  0.40797378790E+02  0.00000000000E+00 0.  1.
<mgrwt>
<rscale>  0 0.17751931E+03</rscale>
<asrwt>0</asrwt>
<pdfrwt beam="1">  1        1 0.46608008E-01 0.18281131E+03</pdfrwt>
<pdfrwt beam="2">  1       -1 0.15431143E-01 0.18281131E+03</pdfrwt>
<totfact> 0.26141534E+03</totfact>
</mgrwt>
</event>
<event>
 7    1  0.6095443E-006  0.1684750E+03  0.7546771E-02  0.1186158E+00
          4   -1    0    0  501    0  0.00000000000E+00  0.00000000000E+00  0.85072351930E+02  0.85072351930E+02  0.00000000000E+00 0. -1.
         -4   -1    0    0    0  501 -0.00000000000E+00 -0.00000000000E+00 -0.43463122464E+03  0.43463122464E+03  0.00000000000E+00 0.  1.
         23    2    1    2    0    0 -0.72179406338E+02 -0.86878227446E+02 -0.33373992693E+03  0.37385311894E+03  0.12500449034E+03 0.  0.
          5    1    3    3  502    0 -0.61853597421E+01 -0.51810749563E+02 -0.27142701610E+03  0.27643684182E+03  0.47000000000E+01 0.  1.
         -5    1    3    3    0  502 -0.65994046596E+02 -0.35067477883E+02 -0.62312910834E+02  0.97416277120E+02  0.47000000000E+01 0.  1.
        -11    1    1    2    0    0  0.59834361534E+02  0.54306505641E+02 -0.51631914195E+02  0.95891615580E+02  0.00000000000E+00 0.  1.
         11    1    1    2    0    0  0.12345044804E+02  0.32571721805E+02  0.35812968417E+02  0.49958842054E+02  0.00000000000E+00 0. -1.
<mgrwt>
<rscale>  0 0.16226920E+03</rscale>
<asrwt>0</asrwt>
<pdfrwt beam="1">  1        4 0.13088054E-01 0.16847497E+03</pdfrwt>
<pdfrwt beam="2">  1       -4 0.66866342E-01 0.16847497E+03</pdfrwt>
<totfact> 0.17443024E+02</totfact>
</mgrwt>
</event>
<event>
 7    1  0.6095443E-006  0.1742466E+03  0.7546771E-02  0.1181041E+00
          1   -1    0    0  501    0  0.00000000000E+00  0.00000000000E+00  0.11114904061E+03  0.11114904061E+03  0.00000000000E+00 0. -1.
         -1   -1    0    0    0  501 -0.00000000000E+00 -0.00000000000E+00 -0.23796493833E+03  0.23796493833E+03  0.00000000000E+00 0.  1.
         23    2    1    2    0    0 -0.12107543546E+03 -0.90584070601E+01 -0.96180448244E+02  0.19902903136E+03  0.12498224231E+03 0.  0.
          5    1    3    3  502    0 -0.35914023713E+02  0.38738508215E+02 -0.85586913864E+02  0.10068614077E+03  0.47000000000E+01 0. -1.
         -5    1    3    3    0  502 -0.85161411745E+02 -0.47796915275E+02 -0.10593534380E+02  0.98342890596E+02  0.47000000000E+01 0. -1.
        -11    1    1    2    0    0  0.54202094020E+02 -0.22624196433E+02 -0.45882819174E+02  0.74531566170E+02  0.00000000000E+00 0.  1.
         11    1    1    2    0    0  0.66873341437E+02  0.31682603493E+02  0.15247369702E+02  0.75553381406E+02  0.00000000000E+00 0. -1.
<mgrwt>
<rscale>  0 0.16697335E+03</rscale>
<asrwt>0</asrwt>
<pdfrwt beam="1">  1        1 0.17099853E-01 0.17424660E+03</pdfrwt>
<pdfrwt beam="2">  1       -1 0.36609990E-01 0.17424660E+03</pdfrwt>
<totfact> 0.22233664E+03</totfact>
</mgrwt>
</event>
<event>
 7    1  0.6095443E-006  0.1263589E+03  0.7546771E-02  0.1248356E+00
         -1   -1    0    0    0  501 -0.00000000000E+00  0.00000000000E+00  0.53213234029E+03  0.53213234029E+03  0.00000000000E+00 0.  1.
          1   -1    0    0  501    0  0.00000000000E+00 -0.00000000000E+00 -0.26934296962E+02  0.26934296962E+02  0.00000000000E+00 0. -1.
         23    2    1    2    0    0  0.12876026880E+02  0.13228688434E+02  0.39761856976E+03  0.41721348155E+03  0.12500308757E+03 0.  0.
          5    1    3    3  502    0 -0.43105359679E+02 -0.93246531002E+01  0.62303294379E+02  0.76477524012E+02  0.47000000000E+01 0.  1.
         -5    1    3    3    0  502  0.55981386559E+02  0.22553341534E+02  0.33531527538E+03  0.34073595754E+03  0.47000000000E+01 0.  1.
        -11    1    1    2    0    0 -0.31585913594E+02  0.27116519298E+02  0.78086417462E+02  0.88489909868E+02  0.00000000000E+00 0.  1.
         11    1    1    2    0    0  0.18709886714E+02 -0.40345207732E+02  0.29493056111E+02  0.53363245840E+02  0.00000000000E+00 0. -1.
<mgrwt>
<rscale>  0 0.11686744E+03</rscale>
<asrwt>0</asrwt>
<pdfrwt beam="2">  1        1 0.41437384E-02 0.12635886E+03</pdfrwt>
<pdfrwt beam="1">  1       -1 0.81866506E-01 0.12635886E+03</pdfrwt>
<totfact> 0.32233683E+03</totfact>
</mgrwt>
</event>
<event>
 7    1  0.6095443E-006  0.1343999E+03  0.7546771E-02  0.1231757E+00
          1   -1    0    0  501    0  0.00000000000E+00  0.00000000000E+00  0.16007432459E+03  0.16007432459E+03  0.00000000000E+00 0. -1.
         -1   -1    0    0    0  501 -0.00000000000E+00 -0.00000000000E+00 -0.19071699880E+03  0.19071699880E+03  0.00000000000E+00 0.  1.
         23    2    1    2    0    0 -0.48811664695E+02 -0.75727969858E+01 -0.14227399164E+03  0.19571718361E+03  0.12499360542E+03 0.  0.
          5    1    3    3  502    0  0.15630576354E+02 -0.31194640222E+02 -0.11739544329E+03  0.12256100767E+03  0.47000000000E+01 0.  1.
         -5    1    3    3    0  502 -0.64442241049E+02  0.23621843236E+02 -0.24878548354E+02  0.73156175936E+02  0.47000000000E+01 0.  1.
        -11    1    1    2    0    0  0.22526916956E+02  0.42663982172E+02  0.17657461124E+02  0.51375707253E+02  0.00000000000E+00 0.  1.
         11    1    1    2    0    0  0.26284747738E+02 -0.35091185187E+02  0.93973856301E+02  0.10369843253E+03  0.00000000000E+00 0. -1.
<mgrwt>
<rscale>  0 0.12714313E+03</rscale>
<asrwt>0</asrwt>
<pdfrwt beam="1">  1        1 0.24626819E-01 0.13439988E+03</pdfrwt>
<pdfrwt beam="2">  1       -1 0.29341077E-01 0.13439988E+03</pdfrwt>
<totfact> 0.20177886E+03</totfact>
</mgrwt>
</event>
<event>
 7    1  0.6095443E-006  0.1411117E+03  0.7546771E-02  0.1223262E+00
         -2   -1    0    0    0  501 -0.00000000000E+00  0.00000000000E+00  0.16475316310E+03  0.16475316310E+03  0.00000000000E+00 0.  1.
          2   -1    0    0  501    0  0.00000000000E+00 -0.00000000000E+00 -0.96433993435E+02  0.96433993435E+02  0.00000000000E+00 0. -1.
         23    2    1    2    0    0  0.32520127009E+02  0.56829023747E+02  0.41287282726E+02  0.14702771122E+03  0.12500164619E+03 0.  0.
          5    1    3    3  502    0  0.47166586903E+02  0.89794105212E+02  0.16157610702E+02  0.10281452541E+03  0.47000000000E+01 0. -1.
         -5    1    3    3    0  502 -0.14646459894E+02 -0.32965081464E+02  0.25129672024E+02  0.44213185809E+02  0.47000000000E+01 0. -1.
        -11    1    1    2    0    0 -0.43005063949E+02  0.26122361943E+01  0.31894172829E+02  0.53605014352E+02  0.00000000000E+00 0.  1.
         11    1    1    2    0    0  0.10484936941E+02 -0.59441259942E+02 -0.48622858867E+01  0.60554430970E+02  0.00000000000E+00 0. -1.
<mgrwt>
<rscale>  0 0.13286717E+03</rscale>
<asrwt>0</asrwt>
<pdfrwt beam="2">  1        2 0.14835999E-01 0.14111169E+03</pdfrwt>
<pdfrwt beam="1">  1       -2 0.25346640E-01 0.14111169E+03</pdfrwt>
<totfact> 0.52266975E+03</totfact>
</mgrwt>
</event>
<event>
 7    1  0.6095443E-006  0.1601339E+03  0.7546771E-02  0.1195526E+00
         -1   -1    0    0    0  501 -0.00000000000E+00  0.00000000000E+00  0.31059206827E+03  0.31059206827E+03  0.00000000000E+00 0.  1.
          1   -1    0    0  501    0  0.00000000000E+00 -0.00000000000E+00 -0.12779418892E+03  0.12779418892E+03  0.00000000000E+00 0. -1.
         23    2    1    2    0    0  0.75069376007E+02  0.66202525520E+02  0.24091031865E+03  0.28927609985E+03  0.12499877886E+03 0.  0.
          5    1    3    3  502    0  0.35271310813E+02  0.59810498437E+02  0.23869577335E+03  0.24863451752E+03  0.47000000000E+01 0.  1.
         -5    1    3    3    0  502  0.39798065195E+02  0.63920270832E+01  0.22145452997E+01  0.40641582331E+02  0.47000000000E+01 0.  1.
        -11    1    1    2    0    0 -0.53958739277E+02 -0.60517894647E+02  0.60694740339E+01  0.81306824018E+02  0.00000000000E+00 0.  1.
         11    1    1    2    0    0 -0.21110636730E+02 -0.56846308735E+01 -0.64181913325E+02  0.67803333321E+02  0.00000000000E+00 0. -1.
<mgrwt>
<rscale>  0 0.15409765E+03</rscale>
<asrwt>0</asrwt>
<pdfrwt beam="2">  1        1 0.19660645E-01 0.16013394E+03</pdfrwt>
<pdfrwt beam="1">  1       -1 0.47783395E-01 0.16013394E+03</pdfrwt>
<totfact> 0.11549302E+03</totfact>
</mgrwt>
</event>
<event>
 7    1  0.6095443E-006  0.1276014E+03  0.7546771E-02  0.1234719E+00
          1   -1    0    0  501    0  0.00000000000E+00  0.00000000000E+00  0.17027722662E+03  0.17027722662E+03  0.00000000000E+00 0. -1.
         -1   -1    0    0    0  501 -0.00000000000E+00 -0.00000000000E+00 -0.90714330543E+02  0.90714330543E+02  0.00000000000E+00 0.  1.
         23    2    1    2    0    0 -0.23738265576E+01 -0.29602511969E+02  0.22389489045E+02  0.12955080441E+03  0.12409745339E+03 0.  0.
          5    1    3    3  502    0  0.50262850791E+02 -0.20029396775E+01 -0.22117521958E+02  0.55151071744E+02  0.47000000000E+01 0. -1.
         -5    1    3    3    0  502 -0.52636677348E+02 -0.27599572292E+02  0.44507011003E+02  0.74399732670E+02  0.47000000000E+01 0.  1.
        -11    1    1    2    0    0 -0.28219426873E+02 -0.10665538964E+02 -0.22109570597E+02  0.37402177562E+02  0.00000000000E+00 0.  1.
         11    1    1    2    0    0  0.30593253430E+02  0.40268050933E+02  0.79282977625E+02  0.94038575183E+02  0.00000000000E+00 0. -1.
<mgrwt>
<rscale>  0 0.12522417E+03</rscale>
<asrwt>0</asrwt>
<pdfrwt beam="1">  1        1 0.26196496E-01 0.12760142E+03</pdfrwt>
<pdfrwt beam="2">  1       -1 0.13956051E-01 0.12760142E+03</pdfrwt>
<totfact> 0.61555081E+03</totfact>
</mgrwt>
</event>
<event>
 7    1  0.6095443E-006  0.1478000E+03  0.7546771E-02  0.1212994E+00
         -2   -1    0    0    0  501 -0.00000000000E+00  0.00000000000E+00  0.11220625159E+03  0.11220625159E+03  0.00000000000E+00 0. -1.
          2   -1    0    0  501    0  0.00000000000E+00 -0.00000000000E+00 -0.17277628316E+03  0.17277628316E+03  0.00000000000E+00 0.  1.
         23    2    1    2    0    0  0.17952937177E+02 -0.76765869772E+02  0.59602362269E+01  0.14792012068E+03  0.12501812257E+03 0.  0.
          5    1    3    3  502    0 -0.52727946873E+01  0.25175429955E+02 -0.27592870583E+02  0.38013959860E+02  0.47000000000E+01 0.  1.
         -5    1    3    3    0  502  0.23225731864E+02 -0.10194129973E+03  0.33553106810E+02  0.10990616082E+03  0.47000000000E+01 0.  1.
        -11    1    1    2    0    0 -0.54355759750E+02  0.52254650371E+02 -0.35662433822E+02  0.83408070889E+02  0.00000000000E+00 0.  1.
         11    1    1    2    0    0  0.36402822573E+02  0.24511219401E+02 -0.30867833973E+02  0.53654343180E+02  0.00000000000E+00 0. -1.
<mgrwt>
<rscale>  0 0.14024890E+03</rscale>
<asrwt>0</asrwt>
<pdfrwt beam="2">  1        2 0.26580967E-01 0.14779999E+03</pdfrwt>
<pdfrwt beam="1">  1       -2 0.17262500E-01 0.14779999E+03</pdfrwt>
<totfact> 0.52081781E+03</totfact>
</mgrwt>
</event>
<event>
 7    1  0.6095443E-006  0.1695053E+03  0.7546771E-02  0.1185263E+00
          3   -1    0    0  501    0  0.00000000000E+00  0.00000000000E+00  0.79994624568E+02  0.79994624568E+02  0.00000000000E+00 0. -1.
         -3   -1    0    0    0  501 -0.00000000000E+00 -0.00000000000E+00 -0.32380453234E+03  0.32380453234E+03  0.00000000000E+00 0.  1.
         23    2    1    2    0    0  0.40334915821E+02 -0.10712876795E+03 -0.17309701851E+03  0.24226976869E+03  0.12501433777E+03 0.  0.
          5    1    3    3  502    0 -0.41656245198E+02 -0.18401828353E+02 -0.29097735385E+02  0.54246089769E+02  0.47000000000E+01 0. -1.
         -5    1    3    3    0  502  0.81991161018E+02 -0.88726939594E+02 -0.14399928313E+03  0.18802367892E+03  0.47000000000E+01 0. -1.
        -11    1    1    2    0    0 -0.43204930710E+02  0.12197855475E+03 -0.58156049121E+02  0.14187163179E+03  0.00000000000E+00 0.  1.
         11    1    1    2    0    0  0.28700148889E+01 -0.14849786802E+02 -0.12556840138E+02  0.19657756428E+02  0.00000000000E+00 0. -1.
<mgrwt>
<rscale>  0 0.16308004E+03</rscale>
<asrwt>0</asrwt>
<pdfrwt beam="1">  1        3 0.12306865E-01 0.16950535E+03</pdfrwt>
<pdfrwt beam="2">  1       -3 0.49816083E-01 0.16950535E+03</pdfrwt>
<totfact> 0.50102914E+02</totfact>
</mgrwt>
</event>
<event>
 7    1  0.6095443E-006  0.1717376E+03  0.7546771E-02  0.1182173E+00
         -4   -1    0    0    0  501 -0.00000000000E+00  0.00000000000E+00  0.92518451427E+02  0.92518451427E+02  0.00000000000E+00 0.  1.
          4   -1    0    0  501    0  0.00000000000E+00 -0.00000000000E+00 -0.34487013417E+03  0.34487013417E+03  0.00000000000E+00 0. -1.
         23    2    1    2    0    0 -0.42249653851E+02 -0.10992849056E+03 -0.37842316795E+02  0.17585746090E+03  0.12499799729E+03 0.  0.
          5    1    3    3  502    0 -0.26044499766E+02 -0.13266857572E+03 -0.92216813840E+01  0.13559644671E+03  0.47000000000E+01 0. -1.
         -5    1    3    3    0  502 -0.16205154085E+02  0.22740085165E+02 -0.28620635411E+02  0.40261014190E+02  0.47000000000E+01 0. -1.
        -11    1    1    2    0    0  0.33798712094E+02  0.82904283738E+02 -0.21533414379E+03  0.23320434533E+03  0.00000000000E+00 0. -1.
         11    1    1    2    0    0  0.84509417569E+01  0.27024206818E+02  0.82477784244E+00  0.28326779365E+02  0.00000000000E+00 0.  1.
<mgrwt>
<rscale>  0 0.16591739E+03</rscale>
<asrwt>0</asrwt>
<pdfrwt beam="2">  1        4 0.53056943E-01 0.17173761E+03</pdfrwt>
<pdfrwt beam="1">  1       -4 0.14233608E-01 0.17173761E+03</pdfrwt>
<totfact> 0.24621918E+02</totfact>
</mgrwt>
</event>
<event>
 7    1  0.6095443E-006  0.2394403E+03  0.7546771E-02  0.1122926E+00
          1   -1    0    0  501    0  0.00000000000E+00  0.00000000000E+00  0.88367662129E+02  0.88367662129E+02  0.00000000000E+00 0. -1.
         -1   -1    0    0    0  501 -0.00000000000E+00 -0.00000000000E+00 -0.60777730989E+03  0.60777730989E+03  0.00000000000E+00 0.  1.
         23    2    1    2    0    0  0.19112746919E+03 -0.71949851550E+02 -0.28549759601E+03  0.37261309276E+03  0.12500059581E+03 0.  0.
          5    1    3    3  502    0  0.15288481311E+03 -0.51137345888E+02 -0.11893721275E+03  0.20039197789E+03  0.47000000000E+01 0. -1.
         -5    1    3    3    0  502  0.38242656074E+02 -0.20812505662E+02 -0.16656038326E+03  0.17222111487E+03  0.47000000000E+01 0. -1.
        -11    1    1    2    0    0 -0.18228464549E+03  0.53889618354E+02 -0.23631894702E+03  0.30327945475E+03  0.00000000000E+00 0.  1.
         11    1    1    2    0    0 -0.88428236967E+01  0.18060233196E+02  0.24068952701E+01  0.20252424518E+02  0.00000000000E+00 0. -1.
<mgrwt>
<rscale>  0 0.23535506E+03</rscale>
<asrwt>0</asrwt>
<pdfrwt beam="1">  1        1 0.13595025E-01 0.23944026E+03</pdfrwt>
<pdfrwt beam="2">  1       -1 0.93504202E-01 0.23944026E+03</pdfrwt>
<totfact> 0.49734720E+02</totfact>
</mgrwt>
</event>
<event>
 7    1  0.6095443E-006  0.1345877E+03  0.7546771E-02  0.1233656E+00
          2   -1    0    0  501    0  0.00000000000E+00  0.00000000000E+00  0.16849343987E+03  0.16849343987E+03  0.00000000000E+00 0. -1.
         -2   -1    0    0    0  501 -0.00000000000E+00 -0.00000000000E+00 -0.88383561541E+02  0.88383561541E+02  0.00000000000E+00 0.  1.
         23    2    1    2    0    0  0.48863704679E+02 -0.10062439379E+02  0.16134871262E+02  0.13555140419E+03  0.12499973914E+03 0.  0.
          5    1    3    3  502    0 -0.36990625149E+02  0.18308382305E+02 -0.69369717765E+01  0.42115493455E+02  0.47000000000E+01 0.  1.
         -5    1    3    3    0  502  0.85854329828E+02 -0.28370821685E+02  0.23071843038E+02  0.93435910733E+02  0.47000000000E+01 0.  1.
        -11    1    1    2    0    0 -0.61783475367E+02 -0.47848757592E+01  0.76153627309E+02  0.98180791486E+02  0.00000000000E+00 0. -1.
         11    1    1    2    0    0  0.12919770688E+02  0.14847315139E+02 -0.12178620244E+02  0.23144805735E+02  0.00000000000E+00 0.  1.
<mgrwt>
<rscale>  0 0.12590874E+03</rscale>
<asrwt>0</asrwt>
<pdfrwt beam="1">  1        2 0.25922068E-01 0.13458770E+03</pdfrwt>
<pdfrwt beam="2">  1       -2 0.13597471E-01 0.13458770E+03</pdfrwt>
<totfact> 0.78684486E+03</totfact>
</mgrwt>
</event>
<event>
 7    1  0.6095443E-006  0.1408538E+03  0.7546771E-02  0.1222646E+00
          1   -1    0    0  501    0  0.00000000000E+00  0.00000000000E+00  0.39804556618E+02  0.39804556618E+02  0.00000000000E+00 0. -1.
         -1   -1    0    0    0  501 -0.00000000000E+00 -0.00000000000E+00 -0.43725991551E+03  0.43725991551E+03  0.00000000000E+00 0.  1.
         23    2    1    2    0    0  0.46429645070E+02  0.45333895478E+02 -0.28372251233E+03  0.31676212786E+03  0.12501562952E+03 0.  0.
          5    1    3    3  502    0  0.61797742682E+02 -0.81770672717E+01 -0.61762007528E+02  0.87877534123E+02  0.47000000000E+01 0.  1.
         -5    1    3    3    0  502 -0.15368097612E+02  0.53510962750E+02 -0.22196050480E+03  0.22888459373E+03  0.47000000000E+01 0.  1.
        -11    1    1    2    0    0 -0.10093491752E+02 -0.38286911747E+02 -0.11663788207E+03  0.12317532919E+03  0.00000000000E+00 0.  1.
         11    1    1    2    0    0 -0.36336153318E+02 -0.70469837308E+01  0.29050355043E+01  0.37127015083E+02  0.00000000000E+00 0. -1.
<mgrwt>
<rscale>  0 0.13329529E+03</rscale>
<asrwt>0</asrwt>
<pdfrwt beam="1">  1        1 0.61237781E-02 0.14085376E+03</pdfrwt>
<pdfrwt beam="2">  1       -1 0.67270755E-01 0.14085376E+03</pdfrwt>
<totfact> 0.28200136E+03</totfact>
</mgrwt>
</event>
<event>
 7    1  0.6095443E-006  0.1351518E+03  0.7546771E-02  0.1226255E+00
         -4   -1    0    0    0  501 -0.00000000000E+00  0.00000000000E+00  0.79968066148E+02  0.79968066148E+02  0.00000000000E+00 0.  1.
          4   -1    0    0  501    0  0.00000000000E+00 -0.00000000000E+00 -0.21377670038E+03  0.21377670038E+03  0.00000000000E+00 0. -1.
         23    2    1    2    0    0  0.46145755421E+02 -0.22658528729E+02 -0.35629923315E+02  0.13976942285E+03  0.12499264163E+03 0.  0.
          5    1    3    3  502    0 -0.12305058354E+02 -0.40396479134E+02  0.28435058020E+02  0.51126632122E+02  0.47000000000E+01 0.  1.
         -5    1    3    3    0  502  0.58450813774E+02  0.17737950405E+02 -0.64064981335E+02  0.88642790733E+02  0.47000000000E+01 0.  1.
        -11    1    1    2    0    0 -0.77257901001E+02 -0.15027870214E+00 -0.49061097525E+02  0.91519381232E+02  0.00000000000E+00 0.  1.
         11    1    1    2    0    0  0.31112145580E+02  0.22808807431E+02 -0.49117613392E+02  0.62455962440E+02  0.00000000000E+00 0. -1.
<mgrwt>
<rscale>  0 0.13081289E+03</rscale>
<asrwt>0</asrwt>
<pdfrwt beam="2">  1        4 0.32888723E-01 0.13515177E+03</pdfrwt>
<pdfrwt beam="1">  1       -4 0.12302780E-01 0.13515177E+03</pdfrwt>
<totfact> 0.78429305E+02</totfact>
</mgrwt>
</event>
<event>
 7    1  0.6095443E-006  0.1761169E+03  0.7546771E-02  0.1177525E+00
         -2   -1    0    0    0  501 -0.00000000000E+00  0.00000000000E+00  0.36316404924E+02  0.36316404924E+02  0.00000000000E+00 0. -1.
          2   -1    0    0  501    0  0.00000000000E+00 -0.00000000000E+00 -0.88756056265E+03  0.88756056265E+03  0.00000000000E+00 0.  1.
         23    2    1    2    0    0  0.98948787029E+02  0.74792755059E+02 -0.26836540297E+03  0.32099400677E+03  0.12502937336E+03 0.  0.
          5    1    3    3  502    0  0.46221472147E+01  0.80150708451E+02 -0.14130332775E+03  0.16258604105E+03  0.47000000000E+01 0.  1.
         -5    1    3    3    0  502  0.94326639815E+02 -0.53579533921E+01 -0.12706207522E+03  0.15840796572E+03  0.47000000000E+01 0.  1.
        -11    1    1    2    0    0 -0.43251023996E+02  0.10814445321E+02 -0.10264087198E+03  0.11190510223E+03  0.00000000000E+00 0. -1.
         11    1    1    2    0    0 -0.55697763033E+02 -0.85607200380E+02 -0.48023788277E+03  0.49097785858E+03  0.00000000000E+00 0.  1.
<mgrwt>
<rscale>  0 0.17031018E+03</rscale>
<asrwt>0</asrwt>
<pdfrwt beam="2">  1        2 0.13654779E+00 0.17611690E+03</pdfrwt>
<pdfrwt beam="1">  1       -2 0.55871390E-02 0.17611690E+03</pdfrwt>
<totfact> 0.50283244E+03</totfact>
</mgrwt>
</event>
<event>
 6    1  0.6095443E-006  0.2080579E+03  0.7546771E-02  0.1170759E+00
         -2   -1    0    0    0  501 -0.00000000000E+00  0.00000000000E+00  0.49569835149E+02  0.49569835149E+02  0.00000000000E+00 0.  1.
          2   -1    0    0  501    0  0.00000000000E+00 -0.00000000000E+00 -0.50766323805E+03  0.50766323805E+03  0.00000000000E+00 0. -1.
          5    1    1    2  502    0  0.97500971201E+02  0.84318200788E+02 -0.13454196198E+03  0.18638569661E+03  0.47000000000E+01 0. -1.
         -5    1    1    2    0  502 -0.47943309497E+02 -0.51128024512E+02 -0.15481084082E+03  0.17000330071E+03  0.47000000000E+01 0.  1.
        -11    1    1    2    0    0 -0.46953298645E+02  0.11409261897E+02 -0.34520005020E+02  0.59383619435E+02  0.00000000000E+00 0. -1.
         11    1    1    2    0    0 -0.26043630589E+01 -0.44599438173E+02 -0.13422059508E+03  0.14146045644E+03  0.00000000000E+00 0.  1.
<mgrwt>
<rscale>  0 0.17697884E+03</rscale>
<asrwt>0</asrwt>
<pdfrwt beam="2">  1        2 0.78102036E-01 0.20805786E+03</pdfrwt>
<pdfrwt beam="1">  1       -2 0.76261285E-02 0.20805786E+03</pdfrwt>
<totfact> 0.61281295E+03</totfact>
</mgrwt>
</event>
<event>
 7    1  0.6095443E-006  0.1225781E+03  0.7546771E-02  0.1247803E+00
          1   -1    0    0  501    0  0.00000000000E+00  0.00000000000E+00  0.18016430801E+03  0.18016430801E+03  0.00000000000E+00 0. -1.
         -1   -1    0    0    0  501 -0.00000000000E+00 -0.00000000000E+00 -0.10684360226E+03  0.10684360226E+03  0.00000000000E+00 0.  1.
         23    2    1    2    0    0  0.29410041372E+02  0.38591022118E+02 -0.44949157397E+02  0.13055961529E+03  0.11256628657E+03 0.  0.
          5    1    3    3  502    0  0.41337837049E+02 -0.14548511081E+02  0.17627819513E+02  0.47469000067E+02  0.47000000000E+01 0. -1.
         -5    1    3    3    0  502 -0.11927795677E+02  0.53139533199E+02 -0.62576976911E+02  0.83090615220E+02  0.47000000000E+01 0.  1.
        -11    1    1    2    0    0 -0.54052304873E+02  0.38991605768E+00  0.47388350596E+02  0.71885043429E+02  0.00000000000E+00 0.  1.
         11    1    1    2    0    0  0.24642263501E+02 -0.38980938176E+02  0.70881512548E+02  0.84563251549E+02  0.00000000000E+00 0. -1.
<mgrwt>
<rscale>  0 0.11719196E+03</rscale>
<asrwt>0</asrwt>
<pdfrwt beam="1">  1        1 0.27717586E-01 0.12257808E+03</pdfrwt>
<pdfrwt beam="2">  1       -1 0.16437477E-01 0.12257808E+03</pdfrwt>
<totfact> 0.44293366E+03</totfact>
</mgrwt>
</event>
<event>
 7    1  0.6095443E-006  0.3440278E+03  0.7546771E-02  0.1066240E+00
          2   -1    0    0  501    0  0.00000000000E+00  0.00000000000E+00  0.97933026857E+03  0.97933026857E+03  0.00000000000E+00 0.  1.
         -2   -1    0    0    0  501 -0.00000000000E+00 -0.00000000000E+00 -0.11718459471E+03  0.11718459471E+03  0.00000000000E+00 0. -1.
         23    2    1    2    0    0  0.12923192349E+03  0.29330378765E+03  0.42362456561E+03  0.54572239560E+03  0.12500863400E+03 0.  0.
          5    1    3    3  502    0  0.55453630923E+02  0.82268733449E+02  0.52261419864E+02  0.11223455659E+03  0.47000000000E+01 0.  1.
         -5    1    3    3    0  502  0.73778292567E+02  0.21103505420E+03  0.37136314575E+03  0.43348783902E+03  0.47000000000E+01 0.  1.
        -11    1    1    2    0    0 -0.29298091157E+02 -0.16811068130E+03  0.25934916445E+03  0.31045381044E+03  0.00000000000E+00 0.  1.
         11    1    1    2    0    0 -0.99933832333E+02 -0.12519310635E+03  0.17917194380E+03  0.24033865724E+03  0.00000000000E+00 0. -1.
<mgrwt>
<rscale>  0 0.34130729E+03</rscale>
<asrwt>0</asrwt>
<pdfrwt beam="1">  1        2 0.15066619E+00 0.34402785E+03</pdfrwt>
<pdfrwt beam="2">  1       -2 0.18028400E-01 0.34402785E+03</pdfrwt>
<totfact> 0.67872095E+02</totfact>
</mgrwt>
</event>
<event>
 7    1  0.6095443E-006  0.1527695E+03  0.7546771E-02  0.1204700E+00
         -1   -1    0    0    0  501 -0.00000000000E+00  0.00000000000E+00  0.53430764238E+02  0.53430764238E+02  0.00000000000E+00 0.  1.
          1   -1    0    0  501    0  0.00000000000E+00 -0.00000000000E+00 -0.39209793273E+03  0.39209793273E+03  0.00000000000E+00 0. -1.
         23    2    1    2    0    0  0.83792828988E+02  0.26277793544E+02 -0.13358890817E+03  0.20293965379E+03  0.12500698409E+03 0.  0.
          5    1    3    3  502    0 -0.52004001782E+01 -0.10837158868E+02  0.18645519938E+02  0.22676719077E+02  0.47000000000E+01 0.  1.
         -5    1    3    3    0  502  0.88993229166E+02  0.37114952412E+02 -0.15223442811E+03  0.18026293471E+03  0.47000000000E+01 0.  1.
        -11    1    1    2    0    0 -0.67098694728E+02  0.20865202645E+02 -0.72836567884E+02  0.10120650738E+03  0.00000000000E+00 0.  1.
         11    1    1    2    0    0 -0.16694134260E+02 -0.47142996189E+02 -0.13224169244E+03  0.14138253579E+03  0.00000000000E+00 0. -1.
<mgrwt>
<rscale>  0 0.14661093E+03</rscale>
<asrwt>0</asrwt>
<pdfrwt beam="2">  1        1 0.60322758E-01 0.15276946E+03</pdfrwt>
<pdfrwt beam="1">  1       -1 0.82201177E-02 0.15276946E+03</pdfrwt>
<totfact> 0.49684417E+03</totfact>
</mgrwt>
</event>
<event>
 7    1  0.6095443E-006  0.1491083E+03  0.7546771E-02  0.1210290E+00
         -1   -1    0    0    0  501 -0.00000000000E+00  0.00000000000E+00  0.13548738220E+03  0.13548738220E+03  0.00000000000E+00 0.  1.
          1   -1    0    0  501    0  0.00000000000E+00 -0.00000000000E+00 -0.14240123824E+03  0.14240123824E+03  0.00000000000E+00 0. -1.
         23    2    1    2    0    0  0.78970051571E+02 -0.19254397203E+02 -0.30084346332E+02  0.15211296706E+03  0.12500514388E+03 0.  0.
          5    1    3    3  502    0 -0.22708442424E+02 -0.21158372023E+02 -0.38831266487E+02  0.49933028358E+02  0.47000000000E+01 0.  1.
         -5    1    3    3    0  502  0.10167849400E+03  0.19039748203E+01  0.87469201547E+01  0.10217993870E+03  0.47000000000E+01 0.  1.
        -11    1    1    2    0    0 -0.41016496421E+02 -0.45592349675E+01  0.56475642877E+02  0.69947393379E+02  0.00000000000E+00 0.  1.
         11    1    1    2    0    0 -0.37953555150E+02  0.23813632171E+02 -0.33305152582E+02  0.55828259996E+02  0.00000000000E+00 0. -1.
<mgrwt>
<rscale>  0 0.14228240E+03</rscale>
<asrwt>0</asrwt>
<pdfrwt beam="2">  1        1 0.21907883E-01 0.14910831E+03</pdfrwt>
<pdfrwt beam="1">  1       -1 0.20844213E-01 0.14910831E+03</pdfrwt>
<totfact> 0.41218560E+03</totfact>
</mgrwt>
</event>
<event>
 7    1  0.6095443E-006  0.1306981E+03  0.7546771E-02  0.1240356E+00
         -1   -1    0    0    0  501 -0.00000000000E+00  0.00000000000E+00  0.67223858292E+02  0.67223858292E+02  0.00000000000E+00 0.  1.
          1   -1    0    0  501    0  0.00000000000E+00 -0.00000000000E+00 -0.19820549304E+03  0.19820549304E+03  0.00000000000E+00 0. -1.
         23    2    1    2    0    0  0.27978112968E+02 -0.25970204042E+02 -0.57453632297E+02  0.14276877096E+03  0.12499910317E+03 0.  0.
          5    1    3    3  502    0 -0.24547962565E+02 -0.13558982949E+01 -0.77322600379E+02  0.81273091831E+02  0.47000000000E+01 0. -1.
         -5    1    3    3    0  502  0.52526075534E+02 -0.24614305747E+02  0.19868968082E+02  0.61495679125E+02  0.47000000000E+01 0. -1.
        -11    1    1    2    0    0 -0.26509552582E+02  0.54673690905E+02 -0.23864212972E+02  0.65279931955E+02  0.00000000000E+00 0.  1.
         11    1    1    2    0    0 -0.14685603865E+01 -0.28703486864E+02 -0.49663789477E+02  0.57380648419E+02  0.00000000000E+00 0. -1.
<mgrwt>
<rscale>  0 0.12167671E+03</rscale>
<asrwt>0</asrwt>
<pdfrwt beam="2">  1        1 0.30493153E-01 0.13069813E+03</pdfrwt>
<pdfrwt beam="1">  1       -1 0.10342132E-01 0.13069813E+03</pdfrwt>
<totfact> 0.81000487E+03</totfact>
</mgrwt>
</event>
<event>
 7    1  0.6095443E-006  0.1306524E+03  0.7546771E-02  0.1239988E+00
         -2   -1    0    0    0  501 -0.00000000000E+00  0.00000000000E+00  0.25365794634E+03  0.25365794634E+03  0.00000000000E+00 0. -1.
          2   -1    0    0  501    0  0.00000000000E+00 -0.00000000000E+00 -0.55413011435E+02  0.55413011435E+02  0.00000000000E+00 0.  1.
         23    2    1    2    0    0 -0.37971612268E+02  0.16193012157E+01  0.14999989459E+03  0.19892215931E+03  0.12500236642E+03 0.  0.
          5    1    3    3  502    0 -0.32357922600E+01 -0.24518705107E+02 -0.14266843320E+02  0.28935619398E+02  0.47000000000E+01 0.  1.
         -5    1    3    3    0  502 -0.34735820008E+02  0.26138006322E+02  0.16426673791E+03  0.16998653991E+03  0.47000000000E+01 0.  1.
        -11    1    1    2    0    0  0.61090954385E+02  0.13269305291E+02  0.53344183849E+02  0.82181391574E+02  0.00000000000E+00 0.  1.
         11    1    1    2    0    0 -0.23119342117E+02 -0.14888606507E+02 -0.50991435341E+01  0.27967406895E+02  0.00000000000E+00 0. -1.
<mgrwt>
<rscale>  0 0.12190458E+03</rscale>
<asrwt>0</asrwt>
<pdfrwt beam="2">  1        2 0.85250788E-02 0.13065243E+03</pdfrwt>
<pdfrwt beam="1">  1       -2 0.39024299E-01 0.13065243E+03</pdfrwt>
<totfact> 0.46482553E+03</totfact>
</mgrwt>
</event>
<event>
 7    1  0.6095443E-006  0.1285092E+03  0.7546771E-02  0.1243963E+00
          4   -1    0    0  501    0  0.00000000000E+00  0.00000000000E+00  0.40703507686E+02  0.40703507686E+02  0.00000000000E+00 0. -1.
         -4   -1    0    0    0  501 -0.00000000000E+00 -0.00000000000E+00 -0.31400838277E+03  0.31400838277E+03  0.00000000000E+00 0.  1.
         23    2    1    2    0    0 -0.11741610892E+01  0.29776281937E+02 -0.13540085580E+03  0.18667623373E+03  0.12500647531E+03 0.  0.
          5    1    3    3  502    0 -0.55690003358E+02 -0.14807060422E+02 -0.57112160863E+02  0.81268163697E+02  0.47000000000E+01 0. -1.
         -5    1    3    3    0  502  0.54515842269E+02  0.44583342358E+02 -0.78288694936E+02  0.10540807004E+03  0.47000000000E+01 0. -1.
        -11    1    1    2    0    0 -0.24456334517E+02 -0.49635708911E+02 -0.50891273262E+02  0.75178039289E+02  0.00000000000E+00 0.  1.
         11    1    1    2    0    0  0.25630495606E+02  0.19859426974E+02 -0.87012746019E+02  0.92857617429E+02  0.00000000000E+00 0. -1.
<mgrwt>
<rscale>  0 0.11947666E+03</rscale>
<asrwt>0</asrwt>
<pdfrwt beam="1">  1        4 0.62620779E-02 0.12850924E+03</pdfrwt>
<pdfrwt beam="2">  1       -4 0.48308984E-01 0.12850924E+03</pdfrwt>
<totfact> 0.11240071E+03</totfact>
</mgrwt>
</event>
<event>
 7    1  0.6095443E-006  0.1282966E+03  0.7546771E-02  0.1244692E+00
          2   -1    0    0  501    0  0.00000000000E+00  0.00000000000E+00  0.59441663026E+03  0.59441663026E+03  0.00000000000E+00 0.  1.
         -2   -1    0    0    0  501 -0.00000000000E+00 -0.00000000000E+00 -0.21318810355E+02  0.21318810355E+02  0.00000000000E+00 0. -1.
         23    2    1    2    0    0  0.69179049529E+01  0.28055872661E+02  0.29045535314E+03  0.31752846801E+03  0.12500010573E+03 0.  0.
          5    1    3    3  502    0 -0.46865941484E+02  0.12950416270E+02  0.22979281069E+03  0.23492755393E+03  0.47000000000E+01 0. -1.
         -5    1    3    3    0  502  0.53783846437E+02  0.15105456391E+02  0.60662542446E+02  0.82600914077E+02  0.47000000000E+01 0. -1.
        -11    1    1    2    0    0 -0.41770571922E+02 -0.24715918676E+00  0.19988069715E+03  0.20419876312E+03  0.00000000000E+00 0.  1.
         11    1    1    2    0    0  0.34852666969E+02 -0.27808713474E+02  0.82761769612E+02  0.94008209478E+02  0.00000000000E+00 0. -1.
<mgrwt>
<rscale>  0 0.11903816E+03</rscale>
<asrwt>0</asrwt>
<pdfrwt beam="1">  1        2 0.91448700E-01 0.12829659E+03</pdfrwt>
<pdfrwt beam="2">  1       -2 0.32798174E-02 0.12829659E+03</pdfrwt>
<totfact> 0.17788932E+04</totfact>
</mgrwt>
</event>
<event>
 7    1  0.6095443E-006  0.1295107E+03  0.7546771E-02  0.1242203E+00
          1   -1    0    0  501    0  0.00000000000E+00  0.00000000000E+00  0.10024802777E+03  0.10024802777E+03  0.00000000000E+00 0. -1.
         -1   -1    0    0    0  501 -0.00000000000E+00 -0.00000000000E+00 -0.13744259686E+03  0.13744259686E+03  0.00000000000E+00 0.  1.
         23    2    1    2    0    0  0.23508940105E+02  0.24417817313E+02 -0.51637856097E+02  0.13942559648E+03  0.12499651477E+03 0.  0.
          5    1    3    3  502    0  0.56124932073E+02  0.33822485181E+02  0.12342256792E+02  0.66846015639E+02  0.47000000000E+01 0.  1.
         -5    1    3    3    0  502 -0.32615991968E+02 -0.94046678682E+01 -0.63980112889E+02  0.72579580841E+02  0.47000000000E+01 0.  1.
        -11    1    1    2    0    0 -0.19653392029E+02 -0.11675101871E+02  0.52868425426E+02  0.57598908227E+02  0.00000000000E+00 0. -1.
         11    1    1    2    0    0 -0.38555480756E+01 -0.12742715443E+02 -0.38425138413E+02  0.40666119927E+02  0.00000000000E+00 0.  1.
<mgrwt>
<rscale>  0 0.12054339E+03</rscale>
<asrwt>0</asrwt>
<pdfrwt beam="1">  1        1 0.15422774E-01 0.12951073E+03</pdfrwt>
<pdfrwt beam="2">  1       -1 0.21145015E-01 0.12951073E+03</pdfrwt>
<totfact> 0.62542155E+03</totfact>
</mgrwt>
</event>
<event>
 7    1  0.6095443E-006  0.1608976E+03  0.7546771E-02  0.1195841E+00
         -1   -1    0    0    0  501 -0.00000000000E+00  0.00000000000E+00  0.15310938382E+03  0.15310938382E+03  0.00000000000E+00 0.  1.
          1   -1    0    0  501    0  0.00000000000E+00 -0.00000000000E+00 -0.14559561113E+03  0.14559561113E+03  0.00000000000E+00 0. -1.
         23    2    1    2    0    0  0.97718563996E+02  0.26728991212E+02 -0.17865929174E+02  0.16188647951E+03  0.12499873641E+03 0.  0.
          5    1    3    3  502    0  0.75009712596E+02  0.62628267211E+02  0.25396968035E+02  0.10107350208E+03  0.47000000000E+01 0.  1.
         -5    1    3    3    0  502  0.22708851400E+02 -0.35899275999E+02 -0.43262897209E+02  0.60812977431E+02  0.47000000000E+01 0.  1.
        -11    1    1    2    0    0 -0.69710073873E+02  0.10856123081E+02 -0.18152750913E+02  0.72848281884E+02  0.00000000000E+00 0. -1.
         11    1    1    2    0    0 -0.28008490123E+02 -0.37585114293E+02  0.43532452777E+02  0.63970233548E+02  0.00000000000E+00 0.  1.
<mgrwt>
<rscale>  0 0.15383229E+03</rscale>
<asrwt>0</asrwt>
<pdfrwt beam="2">  1        1 0.22399325E-01 0.16089761E+03</pdfrwt>
<pdfrwt beam="1">  1       -1 0.23555290E-01 0.16089761E+03</pdfrwt>
<totfact> 0.32975314E+03</totfact>
</mgrwt>
</event>
<event>
 7    1  0.6095443E-006  0.1697674E+03  0.7546771E-02  0.1181553E+00
          2   -1    0    0  501    0  0.00000000000E+00  0.00000000000E+00  0.50172576069E+03  0.50172576069E+03  0.00000000000E+00 0. -1.
         -2   -1    0    0    0  501 -0.00000000000E+00 -0.00000000000E+00 -0.71041383376E+02  0.71041383376E+02  0.00000000000E+00 0.  1.
         23    2    1    2    0    0  0.45481368324E+02  0.11816739146E+03  0.78268488344E+02  0.18694099461E+03  0.11308798314E+03 0.  0.
          5    1    3    3  502    0 -0.11039248434E+02  0.16939952476E+02  0.67255829786E+02  0.70386530217E+02  0.47000000000E+01 0. -1.
         -5    1    3    3    0  502  0.56520616757E+02  0.10122743898E+03  0.11012658559E+02  0.11655446440E+03  0.47000000000E+01 0.  1.
        -11    1    1    2    0    0 -0.49197292428E+02 -0.23002590888E+02  0.75598911372E+02  0.93084306789E+02  0.00000000000E+00 0.  1.
         11    1    1    2    0    0  0.37159241041E+01 -0.95164800572E+02  0.27681697760E+03  0.29274184267E+03  0.00000000000E+00 0. -1.
<mgrwt>
<rscale>  0 0.16649477E+03</rscale>
<asrwt>0</asrwt>
<pdfrwt beam="1">  1        2 0.77188576E-01 0.16976743E+03</pdfrwt>
<pdfrwt beam="2">  1       -2 0.10929444E-01 0.16976743E+03</pdfrwt>
<totfact> 0.34953093E+03</totfact>
</mgrwt>
</event>
<event>
 7    1  0.6095443E-006  0.1279639E+03  0.7546771E-02  0.1243439E+00
          3   -1    0    0  501    0  0.00000000000E+00  0.00000000000E+00  0.14353551373E+02  0.14353551373E+02  0.00000000000E+00 0. -1.
         -3   -1    0    0    0  501 -0.00000000000E+00 -0.00000000000E+00 -0.93519295281E+03  0.93519295281E+03  0.00000000000E+00 0.  1.
         23    2    1    2    0    0  0.25024650988E+02 -0.11097682583E+02 -0.61976414794E+03  0.63283675698E+03  0.12500148077E+03 0.  0.
          5    1    3    3  502    0  0.18984809113E+01 -0.21249212915E+02 -0.12779820871E+02  0.25309032000E+02  0.47000000000E+01 0.  1.
         -5    1    3    3    0  502  0.23126170077E+02  0.10151530332E+02 -0.60698432707E+03  0.60752772498E+03  0.47000000000E+01 0.  1.
        -11    1    1    2    0    0  0.33978439136E+02 -0.37664771280E+01 -0.72202456909E+02  0.79886891664E+02  0.00000000000E+00 0. -1.
         11    1    1    2    0    0 -0.59003090124E+02  0.14864159711E+02 -0.22887279659E+03  0.23682285554E+03  0.00000000000E+00 0.  1.
<mgrwt>
<rscale>  0 0.11979282E+03</rscale>
<asrwt>0</asrwt>
<pdfrwt beam="1">  1        3 0.22082390E-02 0.12796391E+03</pdfrwt>
<pdfrwt beam="2">  1       -3 0.14387582E+00 0.12796391E+03</pdfrwt>
<totfact> 0.71542648E+02</totfact>
</mgrwt>
</event>
<event>
 7    1  0.6095443E-006  0.1287207E+03  0.7546771E-02  0.1239921E+00
         -1   -1    0    0    0  501 -0.00000000000E+00  0.00000000000E+00  0.22374578242E+02  0.22374578242E+02  0.00000000000E+00 0.  1.
          1   -1    0    0  501    0  0.00000000000E+00 -0.00000000000E+00 -0.65602586422E+03  0.65602586422E+03  0.00000000000E+00 0. -1.
         23    2    1    2    0    0 -0.26713136034E+02 -0.15145936268E+02 -0.25276223922E+03  0.28365076783E+03  0.12500406989E+03 0.  0.
          5    1    3    3  502    0 -0.44243641870E+02 -0.14626033686E+02 -0.21254568881E+02  0.51432163144E+02  0.47000000000E+01 0.  1.
         -5    1    3    3    0  502  0.17530505837E+02 -0.51990258221E+00 -0.23150767034E+03  0.23221860468E+03  0.47000000000E+01 0.  1.
        -11    1    1    2    0    0  0.63852166978E+02  0.31910473618E+01 -0.25871163338E+03  0.26649388597E+03  0.00000000000E+00 0. -1.
         11    1    1    2    0    0 -0.37139030945E+02  0.11954888906E+02 -0.12217741337E+03  0.12825578866E+03  0.00000000000E+00 0.  1.
<mgrwt>
<rscale>  0 0.12194570E+03</rscale>
<asrwt>0</asrwt>
<pdfrwt beam="2">  1        1 0.10092705E+00 0.12872066E+03</pdfrwt>
<pdfrwt beam="1">  1       -1 0.34422430E-02 0.12872066E+03</pdfrwt>
<totfact> 0.91014717E+03</totfact>
</mgrwt>
</event>
<event>
 7    1  0.6095443E-006  0.1502189E+03  0.7546771E-02  0.1205577E+00
          2   -1    0    0  501    0  0.00000000000E+00  0.00000000000E+00  0.80619264743E+03  0.80619264743E+03  0.00000000000E+00 0.  1.
         -2   -1    0    0    0  501 -0.00000000000E+00 -0.00000000000E+00 -0.30123047559E+02  0.30123047559E+02  0.00000000000E+00 0. -1.
         23    2    1    2    0    0 -0.11510202599E+02 -0.82510588038E+02  0.23460850560E+03  0.27858010923E+03  0.12500097781E+03 0.  0.
          5    1    3    3  502    0 -0.62234573740E+02 -0.50856301330E+02  0.18116399939E+03  0.19824729564E+03  0.47000000000E+01 0. -1.
         -5    1    3    3    0  502  0.50724371141E+02 -0.31654286707E+02  0.53444506217E+02  0.80332813590E+02  0.47000000000E+01 0. -1.
        -11    1    1    2    0    0  0.52872981637E+02  0.22261247706E+02  0.17857325891E+03  0.18756205409E+03  0.00000000000E+00 0. -1.
         11    1    1    2    0    0 -0.41362779039E+02  0.60249340332E+02  0.36288783535E+03  0.37017353166E+03  0.00000000000E+00 0.  1.
<mgrwt>
<rscale>  0 0.14592051E+03</rscale>
<asrwt>0</asrwt>
<pdfrwt beam="1">  1        2 0.12402962E+00 0.15021893E+03</pdfrwt>
<pdfrwt beam="2">  1       -2 0.46343156E-02 0.15021893E+03</pdfrwt>
<totfact> 0.74915858E+03</totfact>
</mgrwt>
</event>
<event>
 7    1  0.6095443E-006  0.1285911E+03  0.7546771E-02  0.1243130E+00
          2   -1    0    0  501    0  0.00000000000E+00  0.00000000000E+00  0.13795644351E+04  0.13795644351E+04  0.00000000000E+00 0. -1.
         -2   -1    0    0    0  501 -0.00000000000E+00 -0.00000000000E+00 -0.97365697328E+01  0.97365697328E+01  0.00000000000E+00 0.  1.
         23    2    1    2    0    0  0.27675391149E+02  0.12077270956E+02  0.92700203217E+03  0.93587843033E+03  0.12499552379E+03 0.  0.
          5    1    3    3  502    0  0.56948626794E+02 -0.14135270260E+02  0.81440097132E+03  0.81652555627E+03  0.47000000000E+01 0.  1.
         -5    1    3    3    0  502 -0.29273235645E+02  0.26212541216E+02  0.11260106085E+03  0.11935287406E+03  0.47000000000E+01 0.  1.
        -11    1    1    2    0    0  0.11325596348E+02 -0.43881127717E+02  0.16681260580E+03  0.17285909856E+03  0.00000000000E+00 0.  1.
         11    1    1    2    0    0 -0.39000987496E+02  0.31803856761E+02  0.27601322736E+03  0.28056347590E+03  0.00000000000E+00 0. -1.
<mgrwt>
<rscale>  0 0.11997983E+03</rscale>
<asrwt>0</asrwt>
<pdfrwt beam="1">  1        2 0.21224053E+00 0.12859109E+03</pdfrwt>
<pdfrwt beam="2">  1       -2 0.14979349E-02 0.12859109E+03</pdfrwt>
<totfact> 0.18006471E+04</totfact>
</mgrwt>
</event>
<event>
 7    1  0.6095443E-006  0.1264505E+03  0.7546771E-02  0.1247539E+00
          2   -1    0    0  501    0  0.00000000000E+00  0.00000000000E+00  0.59896965349E+02  0.59896965349E+02  0.00000000000E+00 0.  1.
         -2   -1    0    0    0  501 -0.00000000000E+00 -0.00000000000E+00 -0.20882160173E+03  0.20882160173E+03  0.00000000000E+00 0. -1.
         23    2    1    2    0    0 -0.16511829768E+02  0.95441450028E+01 -0.10840108582E+03  0.16655488713E+03  0.12500401511E+03 0.  0.
          5    1    3    3  502    0 -0.30520535361E+02  0.57277932614E+02 -0.25767416471E+02  0.69987958928E+02  0.47000000000E+01 0.  1.
         -5    1    3    3    0  502  0.14008705593E+02 -0.47733787611E+02 -0.82633669351E+02  0.96566928203E+02  0.47000000000E+01 0.  1.
        -11    1    1    2    0    0  0.50376280148E+02  0.11638244460E+02 -0.33499640548E+02  0.61607176956E+02  0.00000000000E+00 0. -1.
         11    1    1    2    0    0 -0.33864450380E+02 -0.21182389463E+02 -0.70239100093E+01  0.40556502989E+02  0.00000000000E+00 0.  1.
<mgrwt>
<rscale>  0 0.11734688E+03</rscale>
<asrwt>0</asrwt>
<pdfrwt beam="1">  1        2 0.92149178E-02 0.12645052E+03</pdfrwt>
<pdfrwt beam="2">  1       -2 0.32126400E-01 0.12645052E+03</pdfrwt>
<totfact> 0.60316970E+03</totfact>
</mgrwt>
</event>
<event>
 7    1  0.6095443E-006  0.1864407E+03  0.7546771E-02  0.1166917E+00
         -2   -1    0    0    0  501 -0.00000000000E+00  0.00000000000E+00  0.37217098572E+02  0.37217098572E+02  0.00000000000E+00 0.  1.
          2   -1    0    0  501    0  0.00000000000E+00 -0.00000000000E+00 -0.89308332640E+03  0.89308332640E+03  0.00000000000E+00 0. -1.
         23    2    1    2    0    0 -0.13094361372E+03  0.44659555159E+02 -0.32956420817E+03  0.37864586951E+03  0.12497768342E+03 0.  0.
          5    1    3    3  502    0  0.10506106363E+00 -0.33469013309E+02 -0.59743360980E+02  0.68640695443E+02  0.47000000000E+01 0.  1.
         -5    1    3    3    0  502 -0.13104867479E+03  0.78128568469E+02 -0.26982084719E+03  0.31000517407E+03  0.47000000000E+01 0.  1.
        -11    1    1    2    0    0  0.14385676373E+03 -0.33091350587E+02 -0.48133186908E+03  0.50345821490E+03  0.00000000000E+00 0.  1.
         11    1    1    2    0    0 -0.12913150007E+02 -0.11568204572E+02 -0.44970150584E+02  0.48196340563E+02  0.00000000000E+00 0. -1.
<mgrwt>
<rscale>  0 0.18091865E+03</rscale>
<asrwt>0</asrwt>
<pdfrwt beam="2">  1        2 0.13739745E+00 0.18644068E+03</pdfrwt>
<pdfrwt beam="1">  1       -2 0.57257070E-02 0.18644068E+03</pdfrwt>
<totfact> 0.48144469E+03</totfact>
</mgrwt>
</event>
<event>
 7    1  0.6095443E-006  0.1619075E+03  0.7546771E-02  0.1193429E+00
          2   -1    0    0  501    0  0.00000000000E+00  0.00000000000E+00  0.15111362917E+04  0.15111362917E+04  0.00000000000E+00 0. -1.
         -2   -1    0    0    0  501 -0.00000000000E+00 -0.00000000000E+00 -0.15307481550E+02  0.15307481550E+02  0.00000000000E+00 0.  1.
         23    2    1    2    0    0 -0.10135110725E+03 -0.17810403366E+02  0.91290765943E+03  0.92715393672E+03  0.12499908130E+03 0.  0.
          5    1    3    3  502    0  0.23749441814E+02  0.49806143649E+01  0.30895192304E+03  0.30993906378E+03  0.47000000000E+01 0. -1.
         -5    1    3    3    0  502 -0.12510054906E+03 -0.22791017731E+02  0.60395573638E+03  0.61721487294E+03  0.47000000000E+01 0. -1.
        -11    1    1    2    0    0  0.88490063897E+01  0.42359333114E+02  0.16967833956E+03  0.17510955694E+03  0.00000000000E+00 0. -1.
         11    1    1    2    0    0  0.92502100858E+02 -0.24548929748E+02  0.41324281114E+03  0.42418027957E+03  0.00000000000E+00 0.  1.
<mgrwt>
<rscale>  0 0.15587941E+03</rscale>
<asrwt>0</asrwt>
<pdfrwt beam="1">  1        2 0.23248239E+00 0.16190747E+03</pdfrwt>
<pdfrwt beam="2">  1       -2 0.23549984E-02 0.16190747E+03</pdfrwt>
<totfact> 0.80466540E+03</totfact>
</mgrwt>
</event>
<event>
 7    1  0.6095443E-006  0.1923433E+03  0.7546771E-02  0.1159634E+00
          2   -1    0    0  501    0  0.00000000000E+00  0.00000000000E+00  0.76769124693E+02  0.76769124693E+02  0.00000000000E+00 0. -1.
         -2   -1    0    0    0  501 -0.00000000000E+00 -0.00000000000E+00 -0.63584208270E+03  0.63584208270E+03  0.00000000000E+00 0.  1.
         23    2    1    2    0    0 -0.33269207067E+02  0.14235531867E+03 -0.48105019215E+03  0.51807841094E+03  0.12499630245E+03 0.  0.
          5    1    3    3  502    0 -0.16979199702E+02  0.10317318519E+02 -0.25445423753E+03  0.25527199079E+03  0.47000000000E+01 0.  1.
         -5    1    3    3    0  502 -0.16290007365E+02  0.13203800016E+03 -0.22659595462E+03  0.26280642016E+03  0.47000000000E+01 0.  1.
        -11    1    1    2    0    0  0.13323956174E+02  0.43692007754E+01 -0.38940294147E+02  0.41387972067E+02  0.00000000000E+00 0.  1.
         11    1    1    2    0    0  0.19945250893E+02 -0.14672451945E+03 -0.39082471716E+02  0.15314482439E+03  0.00000000000E+00 0. -1.
<mgrwt>
<rscale>  0 0.18870575E+03</rscale>
<asrwt>0</asrwt>
<pdfrwt beam="1">  1        2 0.11810635E-01 0.19234332E+03</pdfrwt>
<pdfrwt beam="2">  1       -2 0.97821859E-01 0.19234332E+03</pdfrwt>
<totfact> 0.46830587E+02</totfact>
</mgrwt>
</event>
<event>
 7    1  0.6095443E-006  0.1419609E+03  0.7546771E-02  0.1220023E+00
         -2   -1    0    0    0  501 -0.00000000000E+00  0.00000000000E+00  0.20469287298E+03  0.20469287298E+03  0.00000000000E+00 0.  1.
          2   -1    0    0  501    0  0.00000000000E+00 -0.00000000000E+00 -0.85903072008E+02  0.85903072008E+02  0.00000000000E+00 0. -1.
         23    2    1    2    0    0 -0.34875767430E+02  0.57519810416E+02  0.97160050821E+02  0.17202607619E+03  0.12501219009E+03 0.  0.
          5    1    3    3  502    0  0.70690198190E+01  0.84397226988E+02  0.33847139198E+02  0.91326785755E+02  0.47000000000E+01 0. -1.
         -5    1    3    3    0  502 -0.41944787249E+02 -0.26877416572E+02  0.63312911623E+02  0.80699290438E+02  0.47000000000E+01 0. -1.
        -11    1    1    2    0    0 -0.17205211129E+01 -0.63907989918E+02  0.41716199193E+02  0.76337622725E+02  0.00000000000E+00 0.  1.
         11    1    1    2    0    0  0.36596288543E+02  0.63881795022E+01 -0.20086449046E+02  0.42232246066E+02  0.00000000000E+00 0. -1.
<mgrwt>
<rscale>  0 0.13513967E+03</rscale>
<asrwt>0</asrwt>
<pdfrwt beam="2">  1        2 0.13215857E-01 0.14196089E+03</pdfrwt>
<pdfrwt beam="1">  1       -2 0.31491211E-01 0.14196089E+03</pdfrwt>
<totfact> 0.40711905E+03</totfact>
</mgrwt>
</event>
<event>
 7    1  0.6095443E-006  0.2347343E+03  0.7546771E-02  0.1126250E+00
          2   -1    0    0  501    0  0.00000000000E+00  0.00000000000E+00  0.32456943007E+03  0.32456943007E+03  0.00000000000E+00 0.  1.
         -2   -1    0    0    0  501 -0.00000000000E+00 -0.00000000000E+00 -0.16475496193E+03  0.16475496193E+03  0.00000000000E+00 0. -1.
         23    2    1    2    0    0  0.10883338878E+03 -0.16621573882E+03  0.33870967051E+02  0.23716541084E+03  0.12501124488E+03 0.  0.
          5    1    3    3  502    0 -0.44341000127E+01 -0.74307321077E+02  0.50802781878E+02  0.90245508781E+02  0.47000000000E+01 0.  1.
         -5    1    3    3    0  502  0.11326748879E+03 -0.91908417743E+02 -0.16931814827E+02  0.14691990206E+03  0.47000000000E+01 0.  1.
        -11    1    1    2    0    0 -0.90164926795E+02  0.12744274198E+03  0.13702807242E+03  0.20772110904E+03  0.00000000000E+00 0.  1.
         11    1    1    2    0    0 -0.18668461980E+02  0.38772996841E+02 -0.11084571333E+02  0.44437872118E+02  0.00000000000E+00 0. -1.
<mgrwt>
<rscale>  0 0.23055401E+03</rscale>
<asrwt>0</asrwt>
<pdfrwt beam="1">  1        2 0.49933758E-01 0.23473430E+03</pdfrwt>
<pdfrwt beam="2">  1       -2 0.25346917E-01 0.23473430E+03</pdfrwt>
<totfact> 0.13877453E+03</totfact>
</mgrwt>
</event>
<event>
 7    1  0.6095443E-006  0.1388847E+03  0.7546771E-02  0.1245906E+00
          2   -1    0    0  501    0  0.00000000000E+00  0.00000000000E+00  0.14866662837E+03  0.14866662837E+03  0.00000000000E+00 0. -1.
         -2   -1    0    0    0  501 -0.00000000000E+00 -0.00000000000E+00 -0.86699783159E+02  0.86699783159E+02  0.00000000000E+00 0.  1.
         23    2    1    2    0    0 -0.57161633803E+02 -0.19917814722E+02 -0.94762620007E+00  0.13888791513E+03  0.12499913300E+03 0.  0.
          5    1    3    3  502    0 -0.72521787978E+02  0.29998062536E+02  0.22011789385E+02  0.81644977552E+02  0.47000000000E+01 0.  1.
         -5    1    3    3    0  502  0.15360154175E+02 -0.49915877258E+02 -0.22959415585E+02  0.57242937579E+02  0.47000000000E+01 0.  1.
        -11    1    1    2    0    0  0.39672626620E+02  0.22931684760E+02  0.63983124925E+02  0.78699553646E+02  0.00000000000E+00 0.  1.
         11    1    1    2    0    0  0.17489007184E+02 -0.30138700384E+01 -0.10686535184E+01  0.17778942748E+02  0.00000000000E+00 0. -1.
<mgrwt>
<rscale>  0 0.11831333E+03</rscale>
<asrwt>0</asrwt>
<pdfrwt beam="1">  1        2 0.22871789E-01 0.13888468E+03</pdfrwt>
<pdfrwt beam="2">  1       -2 0.13338428E-01 0.13888468E+03</pdfrwt>
<totfact> 0.93444316E+03</totfact>
</mgrwt>
</event>
<event>
 7    1  0.6095443E-006  0.1218811E+03  0.7546771E-02  0.1254036E+00
          1   -1    0    0  501    0  0.00000000000E+00  0.00000000000E+00  0.28130848292E+03  0.28130848292E+03  0.00000000000E+00 0. -1.
         -1   -1    0    0    0  501 -0.00000000000E+00 -0.00000000000E+00 -0.64070190324E+02  0.64070190324E+02  0.00000000000E+00 0.  1.
         23    2    1    2    0    0  0.28460038936E+01  0.11571908224E+02  0.14496569225E+02  0.12274015949E+03  0.12129710398E+03 0.  0.
          5    1    3    3  502    0  0.21980868808E+02 -0.38385495800E+02 -0.29450065821E+02  0.53347926467E+02  0.47000000000E+01 0. -1.
         -5    1    3    3    0  502 -0.19134864915E+02  0.49957404024E+02  0.43946635047E+02  0.69392233024E+02  0.47000000000E+01 0.  1.
        -11    1    1    2    0    0 -0.40253413115E+02  0.13570991463E+02  0.64474926028E+02  0.77210913496E+02  0.00000000000E+00 0.  1.
         11    1    1    2    0    0  0.37407409221E+02 -0.25142899686E+02  0.13826679735E+03  0.14542760026E+03  0.00000000000E+00 0. -1.
<mgrwt>
<rscale>  0 0.11360495E+03</rscale>
<asrwt>0</asrwt>
<pdfrwt beam="1">  1        1 0.43278228E-01 0.12188107E+03</pdfrwt>
<pdfrwt beam="2">  1       -1 0.98569525E-02 0.12188107E+03</pdfrwt>
<totfact> 0.56279146E+03</totfact>
</mgrwt>
</event>
<event>
 7    1  0.6095443E-006  0.1727322E+03  0.7546771E-02  0.1181529E+00
          2   -1    0    0  501    0  0.00000000000E+00  0.00000000000E+00  0.65675951591E+02  0.65675951591E+02  0.00000000000E+00 0.  1.
         -2   -1    0    0    0  501 -0.00000000000E+00 -0.00000000000E+00 -0.41046798061E+03  0.41046798061E+03  0.00000000000E+00 0. -1.
         23    2    1    2    0    0 -0.90180902925E+02 -0.79296883844E+02 -0.23138939044E+03  0.28875155813E+03  0.12416046583E+03 0.  0.
          5    1    3    3  502    0 -0.46166405081E+02 -0.43391267645E+02 -0.22209416670E+03  0.23100226827E+03  0.47000000000E+01 0. -1.
         -5    1    3    3    0  502 -0.44014497843E+02 -0.35905616198E+02 -0.92952237482E+01  0.57749289861E+02  0.47000000000E+01 0. -1.
        -11    1    1    2    0    0  0.21515536824E+02  0.20522523751E+02  0.12626057023E+02  0.32303399541E+02  0.00000000000E+00 0.  1.
         11    1    1    2    0    0  0.68665366100E+02  0.58774360093E+02 -0.12602869560E+03  0.15508897453E+03  0.00000000000E+00 0. -1.
<mgrwt>
<rscale>  0 0.16651764E+03</rscale>
<asrwt>0</asrwt>
<pdfrwt beam="1">  1        2 0.10103993E-01 0.17273220E+03</pdfrwt>
<pdfrwt beam="2">  1       -2 0.63148920E-01 0.17273220E+03</pdfrwt>
<totfact> 0.14744608E+03</totfact>
</mgrwt>
</event>
<event>
 7    1  0.6095443E-006  0.1280465E+03  0.7546771E-02  0.1244638E+00
         -2   -1    0    0    0  501 -0.00000000000E+00  0.00000000000E+00  0.76718556124E+02  0.76718556124E+02  0.00000000000E+00 0.  1.
          2   -1    0    0  501    0  0.00000000000E+00 -0.00000000000E+00 -0.16740936196E+03  0.16740936196E+03  0.00000000000E+00 0. -1.
         23    2    1    2    0    0  0.27584786643E+02  0.29989583231E+01 -0.70879979460E+02  0.14635531733E+03  0.12500397281E+03 0.  0.
          5    1    3    3  502    0 -0.21064220575E+01  0.61095367101E+02 -0.23835820535E+02  0.65782347447E+02  0.47000000000E+01 0.  1.
         -5    1    3    3    0  502  0.29691208701E+02 -0.58096408778E+02 -0.47044158925E+02  0.80572969884E+02  0.47000000000E+01 0.  1.
        -11    1    1    2    0    0 -0.11671250882E+02 -0.47202736560E+02 -0.12710673051E+02  0.50258110244E+02  0.00000000000E+00 0.  1.
         11    1    1    2    0    0 -0.15913535762E+02  0.44203778237E+02 -0.71001533230E+01  0.47514490506E+02  0.00000000000E+00 0. -1.
<mgrwt>
<rscale>  0 0.11907053E+03</rscale>
<asrwt>0</asrwt>
<pdfrwt beam="2">  1        2 0.25755286E-01 0.12804650E+03</pdfrwt>
<pdfrwt beam="1">  1       -2 0.11802855E-01 0.12804650E+03</pdfrwt>
<totfact> 0.99058772E+03</totfact>
</mgrwt>
</event>
<event>
 7    1  0.6095443E-006  0.1529736E+03  0.7546771E-02  0.1205680E+00
          2   -1    0    0  501    0  0.00000000000E+00  0.00000000000E+00  0.52128307526E+03  0.52128307526E+03  0.00000000000E+00 0. -1.
         -2   -1    0    0    0  501 -0.00000000000E+00 -0.00000000000E+00 -0.81754839689E+02  0.81754839689E+02  0.00000000000E+00 0.  1.
         23    2    1    2    0    0  0.39276681505E+02 -0.78957535648E+02  0.77766123286E+01  0.15317115446E+03  0.12499590679E+03 0.  0.
          5    1    3    3  502    0  0.34142501597E+02 -0.43216723335E+02 -0.56660650367E+02  0.79157532118E+02  0.47000000000E+01 0. -1.
         -5    1    3    3    0  502  0.51341799078E+01 -0.35740812313E+02  0.64437262695E+02  0.74013622339E+02  0.47000000000E+01 0. -1.
        -11    1    1    2    0    0  0.23953134506E+02  0.37765943466E+02  0.98489318896E+02  0.10816730132E+03  0.00000000000E+00 0.  1.
         11    1    1    2    0    0 -0.63229816011E+02  0.41191592182E+02  0.33326230435E+03  0.34169945917E+03  0.00000000000E+00 0. -1.
<mgrwt>
<rscale>  0 0.14584034E+03</rscale>
<asrwt>0</asrwt>
<pdfrwt beam="1">  1        2 0.80197394E-01 0.15297361E+03</pdfrwt>
<pdfrwt beam="2">  1       -2 0.12577668E-01 0.15297361E+03</pdfrwt>
<totfact> 0.26659518E+03</totfact>
</mgrwt>
</event>
<event>
 7    1  0.6095443E-006  0.1548388E+03  0.7546771E-02  0.1203511E+00
          2   -1    0    0  501    0  0.00000000000E+00  0.00000000000E+00  0.16721222253E+04  0.16721222253E+04  0.00000000000E+00 0. -1.
         -2   -1    0    0    0  501 -0.00000000000E+00 -0.00000000000E+00 -0.11970121160E+02  0.11970121160E+02  0.00000000000E+00 0.  1.
         23    2    1    2    0    0 -0.85920355057E+02  0.30517174899E+02  0.95522472272E+03  0.96769278245E+03  0.12514569485E+03 0.  0.
          5    1    3    3  502    0 -0.12653379003E+02 -0.70813702808E+01  0.68476173305E+03  0.68493136506E+03  0.47000000000E+01 0.  1.
         -5    1    3    3    0  502 -0.73266976054E+02  0.37598545179E+02  0.27046298967E+03  0.28276141739E+03  0.47000000000E+01 0.  1.
        -11    1    1    2    0    0  0.97157339540E+02 -0.33135328157E+01  0.57681311355E+03  0.58494777211E+03  0.00000000000E+00 0. -1.
         11    1    1    2    0    0 -0.11236984483E+02 -0.27203642083E+02  0.12811426790E+03  0.13145179193E+03  0.00000000000E+00 0.  1.
<mgrwt>
<rscale>  0 0.14755446E+03</rscale>
<asrwt>0</asrwt>
<pdfrwt beam="1">  1        2 0.25724939E+00 0.15483879E+03</pdfrwt>
<pdfrwt beam="2">  1       -2 0.18415584E-02 0.15483879E+03</pdfrwt>
<totfact> 0.94872355E+03</totfact>
</mgrwt>
</event>
<event>
 7    1  0.6095443E-006  0.2059851E+03  0.7546771E-02  0.1148527E+00
         -1   -1    0    0    0  501 -0.00000000000E+00  0.00000000000E+00  0.60871710747E+03  0.60871710747E+03  0.00000000000E+00 0.  1.
          1   -1    0    0  501    0  0.00000000000E+00 -0.00000000000E+00 -0.10336207632E+03  0.10336207632E+03  0.00000000000E+00 0. -1.
         23    2    1    2    0    0 -0.15944415323E+02 -0.16294515890E+03  0.47954056810E+03  0.52190901871E+03  0.12499807268E+03 0.  0.
          5    1    3    3  502    0 -0.59582058594E+02 -0.67239493043E+02  0.13995347117E+03  0.16637378166E+03  0.47000000000E+01 0. -1.
         -5    1    3    3    0  502  0.43637643271E+02 -0.95705665856E+02  0.33958709692E+03  0.35553523705E+03  0.47000000000E+01 0. -1.
        -11    1    1    2    0    0 -0.11547106582E+02  0.16037213521E+03  0.22755718225E+02  0.16238959368E+03  0.00000000000E+00 0.  1.
         11    1    1    2    0    0  0.27491521905E+02  0.25730236843E+01  0.30587448345E+01  0.27780571403E+02  0.00000000000E+00 0. -1.
<mgrwt>
<rscale>  0 0.20144330E+03</rscale>
<asrwt>0</asrwt>
<pdfrwt beam="2">  1        1 0.15901858E-01 0.20598511E+03</pdfrwt>
<pdfrwt beam="1">  1       -1 0.93648784E-01 0.20598511E+03</pdfrwt>
<totfact> 0.40357663E+02</totfact>
</mgrwt>
</event>
<event>
 7    1  0.6095443E-006  0.2060712E+03  0.7546771E-02  0.1148642E+00
          3   -1    0    0  501    0  0.00000000000E+00  0.00000000000E+00  0.21923321291E+03  0.21923321291E+03  0.00000000000E+00 0. -1.
         -3   -1    0    0    0  501 -0.00000000000E+00 -0.00000000000E+00 -0.19113334752E+03  0.19113334752E+03  0.00000000000E+00 0.  1.
         23    2    1    2    0    0 -0.14502020600E+03 -0.76218308860E+02 -0.41509815188E+02  0.21021042977E+03  0.12500107710E+03 0.  0.
          5    1    3    3  502    0 -0.36132691519E+02  0.13329030698E+02  0.32773994239E+02  0.50788376171E+02  0.47000000000E+01 0.  1.
         -5    1    3    3    0  502 -0.10888751448E+03 -0.89547339558E+02 -0.74283809427E+02  0.15942205360E+03  0.47000000000E+01 0.  1.
        -11    1    1    2    0    0  0.38628904655E+02 -0.91832575276E+01  0.47564179354E+02  0.61958660825E+02  0.00000000000E+00 0.  1.
         11    1    1    2    0    0  0.10639130134E+03  0.85401566388E+02  0.22045501221E+02  0.13819746983E+03  0.00000000000E+00 0. -1.
<mgrwt>
<rscale>  0 0.20130615E+03</rscale>
<asrwt>0</asrwt>
<pdfrwt beam="1">  1        3 0.33728187E-01 0.20607125E+03</pdfrwt>
<pdfrwt beam="2">  1       -3 0.29405130E-01 0.20607125E+03</pdfrwt>
<totfact> 0.23517502E+02</totfact>
</mgrwt>
</event>
<event>
 7    1  0.6095443E-006  0.1361373E+03  0.7546771E-02  0.1232466E+00
         -3   -1    0    0    0  501 -0.00000000000E+00  0.00000000000E+00  0.69153616521E+03  0.69153616521E+03  0.00000000000E+00 0.  1.
          3   -1    0    0  501    0  0.00000000000E+00 -0.00000000000E+00 -0.22964807187E+02  0.22964807187E+02  0.00000000000E+00 0. -1.
         23    2    1    2    0    0 -0.21231919866E+02 -0.49571410083E+02  0.49262691236E+03  0.51109161324E+03  0.12500097287E+03 0.  0.
          5    1    3    3  502    0 -0.28561847786E+02  0.28038070890E+02  0.30802278546E+03  0.31064777310E+03  0.47000000000E+01 0. -1.
         -5    1    3    3    0  502  0.73299279196E+01 -0.77609480973E+02  0.18460412690E+03  0.20044384014E+03  0.47000000000E+01 0. -1.
        -11    1    1    2    0    0  0.52972743324E+02  0.44697826580E+02  0.13049391581E+03  0.14775882139E+03  0.00000000000E+00 0.  1.
         11    1    1    2    0    0 -0.31740823458E+02  0.48735835031E+01  0.45450529854E+02  0.55650537769E+02  0.00000000000E+00 0. -1.
<mgrwt>
<rscale>  0 0.12668076E+03</rscale>
<asrwt>0</asrwt>
<pdfrwt beam="2">  1        3 0.35330478E-02 0.13613729E+03</pdfrwt>
<pdfrwt beam="1">  1       -3 0.10639016E+00 0.13613729E+03</pdfrwt>
<totfact> 0.71693427E+02</totfact>
</mgrwt>
</event>
<event>
 7    1  0.6095443E-006  0.1990959E+03  0.7546771E-02  0.1153039E+00
          3   -1    0    0  501    0  0.00000000000E+00  0.00000000000E+00  0.49148667462E+02  0.49148667462E+02  0.00000000000E+00 0. -1.
         -3   -1    0    0    0  501 -0.00000000000E+00 -0.00000000000E+00 -0.79253862136E+03  0.79253862136E+03  0.00000000000E+00 0.  1.
         23    2    1    2    0    0 -0.15741242451E+03 -0.43205368221E+02 -0.46717625569E+03  0.50783150354E+03  0.11399038061E+03 0.  0.
          5    1    3    3  502    0 -0.20139087106E+02 -0.31064911475E+02 -0.23382932455E+03  0.23678862847E+03  0.47000000000E+01 0. -1.
         -5    1    3    3    0  502 -0.13727333740E+03 -0.12140456746E+02 -0.23334693115E+03  0.27104287507E+03  0.47000000000E+01 0.  1.
        -11    1    1    2    0    0  0.10730743717E+03  0.11688887048E+02 -0.97010026535E+02  0.14512911975E+03  0.00000000000E+00 0. -1.
         11    1    1    2    0    0  0.50104987340E+02  0.31516481173E+02 -0.17920367167E+03  0.18872666553E+03  0.00000000000E+00 0.  1.
<mgrwt>
<rscale>  0 0.19613795E+03</rscale>
<asrwt>0</asrwt>
<pdfrwt beam="1">  1        3 0.75613332E-02 0.19909591E+03</pdfrwt>
<pdfrwt beam="2">  1       -3 0.12192902E+00 0.19909591E+03</pdfrwt>
<totfact> 0.16258479E+02</totfact>
</mgrwt>
</event>
<event>
 7    1  0.6095443E-006  0.1630795E+03  0.7546771E-02  0.1191971E+00
         -1   -1    0    0    0  501 -0.00000000000E+00  0.00000000000E+00  0.53033009058E+02  0.53033009058E+02  0.00000000000E+00 0.  1.
          1   -1    0    0  501    0  0.00000000000E+00 -0.00000000000E+00 -0.57737288739E+03  0.57737288739E+03  0.00000000000E+00 0. -1.
         23    2    1    2    0    0 -0.10089740035E+03 -0.28056986122E+02 -0.12040666675E+03  0.20271329574E+03  0.12500973963E+03 0.  0.
          5    1    3    3  502    0 -0.12396215298E+03  0.16242464686E+01 -0.81659427852E+02  0.14852476462E+03  0.47000000000E+01 0.  1.
         -5    1    3    3    0  502  0.23064752631E+02 -0.29681232590E+02 -0.38747238897E+02  0.54188531113E+02  0.47000000000E+01 0.  1.
        -11    1    1    2    0    0  0.64288177776E+02  0.24280145045E+02 -0.37397761285E+03  0.38023906974E+03  0.00000000000E+00 0. -1.
         11    1    1    2    0    0  0.36609222577E+02  0.37768410766E+01 -0.29955598739E+02  0.47453530976E+02  0.00000000000E+00 0.  1.
<mgrwt>
<rscale>  0 0.15713390E+03</rscale>
<asrwt>0</asrwt>
<pdfrwt beam="2">  1        1 0.88826603E-01 0.16307947E+03</pdfrwt>
<pdfrwt beam="1">  1       -1 0.81589240E-02 0.16307947E+03</pdfrwt>
<totfact> 0.30441168E+03</totfact>
</mgrwt>
</event>
<event>
 7    1  0.6095443E-006  0.2030739E+03  0.7546771E-02  0.1151110E+00
          1   -1    0    0  501    0  0.00000000000E+00  0.00000000000E+00  0.39755066526E+02  0.39755066526E+02  0.00000000000E+00 0. -1.
         -1   -1    0    0    0  501 -0.00000000000E+00 -0.00000000000E+00 -0.11393034781E+04  0.11393034781E+04  0.00000000000E+00 0.  1.
         23    2    1    2    0    0  0.71365545885E+02 -0.14324791442E+03 -0.81320085583E+03  0.83817338932E+03  0.12500397006E+03 0.  0.
          5    1    3    3  502    0  0.32933023728E+02 -0.12349048855E+03 -0.34471309795E+03  0.36767335328E+03  0.47000000000E+01 0. -1.
         -5    1    3    3    0  502  0.38432522157E+02 -0.19757425863E+02 -0.46848775787E+03  0.47050003604E+03  0.47000000000E+01 0. -1.
        -11    1    1    2    0    0 -0.69779625333E+02  0.83840669903E+02 -0.24587219157E+03  0.26898250617E+03  0.00000000000E+00 0.  1.
         11    1    1    2    0    0 -0.15859205517E+01  0.59407244514E+02 -0.40475364159E+02  0.71902649106E+02  0.00000000000E+00 0. -1.
<mgrwt>
<rscale>  0 0.19838377E+03</rscale>
<asrwt>0</asrwt>
<pdfrwt beam="1">  1        1 0.61161637E-02 0.20307387E+03</pdfrwt>
<pdfrwt beam="2">  1       -1 0.17527747E+00 0.20307387E+03</pdfrwt>
<totfact> 0.31132282E+02</totfact>
</mgrwt>
</event>
<event>
 7    1  0.6095443E-006  0.1631546E+03  0.7546771E-02  0.1194764E+00
          2   -1    0    0  501    0  0.00000000000E+00  0.00000000000E+00  0.11320494470E+04  0.11320494470E+04  0.00000000000E+00 0. -1.
         -2   -1    0    0    0  501 -0.00000000000E+00 -0.00000000000E+00 -0.19245195753E+02  0.19245195753E+02  0.00000000000E+00 0.  1.
         23    2    1    2    0    0 -0.10039254635E+03  0.30250784043E+02  0.62331913546E+03  0.64431837655E+03  0.12500260967E+03 0.  0.
          5    1    3    3  502    0  0.12727832897E+02 -0.19251089965E+02  0.24943027369E+03  0.25053972465E+03  0.47000000000E+01 0. -1.
         -5    1    3    3    0  502 -0.11312037924E+03  0.49501874008E+02  0.37388886177E+03  0.39377865189E+03  0.47000000000E+01 0. -1.
        -11    1    1    2    0    0 -0.17268180738E+01 -0.28606272421E+02  0.13847089371E+03  0.14140540700E+03  0.00000000000E+00 0.  1.
         11    1    1    2    0    0  0.10211936442E+03 -0.16445116225E+01  0.35101422210E+03  0.36557085924E+03  0.00000000000E+00 0. -1.
<mgrwt>
<rscale>  0 0.15474241E+03</rscale>
<asrwt>0</asrwt>
<pdfrwt beam="1">  1        2 0.17416140E+00 0.16315461E+03</pdfrwt>
<pdfrwt beam="2">  1       -2 0.29608002E-02 0.16315461E+03</pdfrwt>
<totfact> 0.92349521E+03</totfact>
</mgrwt>
</event>
<event>
 7    1  0.6095443E-006  0.1613000E+03  0.7546771E-02  0.1194794E+00
         -1   -1    0    0    0  501 -0.00000000000E+00  0.00000000000E+00  0.14131255406E+03  0.14131255406E+03  0.00000000000E+00 0.  1.
          1   -1    0    0  501    0  0.00000000000E+00 -0.00000000000E+00 -0.18380526986E+03  0.18380526986E+03  0.00000000000E+00 0. -1.
         23    2    1    2    0    0  0.49081503951E+02 -0.89350972716E+02  0.39219522798E+02  0.16599954918E+03  0.12500035601E+03 0.  0.
          5    1    3    3  502    0  0.37083558257E+01  0.12575722440E+01  0.61776556132E+02  0.62078710347E+02  0.47000000000E+01 0. -1.
         -5    1    3    3    0  502  0.45373148125E+02 -0.90608544960E+02 -0.22557033334E+02  0.10392083883E+03  0.47000000000E+01 0. -1.
        -11    1    1    2    0    0 -0.10779883207E+02  0.28115651209E+01 -0.61301615927E+02  0.62305689112E+02  0.00000000000E+00 0. -1.
         11    1    1    2    0    0 -0.38301620744E+02  0.86539407595E+02 -0.20410622670E+02  0.96812585630E+02  0.00000000000E+00 0.  1.
<mgrwt>
<rscale>  0 0.15471645E+03</rscale>
<asrwt>0</asrwt>
<pdfrwt beam="2">  1        1 0.28277734E-01 0.16129997E+03</pdfrwt>
<pdfrwt beam="1">  1       -1 0.21740393E-01 0.16129997E+03</pdfrwt>
<totfact> 0.28018500E+03</totfact>
</mgrwt>
</event>
<event>
 7    1  0.6095443E-006  0.1374829E+03  0.7546771E-02  0.1228107E+00
         -2   -1    0    0    0  501 -0.00000000000E+00  0.00000000000E+00  0.66782561817E+02  0.66782561817E+02  0.00000000000E+00 0.  1.
          2   -1    0    0  501    0  0.00000000000E+00 -0.00000000000E+00 -0.22761989055E+03  0.22761989055E+03  0.00000000000E+00 0. -1.
         23    2    1    2    0    0  0.74334618759E+01  0.56751943856E+02 -0.10061232599E+03  0.17036547263E+03  0.12500205853E+03 0.  0.
          5    1    3    3  502    0 -0.41171123609E+02  0.53138157795E+02 -0.10098001836E+03  0.12139925594E+03  0.47000000000E+01 0.  1.
         -5    1    3    3    0  502  0.48604585485E+02  0.36137860607E+01  0.36769237246E+00  0.48966216696E+02  0.47000000000E+01 0.  1.
        -11    1    1    2    0    0 -0.31410527150E+02 -0.62846470600E+02 -0.68327105231E+02  0.98004558016E+02  0.00000000000E+00 0. -1.
         11    1    1    2    0    0  0.23977065274E+02  0.60945267440E+01  0.81021024952E+01  0.26032421713E+02  0.00000000000E+00 0.  1.
<mgrwt>
<rscale>  0 0.12956235E+03</rscale>
<asrwt>0</asrwt>
<pdfrwt beam="2">  1        2 0.35018445E-01 0.13748292E+03</pdfrwt>
<pdfrwt beam="1">  1       -2 0.10274240E-01 0.13748292E+03</pdfrwt>
<totfact> 0.88948346E+03</totfact>
</mgrwt>
</event>
<event>
 7    1  0.6095443E-006  0.1325262E+03  0.7546771E-02  0.1236174E+00
          1   -1    0    0  501    0  0.00000000000E+00  0.00000000000E+00  0.64017063164E+03  0.64017063164E+03  0.00000000000E+00 0. -1.
         -1   -1    0    0    0  501 -0.00000000000E+00 -0.00000000000E+00 -0.21599318958E+02  0.21599318958E+02  0.00000000000E+00 0.  1.
         23    2    1    2    0    0  0.40203676730E+02 -0.17931898108E+02  0.33884326964E+03  0.36383782713E+03  0.12500125791E+03 0.  0.
          5    1    3    3  502    0  0.70523826988E+01 -0.53536283351E+02  0.28896662801E+03  0.29400624456E+03  0.47000000000E+01 0. -1.
         -5    1    3    3    0  502  0.33151294031E+02  0.35604385243E+02  0.49876641635E+02  0.69831582577E+02  0.47000000000E+01 0. -1.
        -11    1    1    2    0    0 -0.25419337511E+02 -0.37279377984E+02  0.13420160535E+03  0.14158377598E+03  0.00000000000E+00 0. -1.
         11    1    1    2    0    0 -0.14784339219E+02  0.55211276093E+02  0.14552643769E+03  0.15634834748E+03  0.00000000000E+00 0.  1.
<mgrwt>
<rscale>  0 0.12429583E+03</rscale>
<asrwt>0</asrwt>
<pdfrwt beam="1">  1        1 0.98487775E-01 0.13252624E+03</pdfrwt>
<pdfrwt beam="2">  1       -1 0.33229726E-02 0.13252624E+03</pdfrwt>
<totfact> 0.99331138E+03</totfact>
</mgrwt>
</event>
<event>
 7    1  0.6095443E-006  0.1439093E+03  0.7546771E-02  0.1218053E+00
         -1   -1    0    0    0  501 -0.00000000000E+00  0.00000000000E+00  0.32442044264E+03  0.32442044264E+03  0.00000000000E+00 0.  1.
          1   -1    0    0  501    0  0.00000000000E+00 -0.00000000000E+00 -0.54996627453E+02  0.54996627453E+02  0.00000000000E+00 0. -1.
         23    2    1    2    0    0 -0.71261521496E+02 -0.27955939804E+01  0.18980417867E+03  0.23819220317E+03  0.12499551839E+03 0.  0.
          5    1    3    3  502    0  0.58564235156E+01  0.87416310444E+01  0.15013992364E+03  0.15058154097E+03  0.47000000000E+01 0. -1.
         -5    1    3    3    0  502 -0.77117945012E+02 -0.11537225025E+02  0.39664255027E+02  0.87610662199E+02  0.47000000000E+01 0. -1.
        -11    1    1    2    0    0  0.22996839053E+02  0.45853612047E+02  0.42743595779E+02  0.66771425957E+02  0.00000000000E+00 0.  1.
         11    1    1    2    0    0  0.48264682444E+02 -0.43058018067E+02  0.36876040739E+02  0.74453440967E+02  0.00000000000E+00 0. -1.
<mgrwt>
<rscale>  0 0.13654625E+03</rscale>
<asrwt>0</asrwt>
<pdfrwt beam="2">  1        1 0.84610198E-02 0.14390934E+03</pdfrwt>
<pdfrwt beam="1">  1       -1 0.49910836E-01 0.14390934E+03</pdfrwt>
<totfact> 0.32064478E+03</totfact>
</mgrwt>
</event>
<event>
 7    1  0.6095443E-006  0.2017938E+03  0.7546771E-02  0.1151684E+00
          2   -1    0    0  501    0  0.00000000000E+00  0.00000000000E+00  0.51566740478E+03  0.51566740478E+03  0.00000000000E+00 0. -1.
         -2   -1    0    0    0  501 -0.00000000000E+00 -0.00000000000E+00 -0.73762408517E+02  0.73762408517E+02  0.00000000000E+00 0.  1.
         23    2    1    2    0    0 -0.15837662590E+03 -0.35517792275E+01  0.19786082981E+03  0.28261220957E+03  0.12499992903E+03 0.  0.
          5    1    3    3  502    0 -0.63149911999E+02  0.42012893746E+01  0.17227407468E+03  0.18359196340E+03  0.47000000000E+01 0.  1.
         -5    1    3    3    0  502 -0.95226713904E+02 -0.77530686021E+01  0.25586755131E+02  0.99020246171E+02  0.47000000000E+01 0.  1.
        -11    1    1    2    0    0  0.24188856930E+02 -0.35252437037E+02  0.34278654436E+02  0.54798369196E+02  0.00000000000E+00 0.  1.
         11    1    1    2    0    0  0.13418776897E+03  0.38804216265E+02  0.20976551201E+03  0.25201923453E+03  0.00000000000E+00 0. -1.
<mgrwt>
<rscale>  0 0.19771210E+03</rscale>
<asrwt>0</asrwt>
<pdfrwt beam="1">  1        2 0.79333444E-01 0.20179384E+03</pdfrwt>
<pdfrwt beam="2">  1       -2 0.11348063E-01 0.20179384E+03</pdfrwt>
<totfact> 0.32124000E+03</totfact>
</mgrwt>
</event>
<event>
 7    1  0.6095443E-006  0.1897425E+03  0.7546771E-02  0.1163697E+00
          4   -1    0    0  501    0  0.00000000000E+00  0.00000000000E+00  0.13809113507E+03  0.13809113507E+03  0.00000000000E+00 0.  1.
         -4   -1    0    0    0  501 -0.00000000000E+00 -0.00000000000E+00 -0.23439549264E+03  0.23439549264E+03  0.00000000000E+00 0. -1.
         23    2    1    2    0    0 -0.11330621056E+03 -0.86827002581E+02 -0.36037748814E+02  0.19313447199E+03  0.12499991681E+03 0.  0.
          5    1    3    3  502    0 -0.11724422881E+03 -0.10178417484E+03 -0.18795514321E+01  0.15534429551E+03  0.47000000000E+01 0.  1.
         -5    1    3    3    0  502  0.39380182442E+01  0.14957172256E+02 -0.34158197382E+02  0.37790176475E+02  0.47000000000E+01 0.  1.
        -11    1    1    2    0    0 -0.10192281907E+02  0.30066977648E+02 -0.20290225253E+02  0.37677566219E+02  0.00000000000E+00 0.  1.
         11    1    1    2    0    0  0.12349849247E+03  0.56760024933E+02 -0.39976383510E+02  0.14167458950E+03  0.00000000000E+00 0. -1.
<mgrwt>
<rscale>  0 0.18430873E+03</rscale>
<asrwt>0</asrwt>
<pdfrwt beam="1">  1        4 0.21244790E-01 0.18974247E+03</pdfrwt>
<pdfrwt beam="2">  1       -4 0.36060845E-01 0.18974247E+03</pdfrwt>
<totfact> 0.26594417E+02</totfact>
</mgrwt>
</event>
<event>
 6    1  0.6095443E-006  0.1856328E+03  0.7546771E-02  0.1171464E+00
          1   -1    0    0  501    0  0.00000000000E+00  0.00000000000E+00  0.16317124247E+03  0.16317124247E+03  0.00000000000E+00 0. -1.
         -1   -1    0    0    0  501 -0.00000000000E+00 -0.00000000000E+00 -0.30683889834E+03  0.30683889834E+03  0.00000000000E+00 0.  1.
          5    1    1    2  502    0 -0.59605928813E+02 -0.12380025472E+02 -0.26006472694E+02  0.66366847162E+02  0.47000000000E+01 0. -1.
         -5    1    1    2    0  502 -0.20332720208E+02  0.10227573152E+03 -0.20444699190E+03  0.22955262418E+03  0.47000000000E+01 0.  1.
        -11    1    1    2    0    0 -0.30939750908E+01 -0.20380727878E+02  0.58704703945E+02  0.62218879900E+02  0.00000000000E+00 0.  1.
         11    1    1    2    0    0  0.83032624112E+02 -0.69514978175E+02  0.28081104778E+02  0.11187178958E+03  0.00000000000E+00 0. -1.
<mgrwt>
<rscale>  0 0.17626870E+03</rscale>
<asrwt>0</asrwt>
<pdfrwt beam="1">  1        1 0.25103268E-01 0.18563279E+03</pdfrwt>
<pdfrwt beam="2">  1       -1 0.47205984E-01 0.18563279E+03</pdfrwt>
<totfact> 0.86746389E+02</totfact>
</mgrwt>
</event>
<event>
 7    1  0.6095443E-006  0.1261889E+03  0.7546771E-02  0.1248623E+00
         -2   -1    0    0    0  501 -0.00000000000E+00  0.00000000000E+00  0.36453665180E+02  0.36453665180E+02  0.00000000000E+00 0.  1.
          2   -1    0    0  501    0  0.00000000000E+00 -0.00000000000E+00 -0.37700338176E+03  0.37700338176E+03  0.00000000000E+00 0. -1.
         23    2    1    2    0    0  0.17054711120E+02 -0.29945328909E+01 -0.11906409263E+03  0.17349324791E+03  0.12499527397E+03 0.  0.
          5    1    3    3  502    0 -0.78175113464E+00 -0.57319047836E+02 -0.23712635609E+02  0.62213049011E+02  0.47000000000E+01 0.  1.
         -5    1    3    3    0  502  0.17836462255E+02  0.54324514945E+02 -0.95351457025E+02  0.11128019890E+03  0.47000000000E+01 0.  1.
        -11    1    1    2    0    0  0.35358019817E+02 -0.40818865362E+01 -0.57150799876E+02  0.67328042371E+02  0.00000000000E+00 0.  1.
         11    1    1    2    0    0 -0.52412730937E+02  0.70764194271E+01 -0.16433482407E+03  0.17263575666E+03  0.00000000000E+00 0. -1.
<mgrwt>
<rscale>  0 0.11671156E+03</rscale>
<asrwt>0</asrwt>
<pdfrwt beam="2">  1        2 0.58000522E-01 0.12618894E+03</pdfrwt>
<pdfrwt beam="1">  1       -2 0.56082561E-02 0.12618894E+03</pdfrwt>
<totfact> 0.13128731E+04</totfact>
</mgrwt>
</event>
<event>
 7    1  0.6095443E-006  0.2173757E+03  0.7546771E-02  0.1139398E+00
          3   -1    0    0  501    0  0.00000000000E+00  0.00000000000E+00  0.51857738243E+03  0.51857738243E+03  0.00000000000E+00 0. -1.
         -3   -1    0    0    0  501 -0.00000000000E+00 -0.00000000000E+00 -0.88897853612E+02  0.88897853612E+02  0.00000000000E+00 0.  1.
         23    2    1    2    0    0 -0.94096456970E+02  0.15090617194E+03  0.15069775316E+03  0.26450330573E+03  0.12500147995E+03 0.  0.
          5    1    3    3  502    0 -0.11447954496E+03  0.14440713521E+03  0.15653426899E+03  0.24183476649E+03  0.47000000000E+01 0. -1.
         -5    1    3    3    0  502  0.20383087987E+02  0.64990367277E+01 -0.58365158295E+01  0.22668539240E+02  0.47000000000E+01 0. -1.
        -11    1    1    2    0    0  0.72109519234E+02 -0.34125015949E+02  0.96461611823E+02  0.12517644360E+03  0.00000000000E+00 0.  1.
         11    1    1    2    0    0  0.21986937735E+02 -0.11678115599E+03  0.18252016383E+03  0.21779548671E+03  0.00000000000E+00 0. -1.
<mgrwt>
<rscale>  0 0.21276105E+03</rscale>
<asrwt>0</asrwt>
<pdfrwt beam="1">  1        3 0.79781134E-01 0.21737568E+03</pdfrwt>
<pdfrwt beam="2">  1       -3 0.13676593E-01 0.21737568E+03</pdfrwt>
<totfact> 0.16083760E+02</totfact>
</mgrwt>
</event>
<event>
 7    1  0.6095443E-006  0.1415858E+03  0.7546771E-02  0.1221775E+00
         -1   -1    0    0    0  501 -0.00000000000E+00  0.00000000000E+00  0.41887086143E+03  0.41887086143E+03  0.00000000000E+00 0.  1.
          1   -1    0    0  501    0  0.00000000000E+00 -0.00000000000E+00 -0.41715866470E+02  0.41715866470E+02  0.00000000000E+00 0. -1.
         23    2    1    2    0    0  0.41426980132E+02 -0.52008847031E+02  0.26893876861E+03  0.30393190440E+03  0.12500170559E+03 0.  0.
          5    1    3    3  502    0  0.36428070245E+02 -0.89329386902E+02  0.23050195594E+03  0.24991995791E+03  0.47000000000E+01 0. -1.
         -5    1    3    3    0  502  0.49989098870E+01  0.37320539871E+02  0.38436812666E+02  0.54011946496E+02  0.47000000000E+01 0. -1.
        -11    1    1    2    0    0  0.35151803757E+01 -0.23885307401E+02  0.31991797733E+02  0.40079165721E+02  0.00000000000E+00 0.  1.
         11    1    1    2    0    0 -0.44942160507E+02  0.75894154432E+02  0.76224428614E+02  0.11657565777E+03  0.00000000000E+00 0. -1.
<mgrwt>
<rscale>  0 0.13390385E+03</rscale>
<asrwt>0</asrwt>
<pdfrwt beam="2">  1        1 0.64178259E-02 0.14158581E+03</pdfrwt>
<pdfrwt beam="1">  1       -1 0.64441668E-01 0.14158581E+03</pdfrwt>
<totfact> 0.28774647E+03</totfact>
</mgrwt>
</event>
<event>
 7    1  0.6095443E-006  0.1735234E+03  0.7546771E-02  0.1180439E+00
          1   -1    0    0  501    0  0.00000000000E+00  0.00000000000E+00  0.27587940117E+02  0.27587940117E+02  0.00000000000E+00 0. -1.
         -1   -1    0    0    0  501 -0.00000000000E+00 -0.00000000000E+00 -0.10805338819E+04  0.10805338819E+04  0.00000000000E+00 0.  1.
         23    2    1    2    0    0  0.64920230643E+02  0.10135319073E+03 -0.74883494642E+03  0.76867688067E+03  0.12499305692E+03 0.  0.
          5    1    3    3  502    0  0.51390886225E+02  0.11929502956E+03 -0.72087618096E+03  0.73250043381E+03  0.47000000000E+01 0. -1.
         -5    1    3    3    0  502  0.13529344419E+02 -0.17941838831E+02 -0.27958765463E+02  0.36176446857E+02  0.47000000000E+01 0. -1.
        -11    1    1    2    0    0 -0.12279226435E+01 -0.18837150216E+02 -0.99149258943E+00  0.18903149997E+02  0.00000000000E+00 0. -1.
         11    1    1    2    0    0 -0.63692308000E+02 -0.82516040514E+02 -0.30311950281E+03  0.32054179139E+03  0.00000000000E+00 0.  1.
<mgrwt>
<rscale>  0 0.16753897E+03</rscale>
<asrwt>0</asrwt>
<pdfrwt beam="1">  1        1 0.42442988E-02 0.17352340E+03</pdfrwt>
<pdfrwt beam="2">  1       -1 0.16623597E+00 0.17352340E+03</pdfrwt>
<totfact> 0.59648032E+02</totfact>
</mgrwt>
</event>
<event>
 7    1  0.6095443E-006  0.1747683E+03  0.7546771E-02  0.1177458E+00
         -2   -1    0    0    0  501 -0.00000000000E+00  0.00000000000E+00  0.12474038389E+03  0.12474038389E+03  0.00000000000E+00 0.  1.
          2   -1    0    0  501    0  0.00000000000E+00 -0.00000000000E+00 -0.23542717606E+03  0.23542717606E+03  0.00000000000E+00 0. -1.
         23    2    1    2    0    0 -0.11413926001E+03  0.60414830874E+02 -0.14598286942E+02  0.17537695425E+03  0.11775501534E+03 0.  0.
          5    1    3    3  502    0 -0.81597170577E+00 -0.41079800374E+01 -0.41641654142E+02  0.42114827193E+02  0.47000000000E+01 0. -1.
         -5    1    3    3    0  502 -0.11332328830E+03  0.64522810911E+02  0.27043367199E+02  0.13326212706E+03  0.47000000000E+01 0.  1.
        -11    1    1    2    0    0 -0.12345974994E+02 -0.11494835555E+02  0.25991676876E+01  0.17067806410E+02  0.00000000000E+00 0.  1.
         11    1    1    2    0    0  0.12648523500E+03 -0.48919995319E+02 -0.98687672919E+02  0.16772279929E+03  0.00000000000E+00 0. -1.
<mgrwt>
<rscale>  0 0.17037415E+03</rscale>
<asrwt>0</asrwt>
<pdfrwt beam="2">  1        2 0.36219566E-01 0.17476832E+03</pdfrwt>
<pdfrwt beam="1">  1       -2 0.19190828E-01 0.17476832E+03</pdfrwt>
<totfact> 0.31430964E+03</totfact>
</mgrwt>
</event>
<event>
 7    1  0.6095443E-006  0.1406942E+03  0.7546771E-02  0.1221464E+00
         -1   -1    0    0    0  501 -0.00000000000E+00  0.00000000000E+00  0.48853843476E+02  0.48853843476E+02  0.00000000000E+00 0.  1.
          1   -1    0    0  501    0  0.00000000000E+00 -0.00000000000E+00 -0.36909983288E+03  0.36909983288E+03  0.00000000000E+00 0. -1.
         23    2    1    2    0    0  0.47072717423E+01 -0.64353009619E+02 -0.11339132216E+03  0.18069985808E+03  0.12502551146E+03 0.  0.
          5    1    3    3  502    0 -0.36749639501E+02 -0.34060528527E+02  0.59693802678E+01  0.50679178247E+02  0.47000000000E+01 0. -1.
         -5    1    3    3    0  502  0.41456911243E+02 -0.30292481092E+02 -0.11936070243E+03  0.13002067983E+03  0.47000000000E+01 0. -1.
        -11    1    1    2    0    0  0.78064863276E+01  0.88404548753E+02 -0.16572134373E+03  0.18798901361E+03  0.00000000000E+00 0. -1.
         11    1    1    2    0    0 -0.12513758070E+02 -0.24051539134E+02 -0.41133323516E+02  0.49264804670E+02  0.00000000000E+00 0.  1.
<mgrwt>
<rscale>  0 0.13412226E+03</rscale>
<asrwt>0</asrwt>
<pdfrwt beam="2">  1        1 0.56784589E-01 0.14069416E+03</pdfrwt>
<pdfrwt beam="1">  1       -1 0.75159760E-02 0.14069416E+03</pdfrwt>
<totfact> 0.61089943E+03</totfact>
</mgrwt>
</event>
<event>
 7    1  0.6095443E-006  0.1799472E+03  0.7546771E-02  0.1173205E+00
          1   -1    0    0  501    0  0.00000000000E+00  0.00000000000E+00  0.49369602947E+03  0.49369602947E+03  0.00000000000E+00 0. -1.
         -1   -1    0    0    0  501 -0.00000000000E+00 -0.00000000000E+00 -0.65946340505E+02  0.65946340505E+02  0.00000000000E+00 0.  1.
         23    2    1    2    0    0 -0.92656016279E+02  0.90410130638E+02  0.13002039112E+03  0.22200519309E+03  0.12498749767E+03 0.  0.
          5    1    3    3  502    0 -0.11061355173E+03  0.27153251133E+02  0.80468484823E+02  0.13953466925E+03  0.47000000000E+01 0.  1.
         -5    1    3    3    0  502  0.17957535448E+02  0.63256879505E+02  0.49551906299E+02  0.82470523837E+02  0.47000000000E+01 0.  1.
        -11    1    1    2    0    0  0.26671036937E+02 -0.78175857931E+02  0.21972211971E+03  0.23473521011E+03  0.00000000000E+00 0. -1.
         11    1    1    2    0    0  0.65984979342E+02 -0.12234272708E+02  0.78007178139E+02  0.10290196679E+03  0.00000000000E+00 0.  1.
<mgrwt>
<rscale>  0 0.17452966E+03</rscale>
<asrwt>0</asrwt>
<pdfrwt beam="1">  1        1 0.75953233E-01 0.17994722E+03</pdfrwt>
<pdfrwt beam="2">  1       -1 0.10145591E-01 0.17994722E+03</pdfrwt>
<totfact> 0.26975693E+03</totfact>
</mgrwt>
</event>
<event>
 7    1  0.6095443E-006  0.1285518E+03  0.7546771E-02  0.1244594E+00
          1   -1    0    0  501    0  0.00000000000E+00  0.00000000000E+00  0.35179138502E+03  0.35179138502E+03  0.00000000000E+00 0. -1.
         -1   -1    0    0    0  501 -0.00000000000E+00 -0.00000000000E+00 -0.36667220620E+02  0.36667220620E+02  0.00000000000E+00 0.  1.
         23    2    1    2    0    0  0.27320500763E+02  0.12401232717E+02  0.14523250942E+03  0.19395375548E+03  0.12500150854E+03 0.  0.
          5    1    3    3  502    0  0.70590476507E+02 -0.16511941884E+02  0.61152796927E+02  0.94960066187E+02  0.47000000000E+01 0. -1.
         -5    1    3    3    0  502 -0.43269975744E+02  0.28913174601E+02  0.84079712494E+02  0.98993689291E+02  0.47000000000E+01 0. -1.
        -11    1    1    2    0    0  0.89231314409E+01 -0.44643980087E+02  0.93812974855E+02  0.10427646659E+03  0.00000000000E+00 0. -1.
         11    1    1    2    0    0 -0.36243632204E+02  0.32242747370E+02  0.76078680124E+02  0.90228383576E+02  0.00000000000E+00 0.  1.
<mgrwt>
<rscale>  0 0.11909719E+03</rscale>
<asrwt>0</asrwt>
<pdfrwt beam="1">  1        1 0.54121749E-01 0.12855185E+03</pdfrwt>
<pdfrwt beam="2">  1       -1 0.56411111E-02 0.12855185E+03</pdfrwt>
<totfact> 0.98999958E+03</totfact>
</mgrwt>
</event>
<event>
 7    1  0.6095443E-006  0.1441492E+03  0.7546771E-02  0.1217789E+00
          2   -1    0    0  501    0  0.00000000000E+00  0.00000000000E+00  0.12586227159E+03  0.12586227159E+03  0.00000000000E+00 0. -1.
         -2   -1    0    0    0  501 -0.00000000000E+00 -0.00000000000E+00 -0.15101504275E+03  0.15101504275E+03  0.00000000000E+00 0.  1.
         23    2    1    2    0    0  0.32292592932E+02 -0.64112146839E+02 -0.58394863243E+02  0.15552799230E+03  0.12500326958E+03 0.  0.
          5    1    3    3  502    0  0.67599780710E+02  0.33665034554E+01 -0.27635933188E+02  0.73259118891E+02  0.47000000000E+01 0.  1.
         -5    1    3    3    0  502 -0.35307187778E+02 -0.67478650294E+02 -0.30758930055E+02  0.82268873412E+02  0.47000000000E+01 0.  1.
        -11    1    1    2    0    0  0.22273676266E+02  0.54539980799E+02  0.48876800080E+01  0.59115273625E+02  0.00000000000E+00 0. -1.
         11    1    1    2    0    0 -0.54566269198E+02  0.95721660405E+01  0.28354412074E+02  0.62234048406E+02  0.00000000000E+00 0.  1.
<mgrwt>
<rscale>  0 0.13673630E+03</rscale>
<asrwt>0</asrwt>
<pdfrwt beam="1">  1        2 0.19363426E-01 0.14414922E+03</pdfrwt>
<pdfrwt beam="2">  1       -2 0.23233083E-01 0.14414922E+03</pdfrwt>
<totfact> 0.44771003E+03</totfact>
</mgrwt>
</event>
<event>
 7    1  0.6095443E-006  0.1269113E+03  0.7546771E-02  0.1282916E+00
          2   -1    0    0  501    0  0.00000000000E+00  0.00000000000E+00  0.34059757783E+02  0.34059757783E+02  0.00000000000E+00 0. -1.
         -2   -1    0    0    0  501 -0.00000000000E+00 -0.00000000000E+00 -0.22260714278E+03  0.22260714278E+03  0.00000000000E+00 0.  1.
         23    2    1    2    0    0  0.37548979759E+02 -0.82880077460E+00 -0.14772569511E+03  0.19475464156E+03  0.12122655083E+03 0.  0.
          5    1    3    3  502    0  0.43926448399E+02 -0.23740598254E+02 -0.54717517800E+01  0.50449766520E+02  0.47000000000E+01 0. -1.
         -5    1    3    3    0  502 -0.63774686403E+01  0.22911797479E+02 -0.14225394333E+03  0.14430487504E+03  0.47000000000E+01 0.  1.
        -11    1    1    2    0    0 -0.18878243920E+02  0.75975673756E+01 -0.36190758920E+02  0.41519659858E+02  0.00000000000E+00 0. -1.
         11    1    1    2    0    0 -0.18670735838E+02 -0.67687666010E+01 -0.46309309726E+01  0.20392599141E+02  0.00000000000E+00 0.  1.
<mgrwt>
<rscale>  0 0.98764443E+02</rscale>
<asrwt>0</asrwt>
<pdfrwt beam="1">  1        2 0.52399626E-02 0.12691134E+03</pdfrwt>
<pdfrwt beam="2">  1       -2 0.34247253E-01 0.12691134E+03</pdfrwt>
<totfact> 0.10985466E+04</totfact>
</mgrwt>
</event>
<event>
 7    1  0.6095443E-006  0.1267203E+03  0.7546771E-02  0.1246552E+00
          1   -1    0    0  501    0  0.00000000000E+00  0.00000000000E+00  0.71307361505E+02  0.71307361505E+02  0.00000000000E+00 0. -1.
         -1   -1    0    0    0  501 -0.00000000000E+00 -0.00000000000E+00 -0.17244341086E+03  0.17244341086E+03  0.00000000000E+00 0.  1.
         23    2    1    2    0    0 -0.49169976778E+01 -0.20248295205E+02 -0.58885484823E+02  0.13973379198E+03  0.12499544781E+03 0.  0.
          5    1    3    3  502    0  0.46295544321E+02 -0.13064071283E+02 -0.71493378353E+02  0.86297975242E+02  0.47000000000E+01 0. -1.
         -5    1    3    3    0  502 -0.51212541999E+02 -0.71842239221E+01  0.12607893530E+02  0.53435816739E+02  0.47000000000E+01 0. -1.
        -11    1    1    2    0    0  0.28042423933E+01  0.35013091027E+02  0.19716262425E+02  0.40280408671E+02  0.00000000000E+00 0. -1.
         11    1    1    2    0    0  0.21127552845E+01 -0.14764795822E+02 -0.61966826953E+02  0.63736571709E+02  0.00000000000E+00 0.  1.
<mgrwt>
<rscale>  0 0.11792942E+03</rscale>
<asrwt>0</asrwt>
<pdfrwt beam="1">  1        1 0.10970363E-01 0.12672029E+03</pdfrwt>
<pdfrwt beam="2">  1       -1 0.26529755E-01 0.12672029E+03</pdfrwt>
<totfact> 0.67239655E+03</totfact>
</mgrwt>
</event>
<event>
 7    1  0.6095443E-006  0.1329265E+03  0.7546771E-02  0.1234058E+00
          2   -1    0    0  501    0  0.00000000000E+00  0.00000000000E+00  0.19526344785E+02  0.19526344785E+02  0.00000000000E+00 0. -1.
         -2   -1    0    0    0  501 -0.00000000000E+00 -0.00000000000E+00 -0.79480679040E+03  0.79480679040E+03  0.00000000000E+00 0.  1.
         23    2    1    2    0    0  0.43757925426E+02 -0.34915788209E+02 -0.54178331006E+03  0.55785177882E+03  0.12056360883E+03 0.  0.
          5    1    3    3  502    0 -0.32198115670E+02 -0.18131813735E+02 -0.66502451866E+02  0.76224323062E+02  0.47000000000E+01 0. -1.
         -5    1    3    3    0  502  0.75956041096E+02 -0.16783974474E+02 -0.47528085819E+03  0.48162745576E+03  0.47000000000E+01 0.  1.
        -11    1    1    2    0    0  0.62296321154E+00 -0.27016765771E+02 -0.90545616185E+02  0.94492340040E+02  0.00000000000E+00 0.  1.
         11    1    1    2    0    0 -0.44380888637E+02  0.61932553979E+02 -0.14295151937E+03  0.16198901633E+03  0.00000000000E+00 0. -1.
<mgrwt>
<rscale>  0 0.12564914E+03</rscale>
<asrwt>0</asrwt>
<pdfrwt beam="1">  1        2 0.30040524E-02 0.13292649E+03</pdfrwt>
<pdfrwt beam="2">  1       -2 0.12227799E+00 0.13292649E+03</pdfrwt>
<totfact> 0.15926317E+03</totfact>
</mgrwt>
</event>
<event>
 7    1  0.6095443E-006  0.1387373E+03  0.7546771E-02  0.1226279E+00
          1   -1    0    0  501    0  0.00000000000E+00  0.00000000000E+00  0.28671395877E+03  0.28671395877E+03  0.00000000000E+00 0. -1.
         -1   -1    0    0    0  501 -0.00000000000E+00 -0.00000000000E+00 -0.61997077996E+02  0.61997077996E+02  0.00000000000E+00 0.  1.
         23    2    1    2    0    0  0.23281951767E+02 -0.55505784578E+02  0.60671859310E+02  0.15142358377E+03  0.12500034324E+03 0.  0.
          5    1    3    3  502    0  0.16392184078E+02  0.37923971141E+02  0.34525126733E+02  0.54046328848E+02  0.47000000000E+01 0. -1.
         -5    1    3    3    0  502  0.68897676892E+01 -0.93429755719E+02  0.26146732577E+02  0.97377254927E+02  0.47000000000E+01 0. -1.
        -11    1    1    2    0    0 -0.27458061370E+02 -0.10344571942E+02  0.10404705702E+03  0.10810525139E+03  0.00000000000E+00 0. -1.
         11    1    1    2    0    0  0.41761096028E+01  0.65850356521E+02  0.59997964439E+02  0.89182201599E+02  0.00000000000E+00 0.  1.
<mgrwt>
<rscale>  0 0.13079610E+03</rscale>
<asrwt>0</asrwt>
<pdfrwt beam="1">  1        1 0.44109839E-01 0.13873726E+03</pdfrwt>
<pdfrwt beam="2">  1       -1 0.95380122E-02 0.13873726E+03</pdfrwt>
<totfact> 0.58264497E+03</totfact>
</mgrwt>
</event>
<event>
 7    1  0.6095443E-006  0.1395122E+03  0.7546771E-02  0.1224901E+00
         -2   -1    0    0    0  501 -0.00000000000E+00  0.00000000000E+00  0.12716354836E+02  0.12716354836E+02  0.00000000000E+00 0.  1.
          2   -1    0    0  501    0  0.00000000000E+00 -0.00000000000E+00 -0.12455987671E+04  0.12455987671E+04  0.00000000000E+00 0. -1.
         23    2    1    2    0    0 -0.61751472479E+02  0.49765877025E+01 -0.74914796211E+03  0.76202777222E+03  0.12500258285E+03 0.  0.
          5    1    3    3  502    0 -0.34320923914E+02  0.39577981180E+02 -0.11649404233E+03  0.12781742569E+03  0.47000000000E+01 0.  1.
         -5    1    3    3    0  502 -0.27430548565E+02 -0.34601393478E+02 -0.63265391978E+03  0.63421034652E+03  0.47000000000E+01 0.  1.
        -11    1    1    2    0    0 -0.23704622537E+01  0.31222920054E+02 -0.80321026048E+02  0.86208799165E+02  0.00000000000E+00 0.  1.
         11    1    1    2    0    0  0.64121934732E+02 -0.36199507757E+02 -0.40341342412E+03  0.41007855057E+03  0.00000000000E+00 0. -1.
<mgrwt>
<rscale>  0 0.13173666E+03</rscale>
<asrwt>0</asrwt>
<pdfrwt beam="2">  1        2 0.19163054E+00 0.13951221E+03</pdfrwt>
<pdfrwt beam="1">  1       -2 0.19563627E-02 0.13951221E+03</pdfrwt>
<totfact> 0.14518028E+04</totfact>
</mgrwt>
</event>
<event>
 7    1  0.6095443E-006  0.2348614E+03  0.7546771E-02  0.1126139E+00
         -2   -1    0    0    0  501 -0.00000000000E+00  0.00000000000E+00  0.13355944949E+03  0.13355944949E+03  0.00000000000E+00 0.  1.
          2   -1    0    0  501    0  0.00000000000E+00 -0.00000000000E+00 -0.40990097046E+03  0.40990097046E+03  0.00000000000E+00 0. -1.
         23    2    1    2    0    0  0.15114465333E+03  0.12918943624E+03 -0.20963504146E+03  0.31481218803E+03  0.12500098583E+03 0.  0.
          5    1    3    3  502    0  0.58686072440E+02  0.10898718876E+03 -0.17397249284E+03  0.21356680612E+03  0.47000000000E+01 0. -1.
         -5    1    3    3    0  502  0.92458580890E+02  0.20202247488E+02 -0.35662548614E+02  0.10124538191E+03  0.47000000000E+01 0. -1.
        -11    1    1    2    0    0 -0.78512612494E+02 -0.30222111619E+02  0.87021683825E+01  0.84577385192E+02  0.00000000000E+00 0.  1.
         11    1    1    2    0    0 -0.72632040836E+02 -0.98967324625E+02 -0.75408647892E+02  0.14407084673E+03  0.00000000000E+00 0. -1.
<mgrwt>
<rscale>  0 0.23071272E+03</rscale>
<asrwt>0</asrwt>
<pdfrwt beam="2">  1        2 0.63061688E-01 0.23486137E+03</pdfrwt>
<pdfrwt beam="1">  1       -2 0.20547608E-01 0.23486137E+03</pdfrwt>
<totfact> 0.15538745E+03</totfact>
</mgrwt>
</event>
<event>
 7    1  0.6095443E-006  0.1157298E+03  0.7546771E-02  0.1259077E+00
          1   -1    0    0  501    0  0.00000000000E+00  0.00000000000E+00  0.37841301693E+03  0.37841301693E+03  0.00000000000E+00 0. -1.
         -1   -1    0    0    0  501 -0.00000000000E+00 -0.00000000000E+00 -0.44108527435E+02  0.44108527435E+02  0.00000000000E+00 0.  1.
         23    2    1    2    0    0  0.29692893206E+02  0.13629111464E+02  0.57707138442E+02  0.12931934838E+03  0.11102233762E+03 0.  0.
          5    1    3    3  502    0 -0.38550879197E+01 -0.29386265367E+01  0.83410057054E+02  0.83682882638E+02  0.47000000000E+01 0. -1.
         -5    1    3    3    0  502  0.33547981126E+02  0.16567738001E+02 -0.25702918612E+02  0.45636465740E+02  0.47000000000E+01 0.  1.
        -11    1    1    2    0    0  0.22618519710E+02 -0.33378475313E+02  0.95314352407E+02  0.10349176693E+03  0.00000000000E+00 0.  1.
         11    1    1    2    0    0 -0.52311412916E+02  0.19749363849E+02  0.18128299865E+03  0.18971042905E+03  0.00000000000E+00 0. -1.
<mgrwt>
<rscale>  0 0.11080987E+03</rscale>
<asrwt>0</asrwt>
<pdfrwt beam="1">  1        1 0.58217385E-01 0.11572977E+03</pdfrwt>
<pdfrwt beam="2">  1       -1 0.67859275E-02 0.11572977E+03</pdfrwt>
<totfact> 0.68161137E+03</totfact>
</mgrwt>
</event>
<event>
 7    1  0.6095443E-006  0.1568296E+03  0.7546771E-02  0.1199850E+00
          4   -1    0    0  501    0  0.00000000000E+00  0.00000000000E+00  0.28004830188E+03  0.28004830188E+03  0.00000000000E+00 0. -1.
         -4   -1    0    0    0  501 -0.00000000000E+00 -0.00000000000E+00 -0.82021382628E+02  0.82021382628E+02  0.00000000000E+00 0.  1.
         23    2    1    2    0    0 -0.92855315139E+02  0.18639855210E+02  0.53661426943E+02  0.16575605032E+03  0.12500386284E+03 0.  0.
          5    1    3    3  502    0 -0.22303062003E+02  0.66653287795E+02  0.33185869984E+02  0.77868346042E+02  0.47000000000E+01 0.  1.
         -5    1    3    3    0  502 -0.70552253136E+02 -0.48013432585E+02  0.20475556959E+02  0.87887704282E+02  0.47000000000E+01 0.  1.
        -11    1    1    2    0    0  0.75740908726E+02  0.28043079328E+02  0.70122543074E+02  0.10695920063E+03  0.00000000000E+00 0. -1.
         11    1    1    2    0    0  0.17114406413E+02 -0.46682934538E+02  0.74242949233E+02  0.89354433548E+02  0.00000000000E+00 0.  1.
<mgrwt>
<rscale>  0 0.15050830E+03</rscale>
<asrwt>0</asrwt>
<pdfrwt beam="1">  1        4 0.43084354E-01 0.15682959E+03</pdfrwt>
<pdfrwt beam="2">  1       -4 0.12618674E-01 0.15682959E+03</pdfrwt>
<totfact> 0.45596382E+02</totfact>
</mgrwt>
</event>
<event>
 7    1  0.6095443E-006  0.1369655E+03  0.7546771E-02  0.1231551E+00
          3   -1    0    0  501    0  0.00000000000E+00  0.00000000000E+00  0.18992619693E+02  0.18992619693E+02  0.00000000000E+00 0. -1.
         -3   -1    0    0    0  501 -0.00000000000E+00 -0.00000000000E+00 -0.93836516660E+03  0.93836516660E+03  0.00000000000E+00 0.  1.
         23    2    1    2    0    0  0.43819443080E+02 -0.34864307036E+02 -0.72458193114E+03  0.73741340008E+03  0.12499553667E+03 0.  0.
          5    1    3    3  502    0 -0.94607968357E+01  0.24338999799E+02 -0.46709912736E+03  0.46785209027E+03  0.47000000000E+01 0. -1.
         -5    1    3    3    0  502  0.53280239916E+02 -0.59203306835E+02 -0.25748280378E+03  0.26956130981E+03  0.47000000000E+01 0. -1.
        -11    1    1    2    0    0 -0.54401320376E+02  0.22284866211E+02 -0.19482961804E+03  0.20350601708E+03  0.00000000000E+00 0.  1.
         11    1    1    2    0    0  0.10581877296E+02  0.12579440825E+02  0.39002276121E-01  0.16438369133E+02  0.00000000000E+00 0. -1.
<mgrwt>
<rscale>  0 0.12727852E+03</rscale>
<asrwt>0</asrwt>
<pdfrwt beam="1">  1        3 0.29219412E-02 0.13696550E+03</pdfrwt>
<pdfrwt beam="2">  1       -3 0.14436389E+00 0.13696550E+03</pdfrwt>
<totfact> 0.46616793E+02</totfact>
</mgrwt>
</event>
<event>
 7    1  0.6095443E-006  0.2485628E+03  0.7546771E-02  0.1116714E+00
         -2   -1    0    0    0  501 -0.00000000000E+00  0.00000000000E+00  0.18641781332E+03  0.18641781332E+03  0.00000000000E+00 0.  1.
          2   -1    0    0  501    0  0.00000000000E+00 -0.00000000000E+00 -0.33533671425E+03  0.33533671425E+03  0.00000000000E+00 0. -1.
         23    2    1    2    0    0 -0.20440588556E+03  0.66160668413E+02 -0.71174216454E+01  0.24866465730E+03  0.12499781599E+03 0.  0.
          5    1    3    3  502    0 -0.14055730009E+03  0.98686333119E+02 -0.27557462790E+02  0.17400244454E+03  0.47000000000E+01 0.  1.
         -5    1    3    3    0  502 -0.63848585475E+02 -0.32525664706E+02  0.20440041145E+02  0.74662212757E+02  0.47000000000E+01 0.  1.
        -11    1    1    2    0    0  0.15242639580E+03 -0.83040424702E+02 -0.13079648841E+03  0.21734129762E+03  0.00000000000E+00 0. -1.
         11    1    1    2    0    0  0.51979489764E+02  0.16879756290E+02 -0.11004990884E+02  0.55748572654E+02  0.00000000000E+00 0.  1.
<mgrwt>
<rscale>  0 0.24467926E+03</rscale>
<asrwt>0</asrwt>
<pdfrwt beam="2">  1        2 0.51590263E-01 0.24856278E+03</pdfrwt>
<pdfrwt beam="1">  1       -2 0.28679664E-01 0.24856278E+03</pdfrwt>
<totfact> 0.10750402E+03</totfact>
</mgrwt>
</event>
<event>
 7    1  0.6095443E-006  0.1458479E+03  0.7546771E-02  0.1214506E+00
         -1   -1    0    0    0  501 -0.00000000000E+00  0.00000000000E+00  0.28114792069E+03  0.28114792069E+03  0.00000000000E+00 0.  1.
          1   -1    0    0  501    0  0.00000000000E+00 -0.00000000000E+00 -0.66959488435E+02  0.66959488435E+02  0.00000000000E+00 0. -1.
         23    2    1    2    0    0 -0.36342448902E+02 -0.65768305162E+02  0.15761010336E+03  0.21473831321E+03  0.12500141967E+03 0.  0.
          5    1    3    3  502    0  0.12665540598E+02 -0.80500991325E+02  0.50625825706E+02  0.96051495311E+02  0.47000000000E+01 0. -1.
         -5    1    3    3    0  502 -0.49007989500E+02  0.14732686163E+02  0.10698427766E+03  0.11868681790E+03  0.47000000000E+01 0. -1.
        -11    1    1    2    0    0 -0.14584366763E+01  0.52253643825E+02  0.73175723923E+02  0.89929177147E+02  0.00000000000E+00 0.  1.
         11    1    1    2    0    0  0.37800885579E+02  0.13514661337E+02 -0.16597395028E+02  0.43439918776E+02  0.00000000000E+00 0. -1.
<mgrwt>
<rscale>  0 0.13912906E+03</rscale>
<asrwt>0</asrwt>
<pdfrwt beam="2">  1        1 0.10301460E-01 0.14584786E+03</pdfrwt>
<pdfrwt beam="1">  1       -1 0.43253526E-01 0.14584786E+03</pdfrwt>
<totfact> 0.31951469E+03</totfact>
</mgrwt>
</event>
<event>
 7    1  0.6095443E-006  0.1695164E+03  0.7546771E-02  0.1183829E+00
         -2   -1    0    0    0  501 -0.00000000000E+00  0.00000000000E+00  0.88844129614E+02  0.88844129614E+02  0.00000000000E+00 0.  1.
          2   -1    0    0  501    0  0.00000000000E+00 -0.00000000000E+00 -0.28759471515E+03  0.28759471515E+03  0.00000000000E+00 0. -1.
         23    2    1    2    0    0  0.11427518079E+03 -0.72397622115E+01 -0.11304267206E+03  0.20375093535E+03  0.12499826738E+03 0.  0.
          5    1    3    3  502    0  0.94901522018E+02 -0.57048650922E+02 -0.98226287393E+02  0.14809233940E+03  0.47000000000E+01 0.  1.
         -5    1    3    3    0  502  0.19373658775E+02  0.49808888710E+02 -0.14816384665E+02  0.55658595952E+02  0.47000000000E+01 0.  1.
        -11    1    1    2    0    0 -0.58011797742E+02 -0.34336012046E+02 -0.76120921292E+01  0.67840064468E+02  0.00000000000E+00 0.  1.
         11    1    1    2    0    0 -0.56263383051E+02  0.41575774258E+02 -0.78095821353E+02  0.10484784495E+03  0.00000000000E+00 0. -1.
<mgrwt>
<rscale>  0 0.16438865E+03</rscale>
<asrwt>0</asrwt>
<pdfrwt beam="2">  1        2 0.44245340E-01 0.16951636E+03</pdfrwt>
<pdfrwt beam="1">  1       -2 0.13668328E-01 0.16951636E+03</pdfrwt>
<totfact> 0.44455365E+03</totfact>
</mgrwt>
</event>
<event>
 7    1  0.6095443E-006  0.1514370E+03  0.7546771E-02  0.1207428E+00
          1   -1    0    0  501    0  0.00000000000E+00  0.00000000000E+00  0.11266667954E+03  0.11266667954E+03  0.00000000000E+00 0. -1.
         -1   -1    0    0    0  501 -0.00000000000E+00 -0.00000000000E+00 -0.17141123435E+03  0.17141123435E+03  0.00000000000E+00 0.  1.
         23    2    1    2    0    0 -0.14134653191E+02 -0.84307197354E+02 -0.44332652679E+02  0.15779276302E+03  0.12500272005E+03 0.  0.
          5    1    3    3  502    0 -0.12521195373E+02 -0.11728755322E+03 -0.36001894727E+02  0.12341546458E+03  0.47000000000E+01 0. -1.
         -5    1    3    3    0  502 -0.16134578177E+01  0.32980355870E+02 -0.83307579523E+01  0.34377298432E+02  0.47000000000E+01 0. -1.
        -11    1    1    2    0    0 -0.94688166010E+01  0.66097793806E+02  0.29671362707E+02  0.73068232486E+02  0.00000000000E+00 0. -1.
         11    1    1    2    0    0  0.23603469792E+02  0.18209403548E+02 -0.44083264833E+02  0.53216918383E+02  0.00000000000E+00 0.  1.
<mgrwt>
<rscale>  0 0.14447758E+03</rscale>
<asrwt>0</asrwt>
<pdfrwt beam="1">  1        1 0.17333335E-01 0.15143702E+03</pdfrwt>
<pdfrwt beam="2">  1       -1 0.26370959E-01 0.15143702E+03</pdfrwt>
<totfact> 0.37868578E+03</totfact>
</mgrwt>
</event>
<event>
 7    1  0.6095443E-006  0.1326546E+03  0.7546771E-02  0.1239160E+00
          2   -1    0    0  501    0  0.00000000000E+00  0.00000000000E+00  0.12730599989E+03  0.12730599989E+03  0.00000000000E+00 0.  1.
         -2   -1    0    0    0  501 -0.00000000000E+00 -0.00000000000E+00 -0.10547951492E+03  0.10547951492E+03  0.00000000000E+00 0. -1.
         23    2    1    2    0    0 -0.19529045572E+02 -0.39899889530E+02 -0.55028901321E+01  0.13276868156E+03  0.12499542471E+03 0.  0.
          5    1    3    3  502    0  0.18461485845E+02 -0.44408559389E+02  0.47150660563E+02  0.67514601370E+02  0.47000000000E+01 0. -1.
         -5    1    3    3    0  502 -0.37990531417E+02  0.45086698586E+01 -0.52653550695E+02  0.65254080195E+02  0.47000000000E+01 0. -1.
        -11    1    1    2    0    0  0.43517556481E+02  0.45588410315E+02 -0.24946125036E+00  0.63024940365E+02  0.00000000000E+00 0. -1.
         11    1    1    2    0    0 -0.23988510909E+02 -0.56885207849E+01  0.27578836348E+02  0.36991892877E+02  0.00000000000E+00 0.  1.
<mgrwt>
<rscale>  0 0.12241860E+03</rscale>
<asrwt>0</asrwt>
<pdfrwt beam="1">  1        2 0.19585539E-01 0.13265459E+03</pdfrwt>
<pdfrwt beam="2">  1       -2 0.16227618E-01 0.13265459E+03</pdfrwt>
<totfact> 0.80513987E+03</totfact>
</mgrwt>
</event>
<event>
 7    1  0.9045995E-006  0.1273514E+03  0.7546771E-02  0.1254710E+00
          3   -1    0    0  501    0  0.00000000000E+00  0.00000000000E+00  0.22513129888E+02  0.22513129888E+02  0.00000000000E+00 0. -1.
         -3   -1    0    0    0  501 -0.00000000000E+00 -0.00000000000E+00 -0.47646974825E+03  0.47646974825E+03  0.00000000000E+00 0.  1.
         23    2    1    2    0    0 -0.91152982761E+01  0.22570768597E+02 -0.29034736026E+03  0.31704883695E+03  0.12500338853E+03 0.  0.
          5    1    3    3  502    0 -0.41130075247E+02  0.20275071042E+02 -0.27884691968E+03  0.28263130791E+03  0.47000000000E+01 0. -1.
         -5    1    3    3    0  502  0.32014776971E+02  0.22956975555E+01 -0.11500440582E+02  0.34417529042E+02  0.47000000000E+01 0. -1.
        -11    1    1    2    0    0  0.31387529316E+02 -0.36140199985E+02 -0.13493240538E+03  0.14317138357E+03  0.00000000000E+00 0.  1.
         11    1    1    2    0    0 -0.22272231040E+02  0.13569431388E+02 -0.28676852719E+02  0.38762657617E+02  0.00000000000E+00 0. -1.
<mgrwt>
<rscale>  0 0.11322581E+03</rscale>
<asrwt>0</asrwt>
<pdfrwt beam="1">  1        3 0.34635583E-02 0.12735139E+03</pdfrwt>
<pdfrwt beam="2">  1       -3 0.73303041E-01 0.12735139E+03</pdfrwt>
<totfact> 0.16680295E+03</totfact>
</mgrwt>
</event>
<event>
 7    1  0.6095443E-006  0.1409420E+03  0.7546771E-02  0.1220865E+00
          1   -1    0    0  501    0  0.00000000000E+00  0.00000000000E+00  0.20276880831E+03  0.20276880831E+03  0.00000000000E+00 0. -1.
         -1   -1    0    0    0  501 -0.00000000000E+00 -0.00000000000E+00 -0.82143855935E+02  0.82143855935E+02  0.00000000000E+00 0.  1.
         23    2    1    2    0    0 -0.58852719479E+02 -0.56903879178E+02  0.61282538772E+02  0.15368862841E+03  0.11472990407E+03 0.  0.
          5    1    3    3  502    0 -0.68441540311E+02  0.25596440742E+01  0.14585584639E+01  0.68665956709E+02  0.47000000000E+01 0. -1.
         -5    1    3    3    0  502  0.95888208317E+01 -0.59463523252E+02  0.59823980308E+02  0.85022671696E+02  0.47000000000E+01 0.  1.
        -11    1    1    2    0    0 -0.17026042254E+02  0.32349865345E+02  0.11988759578E+02  0.38472461046E+02  0.00000000000E+00 0. -1.
         11    1    1    2    0    0  0.75878761733E+02  0.24554013833E+02  0.47353654029E+02  0.92751574797E+02  0.00000000000E+00 0.  1.
<mgrwt>
<rscale>  0 0.13454369E+03</rscale>
<asrwt>0</asrwt>
<pdfrwt beam="1">  1        1 0.31195201E-01 0.14094199E+03</pdfrwt>
<pdfrwt beam="2">  1       -1 0.12637516E-01 0.14094199E+03</pdfrwt>
<totfact> 0.58144851E+03</totfact>
</mgrwt>
</event>
<event>
 7    1  0.6095443E-006  0.1299685E+03  0.7546771E-02  0.1243337E+00
         -1   -1    0    0    0  501 -0.00000000000E+00  0.00000000000E+00  0.69019315598E+03  0.69019315598E+03  0.00000000000E+00 0.  1.
          1   -1    0    0  501    0  0.00000000000E+00 -0.00000000000E+00 -0.19741312066E+02  0.19741312066E+02  0.00000000000E+00 0. -1.
         23    2    1    2    0    0 -0.24877763605E+02  0.25456772014E+02  0.48376610910E+03  0.50092060118E+03  0.12499940005E+03 0.  0.
          5    1    3    3  502    0 -0.71162231266E+02  0.39282676199E+02  0.29945124861E+03  0.31032294807E+03  0.47000000000E+01 0. -1.
         -5    1    3    3    0  502  0.46284467662E+02 -0.13825904185E+02  0.18431486049E+03  0.19059765311E+03  0.47000000000E+01 0. -1.
        -11    1    1    2    0    0 -0.27373576239E+01 -0.50922003104E+02  0.14057511575E+03  0.14953898052E+03  0.00000000000E+00 0.  1.
         11    1    1    2    0    0  0.27615121228E+02  0.25465231090E+02  0.46110619066E+02  0.59474886343E+02  0.00000000000E+00 0. -1.
<mgrwt>
<rscale>  0 0.11985488E+03</rscale>
<asrwt>0</asrwt>
<pdfrwt beam="2">  1        1 0.30371255E-02 0.12996846E+03</pdfrwt>
<pdfrwt beam="1">  1       -1 0.10618354E+00 0.12996846E+03</pdfrwt>
<totfact> 0.28351413E+03</totfact>
</mgrwt>
</event>
<event>
 7    1  0.6095443E-006  0.1864495E+03  0.7546771E-02  0.1167208E+00
          2   -1    0    0  501    0  0.00000000000E+00  0.00000000000E+00  0.54234644323E+03  0.54234644323E+03  0.00000000000E+00 0. -1.
         -2   -1    0    0    0  501 -0.00000000000E+00 -0.00000000000E+00 -0.67785037778E+02  0.67785037778E+02  0.00000000000E+00 0.  1.
         23    2    1    2    0    0 -0.96480261698E+02 -0.99142516958E+02  0.12657234306E+03  0.22535296740E+03  0.12500288925E+03 0.  0.
          5    1    3    3  502    0 -0.55319896632E+01 -0.65718360287E+02  0.10792453190E+03  0.12656737484E+03  0.47000000000E+01 0.  1.
         -5    1    3    3    0  502 -0.90948272035E+02 -0.33424156671E+02  0.18647811162E+02  0.98785592555E+02  0.47000000000E+01 0.  1.
        -11    1    1    2    0    0  0.68862442554E+02  0.10345248968E+03  0.21025562324E+03  0.24423734506E+03  0.00000000000E+00 0.  1.
         11    1    1    2    0    0  0.27617819145E+02 -0.43099727210E+01  0.13773343914E+03  0.14054116855E+03  0.00000000000E+00 0. -1.
<mgrwt>
<rscale>  0 0.18061634E+03</rscale>
<asrwt>0</asrwt>
<pdfrwt beam="1">  1        2 0.83437911E-01 0.18644946E+03</pdfrwt>
<pdfrwt beam="2">  1       -2 0.10428468E-01 0.18644946E+03</pdfrwt>
<totfact> 0.34643195E+03</totfact>
</mgrwt>
</event>
<event>
 7    1  0.6095443E-006  0.1313074E+03  0.7546771E-02  0.1240639E+00
         -2   -1    0    0    0  501 -0.00000000000E+00  0.00000000000E+00  0.68867069927E+02  0.68867069927E+02  0.00000000000E+00 0.  1.
          2   -1    0    0  501    0  0.00000000000E+00 -0.00000000000E+00 -0.23148912929E+03  0.23148912929E+03  0.00000000000E+00 0. -1.
         23    2    1    2    0    0 -0.61630837700E+01 -0.39777187663E+02 -0.27021195952E+02  0.13405882532E+03  0.12498566060E+03 0.  0.
          5    1    3    3  502    0 -0.28796862856E+02  0.12422419257E+02  0.36700799510E+02  0.48503757538E+02  0.47000000000E+01 0. -1.
         -5    1    3    3    0  502  0.22633779086E+02 -0.52199606920E+02 -0.63721995463E+02  0.85555067787E+02  0.47000000000E+01 0. -1.
        -11    1    1    2    0    0 -0.48360498160E+01  0.65999917393E+02 -0.10804087382E+03  0.12669730419E+03  0.00000000000E+00 0. -1.
         11    1    1    2    0    0  0.10999133586E+02 -0.26222729730E+02 -0.27559989595E+02  0.39600069704E+02  0.00000000000E+00 0.  1.
<mgrwt>
<rscale>  0 0.12150258E+03</rscale>
<asrwt>0</asrwt>
<pdfrwt beam="2">  1        2 0.35613712E-01 0.13130736E+03</pdfrwt>
<pdfrwt beam="1">  1       -2 0.10594934E-01 0.13130736E+03</pdfrwt>
<totfact> 0.82949767E+03</totfact>
</mgrwt>
</event>
<event>
 7    1  0.6095443E-006  0.1549246E+03  0.7546771E-02  0.1202591E+00
          1   -1    0    0  501    0  0.00000000000E+00  0.00000000000E+00  0.29072630484E+03  0.29072630484E+03  0.00000000000E+00 0. -1.
         -1   -1    0    0    0  501 -0.00000000000E+00 -0.00000000000E+00 -0.75574185624E+02  0.75574185624E+02  0.00000000000E+00 0.  1.
         23    2    1    2    0    0  0.25382976471E+02  0.87942774724E+02  0.65940484744E+02  0.16837389565E+03  0.12499357618E+03 0.  0.
          5    1    3    3  502    0 -0.13711664558E+02 -0.25907063934E+02  0.31046125834E+02  0.42955065312E+02  0.47000000000E+01 0. -1.
         -5    1    3    3    0  502  0.39094641029E+02  0.11384983866E+03  0.34894358910E+02  0.12541883034E+03  0.47000000000E+01 0. -1.
        -11    1    1    2    0    0  0.20935404497E+02 -0.39518730744E+02  0.13734368741E+02  0.46783053831E+02  0.00000000000E+00 0.  1.
         11    1    1    2    0    0 -0.46318380968E+02 -0.48424043981E+02  0.13547726573E+03  0.15114354098E+03  0.00000000000E+00 0. -1.
<mgrwt>
<rscale>  0 0.14828964E+03</rscale>
<asrwt>0</asrwt>
<pdfrwt beam="1">  1        1 0.44727123E-01 0.15492457E+03</pdfrwt>
<pdfrwt beam="2">  1       -1 0.11626798E-01 0.15492457E+03</pdfrwt>
<totfact> 0.42529887E+03</totfact>
</mgrwt>
</event>
<event>
 7    1  0.6095443E-006  0.2072064E+03  0.7546771E-02  0.1147625E+00
         -1   -1    0    0    0  501 -0.00000000000E+00  0.00000000000E+00  0.71375076148E+02  0.71375076148E+02  0.00000000000E+00 0.  1.
          1   -1    0    0  501    0  0.00000000000E+00 -0.00000000000E+00 -0.56416320400E+03  0.56416320400E+03  0.00000000000E+00 0. -1.
         23    2    1    2    0    0  0.10573747154E+03  0.12700256671E+03 -0.20733096435E+03  0.29312217803E+03  0.12499767053E+03 0.  0.
          5    1    3    3  502    0  0.31623858934E+02  0.39141896879E+01  0.89443560476E+01  0.33428742721E+02  0.47000000000E+01 0. -1.
         -5    1    3    3    0  502  0.74113612608E+02  0.12308837702E+03 -0.21627532039E+03  0.25969343531E+03  0.47000000000E+01 0. -1.
        -11    1    1    2    0    0  0.48964757356E+01 -0.58372796221E+02 -0.79259208208E+02  0.98556485830E+02  0.00000000000E+00 0.  1.
         11    1    1    2    0    0 -0.11063394728E+03 -0.68629770487E+02 -0.20619795529E+03  0.24385961628E+03  0.00000000000E+00 0. -1.
<mgrwt>
<rscale>  0 0.20252637E+03</rscale>
<asrwt>0</asrwt>
<pdfrwt beam="2">  1        1 0.86794339E-01 0.20720638E+03</pdfrwt>
<pdfrwt beam="1">  1       -1 0.10980781E-01 0.20720638E+03</pdfrwt>
<totfact> 0.20048752E+03</totfact>
</mgrwt>
</event>
<event>
 7    1  0.6095443E-006  0.1358070E+03  0.7546771E-02  0.1236559E+00
         -2   -1    0    0    0  501 -0.00000000000E+00  0.00000000000E+00  0.27459817824E+03  0.27459817824E+03  0.00000000000E+00 0.  1.
          2   -1    0    0  501    0  0.00000000000E+00 -0.00000000000E+00 -0.50035151016E+02  0.50035151016E+02  0.00000000000E+00 0. -1.
         23    2    1    2    0    0  0.41191620041E+02 -0.33507562243E+02  0.16137552033E+03  0.21091612110E+03  0.12499618110E+03 0.  0.
          5    1    3    3  502    0  0.66200539134E+02  0.15321226019E+02  0.13193098426E+03  0.14847601138E+03  0.47000000000E+01 0.  1.
         -5    1    3    3    0  502 -0.25008919093E+02 -0.48828788262E+02  0.29444536073E+02  0.62440109721E+02  0.47000000000E+01 0.  1.
        -11    1    1    2    0    0  0.20461319541E+02 -0.31120564713E+01  0.48033244711E+01  0.21246703717E+02  0.00000000000E+00 0. -1.
         11    1    1    2    0    0 -0.61652939582E+02  0.36619618714E+02  0.58384182423E+02  0.92470504439E+02  0.00000000000E+00 0.  1.
<mgrwt>
<rscale>  0 0.12405163E+03</rscale>
<asrwt>0</asrwt>
<pdfrwt beam="2">  1        2 0.76977157E-02 0.13580704E+03</pdfrwt>
<pdfrwt beam="1">  1       -2 0.42245873E-01 0.13580704E+03</pdfrwt>
<totfact> 0.45570299E+03</totfact>
</mgrwt>
</event>
<event>
 7    1  0.6095443E-006  0.1387982E+03  0.7546771E-02  0.1221052E+00
          2   -1    0    0  501    0  0.00000000000E+00  0.00000000000E+00  0.25250236690E+03  0.25250236690E+03  0.00000000000E+00 0. -1.
         -2   -1    0    0    0  501 -0.00000000000E+00 -0.00000000000E+00 -0.98478850113E+02  0.98478850113E+02  0.00000000000E+00 0.  1.
         23    2    1    2    0    0 -0.33904415045E+02  0.72485932692E+02 -0.18092979969E+02  0.13997251333E+03  0.11340735764E+03 0.  0.
          5    1    3    3  502    0 -0.38409614552E+02  0.95962448970E+02 -0.36197445521E+02  0.10961950175E+03  0.47000000000E+01 0.  1.
         -5    1    3    3    0  502  0.45051995062E+01 -0.23476516278E+02  0.18104465552E+02  0.30353011581E+02  0.47000000000E+01 0. -1.
        -11    1    1    2    0    0 -0.16981303431E+02 -0.34254112613E+02  0.14262219006E+02  0.40805879332E+02  0.00000000000E+00 0.  1.
         11    1    1    2    0    0  0.50885718476E+02 -0.38231820079E+02  0.15785427775E+03  0.17020282434E+03  0.00000000000E+00 0. -1.
<mgrwt>
<rscale>  0 0.13441210E+03</rscale>
<asrwt>0</asrwt>
<pdfrwt beam="1">  1        2 0.38846518E-01 0.13879823E+03</pdfrwt>
<pdfrwt beam="2">  1       -2 0.15150592E-01 0.13879823E+03</pdfrwt>
<totfact> 0.42720669E+03</totfact>
</mgrwt>
</event>
<event>
 6    1  0.6095443E-006  0.2867224E+03  0.7546771E-02  0.1135816E+00
         -1   -1    0    0    0  501 -0.00000000000E+00  0.00000000000E+00  0.64828080071E+02  0.64828080071E+02  0.00000000000E+00 0.  1.
          1   -1    0    0  501    0  0.00000000000E+00 -0.00000000000E+00 -0.56419789233E+03  0.56419789233E+03  0.00000000000E+00 0. -1.
          5    1    1    2  502    0  0.60379313987E+02 -0.43658356844E+02 -0.40570701150E+03  0.41251906970E+03  0.47000000000E+01 0. -1.
         -5    1    1    2    0  502 -0.48345928940E+02  0.55503339166E+02  0.11795037671E+02  0.74693791023E+02  0.47000000000E+01 0.  1.
        -11    1    1    2    0    0  0.14335874494E+02 -0.44845250188E+02 -0.31515468568E+02  0.56655436817E+02  0.00000000000E+00 0.  1.
         11    1    1    2    0    0 -0.26369259540E+02  0.33000267866E+02 -0.73942369857E+02  0.85157674863E+02  0.00000000000E+00 0. -1.
<mgrwt>
<rscale>  0 0.21742715E+03</rscale>
<asrwt>0</asrwt>
<pdfrwt beam="2">  1        1 0.86799674E-01 0.28672239E+03</pdfrwt>
<pdfrwt beam="1">  1       -1 0.99735510E-02 0.28672239E+03</pdfrwt>
<totfact> 0.23423782E+03</totfact>
</mgrwt>
</event>
<event>
 7    1  0.6095443E-006  0.1775703E+03  0.7546771E-02  0.1175789E+00
         -1   -1    0    0    0  501 -0.00000000000E+00  0.00000000000E+00  0.37282898736E+03  0.37282898736E+03  0.00000000000E+00 0.  1.
          1   -1    0    0  501    0  0.00000000000E+00 -0.00000000000E+00 -0.74914889298E+02  0.74914889298E+02  0.00000000000E+00 0. -1.
         23    2    1    2    0    0  0.66260767151E+02  0.10731112916E+03  0.16939141778E+03  0.24540717449E+03  0.12500024467E+03 0.  0.
          5    1    3    3  502    0  0.41967763636E+02  0.64596486857E+01 -0.44084404677E+01  0.42948161697E+02  0.47000000000E+01 0.  1.
         -5    1    3    3    0  502  0.24293003515E+02  0.10085148047E+03  0.17379985824E+03  0.20245901279E+03  0.47000000000E+01 0.  1.
        -11    1    1    2    0    0 -0.17489879922E+02 -0.91343479496E+02  0.11749211428E+03  0.14984633483E+03  0.00000000000E+00 0.  1.
         11    1    1    2    0    0 -0.48770887229E+02 -0.15967649663E+02  0.11030566010E+02  0.52490367339E+02  0.00000000000E+00 0. -1.
<mgrwt>
<rscale>  0 0.17198898E+03</rscale>
<asrwt>0</asrwt>
<pdfrwt beam="2">  1        1 0.11525368E-01 0.17757035E+03</pdfrwt>
<pdfrwt beam="1">  1       -1 0.57358305E-01 0.17757035E+03</pdfrwt>
<totfact> 0.16550157E+03</totfact>
</mgrwt>
</event>
<event>
 7    1  0.6095443E-006  0.1612417E+03  0.7546771E-02  0.1191335E+00
         -2   -1    0    0    0  501 -0.00000000000E+00  0.00000000000E+00  0.71511563799E+02  0.71511563799E+02  0.00000000000E+00 0.  1.
          2   -1    0    0  501    0  0.00000000000E+00 -0.00000000000E+00 -0.42452164499E+03  0.42452164499E+03  0.00000000000E+00 0. -1.
         23    2    1    2    0    0 -0.29729993509E+02  0.97417708171E+02 -0.67736275187E+02  0.17489169237E+03  0.12499927482E+03 0.  0.
          5    1    3    3  502    0 -0.24397971526E+02 -0.24073388536E+02 -0.34222299759E+02  0.48662561081E+02  0.47000000000E+01 0.  1.
         -5    1    3    3    0  502 -0.53320219829E+01  0.12149109671E+03 -0.33513975427E+02  0.12622913129E+03  0.47000000000E+01 0.  1.
        -11    1    1    2    0    0  0.58179906387E+02 -0.32346456302E+02 -0.19641936264E+03  0.20739276931E+03  0.00000000000E+00 0. -1.
         11    1    1    2    0    0 -0.28449912878E+02 -0.65071251869E+02 -0.88854443368E+02  0.11374874711E+03  0.00000000000E+00 0.  1.
<mgrwt>
<rscale>  0 0.15768571E+03</rscale>
<asrwt>0</asrwt>
<pdfrwt beam="2">  1        2 0.65311024E-01 0.16124175E+03</pdfrwt>
<pdfrwt beam="1">  1       -2 0.11001779E-01 0.16124175E+03</pdfrwt>
<totfact> 0.41434880E+03</totfact>
</mgrwt>
</event>
<event>
 7    1  0.6095443E-006  0.1477595E+03  0.7546771E-02  0.1216043E+00
          1   -1    0    0  501    0  0.00000000000E+00  0.00000000000E+00  0.24765717023E+03  0.24765717023E+03  0.00000000000E+00 0. -1.
         -1   -1    0    0    0  501 -0.00000000000E+00 -0.00000000000E+00 -0.71050825538E+02  0.71050825538E+02  0.00000000000E+00 0.  1.
         23    2    1    2    0    0 -0.19342745645E+01 -0.78768567645E+02  0.68978113937E+02  0.16306704634E+03  0.12499861092E+03 0.  0.
          5    1    3    3  502    0 -0.43681195322E+02  0.13838144263E+02  0.20711186201E+02  0.50503309746E+02  0.47000000000E+01 0. -1.
         -5    1    3    3    0  502  0.41746920758E+02 -0.92606711908E+02  0.48266927735E+02  0.11256373659E+03  0.47000000000E+01 0. -1.
        -11    1    1    2    0    0 -0.32298107390E+02  0.12758440377E+02  0.53037065131E+02  0.63394604025E+02  0.00000000000E+00 0.  1.
         11    1    1    2    0    0  0.34232381954E+02  0.66010127268E+02  0.54591165627E+02  0.92246345406E+02  0.00000000000E+00 0. -1.
<mgrwt>
<rscale>  0 0.13800226E+03</rscale>
<asrwt>0</asrwt>
<pdfrwt beam="1">  1        1 0.38101103E-01 0.14775954E+03</pdfrwt>
<pdfrwt beam="2">  1       -1 0.10930896E-01 0.14775954E+03</pdfrwt>
<totfact> 0.56911713E+03</totfact>
</mgrwt>
</event>
<event>
 7    1  0.6095443E-006  0.1479259E+03  0.7546771E-02  0.1213484E+00
          1   -1    0    0  501    0  0.00000000000E+00  0.00000000000E+00  0.31302644902E+03  0.31302644902E+03  0.00000000000E+00 0. -1.
         -1   -1    0    0    0  501 -0.00000000000E+00 -0.00000000000E+00 -0.56679302160E+02  0.56679302160E+02  0.00000000000E+00 0.  1.
         23    2    1    2    0    0 -0.74818359812E+02  0.16983241638E+02  0.13562397242E+03  0.20068861366E+03  0.12647466266E+03 0.  0.
          5    1    3    3  502    0 -0.31948456358E+02  0.66746978086E+02  0.10376746814E+03  0.12753681975E+03  0.47000000000E+01 0. -1.
         -5    1    3    3    0  502 -0.42869903454E+02 -0.49763736448E+02  0.31856504281E+02  0.73151793911E+02  0.47000000000E+01 0.  1.
        -11    1    1    2    0    0 -0.11635938720E+02 -0.13594778408E+02 -0.28967040993E+01  0.18127436788E+02  0.00000000000E+00 0.  1.
         11    1    1    2    0    0  0.86454298532E+02 -0.33884632299E+01  0.12361987854E+03  0.15088970073E+03  0.00000000000E+00 0. -1.
<mgrwt>
<rscale>  0 0.13988488E+03</rscale>
<asrwt>0</asrwt>
<pdfrwt beam="1">  1        1 0.48157914E-01 0.14792585E+03</pdfrwt>
<pdfrwt beam="2">  1       -1 0.87198929E-02 0.14792585E+03</pdfrwt>
<totfact> 0.60120393E+03</totfact>
</mgrwt>
</event>
<event>
 7    1  0.6095443E-006  0.1751718E+03  0.7546771E-02  0.1178052E+00
         -2   -1    0    0    0  501 -0.00000000000E+00  0.00000000000E+00  0.97439463154E+02  0.97439463154E+02  0.00000000000E+00 0.  1.
          2   -1    0    0  501    0  0.00000000000E+00 -0.00000000000E+00 -0.27927792995E+03  0.27927792995E+03  0.00000000000E+00 0. -1.
         23    2    1    2    0    0 -0.12184293778E+03 -0.14633820504E+02 -0.10079416263E+03  0.20210049646E+03  0.12500118903E+03 0.  0.
          5    1    3    3  502    0 -0.63030084586E+01 -0.38551011146E+02  0.95482350130E+01  0.40486629495E+02  0.47000000000E+01 0. -1.
         -5    1    3    3    0  502 -0.11553992933E+03  0.23917190642E+02 -0.11034239765E+03  0.16161386696E+03  0.47000000000E+01 0. -1.
        -11    1    1    2    0    0  0.97969634198E+02  0.26283166932E+02 -0.99643541913E+02  0.14218892198E+03  0.00000000000E+00 0. -1.
         11    1    1    2    0    0  0.23873303586E+02 -0.11649346428E+02  0.18599237746E+02  0.32427974668E+02  0.00000000000E+00 0.  1.
<mgrwt>
<rscale>  0 0.16980472E+03</rscale>
<asrwt>0</asrwt>
<pdfrwt beam="2">  1        2 0.42965834E-01 0.17517177E+03</pdfrwt>
<pdfrwt beam="1">  1       -2 0.14990687E-01 0.17517177E+03</pdfrwt>
<totfact> 0.39505874E+03</totfact>
</mgrwt>
</event>
<event>
 7    1  0.6095443E-006  0.1275532E+03  0.7546771E-02  0.1247232E+00
          2   -1    0    0  501    0  0.00000000000E+00  0.00000000000E+00  0.41091905474E+03  0.41091905474E+03  0.00000000000E+00 0. -1.
         -2   -1    0    0    0  501 -0.00000000000E+00 -0.00000000000E+00 -0.29624943741E+02  0.29624943741E+02  0.00000000000E+00 0.  1.
         23    2    1    2    0    0 -0.16091704369E+02 -0.19607201063E+02  0.19882442599E+03  0.23622231190E+03  0.12500577182E+03 0.  0.
          5    1    3    3  502    0 -0.17837182785E+02  0.13573220280E+02  0.20127702328E+03  0.20257573275E+03  0.47000000000E+01 0. -1.
         -5    1    3    3    0  502  0.17454784155E+01 -0.33180421343E+02 -0.24525972903E+01  0.33646579156E+02  0.47000000000E+01 0. -1.
        -11    1    1    2    0    0  0.43500501778E+02 -0.20494995892E+01  0.15151025141E+03  0.15764469666E+03  0.00000000000E+00 0. -1.
         11    1    1    2    0    0 -0.27408797408E+02  0.21656700653E+02  0.30959433599E+02  0.46676989912E+02  0.00000000000E+00 0.  1.
<mgrwt>
<rscale>  0 0.11752753E+03</rscale>
<asrwt>0</asrwt>
<pdfrwt beam="1">  1        2 0.63218312E-01 0.12755324E+03</pdfrwt>
<pdfrwt beam="2">  1       -2 0.45576839E-02 0.12755324E+03</pdfrwt>
<totfact> 0.16363867E+04</totfact>
</mgrwt>
</event>
<event>
 7    1  0.6095443E-006  0.1503495E+03  0.7546771E-02  0.1209162E+00
         -2   -1    0    0    0  501 -0.00000000000E+00  0.00000000000E+00  0.58664631710E+02  0.58664631710E+02  0.00000000000E+00 0. -1.
          2   -1    0    0  501    0  0.00000000000E+00 -0.00000000000E+00 -0.32598285059E+03  0.32598285059E+03  0.00000000000E+00 0.  1.
         23    2    1    2    0    0  0.76062618993E+02  0.34561202275E+02 -0.11981600412E+03  0.19225201976E+03  0.12499986219E+03 0.  0.
          5    1    3    3  502    0  0.94103957163E+01 -0.16397263536E+02  0.20763531017E+02  0.28471740714E+02  0.47000000000E+01 0. -1.
         -5    1    3    3    0  502  0.66652223277E+02  0.50958465811E+02 -0.14057953514E+03  0.16378027905E+03  0.47000000000E+01 0. -1.
        -11    1    1    2    0    0 -0.74368791887E+02 -0.75442385620E+01 -0.46970209703E+02  0.88282689933E+02  0.00000000000E+00 0. -1.
         11    1    1    2    0    0 -0.16938271062E+01 -0.27016963713E+02 -0.10053200506E+03  0.10411277260E+03  0.00000000000E+00 0.  1.
<mgrwt>
<rscale>  0 0.14314217E+03</rscale>
<asrwt>0</asrwt>
<pdfrwt beam="2">  1        2 0.50151208E-01 0.15034947E+03</pdfrwt>
<pdfrwt beam="1">  1       -2 0.90253279E-02 0.15034947E+03</pdfrwt>
<totfact> 0.74821555E+03</totfact>
</mgrwt>
</event>
<event>
 7    1  0.6095443E-006  0.1159386E+03  0.7546771E-02  0.1259037E+00
         -1   -1    0    0    0  501 -0.00000000000E+00  0.00000000000E+00  0.96698299023E+02  0.96698299023E+02  0.00000000000E+00 0.  1.
          1   -1    0    0  501    0  0.00000000000E+00 -0.00000000000E+00 -0.13404544509E+03  0.13404544509E+03  0.00000000000E+00 0. -1.
         23    2    1    2    0    0  0.28002931558E+02  0.15464306160E+02  0.20819513806E+02  0.11779312536E+03  0.11143814108E+03 0.  0.
          5    1    3    3  502    0 -0.19244091288E+02 -0.38300452146E+02  0.58423553669E-01  0.43120216806E+02  0.47000000000E+01 0. -1.
         -5    1    3    3    0  502  0.47247022846E+02  0.53764758306E+02  0.20761090252E+02  0.74672908555E+02  0.47000000000E+01 0.  1.
        -11    1    1    2    0    0 -0.13303883494E+02 -0.15209442379E+02 -0.82271340648E+02  0.84716550600E+02  0.00000000000E+00 0. -1.
         11    1    1    2    0    0 -0.14699048064E+02 -0.25486378162E+00  0.24104680772E+02  0.28234068156E+02  0.00000000000E+00 0.  1.
<mgrwt>
<rscale>  0 0.11083184E+03</rscale>
<asrwt>0</asrwt>
<pdfrwt beam="2">  1        1 0.20622376E-01 0.11593864E+03</pdfrwt>
<pdfrwt beam="1">  1       -1 0.14876661E-01 0.11593864E+03</pdfrwt>
<totfact> 0.74734747E+03</totfact>
</mgrwt>
</event>
<event>
 7    1  0.6095443E-006  0.1309328E+03  0.7546771E-02  0.1238002E+00
          1   -1    0    0  501    0  0.00000000000E+00  0.00000000000E+00  0.12464215922E+03  0.12464215922E+03  0.00000000000E+00 0. -1.
         -1   -1    0    0    0  501 -0.00000000000E+00 -0.00000000000E+00 -0.12077046358E+03  0.12077046358E+03  0.00000000000E+00 0.  1.
         23    2    1    2    0    0 -0.25723244013E+02 -0.29271456492E+02 -0.35508380393E+02  0.13566224776E+03  0.12499958777E+03 0.  0.
          5    1    3    3  502    0 -0.71760521019E+02 -0.10372182799E+02 -0.44024039259E+02  0.84955050383E+02  0.47000000000E+01 0. -1.
         -5    1    3    3    0  502  0.46037277007E+02 -0.18899273694E+02  0.85156588655E+01  0.50707197381E+02  0.47000000000E+01 0. -1.
        -11    1    1    2    0    0 -0.20461773600E+01  0.12520916371E+02  0.66361681647E+02  0.67563547713E+02  0.00000000000E+00 0. -1.
         11    1    1    2    0    0  0.27769421373E+02  0.16750540122E+02 -0.26981605620E+02  0.42186827323E+02  0.00000000000E+00 0.  1.
<mgrwt>
<rscale>  0 0.12314189E+03</rscale>
<asrwt>0</asrwt>
<pdfrwt beam="1">  1        1 0.19175717E-01 0.13093281E+03</pdfrwt>
<pdfrwt beam="2">  1       -1 0.18580071E-01 0.13093281E+03</pdfrwt>
<totfact> 0.58246353E+03</totfact>
</mgrwt>
</event>
<event>
 7    1  0.6626245E-006  0.4812166E+03  0.7546771E-02  0.1019321E+00
          2   -1    0    0  501    0  0.00000000000E+00  0.00000000000E+00  0.28312167006E+04  0.28312167006E+04  0.00000000000E+00 0. -1.
         -2   -1    0    0    0  501 -0.00000000000E+00 -0.00000000000E+00 -0.82878677015E+02  0.82878677015E+02  0.00000000000E+00 0.  1.
         23    2    1    2    0    0  0.45037780167E+03  0.11447369034E+03  0.16305704202E+04  0.17000968483E+04  0.12500003305E+03 0.  0.
          5    1    3    3  502    0  0.23165113409E+03  0.58120205501E+02  0.61640455282E+03  0.66107251414E+03  0.47000000000E+01 0. -1.
         -5    1    3    3    0  502  0.21872666758E+03  0.56353484838E+02  0.10141658674E+04  0.10390243342E+04  0.47000000000E+01 0. -1.
        -11    1    1    2    0    0 -0.34187974767E+03 -0.45583914669E+02  0.79581094177E+03  0.86733771403E+03  0.00000000000E+00 0. -1.
         11    1    1    2    0    0 -0.10849805400E+03 -0.68889775670E+02  0.32195666164E+03  0.34666081533E+03  0.00000000000E+00 0.  1.
<mgrwt>
<rscale>  0 0.47932535E+03</rscale>
<asrwt>0</asrwt>
<pdfrwt beam="1">  1        2 0.43557173E+00 0.48121658E+03</pdfrwt>
<pdfrwt beam="2">  1       -2 0.12750568E-01 0.48121658E+03</pdfrwt>
<totfact> 0.11134150E+02</totfact>
</mgrwt>
</event>
<event>
 7    1  0.6095443E-006  0.1632828E+03  0.7546771E-02  0.1192562E+00
          2   -1    0    0  501    0  0.00000000000E+00  0.00000000000E+00  0.49676711980E+03  0.49676711980E+03  0.00000000000E+00 0.  1.
         -2   -1    0    0    0  501 -0.00000000000E+00 -0.00000000000E+00 -0.58704777040E+02  0.58704777040E+02  0.00000000000E+00 0. -1.
         23    2    1    2    0    0 -0.10220263100E+03  0.24305841193E+02  0.10310281077E+03  0.19310995482E+03  0.12500045345E+03 0.  0.
          5    1    3    3  502    0 -0.20609540495E+02  0.18220265945E+02  0.10747465000E+03  0.11103882944E+03  0.47000000000E+01 0. -1.
         -5    1    3    3    0  502 -0.81593090503E+02  0.60855752481E+01 -0.43718392251E+01  0.82071125386E+02  0.47000000000E+01 0. -1.
        -11    1    1    2    0    0  0.49848901818E+02 -0.11213759686E+01  0.46182361206E+02  0.67963085444E+02  0.00000000000E+00 0. -1.
         11    1    1    2    0    0  0.52353729180E+02 -0.23184465225E+02  0.28877717079E+03  0.29439885658E+03  0.00000000000E+00 0.  1.
<mgrwt>
<rscale>  0 0.15662389E+03</rscale>
<asrwt>0</asrwt>
<pdfrwt beam="1">  1        2 0.76425708E-01 0.16328278E+03</pdfrwt>
<pdfrwt beam="2">  1       -2 0.90315045E-02 0.16328278E+03</pdfrwt>
<totfact> 0.47675469E+03</totfact>
</mgrwt>
</event>
<event>
 7    1  0.6095443E-006  0.1490424E+03  0.7546771E-02  0.1210786E+00
         -1   -1    0    0    0  501 -0.00000000000E+00  0.00000000000E+00  0.10050808613E+03  0.10050808613E+03  0.00000000000E+00 0.  1.
          1   -1    0    0  501    0  0.00000000000E+00 -0.00000000000E+00 -0.19140296962E+03  0.19140296962E+03  0.00000000000E+00 0. -1.
         23    2    1    2    0    0  0.35863224588E+02  0.72816909715E+02 -0.19975033298E+02  0.15037494560E+03  0.12500059636E+03 0.  0.
          5    1    3    3  502    0  0.80910802318E+02  0.33416795300E+02 -0.21726684478E+02  0.90318209450E+02  0.47000000000E+01 0.  1.
         -5    1    3    3    0  502 -0.45047577730E+02  0.39400114415E+02  0.17516511796E+01  0.60056736151E+02  0.47000000000E+01 0.  1.
        -11    1    1    2    0    0  0.28625183168E+02 -0.34056936902E+02 -0.41209490214E+02  0.60642379127E+02  0.00000000000E+00 0. -1.
         11    1    1    2    0    0 -0.64488407756E+02 -0.38759972814E+02 -0.29710359983E+02  0.80893731016E+02  0.00000000000E+00 0.  1.
<mgrwt>
<rscale>  0 0.14190705E+03</rscale>
<asrwt>0</asrwt>
<pdfrwt beam="2">  1        1 0.29446610E-01 0.14904235E+03</pdfrwt>
<pdfrwt beam="1">  1       -1 0.15462783E-01 0.14904235E+03</pdfrwt>
<totfact> 0.45742135E+03</totfact>
</mgrwt>
</event>
<event>
 7    1  0.6095443E-006  0.1257149E+03  0.7546771E-02  0.1249448E+00
          4   -1    0    0  501    0  0.00000000000E+00  0.00000000000E+00  0.51446219637E+02  0.51446219637E+02  0.00000000000E+00 0. -1.
         -4   -1    0    0    0  501 -0.00000000000E+00 -0.00000000000E+00 -0.23180224826E+03  0.23180224826E+03  0.00000000000E+00 0.  1.
         23    2    1    2    0    0  0.56901955434E+01 -0.12094587783E+02 -0.11630798183E+03  0.17126524415E+03  0.12500231933E+03 0.  0.
          5    1    3    3  502    0  0.17285635055E+02  0.14647731480E+02  0.20739500902E+02  0.31073559732E+02  0.47000000000E+01 0.  1.
         -5    1    3    3    0  502 -0.11595439512E+02 -0.26742319262E+02 -0.13704748273E+03  0.14019168442E+03  0.47000000000E+01 0.  1.
        -11    1    1    2    0    0  0.31036454521E+02  0.35375161218E+02 -0.23819406766E+02  0.52744930364E+02  0.00000000000E+00 0. -1.
         11    1    1    2    0    0 -0.36726650065E+02 -0.23280573435E+02 -0.40228640032E+02  0.59238293386E+02  0.00000000000E+00 0.  1.
<mgrwt>
<rscale>  0 0.11623063E+03</rscale>
<asrwt>0</asrwt>
<pdfrwt beam="1">  1        4 0.79148030E-02 0.12571490E+03</pdfrwt>
<pdfrwt beam="2">  1       -4 0.35661885E-01 0.12571490E+03</pdfrwt>
<totfact> 0.13879242E+03</totfact>
</mgrwt>
</event>
<event>
 7    1  0.6095443E-006  0.1270442E+03  0.7546771E-02  0.1250932E+00
         -1   -1    0    0    0  501 -0.00000000000E+00  0.00000000000E+00  0.25026008951E+02  0.25026008951E+02  0.00000000000E+00 0.  1.
          1   -1    0    0  501    0  0.00000000000E+00 -0.00000000000E+00 -0.45556084672E+03  0.45556084672E+03  0.00000000000E+00 0. -1.
         23    2    1    2    0    0 -0.22491069335E+02  0.60166805332E+01 -0.24904895235E+03  0.27958114886E+03  0.12489271190E+03 0.  0.
          5    1    3    3  502    0 -0.15250690720E+02 -0.40640088041E+02 -0.24482640223E+02  0.50056867618E+02  0.47000000000E+01 0. -1.
         -5    1    3    3    0  502 -0.72403786141E+01  0.46656768574E+02 -0.22456631213E+03  0.22952428124E+03  0.47000000000E+01 0. -1.
        -11    1    1    2    0    0  0.20994242460E+02  0.25097596240E+02 -0.24284683658E+02  0.40747925271E+02  0.00000000000E+00 0.  1.
         11    1    1    2    0    0  0.14968268742E+01 -0.31114276774E+02 -0.15720120176E+03  0.16025778154E+03  0.00000000000E+00 0. -1.
<mgrwt>
<rscale>  0 0.11537280E+03</rscale>
<asrwt>0</asrwt>
<pdfrwt beam="2">  1        1 0.70086293E-01 0.12704424E+03</pdfrwt>
<pdfrwt beam="1">  1       -1 0.38501548E-02 0.12704424E+03</pdfrwt>
<totfact> 0.12538580E+04</totfact>
</mgrwt>
</event>
<event>
 7    1  0.6095443E-006  0.1347148E+03  0.7546771E-02  0.1255235E+00
          1   -1    0    0  501    0  0.00000000000E+00  0.00000000000E+00  0.32680094953E+03  0.32680094953E+03  0.00000000000E+00 0. -1.
         -1   -1    0    0    0  501 -0.00000000000E+00 -0.00000000000E+00 -0.42227603434E+02  0.42227603434E+02  0.00000000000E+00 0.  1.
         23    2    1    2    0    0  0.63865944863E+01  0.49805862842E+02  0.86534676894E+02  0.16011345877E+03  0.12500662707E+03 0.  0.
          5    1    3    3  502    0  0.35561611750E+02 -0.18937482893E+02 -0.61153702188E+01  0.41021265723E+02  0.47000000000E+01 0.  1.
         -5    1    3    3    0  502 -0.29175017264E+02  0.68743345735E+02  0.92650047113E+02  0.11909219305E+03  0.47000000000E+01 0.  1.
        -11    1    1    2    0    0  0.57956541103E+01 -0.52499008337E+02  0.17387934800E+03  0.18172441538E+03  0.00000000000E+00 0. -1.
         11    1    1    2    0    0 -0.12182248597E+02  0.26931454948E+01  0.24159321198E+02  0.27190678813E+02  0.00000000000E+00 0.  1.
<mgrwt>
<rscale>  0 0.11293156E+03</rscale>
<asrwt>0</asrwt>
<pdfrwt beam="1">  1        1 0.50277067E-01 0.13471477E+03</pdfrwt>
<pdfrwt beam="2">  1       -1 0.64965546E-02 0.13471477E+03</pdfrwt>
<totfact> 0.88233797E+03</totfact>
</mgrwt>
</event>
<event>
 7    1  0.6095443E-006  0.1409432E+03  0.7546771E-02  0.1222427E+00
          3   -1    0    0  501    0  0.00000000000E+00  0.00000000000E+00  0.15192546530E+03  0.15192546530E+03  0.00000000000E+00 0. -1.
         -3   -1    0    0    0  501 -0.00000000000E+00 -0.00000000000E+00 -0.10634737331E+03  0.10634737331E+03  0.00000000000E+00 0.  1.
         23    2    1    2    0    0  0.43737582478E+02 -0.48239483827E+02  0.26004087249E+02  0.14332202319E+03  0.12499986342E+03 0.  0.
          5    1    3    3  502    0  0.75839410391E+01  0.18249852455E+02  0.57672837661E+02  0.61145886862E+02  0.47000000000E+01 0. -1.
         -5    1    3    3    0  502  0.36153641439E+02 -0.66489336282E+02 -0.31668750412E+02  0.82176136324E+02  0.47000000000E+01 0. -1.
        -11    1    1    2    0    0 -0.20444070000E+02  0.26158586431E+02  0.56804688488E+02  0.65795169097E+02  0.00000000000E+00 0. -1.
         11    1    1    2    0    0 -0.23293512478E+02  0.22080897396E+02 -0.37230683748E+02  0.49155646325E+02  0.00000000000E+00 0.  1.
<mgrwt>
<rscale>  0 0.13344853E+03</rscale>
<asrwt>0</asrwt>
<pdfrwt beam="1">  1        3 0.23373149E-01 0.14094321E+03</pdfrwt>
<pdfrwt beam="2">  1       -3 0.16361134E-01 0.14094321E+03</pdfrwt>
<totfact> 0.12552570E+03</totfact>
</mgrwt>
</event>
<event>
 7    1  0.6095443E-006  0.1530745E+03  0.7546771E-02  0.1204664E+00
         -1   -1    0    0    0  501 -0.00000000000E+00  0.00000000000E+00  0.78771616759E+03  0.78771616759E+03  0.00000000000E+00 0.  1.
          1   -1    0    0  501    0  0.00000000000E+00 -0.00000000000E+00 -0.33944388681E+02  0.33944388681E+02  0.00000000000E+00 0. -1.
         23    2    1    2    0    0  0.85138098757E+02 -0.23742410375E+02  0.60840320228E+03  0.62736453564E+03  0.12497842262E+03 0.  0.
          5    1    3    3  502    0  0.44416597770E+02 -0.26431379541E+02  0.56582357852E+03  0.56819878915E+03  0.47000000000E+01 0.  1.
         -5    1    3    3    0  502  0.40721500988E+02  0.26889691662E+01  0.42579623755E+02  0.59165746484E+02  0.47000000000E+01 0.  1.
        -11    1    1    2    0    0  0.61629260724E+00 -0.20559379568E+02  0.94851944454E+00  0.20590473378E+02  0.00000000000E+00 0. -1.
         11    1    1    2    0    0 -0.85754391365E+02  0.44301789942E+02  0.14442005719E+03  0.17370554726E+03  0.00000000000E+00 0.  1.
<mgrwt>
<rscale>  0 0.14664002E+03</rscale>
<asrwt>0</asrwt>
<pdfrwt beam="2">  1        1 0.52222142E-02 0.15307450E+03</pdfrwt>
<pdfrwt beam="1">  1       -1 0.12118709E+00 0.15307450E+03</pdfrwt>
<totfact> 0.99839215E+02</totfact>
</mgrwt>
</event>
<event>
 7    1  0.6095443E-006  0.1301509E+03  0.7546771E-02  0.1241847E+00
          1   -1    0    0  501    0  0.00000000000E+00  0.00000000000E+00  0.63834663345E+03  0.63834663345E+03  0.00000000000E+00 0. -1.
         -1   -1    0    0    0  501 -0.00000000000E+00 -0.00000000000E+00 -0.20116021864E+02  0.20116021864E+02  0.00000000000E+00 0.  1.
         23    2    1    2    0    0 -0.24090285439E+02 -0.27080562265E+02  0.35049102419E+03  0.37387594965E+03  0.12500227589E+03 0.  0.
          5    1    3    3  502    0  0.14257171327E+02  0.45464139469E+02  0.12269053484E+03  0.13170160307E+03  0.47000000000E+01 0.  1.
         -5    1    3    3    0  502 -0.38347456766E+02 -0.72544701734E+02  0.22780048935E+03  0.24217434657E+03  0.47000000000E+01 0.  1.
        -11    1    1    2    0    0 -0.26736302808E+02  0.33739917832E+02  0.15251477446E+03  0.15847387284E+03  0.00000000000E+00 0. -1.
         11    1    1    2    0    0  0.50826588246E+02 -0.66593555667E+01  0.11522481294E+03  0.12611283283E+03  0.00000000000E+00 0.  1.
<mgrwt>
<rscale>  0 0.12076071E+03</rscale>
<asrwt>0</asrwt>
<pdfrwt beam="1">  1        1 0.98207159E-01 0.13015094E+03</pdfrwt>
<pdfrwt beam="2">  1       -1 0.30947731E-02 0.13015094E+03</pdfrwt>
<totfact> 0.11048212E+04</totfact>
</mgrwt>
</event>
<event>
 7    1  0.6095443E-006  0.1298526E+03  0.7546771E-02  0.1245460E+00
         -2   -1    0    0    0  501 -0.00000000000E+00  0.00000000000E+00  0.71540940467E+02  0.71540940467E+02  0.00000000000E+00 0.  1.
          2   -1    0    0  501    0  0.00000000000E+00 -0.00000000000E+00 -0.20481894458E+03  0.20481894458E+03  0.00000000000E+00 0. -1.
         23    2    1    2    0    0 -0.23981450118E+02 -0.25748785565E+02 -0.19822430090E+02  0.13135691017E+03  0.12499439670E+03 0.  0.
          5    1    3    3  502    0  0.82378788926E+01  0.59007016595E+01  0.48251902824E+02  0.49527942163E+02  0.47000000000E+01 0. -1.
         -5    1    3    3    0  502 -0.32219329011E+02 -0.31649487225E+02 -0.68074332914E+02  0.81828968008E+02  0.47000000000E+01 0. -1.
        -11    1    1    2    0    0 -0.17318960232E+02  0.41985152355E+02 -0.49731511440E+02  0.67349258585E+02  0.00000000000E+00 0.  1.
         11    1    1    2    0    0  0.41300410351E+02 -0.16236366790E+02 -0.63724062581E+02  0.77653716289E+02  0.00000000000E+00 0. -1.
<mgrwt>
<rscale>  0 0.11857890E+03</rscale>
<asrwt>0</asrwt>
<pdfrwt beam="2">  1        2 0.31510606E-01 0.12985264E+03</pdfrwt>
<pdfrwt beam="1">  1       -2 0.11006299E-01 0.12985264E+03</pdfrwt>
<totfact> 0.88990862E+03</totfact>
</mgrwt>
</event>
<event>
 7    1  0.6095443E-006  0.1424402E+03  0.7546771E-02  0.1221875E+00
         -3   -1    0    0    0  501 -0.00000000000E+00  0.00000000000E+00  0.47247464926E+03  0.47247464926E+03  0.00000000000E+00 0.  1.
          3   -1    0    0  501    0  0.00000000000E+00 -0.00000000000E+00 -0.36633307948E+02  0.36633307948E+02  0.00000000000E+00 0. -1.
         23    2    1    2    0    0  0.32511984303E+02  0.60065183634E+02  0.31088135596E+03  0.34195968939E+03  0.12499742508E+03 0.  0.
          5    1    3    3  502    0  0.14743872753E+02  0.97163384054E+02  0.18638045196E+03  0.21075546934E+03  0.47000000000E+01 0.  1.
         -5    1    3    3    0  502  0.17768111550E+02 -0.37098200419E+02  0.12450090399E+03  0.13120422004E+03  0.47000000000E+01 0.  1.
        -11    1    1    2    0    0 -0.61354916885E+02 -0.30862600485E+02  0.65566390038E+02  0.94951974373E+02  0.00000000000E+00 0. -1.
         11    1    1    2    0    0  0.28842932582E+02 -0.29202583150E+02  0.59393595315E+02  0.72196293443E+02  0.00000000000E+00 0.  1.
<mgrwt>
<rscale>  0 0.13383398E+03</rscale>
<asrwt>0</asrwt>
<pdfrwt beam="2">  1        3 0.56358939E-02 0.14244020E+03</pdfrwt>
<pdfrwt beam="1">  1       -3 0.72688403E-01 0.14244020E+03</pdfrwt>
<totfact> 0.80435456E+02</totfact>
</mgrwt>
</event>
<event>
 7    1  0.6095443E-006  0.2521399E+03  0.7546771E-02  0.1114324E+00
         -1   -1    0    0    0  501 -0.00000000000E+00  0.00000000000E+00  0.10366595774E+03  0.10366595774E+03  0.00000000000E+00 0.  1.
          1   -1    0    0  501    0  0.00000000000E+00 -0.00000000000E+00 -0.92280144207E+03  0.92280144207E+03  0.00000000000E+00 0. -1.
         23    2    1    2    0    0 -0.55061257249E+02  0.21194420992E+03 -0.10367638485E+03  0.27262300905E+03  0.12498968806E+03 0.  0.
          5    1    3    3  502    0 -0.91126940418E+02  0.10732331476E+03 -0.66591683072E+02  0.15581705752E+03  0.47000000000E+01 0.  1.
         -5    1    3    3    0  502  0.36065683170E+02  0.10462089516E+03 -0.37084701780E+02  0.11680595153E+03  0.47000000000E+01 0.  1.
        -11    1    1    2    0    0  0.10073797184E+02 -0.14043656720E+03 -0.32231386333E+03  0.35172451904E+03  0.00000000000E+00 0.  1.
         11    1    1    2    0    0  0.44987460065E+02 -0.71507642719E+02 -0.39314523614E+03  0.40211987172E+03  0.00000000000E+00 0. -1.
<mgrwt>
<rscale>  0 0.24839376E+03</rscale>
<asrwt>0</asrwt>
<pdfrwt beam="2">  1        1 0.14196945E+00 0.25213987E+03</pdfrwt>
<pdfrwt beam="1">  1       -1 0.15948609E-01 0.25213987E+03</pdfrwt>
<totfact> 0.53703546E+02</totfact>
</mgrwt>
</event>
<event>
 7    1  0.6095443E-006  0.1407259E+03  0.7546771E-02  0.1223088E+00
         -2   -1    0    0    0  501 -0.00000000000E+00  0.00000000000E+00  0.42104394559E+03  0.42104394559E+03  0.00000000000E+00 0. -1.
          2   -1    0    0  501    0  0.00000000000E+00 -0.00000000000E+00 -0.50969385267E+02  0.50969385267E+02  0.00000000000E+00 0.  1.
         23    2    1    2    0    0 -0.64432637700E+02 -0.52387684744E+01  0.31908184300E+03  0.34873630732E+03  0.12499912007E+03 0.  0.
          5    1    3    3  502    0 -0.76665793358E+02 -0.37904927747E+01  0.86347054681E+02  0.11562835102E+03  0.47000000000E+01 0.  1.
         -5    1    3    3    0  502  0.12233155659E+02 -0.14482756997E+01  0.23273478832E+03  0.23310795630E+03  0.47000000000E+01 0.  1.
        -11    1    1    2    0    0 -0.12465739950E+02  0.26317631162E+02  0.94411819594E+00  0.29135952732E+02  0.00000000000E+00 0.  1.
         11    1    1    2    0    0  0.76898377649E+02 -0.21078862687E+02  0.50048599132E+02  0.94141070805E+02  0.00000000000E+00 0. -1.
<mgrwt>
<rscale>  0 0.13298843E+03</rscale>
<asrwt>0</asrwt>
<pdfrwt beam="2">  1        2 0.78414442E-02 0.14072594E+03</pdfrwt>
<pdfrwt beam="1">  1       -2 0.64775989E-01 0.14072594E+03</pdfrwt>
<totfact> 0.18994431E+03</totfact>
</mgrwt>
</event>
<event>
 7    1  0.6095443E-006  0.1333636E+03  0.7546771E-02  0.1236528E+00
          1   -1    0    0  501    0  0.00000000000E+00  0.00000000000E+00  0.39216663562E+03  0.39216663562E+03  0.00000000000E+00 0. -1.
         -1   -1    0    0    0  501 -0.00000000000E+00 -0.00000000000E+00 -0.37601722095E+02  0.37601722095E+02  0.00000000000E+00 0.  1.
         23    2    1    2    0    0 -0.46272533051E+02 -0.45173150810E+01  0.14148568793E+03  0.19443262371E+03  0.12499716727E+03 0.  0.
          5    1    3    3  502    0  0.84578054752E+01 -0.55757400049E+02  0.76144840361E+02  0.94871222440E+02  0.47000000000E+01 0.  1.
         -5    1    3    3    0  502 -0.54730338526E+02  0.51240084967E+02  0.65340847569E+02  0.99561401274E+02  0.47000000000E+01 0.  1.
        -11    1    1    2    0    0 -0.43173525255E+00  0.40664877527E+02  0.80121381548E+02  0.89851290702E+02  0.00000000000E+00 0.  1.
         11    1    1    2    0    0  0.46704268303E+02 -0.36147562446E+02  0.13295784405E+03  0.14548444330E+03  0.00000000000E+00 0. -1.
<mgrwt>
<rscale>  0 0.12407094E+03</rscale>
<asrwt>0</asrwt>
<pdfrwt beam="1">  1        1 0.60333326E-01 0.13336358E+03</pdfrwt>
<pdfrwt beam="2">  1       -1 0.57848806E-02 0.13336358E+03</pdfrwt>
<totfact> 0.83470128E+03</totfact>
</mgrwt>
</event>
<event>
 7    1  0.6095443E-006  0.1395730E+03  0.7546771E-02  0.1219843E+00
         -1   -1    0    0    0  501 -0.00000000000E+00  0.00000000000E+00  0.20305868180E+03  0.20305868180E+03  0.00000000000E+00 0.  1.
          1   -1    0    0  501    0  0.00000000000E+00 -0.00000000000E+00 -0.84967424935E+02  0.84967424935E+02  0.00000000000E+00 0. -1.
         23    2    1    2    0    0  0.30592243199E+02  0.54038347770E+02  0.63136816833E+02  0.15318907180E+03  0.12499842282E+03 0.  0.
          5    1    3    3  502    0  0.10662902261E+02  0.93971356237E+02  0.42211564222E+02  0.10367361975E+03  0.47000000000E+01 0. -1.
         -5    1    3    3    0  502  0.19929340938E+02 -0.39933008468E+02  0.20925252610E+02  0.49515452056E+02  0.47000000000E+01 0. -1.
        -11    1    1    2    0    0  0.10527172948E+02 -0.33695842010E+02 -0.24582593109E+02  0.43017845402E+02  0.00000000000E+00 0. -1.
         11    1    1    2    0    0 -0.41119416147E+02 -0.20342505759E+02  0.79537033138E+02  0.91819189526E+02  0.00000000000E+00 0.  1.
<mgrwt>
<rscale>  0 0.13526713E+03</rscale>
<asrwt>0</asrwt>
<pdfrwt beam="2">  1        1 0.13071912E-01 0.13957304E+03</pdfrwt>
<pdfrwt beam="1">  1       -1 0.31239797E-01 0.13957304E+03</pdfrwt>
<totfact> 0.40930714E+03</totfact>
</mgrwt>
</event>
<event>
 7    1  0.6095443E-006  0.2394597E+03  0.7546771E-02  0.1122888E+00
         -2   -1    0    0    0  501 -0.00000000000E+00  0.00000000000E+00  0.38057031015E+03  0.38057031015E+03  0.00000000000E+00 0.  1.
          2   -1    0    0  501    0  0.00000000000E+00 -0.00000000000E+00 -0.14136797834E+03  0.14136797834E+03  0.00000000000E+00 0. -1.
         23    2    1    2    0    0 -0.48369784371E+02  0.19843435038E+03  0.13865278291E+03  0.27670475627E+03  0.12500040192E+03 0.  0.
          5    1    3    3  502    0 -0.74526977473E+02  0.15967877800E+03  0.14631856288E+03  0.22909123588E+03  0.47000000000E+01 0. -1.
         -5    1    3    3    0  502  0.26157193102E+02  0.38755572379E+02 -0.76657799605E+01  0.47613520388E+02  0.47000000000E+01 0. -1.
        -11    1    1    2    0    0  0.40358628497E+02 -0.18596453368E+03  0.11676779591E+03  0.22326295000E+03  0.00000000000E+00 0.  1.
         11    1    1    2    0    0  0.80111558740E+01 -0.12469816705E+02 -0.16218247013E+02  0.21970582224E+02  0.00000000000E+00 0. -1.
<mgrwt>
<rscale>  0 0.23541129E+03</rscale>
<asrwt>0</asrwt>
<pdfrwt beam="2">  1        2 0.21748920E-01 0.23945966E+03</pdfrwt>
<pdfrwt beam="1">  1       -2 0.58549278E-01 0.23945966E+03</pdfrwt>
<totfact> 0.70132153E+02</totfact>
</mgrwt>
</event>
<event>
 7    1  0.6095443E-006  0.1559000E+03  0.7546771E-02  0.1201426E+00
          2   -1    0    0  501    0  0.00000000000E+00  0.00000000000E+00  0.31833852340E+03  0.31833852340E+03  0.00000000000E+00 0. -1.
         -2   -1    0    0    0  501 -0.00000000000E+00 -0.00000000000E+00 -0.65371519940E+02  0.65371519940E+02  0.00000000000E+00 0.  1.
         23    2    1    2    0    0  0.91062734986E+02 -0.19727014480E+02  0.15835805380E+03  0.22222079756E+03  0.12499293126E+03 0.  0.
          5    1    3    3  502    0  0.27099950078E+02 -0.22407250461E+02 -0.14121346352E+02  0.38183695345E+02  0.47000000000E+01 0. -1.
         -5    1    3    3    0  502  0.63962784909E+02  0.26802359802E+01  0.17247940015E+03  0.18403710222E+03  0.47000000000E+01 0. -1.
        -11    1    1    2    0    0 -0.35332858225E+02 -0.26797402097E+02  0.27835281894E+01  0.44432641816E+02  0.00000000000E+00 0.  1.
         11    1    1    2    0    0 -0.55729876761E+02  0.46524416578E+02  0.91825421475E+02  0.11705660396E+03  0.00000000000E+00 0. -1.
<mgrwt>
<rscale>  0 0.14922709E+03</rscale>
<asrwt>0</asrwt>
<pdfrwt beam="1">  1        2 0.48975156E-01 0.15590000E+03</pdfrwt>
<pdfrwt beam="2">  1       -2 0.10057157E-01 0.15590000E+03</pdfrwt>
<totfact> 0.64891769E+03</totfact>
</mgrwt>
</event>
<event>
 6    1  0.6095443E-006  0.2359253E+03  0.7546771E-02  0.1142949E+00
         -1   -1    0    0    0  501 -0.00000000000E+00  0.00000000000E+00  0.34838341648E+03  0.34838341648E+03  0.00000000000E+00 0.  1.
          1   -1    0    0  501    0  0.00000000000E+00 -0.00000000000E+00 -0.13416021013E+03  0.13416021013E+03  0.00000000000E+00 0. -1.
          5    1    1    2  502    0 -0.55021468681E+02  0.30434738857E+02  0.43621430764E+02  0.76671732515E+02  0.47000000000E+01 0. -1.
         -5    1    1    2    0  502  0.16668804526E+03 -0.33915946037E+02  0.19687116561E+03  0.26022210067E+03  0.47000000000E+01 0.  1.
        -11    1    1    2    0    0 -0.66635086218E+02  0.13611605113E+02 -0.58208818327E+02  0.89519701966E+02  0.00000000000E+00 0. -1.
         11    1    1    2    0    0 -0.45031490363E+02 -0.10130397932E+02  0.31939428306E+02  0.56130091458E+02  0.00000000000E+00 0.  1.
<mgrwt>
<rscale>  0 0.20826348E+03</rscale>
<asrwt>0</asrwt>
<pdfrwt beam="2">  1        1 0.20640033E-01 0.23592534E+03</pdfrwt>
<pdfrwt beam="1">  1       -1 0.53597448E-01 0.23592534E+03</pdfrwt>
<totfact> 0.88345441E+02</totfact>
</mgrwt>
</event>
<event>
 7    1  0.6095443E-006  0.1542392E+03  0.7546771E-02  0.1203860E+00
          2   -1    0    0  501    0  0.00000000000E+00  0.00000000000E+00  0.67002179148E+03  0.67002179148E+03  0.00000000000E+00 0. -1.
         -2   -1    0    0    0  501 -0.00000000000E+00 -0.00000000000E+00 -0.30042751827E+02  0.30042751827E+02  0.00000000000E+00 0.  1.
         23    2    1    2    0    0 -0.83853825550E+02 -0.33666198023E+02  0.38251071483E+03  0.41243688824E+03  0.12499945151E+03 0.  0.
          5    1    3    3  502    0 -0.11642308088E+03 -0.33766383665E+02  0.30361628584E+03  0.32695480033E+03  0.47000000000E+01 0. -1.
         -5    1    3    3    0  502  0.32569255331E+02  0.10018564279E+00  0.78894428984E+02  0.85482087917E+02  0.47000000000E+01 0. -1.
        -11    1    1    2    0    0  0.57508715407E+02 -0.25740610564E+02  0.13525550257E+03  0.14921086541E+03  0.00000000000E+00 0.  1.
         11    1    1    2    0    0  0.26345110142E+02  0.59406808586E+02  0.12221282225E+03  0.13841678965E+03  0.00000000000E+00 0. -1.
<mgrwt>
<rscale>  0 0.14727634E+03</rscale>
<asrwt>0</asrwt>
<pdfrwt beam="1">  1        2 0.10308026E+00 0.15423923E+03</pdfrwt>
<pdfrwt beam="2">  1       -2 0.46219623E-02 0.15423923E+03</pdfrwt>
<totfact> 0.94279440E+03</totfact>
</mgrwt>
</event>
<event>
 7    1  0.6095443E-006  0.1283498E+03  0.7546771E-02  0.1248159E+00
         -1   -1    0    0    0  501 -0.00000000000E+00  0.00000000000E+00  0.15626406198E+02  0.15626406198E+02  0.00000000000E+00 0.  1.
          1   -1    0    0  501    0  0.00000000000E+00 -0.00000000000E+00 -0.75661232298E+03  0.75661232298E+03  0.00000000000E+00 0. -1.
         23    2    1    2    0    0 -0.10467270794E+02 -0.27200072943E+02 -0.41121305557E+03  0.43077818068E+03  0.12499702458E+03 0.  0.
          5    1    3    3  502    0 -0.33778868161E+02 -0.61267032775E+02 -0.34895809427E+03  0.35593328420E+03  0.47000000000E+01 0. -1.
         -5    1    3    3    0  502  0.23311597367E+02  0.34066959831E+02 -0.62254961301E+02  0.74844896490E+02  0.47000000000E+01 0. -1.
        -11    1    1    2    0    0 -0.13637485570E+02  0.51807089907E+02 -0.21889550099E+03  0.22535570979E+03  0.00000000000E+00 0.  1.
         11    1    1    2    0    0  0.24104756363E+02 -0.24607016964E+02 -0.11087736021E+03  0.11610483870E+03  0.00000000000E+00 0. -1.
<mgrwt>
<rscale>  0 0.11698269E+03</rscale>
<asrwt>0</asrwt>
<pdfrwt beam="2">  1        1 0.11640191E+00 0.12834977E+03</pdfrwt>
<pdfrwt beam="1">  1       -1 0.24040623E-02 0.12834977E+03</pdfrwt>
<totfact> 0.12498915E+04</totfact>
</mgrwt>
</event>
<event>
 7    1  0.6095443E-006  0.1921096E+03  0.7546771E-02  0.1161984E+00
         -4   -1    0    0    0  501 -0.00000000000E+00  0.00000000000E+00  0.43397829945E+03  0.43397829945E+03  0.00000000000E+00 0.  1.
          4   -1    0    0  501    0  0.00000000000E+00 -0.00000000000E+00 -0.75686199168E+02  0.75686199168E+02  0.00000000000E+00 0. -1.
         23    2    1    2    0    0  0.38247081245E+02  0.14077961844E+03  0.20940464791E+03  0.28417672008E+03  0.12499744588E+03 0.  0.
          5    1    3    3  502    0 -0.23625082804E+02  0.12161807296E+03  0.16087346669E+03  0.20310456049E+03  0.47000000000E+01 0. -1.
         -5    1    3    3    0  502  0.61872164049E+02  0.19161545482E+02  0.48531181225E+02  0.81072159589E+02  0.47000000000E+01 0. -1.
        -11    1    1    2    0    0  0.21770225439E+02 -0.67000589404E+02  0.40387489906E+02  0.81204501335E+02  0.00000000000E+00 0.  1.
         11    1    1    2    0    0 -0.60017306684E+02 -0.73779029034E+02  0.10849996246E+03  0.14428327721E+03  0.00000000000E+00 0. -1.
<mgrwt>
<rscale>  0 0.18614614E+03</rscale>
<asrwt>0</asrwt>
<pdfrwt beam="2">  1        4 0.11644031E-01 0.19210961E+03</pdfrwt>
<pdfrwt beam="1">  1       -4 0.66765890E-01 0.19210961E+03</pdfrwt>
<totfact> 0.21851586E+02</totfact>
</mgrwt>
</event>
<event>
 7    1  0.6095443E-006  0.2047858E+03  0.7546771E-02  0.1149883E+00
          1   -1    0    0  501    0  0.00000000000E+00  0.00000000000E+00  0.41057938384E+03  0.41057938384E+03  0.00000000000E+00 0. -1.
         -1   -1    0    0    0  501 -0.00000000000E+00 -0.00000000000E+00 -0.11304993789E+03  0.11304993789E+03  0.00000000000E+00 0.  1.
         23    2    1    2    0    0  0.15384134219E+03  0.51513182692E+02  0.44127332764E+02  0.20948614593E+03  0.12496582446E+03 0.  0.
          5    1    3    3  502    0  0.14596549282E+03  0.78495430221E+02  0.60649838596E+02  0.17654447196E+03  0.47000000000E+01 0. -1.
         -5    1    3    3    0  502  0.78758493751E+01 -0.26982247530E+02 -0.16522505831E+02  0.32941673972E+02  0.47000000000E+01 0. -1.
        -11    1    1    2    0    0 -0.11134840805E+03 -0.68775752280E+02  0.13914156411E+03  0.19102080238E+03  0.00000000000E+00 0. -1.
         11    1    1    2    0    0 -0.42492934136E+02  0.17262569588E+02  0.11426054907E+03  0.12312237341E+03  0.00000000000E+00 0.  1.
<mgrwt>
<rscale>  0 0.19982979E+03</rscale>
<asrwt>0</asrwt>
<pdfrwt beam="1">  1        1 0.63166058E-01 0.20478580E+03</pdfrwt>
<pdfrwt beam="2">  1       -1 0.17392298E-01 0.20478580E+03</pdfrwt>
<totfact> 0.14761418E+03</totfact>
</mgrwt>
</event>
<event>
 7    1  0.6095443E-006  0.1254441E+03  0.7546771E-02  0.1249845E+00
          1   -1    0    0  501    0  0.00000000000E+00  0.00000000000E+00  0.24952205901E+03  0.24952205901E+03  0.00000000000E+00 0. -1.
         -1   -1    0    0    0  501 -0.00000000000E+00 -0.00000000000E+00 -0.55287024633E+02  0.55287024633E+02  0.00000000000E+00 0.  1.
         23    2    1    2    0    0  0.83471981289E+01 -0.67647428529E+01  0.52508112263E+02  0.13599017613E+03  0.12498315361E+03 0.  0.
          5    1    3    3  502    0 -0.32089818324E+02  0.39216964571E+02  0.54472478733E+02  0.74545742263E+02  0.47000000000E+01 0.  1.
         -5    1    3    3    0  502  0.40437016453E+02 -0.45981707424E+02 -0.19643664696E+01  0.61444433864E+02  0.47000000000E+01 0.  1.
        -11    1    1    2    0    0 -0.31587785854E+02 -0.14449346472E+01  0.77005686307E+01  0.32544965947E+02  0.00000000000E+00 0.  1.
         11    1    1    2    0    0  0.23240587725E+02  0.82096775001E+01  0.13402635348E+03  0.13627394156E+03  0.00000000000E+00 0. -1.
<mgrwt>
<rscale>  0 0.11600015E+03</rscale>
<asrwt>0</asrwt>
<pdfrwt beam="1">  1        1 0.38388008E-01 0.12544412E+03</pdfrwt>
<pdfrwt beam="2">  1       -1 0.85056962E-02 0.12544412E+03</pdfrwt>
<totfact> 0.81731884E+03</totfact>
</mgrwt>
</event>
<event>
 7    1  0.6095443E-006  0.1311891E+03  0.7546771E-02  0.1232137E+00
          1   -1    0    0  501    0  0.00000000000E+00  0.00000000000E+00  0.26370721082E+03  0.26370721082E+03  0.00000000000E+00 0. -1.
         -1   -1    0    0    0  501 -0.00000000000E+00 -0.00000000000E+00 -0.35100930269E+03  0.35100930269E+03  0.00000000000E+00 0.  1.
         23    2    1    2    0    0 -0.37422731315E+02 -0.38730869747E+01 -0.32513838803E+03  0.35060739970E+03  0.12567862080E+03 0.  0.
          5    1    3    3  502    0 -0.18283789868E+02 -0.45478020039E+01  0.48625431700E+01  0.20017837073E+02  0.47000000000E+01 0. -1.
         -5    1    3    3    0  502 -0.19138941447E+02  0.67471502918E+00 -0.33000093120E+03  0.33058956262E+03  0.47000000000E+01 0.  1.
        -11    1    1    2    0    0 -0.30430415800E+02 -0.42332998391E+01  0.22202205854E+02  0.37906054636E+02  0.00000000000E+00 0.  1.
         11    1    1    2    0    0  0.67853147115E+02  0.81063868138E+01  0.21563409030E+03  0.22620305918E+03  0.00000000000E+00 0. -1.
<mgrwt>
<rscale>  0 0.12689476E+03</rscale>
<asrwt>0</asrwt>
<pdfrwt beam="1">  1        1 0.40570340E-01 0.13118909E+03</pdfrwt>
<pdfrwt beam="2">  1       -1 0.54001431E-01 0.13118909E+03</pdfrwt>
<totfact> 0.37196572E+02</totfact>
</mgrwt>
</event>
<event>
 6    1  0.6095443E-006  0.2841638E+03  0.7546771E-02  0.1109181E+00
          1   -1    0    0  501    0  0.00000000000E+00  0.00000000000E+00  0.61280598936E+02  0.61280598936E+02  0.00000000000E+00 0. -1.
         -1   -1    0    0    0  501 -0.00000000000E+00 -0.00000000000E+00 -0.11218433096E+04  0.11218433096E+04  0.00000000000E+00 0.  1.
          5    1    1    2  502    0 -0.34054473686E+02 -0.25713153184E+02 -0.41893685495E+03  0.42113068264E+03  0.47000000000E+01 0. -1.
         -5    1    1    2    0  502  0.84795388359E+02  0.18270767370E+03 -0.44882933929E+03  0.49197786304E+03  0.47000000000E+01 0.  1.
        -11    1    1    2    0    0  0.29534574839E+01  0.10422597249E+02 -0.23792320190E+02  0.26142454831E+02  0.00000000000E+00 0.  1.
         11    1    1    2    0    0 -0.53694372157E+02 -0.16741711776E+03 -0.16900419621E+03  0.24387290801E+03  0.00000000000E+00 0. -1.
<mgrwt>
<rscale>  0 0.25663596E+03</rscale>
<asrwt>0</asrwt>
<pdfrwt beam="1">  1        1 0.94277843E-02 0.28416377E+03</pdfrwt>
<pdfrwt beam="2">  1       -1 0.17259128E+00 0.28416377E+03</pdfrwt>
<totfact> 0.17932275E+02</totfact>
</mgrwt>
</event>
<event>
 7    1  0.6095443E-006  0.1863008E+03  0.7546771E-02  0.1166959E+00
         -2   -1    0    0    0  501 -0.00000000000E+00  0.00000000000E+00  0.38272716703E+03  0.38272716703E+03  0.00000000000E+00 0.  1.
          2   -1    0    0  501    0  0.00000000000E+00 -0.00000000000E+00 -0.88345703393E+02  0.88345703393E+02  0.00000000000E+00 0. -1.
         23    2    1    2    0    0 -0.11841080823E+03  0.71145207889E+02  0.22361944791E+03  0.29105605486E+03  0.12500083789E+03 0.  0.
          5    1    3    3  502    0  0.14956428721E+02  0.47309841434E+02  0.73289431929E+02  0.88630393709E+02  0.47000000000E+01 0. -1.
         -5    1    3    3    0  502 -0.13336723695E+03  0.23835366455E+02  0.15033001598E+03  0.20242566115E+03  0.47000000000E+01 0. -1.
        -11    1    1    2    0    0  0.10558071122E+03 -0.23094283273E+02  0.21855313393E+02  0.11026462364E+03  0.00000000000E+00 0. -1.
         11    1    1    2    0    0  0.12830097006E+02 -0.48050924616E+02  0.48906702331E+02  0.69752191927E+02  0.00000000000E+00 0.  1.
<mgrwt>
<rscale>  0 0.18087451E+03</rscale>
<asrwt>0</asrwt>
<pdfrwt beam="2">  1        2 0.13591647E-01 0.18630075E+03</pdfrwt>
<pdfrwt beam="1">  1       -2 0.58881102E-01 0.18630075E+03</pdfrwt>
<totfact> 0.11922452E+03</totfact>
</mgrwt>
</event>
<event>
 7    1  0.6095443E-006  0.2568077E+03  0.7546771E-02  0.1110862E+00
         -1   -1    0    0    0  501 -0.00000000000E+00  0.00000000000E+00  0.86275632628E+03  0.86275632628E+03  0.00000000000E+00 0.  1.
          1   -1    0    0  501    0  0.00000000000E+00 -0.00000000000E+00 -0.11492078623E+03  0.11492078623E+03  0.00000000000E+00 0. -1.
         23    2    1    2    0    0 -0.16908642363E+03  0.15317697089E+03  0.67423243817E+03  0.72148430000E+03  0.11788473779E+03 0.  0.
          5    1    3    3  502    0  0.13290537108E+02 -0.43531604658E+01  0.26085689850E+02  0.29969010621E+02  0.47000000000E+01 0. -1.
         -5    1    3    3    0  502 -0.18237696073E+03  0.15753013135E+03  0.64814674832E+03  0.69151528938E+03  0.47000000000E+01 0.  1.
        -11    1    1    2    0    0  0.11474648399E+03 -0.14749333627E+03  0.75441968304E+02  0.20152550810E+03  0.00000000000E+00 0.  1.
         11    1    1    2    0    0  0.54339939638E+02 -0.56836346140E+01 -0.18388664234E+01  0.54667304415E+02  0.00000000000E+00 0. -1.
<mgrwt>
<rscale>  0 0.25390501E+03</rscale>
<asrwt>0</asrwt>
<pdfrwt beam="2">  1        1 0.17680122E-01 0.25680774E+03</pdfrwt>
<pdfrwt beam="1">  1       -1 0.13273174E+00 0.25680774E+03</pdfrwt>
<totfact> 0.15602886E+02</totfact>
</mgrwt>
</event>
<event>
 7    1  0.6095443E-006  0.1490142E+03  0.7546771E-02  0.1210807E+00
          1   -1    0    0  501    0  0.00000000000E+00  0.00000000000E+00  0.17055692877E+03  0.17055692877E+03  0.00000000000E+00 0. -1.
         -1   -1    0    0    0  501 -0.00000000000E+00 -0.00000000000E+00 -0.11024776844E+03  0.11024776844E+03  0.00000000000E+00 0.  1.
         23    2    1    2    0    0  0.80313018778E+02  0.11351812778E+02  0.13341467582E+02  0.14961027761E+03  0.12500478299E+03 0.  0.
          5    1    3    3  502    0  0.90385175518E+02 -0.26315055514E+02 -0.21986993727E+02  0.96785742717E+02  0.47000000000E+01 0. -1.
         -5    1    3    3    0  502 -0.10072156740E+02  0.37666868291E+02  0.35328461309E+02  0.52824534894E+02  0.47000000000E+01 0. -1.
        -11    1    1    2    0    0  0.15997983459E+02 -0.18183889252E+02  0.18669152689E+02  0.30579839195E+02  0.00000000000E+00 0.  1.
         11    1    1    2    0    0 -0.96311002237E+02  0.68320764738E+01  0.28298540060E+02  0.10061458041E+03  0.00000000000E+00 0. -1.
<mgrwt>
<rscale>  0 0.14189071E+03</rscale>
<asrwt>0</asrwt>
<pdfrwt beam="1">  1        1 0.26239527E-01 0.14901423E+03</pdfrwt>
<pdfrwt beam="2">  1       -1 0.16961195E-01 0.14901423E+03</pdfrwt>
<totfact> 0.45658195E+03</totfact>
</mgrwt>
</event>
<event>
 7    1  0.6095443E-006  0.1290054E+03  0.7546771E-02  0.1243257E+00
          2   -1    0    0  501    0  0.00000000000E+00  0.00000000000E+00  0.33377190826E+03  0.33377190826E+03  0.00000000000E+00 0. -1.
         -2   -1    0    0    0  501 -0.00000000000E+00 -0.00000000000E+00 -0.39279711197E+02  0.39279711197E+02  0.00000000000E+00 0.  1.
         23    2    1    2    0    0 -0.27956932620E+02 -0.15480091111E+02  0.13478759190E+03  0.18657464472E+03  0.12498471835E+03 0.  0.
          5    1    3    3  502    0 -0.10996646616E+02 -0.67255892790E+02  0.10216337556E+03  0.12289721990E+03  0.47000000000E+01 0. -1.
         -5    1    3    3    0  502 -0.16960286004E+02  0.51775801679E+02  0.32624216331E+02  0.63677424823E+02  0.47000000000E+01 0. -1.
        -11    1    1    2    0    0  0.32469865445E+02 -0.12805653846E+02  0.13388497252E+02  0.37383536364E+02  0.00000000000E+00 0.  1.
         11    1    1    2    0    0 -0.45129328252E+01  0.28285744956E+02  0.14631610791E+03  0.14909343837E+03  0.00000000000E+00 0. -1.
<mgrwt>
<rscale>  0 0.11990295E+03</rscale>
<asrwt>0</asrwt>
<pdfrwt beam="1">  1        2 0.51349523E-01 0.12900544E+03</pdfrwt>
<pdfrwt beam="2">  1       -2 0.60430327E-02 0.12900544E+03</pdfrwt>
<totfact> 0.13369703E+04</totfact>
</mgrwt>
</event>
<event>
 6    1  0.6095443E-006  0.6688271E+03  0.7546771E-02  0.9772079E-01
         -2   -1    0    0    0  501 -0.00000000000E+00  0.00000000000E+00  0.15687465867E+03  0.15687465867E+03  0.00000000000E+00 0.  1.
          2   -1    0    0  501    0  0.00000000000E+00 -0.00000000000E+00 -0.71287761906E+03  0.71287761906E+03  0.00000000000E+00 0. -1.
          5    1    1    2  502    0 -0.30295229879E+01 -0.13087131837E+02 -0.31876541005E+02  0.34909237971E+02  0.47000000000E+01 0. -1.
         -5    1    1    2    0  502 -0.87781281868E+02  0.15748642157E+03  0.81063646465E+02  0.19773955397E+03  0.47000000000E+01 0.  1.
        -11    1    1    2    0    0 -0.12506798772E+02 -0.35915731175E+02 -0.54902033780E+02  0.66787671575E+02  0.00000000000E+00 0.  1.
         11    1    1    2    0    0  0.10331760363E+03 -0.10848355856E+03 -0.55028803207E+03  0.57031581421E+03  0.00000000000E+00 0. -1.
<mgrwt>
<rscale>  0 0.66882713E+03</rscale>
<asrwt>0</asrwt>
<pdfrwt beam="2">  1        2 0.10967348E+00 0.66882713E+03</pdfrwt>
<pdfrwt beam="1">  1       -2 0.24134563E-01 0.66882713E+03</pdfrwt>
<totfact> 0.61511040E+02</totfact>
</mgrwt>
</event>
<event>
 7    1  0.6095443E-006  0.2204079E+03  0.7546771E-02  0.1137042E+00
         -2   -1    0    0    0  501 -0.00000000000E+00  0.00000000000E+00  0.36294928145E+02  0.36294928145E+02  0.00000000000E+00 0.  1.
          2   -1    0    0  501    0  0.00000000000E+00 -0.00000000000E+00 -0.12328209101E+04  0.12328209101E+04  0.00000000000E+00 0. -1.
         23    2    1    2    0    0 -0.15375810839E+03  0.96508190583E+02 -0.63327996922E+03  0.67053946128E+03  0.12499705188E+03 0.  0.
          5    1    3    3  502    0 -0.74259807472E+02  0.81706786153E+02 -0.51793836653E+03  0.52959678949E+03  0.47000000000E+01 0. -1.
         -5    1    3    3    0  502 -0.79498300921E+02  0.14801404430E+02 -0.11534160268E+03  0.14094267179E+03  0.47000000000E+01 0. -1.
        -11    1    1    2    0    0  0.21909961758E+02 -0.43445548489E+02 -0.24864795181E+03  0.25336409779E+03  0.00000000000E+00 0. -1.
         11    1    1    2    0    0  0.13184814664E+03 -0.53062642093E+02 -0.31459806096E+03  0.34521227921E+03  0.00000000000E+00 0.  1.
<mgrwt>
<rscale>  0 0.21581487E+03</rscale>
<asrwt>0</asrwt>
<pdfrwt beam="2">  1        2 0.18966473E+00 0.22040792E+03</pdfrwt>
<pdfrwt beam="1">  1       -2 0.55838358E-02 0.22040792E+03</pdfrwt>
<totfact> 0.31544272E+03</totfact>
</mgrwt>
</event>
<event>
 7    1  0.6095443E-006  0.1256682E+03  0.7546771E-02  0.1250034E+00
          2   -1    0    0  501    0  0.00000000000E+00  0.00000000000E+00  0.36454768323E+03  0.36454768323E+03  0.00000000000E+00 0.  1.
         -2   -1    0    0    0  501 -0.00000000000E+00 -0.00000000000E+00 -0.32185456374E+02  0.32185456374E+02  0.00000000000E+00 0. -1.
         23    2    1    2    0    0 -0.12271008443E+02 -0.33210388091E+01  0.19819368450E+03  0.23467688761E+03  0.12502358999E+03 0.  0.
          5    1    3    3  502    0 -0.37158269437E+02  0.17008085276E+02  0.82215752402E+01  0.41948733613E+02  0.47000000000E+01 0.  1.
         -5    1    3    3    0  502  0.24887260993E+02 -0.20329124086E+02  0.18997210926E+03  0.19272815400E+03  0.47000000000E+01 0.  1.
        -11    1    1    2    0    0  0.38388130384E+02 -0.87970121093E+01  0.19725168518E+02  0.44046773429E+02  0.00000000000E+00 0. -1.
         11    1    1    2    0    0 -0.26117121940E+02  0.12118050918E+02  0.11444337384E+03  0.11800947857E+03  0.00000000000E+00 0.  1.
<mgrwt>
<rscale>  0 0.11589065E+03</rscale>
<asrwt>0</asrwt>
<pdfrwt beam="1">  1        2 0.56084256E-01 0.12566823E+03</pdfrwt>
<pdfrwt beam="2">  1       -2 0.49516089E-02 0.12566823E+03</pdfrwt>
<totfact> 0.16399308E+04</totfact>
</mgrwt>
</event>
<event>
 7    1  0.6095443E-006  0.1450035E+03  0.7546771E-02  0.1216747E+00
         -1   -1    0    0    0  501 -0.00000000000E+00  0.00000000000E+00  0.43683393919E+02  0.43683393919E+02  0.00000000000E+00 0.  1.
          1   -1    0    0  501    0  0.00000000000E+00 -0.00000000000E+00 -0.47951685118E+03  0.47951685118E+03  0.00000000000E+00 0. -1.
         23    2    1    2    0    0  0.18529029674E+02  0.71110328657E+02 -0.12657344524E+03  0.19247556100E+03  0.12500400298E+03 0.  0.
          5    1    3    3  502    0  0.28462735259E+02 -0.29365393516E+02 -0.54666507069E+02  0.68432233852E+02  0.47000000000E+01 0.  1.
         -5    1    3    3    0  502 -0.99337055848E+01  0.10047572217E+03 -0.71906938169E+02  0.12404332715E+03  0.47000000000E+01 0.  1.
        -11    1    1    2    0    0 -0.32751181844E+02  0.72839305054E+01 -0.13512557480E+03  0.13922864835E+03  0.00000000000E+00 0.  1.
         11    1    1    2    0    0  0.14222152170E+02 -0.78394259163E+02 -0.17413443722E+03  0.19149603575E+03  0.00000000000E+00 0. -1.
<mgrwt>
<rscale>  0 0.13748981E+03</rscale>
<asrwt>0</asrwt>
<pdfrwt beam="2">  1        1 0.73771823E-01 0.14500346E+03</pdfrwt>
<pdfrwt beam="1">  1       -1 0.67205221E-02 0.14500346E+03</pdfrwt>
<totfact> 0.51893644E+03</totfact>
</mgrwt>
</event>
<event>
 7    1  0.6095443E-006  0.1303259E+03  0.7546771E-02  0.1241751E+00
          2   -1    0    0  501    0  0.00000000000E+00  0.00000000000E+00  0.47887015975E+03  0.47887015975E+03  0.00000000000E+00 0.  1.
         -2   -1    0    0    0  501 -0.00000000000E+00 -0.00000000000E+00 -0.26804533631E+02  0.26804533631E+02  0.00000000000E+00 0. -1.
         23    2    1    2    0    0  0.32163290461E+02  0.18057451362E+02  0.25865605104E+03  0.28963388954E+03  0.12499715368E+03 0.  0.
          5    1    3    3  502    0  0.30334643543E+02  0.62634369854E+02  0.21871656311E+03  0.22956977123E+03  0.47000000000E+01 0. -1.
         -5    1    3    3    0  502  0.18286469176E+01 -0.44576918492E+02  0.39939487929E+02  0.60064118305E+02  0.47000000000E+01 0. -1.
        -11    1    1    2    0    0 -0.45510768546E+02 -0.44707115734E+02  0.10631291852E+03  0.12398545437E+03  0.00000000000E+00 0.  1.
         11    1    1    2    0    0  0.13347478085E+02  0.26649664372E+02  0.87096656565E+02  0.92055349476E+02  0.00000000000E+00 0. -1.
<mgrwt>
<rscale>  0 0.12081941E+03</rscale>
<asrwt>0</asrwt>
<pdfrwt beam="1">  1        2 0.73672326E-01 0.13032589E+03</pdfrwt>
<pdfrwt beam="2">  1       -2 0.41237748E-02 0.13032589E+03</pdfrwt>
<totfact> 0.16133854E+04</totfact>
</mgrwt>
</event>
<event>
 7    1  0.6095443E-006  0.1418020E+03  0.7546771E-02  0.1221562E+00
          2   -1    0    0  501    0  0.00000000000E+00  0.00000000000E+00  0.11356186610E+04  0.11356186610E+04  0.00000000000E+00 0. -1.
         -2   -1    0    0    0  501 -0.00000000000E+00 -0.00000000000E+00 -0.14423901131E+02  0.14423901131E+02  0.00000000000E+00 0.  1.
         23    2    1    2    0    0 -0.57016469405E+02  0.35159651941E+02  0.67104081416E+03  0.68585973228E+03  0.12498287560E+03 0.  0.
          5    1    3    3  502    0 -0.12892298173E+02  0.52381335669E+01  0.58048591974E+03  0.58067171656E+03  0.47000000000E+01 0.  1.
         -5    1    3    3    0  502 -0.44124171231E+02  0.29921518374E+02  0.90554894419E+02  0.10518801572E+03  0.47000000000E+01 0.  1.
        -11    1    1    2    0    0  0.55791797101E+02 -0.62536628467E+02  0.29705922206E+03  0.30865471960E+03  0.00000000000E+00 0. -1.
         11    1    1    2    0    0  0.12246723038E+01  0.27376976526E+02  0.15309472366E+03  0.15552811025E+03  0.00000000000E+00 0.  1.
<mgrwt>
<rscale>  0 0.13405341E+03</rscale>
<asrwt>0</asrwt>
<pdfrwt beam="1">  1        2 0.17471049E+00 0.14180197E+03</pdfrwt>
<pdfrwt beam="2">  1       -2 0.22190626E-02 0.14180197E+03</pdfrwt>
<totfact> 0.13927507E+04</totfact>
</mgrwt>
</event>
<event>
 7    1  0.6095443E-006  0.2059283E+03  0.7546771E-02  0.1148110E+00
         -1   -1    0    0    0  501 -0.00000000000E+00  0.00000000000E+00  0.51950347591E+02  0.51950347591E+02  0.00000000000E+00 0.  1.
          1   -1    0    0  501    0  0.00000000000E+00 -0.00000000000E+00 -0.77131313808E+03  0.77131313808E+03  0.00000000000E+00 0. -1.
         23    2    1    2    0    0  0.12887819617E+03  0.10085518374E+03 -0.31562203018E+03  0.37686037935E+03  0.12500048822E+03 0.  0.
          5    1    3    3  502    0  0.10374725975E+02  0.67579188096E+02 -0.18516505369E+03  0.19744054475E+03  0.47000000000E+01 0.  1.
         -5    1    3    3    0  502  0.11850347019E+03  0.33275995639E+02 -0.13045697649E+03  0.17941983461E+03  0.47000000000E+01 0.  1.
        -11    1    1    2    0    0 -0.63729369507E+02 -0.80215882503E+02 -0.13713843720E+03  0.17118110673E+03  0.00000000000E+00 0. -1.
         11    1    1    2    0    0 -0.65148826663E+02 -0.20639301233E+02 -0.26660232310E+03  0.27522199958E+03  0.00000000000E+00 0.  1.
<mgrwt>
<rscale>  0 0.20194320E+03</rscale>
<asrwt>0</asrwt>
<pdfrwt beam="2">  1        1 0.11866356E+00 0.20592834E+03</pdfrwt>
<pdfrwt beam="1">  1       -1 0.79923612E-02 0.20592834E+03</pdfrwt>
<totfact> 0.20911929E+03</totfact>
</mgrwt>
</event>
<event>
 7    1  0.6095443E-006  0.4874952E+03  0.7546771E-02  0.1017599E+00
         -1   -1    0    0    0  501 -0.00000000000E+00  0.00000000000E+00  0.26153140893E+03  0.26153140893E+03  0.00000000000E+00 0.  1.
          1   -1    0    0  501    0  0.00000000000E+00 -0.00000000000E+00 -0.10359095802E+04  0.10359095802E+04  0.00000000000E+00 0. -1.
         23    2    1    2    0    0 -0.45711549988E+03 -0.11432223286E+03 -0.15043631069E+03  0.51017899782E+03  0.12500949195E+03 0.  0.
          5    1    3    3  502    0 -0.43185396550E+03 -0.13664132214E+03 -0.13400690812E+03  0.47238611311E+03  0.47000000000E+01 0. -1.
         -5    1    3    3    0  502 -0.25261534380E+02  0.22319089277E+02 -0.16429402575E+02  0.37792884705E+02  0.47000000000E+01 0. -1.
        -11    1    1    2    0    0  0.16001815425E+03  0.32077539003E+02 -0.14865108296E+03  0.22075308076E+03  0.00000000000E+00 0.  1.
         11    1    1    2    0    0  0.29709734563E+03  0.82244693859E+02 -0.47529077762E+03  0.56650891055E+03  0.00000000000E+00 0. -1.
<mgrwt>
<rscale>  0 0.48563101E+03</rscale>
<asrwt>0</asrwt>
<pdfrwt beam="2">  1        1 0.15937071E+00 0.48749516E+03</pdfrwt>
<pdfrwt beam="1">  1       -1 0.40235601E-01 0.48749516E+03</pdfrwt>
<totfact> 0.89664288E+01</totfact>
</mgrwt>
</event>
<event>
 7    1  0.6095443E-006  0.1944951E+03  0.7546771E-02  0.1163788E+00
         -2   -1    0    0    0  501 -0.00000000000E+00  0.00000000000E+00  0.41364412848E+03  0.41364412848E+03  0.00000000000E+00 0. -1.
          2   -1    0    0  501    0  0.00000000000E+00 -0.00000000000E+00 -0.79581235774E+02  0.79581235774E+02  0.00000000000E+00 0.  1.
         23    2    1    2    0    0 -0.74039020306E+01 -0.93539420722E+02  0.21231519287E+03  0.26376760547E+03  0.12526439070E+03 0.  0.
          5    1    3    3  502    0  0.97939819311E+01  0.28129509348E+02  0.22590660937E+02  0.37677836188E+02  0.47000000000E+01 0.  1.
         -5    1    3    3    0  502 -0.17197883962E+02 -0.12166893007E+03  0.18972453193E+03  0.22608976928E+03  0.47000000000E+01 0.  1.
        -11    1    1    2    0    0  0.63135227622E+02  0.11641988028E+03  0.68748098136E+02  0.14921778208E+03  0.00000000000E+00 0.  1.
         11    1    1    2    0    0 -0.55731325591E+02 -0.22880459554E+02  0.52999601698E+02  0.80239976705E+02  0.00000000000E+00 0. -1.
<mgrwt>
<rscale>  0 0.18421187E+03</rscale>
<asrwt>0</asrwt>
<pdfrwt beam="2">  1        2 0.12243267E-01 0.19449514E+03</pdfrwt>
<pdfrwt beam="1">  1       -2 0.63637557E-01 0.19449514E+03</pdfrwt>
<totfact> 0.11523335E+03</totfact>
</mgrwt>
</event>
<event>
 7    1  0.6095443E-006  0.1578480E+03  0.7546771E-02  0.1198393E+00
         -4   -1    0    0    0  501 -0.00000000000E+00  0.00000000000E+00  0.11077406680E+03  0.11077406680E+03  0.00000000000E+00 0.  1.
          4   -1    0    0  501    0  0.00000000000E+00 -0.00000000000E+00 -0.19867726079E+03  0.19867726079E+03  0.00000000000E+00 0. -1.
         23    2    1    2    0    0 -0.31965105102E+02  0.90924826337E+02 -0.21529382633E+02  0.15930949010E+03  0.12500762909E+03 0.  0.
          5    1    3    3  502    0 -0.78727406419E+02  0.43860805573E+02 -0.31214171577E+01  0.90297331256E+02  0.47000000000E+01 0. -1.
         -5    1    3    3    0  502  0.46762301317E+02  0.47064020764E+02 -0.18407965475E+02  0.69012158841E+02  0.47000000000E+01 0. -1.
        -11    1    1    2    0    0  0.45601450745E+02 -0.10875678924E+02 -0.27111350082E+01  0.46958736728E+02  0.00000000000E+00 0.  1.
         11    1    1    2    0    0 -0.13636345643E+02 -0.80049147413E+02 -0.63662676353E+02  0.10318310077E+03  0.00000000000E+00 0. -1.
<mgrwt>
<rscale>  0 0.15170515E+03</rscale>
<asrwt>0</asrwt>
<pdfrwt beam="2">  1        4 0.30565732E-01 0.15784803E+03</pdfrwt>
<pdfrwt beam="1">  1       -4 0.17042164E-01 0.15784803E+03</pdfrwt>
<totfact> 0.52668323E+02</totfact>
</mgrwt>
</event>
<event>
 7    1  0.6095443E-006  0.1820255E+03  0.7546771E-02  0.1171276E+00
          2   -1    0    0  501    0  0.00000000000E+00  0.00000000000E+00  0.19473565274E+03  0.19473565274E+03  0.00000000000E+00 0. -1.
         -2   -1    0    0    0  501 -0.00000000000E+00 -0.00000000000E+00 -0.17303697053E+03  0.17303697053E+03  0.00000000000E+00 0.  1.
         23    2    1    2    0    0  0.72540995439E+02 -0.11066248664E+03 -0.54307653447E+02  0.18995425215E+03  0.12499965887E+03 0.  0.
          5    1    3    3  502    0 -0.19285268028E+02 -0.82183669658E+01  0.23492412352E+02  0.31834675381E+02  0.47000000000E+01 0.  1.
         -5    1    3    3    0  502  0.91826263467E+02 -0.10244411968E+03 -0.77800065799E+02  0.15811957677E+03  0.47000000000E+01 0.  1.
        -11    1    1    2    0    0 -0.51126361034E+02  0.13492863036E+02  0.44583238574E+00  0.52878737807E+02  0.00000000000E+00 0.  1.
         11    1    1    2    0    0 -0.21414634405E+02  0.97169623607E+02  0.75560503267E+02  0.12493963331E+03  0.00000000000E+00 0. -1.
<mgrwt>
<rscale>  0 0.17645780E+03</rscale>
<asrwt>0</asrwt>
<pdfrwt beam="1">  1        2 0.29959331E-01 0.18202554E+03</pdfrwt>
<pdfrwt beam="2">  1       -2 0.26621072E-01 0.18202554E+03</pdfrwt>
<totfact> 0.21942899E+03</totfact>
</mgrwt>
</event>
<event>
 7    1  0.6095443E-006  0.1402426E+03  0.7546771E-02  0.1238829E+00
          1   -1    0    0  501    0  0.00000000000E+00  0.00000000000E+00  0.25791640636E+03  0.25791640636E+03  0.00000000000E+00 0.  1.
         -1   -1    0    0    0  501 -0.00000000000E+00 -0.00000000000E+00 -0.47950062012E+02  0.47950062012E+02  0.00000000000E+00 0. -1.
         23    2    1    2    0    0  0.46405551121E+02 -0.43473444685E+02  0.12621887769E+03  0.18867747878E+03  0.12499828137E+03 0.  0.
          5    1    3    3  502    0 -0.28862208660E+02 -0.10604846350E+02 -0.72059853466E+01  0.31929705286E+02  0.47000000000E+01 0. -1.
         -5    1    3    3    0  502  0.75267759781E+02 -0.32868598336E+02  0.13342486304E+03  0.15674777349E+03  0.47000000000E+01 0. -1.
        -11    1    1    2    0    0  0.12337979021E+00  0.33971186978E+02  0.28558877659E+02  0.44380922257E+02  0.00000000000E+00 0. -1.
         11    1    1    2    0    0 -0.46528930911E+02  0.95022577070E+01  0.55188588996E+02  0.72808067333E+02  0.00000000000E+00 0.  1.
<mgrwt>
<rscale>  0 0.12262473E+03</rscale>
<asrwt>0</asrwt>
<pdfrwt beam="1">  1        1 0.39679446E-01 0.14024260E+03</pdfrwt>
<pdfrwt beam="2">  1       -1 0.73769328E-02 0.14024260E+03</pdfrwt>
<totfact> 0.98042599E+03</totfact>
</mgrwt>
</event>
<event>
 7    1  0.6095443E-006  0.1311694E+03  0.7546771E-02  0.1239038E+00
          2   -1    0    0  501    0  0.00000000000E+00  0.00000000000E+00  0.10600502072E+03  0.10600502072E+03  0.00000000000E+00 0. -1.
         -2   -1    0    0    0  501 -0.00000000000E+00 -0.00000000000E+00 -0.12693294522E+03  0.12693294522E+03  0.00000000000E+00 0.  1.
         23    2    1    2    0    0 -0.22839448676E+02 -0.32540023943E+02 -0.22914224919E+02  0.13315582726E+03  0.12499967622E+03 0.  0.
          5    1    3    3  502    0  0.23693595767E+02 -0.54143373463E+02 -0.47597668387E+02  0.76029727122E+02  0.47000000000E+01 0. -1.
         -5    1    3    3    0  502 -0.46533044443E+02  0.21603349520E+02  0.24683443468E+02  0.57126100138E+02  0.47000000000E+01 0. -1.
        -11    1    1    2    0    0  0.42877804126E+02 -0.16173333005E+02 -0.69658200736E+01  0.46353052072E+02  0.00000000000E+00 0.  1.
         11    1    1    2    0    0 -0.20038355450E+02  0.48713356948E+02  0.89521204875E+01  0.53429086606E+02  0.00000000000E+00 0. -1.
<mgrwt>
<rscale>  0 0.12249436E+03</rscale>
<asrwt>0</asrwt>
<pdfrwt beam="1">  1        2 0.16308465E-01 0.13116940E+03</pdfrwt>
<pdfrwt beam="2">  1       -2 0.19528145E-01 0.13116940E+03</pdfrwt>
<totfact> 0.72882825E+03</totfact>
</mgrwt>
</event>
<event>
 7    1  0.6095443E-006  0.1914190E+03  0.7546771E-02  0.1161978E+00
          1   -1    0    0  501    0  0.00000000000E+00  0.00000000000E+00  0.21918985164E+03  0.21918985164E+03  0.00000000000E+00 0. -1.
         -1   -1    0    0    0  501 -0.00000000000E+00 -0.00000000000E+00 -0.17182712788E+03  0.17182712788E+03  0.00000000000E+00 0.  1.
         23    2    1    2    0    0  0.14395401269E+03  0.17403769825E+02 -0.44784900673E+02  0.19658816998E+03  0.12496228340E+03 0.  0.
          5    1    3    3  502    0  0.28866294485E+00  0.30467477363E+02 -0.42160406417E+02  0.52229688611E+02  0.47000000000E+01 0. -1.
         -5    1    3    3    0  502  0.14366534975E+03 -0.13063707538E+02 -0.26244942564E+01  0.14435848137E+03  0.47000000000E+01 0. -1.
        -11    1    1    2    0    0 -0.99066228532E+02  0.61965765148E+01  0.12552405474E+02  0.10005037771E+03  0.00000000000E+00 0.  1.
         11    1    1    2    0    0 -0.44887784158E+02 -0.23600346339E+02  0.79595218958E+02  0.94378431831E+02  0.00000000000E+00 0. -1.
<mgrwt>
<rscale>  0 0.18615224E+03</rscale>
<asrwt>0</asrwt>
<pdfrwt beam="1">  1        1 0.33721516E-01 0.19141897E+03</pdfrwt>
<pdfrwt beam="2">  1       -1 0.26434943E-01 0.19141897E+03</pdfrwt>
<totfact> 0.16385460E+03</totfact>
</mgrwt>
</event>
<event>
 6    1  0.6095443E-006  0.1888927E+03  0.7546771E-02  0.1175438E+00
          1   -1    0    0  501    0  0.00000000000E+00  0.00000000000E+00  0.62847482578E+03  0.62847482578E+03  0.00000000000E+00 0. -1.
         -1   -1    0    0    0  501 -0.00000000000E+00 -0.00000000000E+00 -0.57247864716E+02  0.57247864716E+02  0.00000000000E+00 0.  1.
          5    1    1    2  502    0 -0.24204664396E+02 -0.30840467285E+02  0.87106808595E+02  0.95638309816E+02  0.47000000000E+01 0. -1.
         -5    1    1    2    0  502  0.37015918928E+02  0.12357786192E+03  0.53007306937E+02  0.13954759331E+03  0.47000000000E+01 0.  1.
        -11    1    1    2    0    0  0.20895490932E+02 -0.71648450015E+02  0.37121702811E+03  0.37864522166E+03  0.00000000000E+00 0. -1.
         11    1    1    2    0    0 -0.33706745464E+02 -0.21088944616E+02  0.59895817422E+02  0.71891565704E+02  0.00000000000E+00 0.  1.
<mgrwt>
<rscale>  0 0.17233184E+03</rscale>
<asrwt>0</asrwt>
<pdfrwt beam="1">  1        1 0.96688430E-01 0.18889268E+03</pdfrwt>
<pdfrwt beam="2">  1       -1 0.88073642E-02 0.18889268E+03</pdfrwt>
<totfact> 0.24214238E+03</totfact>
</mgrwt>
</event>
<event>
 7    1  0.6095443E-006  0.1253275E+03  0.7546771E-02  0.1246443E+00
          1   -1    0    0  501    0  0.00000000000E+00  0.00000000000E+00  0.22117602642E+03  0.22117602642E+03  0.00000000000E+00 0. -1.
         -1   -1    0    0    0  501 -0.00000000000E+00 -0.00000000000E+00 -0.61908719983E+02  0.61908719983E+02  0.00000000000E+00 0.  1.
         23    2    1    2    0    0 -0.56298062971E+01 -0.70317657526E+01  0.47247902556E+02  0.13393785796E+03  0.12500338015E+03 0.  0.
          5    1    3    3  502    0  0.46998750378E+02 -0.15570514530E+02  0.60971952928E+02  0.78682860291E+02  0.47000000000E+01 0.  1.
         -5    1    3    3    0  502 -0.52628556675E+02  0.85387487772E+01 -0.13724050372E+02  0.55254997665E+02  0.47000000000E+01 0.  1.
        -11    1    1    2    0    0 -0.36227385056E+02  0.10231717000E+02  0.10183201008E+02  0.38997551763E+02  0.00000000000E+00 0.  1.
         11    1    1    2    0    0  0.41857191353E+02 -0.31999512473E+01  0.10183620288E+03  0.11014933669E+03  0.00000000000E+00 0. -1.
<mgrwt>
<rscale>  0 0.11799440E+03</rscale>
<asrwt>0</asrwt>
<pdfrwt beam="1">  1        1 0.34027081E-01 0.12532751E+03</pdfrwt>
<pdfrwt beam="2">  1       -1 0.95244186E-02 0.12532751E+03</pdfrwt>
<totfact> 0.79914059E+03</totfact>
</mgrwt>
</event>
<event>
 7    1  0.6095443E-006  0.1276477E+03  0.7546771E-02  0.1248206E+00
         -2   -1    0    0    0  501 -0.00000000000E+00  0.00000000000E+00  0.38304837333E+02  0.38304837333E+02  0.00000000000E+00 0.  1.
          2   -1    0    0  501    0  0.00000000000E+00 -0.00000000000E+00 -0.33048928503E+03  0.33048928503E+03  0.00000000000E+00 0. -1.
         23    2    1    2    0    0 -0.23902050777E+02 -0.97623697753E+01 -0.12345238247E+03  0.17757934860E+03  0.12500928932E+03 0.  0.
          5    1    3    3  502    0 -0.72698178133E+02 -0.80490875349E+01 -0.48097094363E+02  0.87665462984E+02  0.47000000000E+01 0.  1.
         -5    1    3    3    0  502  0.48796127356E+02 -0.17132822404E+01 -0.75355288109E+02  0.89913885618E+02  0.47000000000E+01 0.  1.
        -11    1    1    2    0    0 -0.25463886664E+02  0.27396124250E+02 -0.75470538204E+02  0.84230394067E+02  0.00000000000E+00 0.  1.
         11    1    1    2    0    0  0.49365937441E+02 -0.17633754475E+02 -0.93261527024E+02  0.10698437970E+03  0.00000000000E+00 0. -1.
<mgrwt>
<rscale>  0 0.11695549E+03</rscale>
<asrwt>0</asrwt>
<pdfrwt beam="2">  1        2 0.50844506E-01 0.12764770E+03</pdfrwt>
<pdfrwt beam="1">  1       -2 0.58930518E-02 0.12764770E+03</pdfrwt>
<totfact> 0.14021589E+04</totfact>
</mgrwt>
</event>
<event>
 7    1  0.6095443E-006  0.1778662E+03  0.7546771E-02  0.1175139E+00
          2   -1    0    0  501    0  0.00000000000E+00  0.00000000000E+00  0.57282922359E+03  0.57282922359E+03  0.00000000000E+00 0. -1.
         -2   -1    0    0    0  501 -0.00000000000E+00 -0.00000000000E+00 -0.87643043974E+02  0.87643043974E+02  0.00000000000E+00 0.  1.
         23    2    1    2    0    0  0.85139911757E+02 -0.93609798520E+02  0.32162659083E+02  0.18075067119E+03  0.12499907817E+03 0.  0.
          5    1    3    3  502    0  0.82508046186E+02 -0.76509243387E+01  0.43794685291E+02  0.93841242470E+02  0.47000000000E+01 0.  1.
         -5    1    3    3    0  502  0.26318655713E+01 -0.85958874181E+02 -0.11632026208E+02  0.86909428721E+02  0.47000000000E+01 0.  1.
        -11    1    1    2    0    0 -0.10191976867E+03  0.77967618758E+02  0.32062647733E+03  0.34535188835E+03  0.00000000000E+00 0.  1.
         11    1    1    2    0    0  0.16779856913E+02  0.15642179762E+02  0.13239704320E+03  0.13436970802E+03  0.00000000000E+00 0. -1.
<mgrwt>
<rscale>  0 0.17262367E+03</rscale>
<asrwt>0</asrwt>
<pdfrwt beam="1">  1        2 0.88127570E-01 0.17786615E+03</pdfrwt>
<pdfrwt beam="2">  1       -2 0.13483546E-01 0.17786615E+03</pdfrwt>
<totfact> 0.21521415E+03</totfact>
</mgrwt>
</event>
<event>
 7    1  0.6095443E-006  0.1404850E+03  0.7546771E-02  0.1223113E+00
          1   -1    0    0  501    0  0.00000000000E+00  0.00000000000E+00  0.75604326506E+02  0.75604326506E+02  0.00000000000E+00 0. -1.
         -1   -1    0    0    0  501 -0.00000000000E+00 -0.00000000000E+00 -0.25769542606E+03  0.25769542606E+03  0.00000000000E+00 0.  1.
         23    2    1    2    0    0  0.62697019478E+02  0.13160387822E+02 -0.16903399168E+03  0.21979201896E+03  0.12502771371E+03 0.  0.
          5    1    3    3  502    0 -0.38305374506E+02  0.44911146595E+01 -0.42344794935E+02  0.57468630443E+02  0.47000000000E+01 0.  1.
         -5    1    3    3    0  502  0.10100239398E+03  0.86692731625E+01 -0.12668919675E+03  0.16232338852E+03  0.47000000000E+01 0.  1.
        -11    1    1    2    0    0 -0.54116539154E+02 -0.23734885124E+02 -0.47919297618E+02  0.76080244914E+02  0.00000000000E+00 0.  1.
         11    1    1    2    0    0 -0.85804803231E+01  0.10574497302E+02  0.34862189747E+02  0.37427488691E+02  0.00000000000E+00 0. -1.
<mgrwt>
<rscale>  0 0.13297063E+03</rscale>
<asrwt>0</asrwt>
<pdfrwt beam="1">  1        1 0.11631435E-01 0.14048502E+03</pdfrwt>
<pdfrwt beam="2">  1       -1 0.39645451E-01 0.14048502E+03</pdfrwt>
<totfact> 0.31678745E+03</totfact>
</mgrwt>
</event>
<event>
 7    1  0.6095443E-006  0.1593665E+03  0.7546771E-02  0.1196276E+00
         -2   -1    0    0    0  501 -0.00000000000E+00  0.00000000000E+00  0.13946398041E+03  0.13946398041E+03  0.00000000000E+00 0.  1.
          2   -1    0    0  501    0  0.00000000000E+00 -0.00000000000E+00 -0.19148695959E+03  0.19148695959E+03  0.00000000000E+00 0. -1.
         23    2    1    2    0    0 -0.92110902805E+02  0.35875888650E+02  0.41930003778E+02  0.16479015523E+03  0.12500468888E+03 0.  0.
          5    1    3    3  502    0  0.16148454370E+02 -0.43019313001E+01  0.45981163991E+02  0.49149126477E+02  0.47000000000E+01 0.  1.
         -5    1    3    3    0  502 -0.10825935718E+03  0.40177819950E+02 -0.40511602135E+01  0.11564102875E+03  0.47000000000E+01 0.  1.
        -11    1    1    2    0    0  0.75267781617E+02  0.14321132236E+02 -0.27977264706E+02  0.81566298914E+02  0.00000000000E+00 0. -1.
         11    1    1    2    0    0  0.16843121188E+02 -0.50197020886E+02 -0.65975718259E+02  0.84594485854E+02  0.00000000000E+00 0.  1.
<mgrwt>
<rscale>  0 0.15346740E+03</rscale>
<asrwt>0</asrwt>
<pdfrwt beam="2">  1        2 0.29459532E-01 0.15936646E+03</pdfrwt>
<pdfrwt beam="1">  1       -2 0.21455997E-01 0.15936646E+03</pdfrwt>
<totfact> 0.32372375E+03</totfact>
</mgrwt>
</event>
<event>
 7    1  0.6095443E-006  0.1285220E+03  0.7546771E-02  0.1244099E+00
         -2   -1    0    0    0  501 -0.00000000000E+00  0.00000000000E+00  0.62568505324E+03  0.62568505324E+03  0.00000000000E+00 0.  1.
          2   -1    0    0  501    0  0.00000000000E+00 -0.00000000000E+00 -0.20203145491E+02  0.20203145491E+02  0.00000000000E+00 0. -1.
         23    2    1    2    0    0  0.11758107894E+02 -0.27663163424E+02  0.37047513384E+03  0.39213484803E+03  0.12495763496E+03 0.  0.
          5    1    3    3  502    0 -0.10708447255E+02 -0.74532173720E+02  0.24118415945E+03  0.25270853672E+03  0.47000000000E+01 0. -1.
         -5    1    3    3    0  502  0.22466555148E+02  0.46869010297E+02  0.12929097439E+03  0.13942631131E+03  0.47000000000E+01 0. -1.
        -11    1    1    2    0    0 -0.50148469782E+02  0.36160526882E+01  0.11668845105E+03  0.12705959022E+03  0.00000000000E+00 0.  1.
         11    1    1    2    0    0  0.38390361888E+02  0.24047110735E+02  0.11831832286E+03  0.12669376048E+03  0.00000000000E+00 0. -1.
<mgrwt>
<rscale>  0 0.11939480E+03</rscale>
<asrwt>0</asrwt>
<pdfrwt beam="2">  1        2 0.31081767E-02 0.12852204E+03</pdfrwt>
<pdfrwt beam="1">  1       -2 0.96259225E-01 0.12852204E+03</pdfrwt>
<totfact> 0.26599331E+03</totfact>
</mgrwt>
</event>
<event>
 7    1  0.6095443E-006  0.1363099E+03  0.7546771E-02  0.1230442E+00
          2   -1    0    0  501    0  0.00000000000E+00  0.00000000000E+00  0.78663474042E+03  0.78663474042E+03  0.00000000000E+00 0. -1.
         -2   -1    0    0    0  501 -0.00000000000E+00 -0.00000000000E+00 -0.18683928818E+02  0.18683928818E+02  0.00000000000E+00 0.  1.
         23    2    1    2    0    0  0.12178055526E+02 -0.53019697987E+02  0.41828572040E+03  0.43993558859E+03  0.12498393819E+03 0.  0.
          5    1    3    3  502    0  0.75547085461E+01 -0.55818591762E+00 -0.70254322384E+01  0.11350413687E+02  0.47000000000E+01 0. -1.
         -5    1    3    3    0  502  0.46233469797E+01 -0.52461512069E+02  0.42531115264E+03  0.42858517490E+03  0.47000000000E+01 0. -1.
        -11    1    1    2    0    0 -0.38601598175E+02  0.37705113159E+02  0.31321610823E+03  0.31783028394E+03  0.00000000000E+00 0. -1.
         11    1    1    2    0    0  0.26423542649E+02  0.15314584828E+02  0.36448982973E+02  0.47552796704E+02  0.00000000000E+00 0.  1.
<mgrwt>
<rscale>  0 0.12800796E+03</rscale>
<asrwt>0</asrwt>
<pdfrwt beam="1">  1        2 0.12102070E+00 0.13630986E+03</pdfrwt>
<pdfrwt beam="2">  1       -2 0.28744512E-02 0.13630986E+03</pdfrwt>
<totfact> 0.15590515E+04</totfact>
</mgrwt>
</event>
<event>
 7    1  0.6095443E-006  0.1566317E+03  0.7546771E-02  0.1204197E+00
         -2   -1    0    0    0  501 -0.00000000000E+00  0.00000000000E+00  0.52840814111E+02  0.52840814111E+02  0.00000000000E+00 0.  1.
          2   -1    0    0  501    0  0.00000000000E+00 -0.00000000000E+00 -0.36731421388E+03  0.36731421388E+03  0.00000000000E+00 0. -1.
         23    2    1    2    0    0 -0.94379450820E+02  0.44976602167E+00 -0.16508737680E+03  0.22756831431E+03  0.12500325065E+03 0.  0.
          5    1    3    3  502    0 -0.14546785274E+02  0.56136754323E+02 -0.49546957941E+02  0.76419468651E+02  0.47000000000E+01 0.  1.
         -5    1    3    3    0  502 -0.79832665546E+02 -0.55686988301E+02 -0.11554041886E+03  0.15114884566E+03  0.47000000000E+01 0.  1.
        -11    1    1    2    0    0  0.22431122621E+02 -0.26933796846E+02 -0.15548136550E+02  0.38344872209E+02  0.00000000000E+00 0.  1.
         11    1    1    2    0    0  0.71948328199E+02  0.26484030824E+02 -0.13383788642E+03  0.15424184147E+03  0.00000000000E+00 0. -1.
<mgrwt>
<rscale>  0 0.14700938E+03</rscale>
<asrwt>0</asrwt>
<pdfrwt beam="2">  1        2 0.56509880E-01 0.15663172E+03</pdfrwt>
<pdfrwt beam="1">  1       -2 0.81293559E-02 0.15663172E+03</pdfrwt>
<totfact> 0.77724408E+03</totfact>
</mgrwt>
</event>
<event>
 7    1  0.6095443E-006  0.1391764E+03  0.7546771E-02  0.1226022E+00
          1   -1    0    0  501    0  0.00000000000E+00  0.00000000000E+00  0.91775660600E+01  0.91775660600E+01  0.00000000000E+00 0. -1.
         -1   -1    0    0    0  501 -0.00000000000E+00 -0.00000000000E+00 -0.17904144707E+04  0.17904144707E+04  0.00000000000E+00 0.  1.
         23    2    1    2    0    0 -0.60807851714E+02  0.71404975201E+01 -0.12138345220E+04  0.12217873417E+04  0.12498591881E+03 0.  0.
          5    1    3    3  502    0 -0.36555581523E+02  0.19575016371E+02 -0.11068132969E+03  0.11828752491E+03  0.47000000000E+01 0.  1.
         -5    1    3    3    0  502 -0.24252270192E+02 -0.12434518851E+02 -0.11031531923E+04  0.11034998168E+04  0.47000000000E+01 0.  1.
        -11    1    1    2    0    0  0.35780763988E+02 -0.48816010952E+02 -0.31116977988E+03  0.31700141625E+03  0.00000000000E+00 0.  1.
         11    1    1    2    0    0  0.25027087726E+02  0.41675513432E+02 -0.25623260269E+03  0.26080327878E+03  0.00000000000E+00 0. -1.
<mgrwt>
<rscale>  0 0.13097122E+03</rscale>
<asrwt>0</asrwt>
<pdfrwt beam="1">  1        1 0.14119333E-02 0.13917637E+03</pdfrwt>
<pdfrwt beam="2">  1       -1 0.27544837E+00 0.13917637E+03</pdfrwt>
<totfact> 0.54091852E+02</totfact>
</mgrwt>
</event>
<event>
 7    1  0.6095443E-006  0.1634214E+03  0.7546771E-02  0.1192083E+00
          3   -1    0    0  501    0  0.00000000000E+00  0.00000000000E+00  0.11930685141E+03  0.11930685141E+03  0.00000000000E+00 0. -1.
         -3   -1    0    0    0  501 -0.00000000000E+00 -0.00000000000E+00 -0.19402285631E+03  0.19402285631E+03  0.00000000000E+00 0.  1.
         23    2    1    2    0    0  0.70409411697E+02 -0.78258144475E+02 -0.55923304741E+02  0.17272509614E+03  0.12499888157E+03 0.  0.
          5    1    3    3  502    0  0.64712176838E+02 -0.11116323585E+03 -0.51819289817E+02  0.13875251217E+03  0.47000000000E+01 0.  1.
         -5    1    3    3    0  502  0.56972348585E+01  0.32905091376E+02 -0.41040149236E+01  0.33972583975E+02  0.47000000000E+01 0.  1.
        -11    1    1    2    0    0 -0.43843111822E+01 -0.94835036379E+01 -0.28512789720E+02  0.30366728559E+02  0.00000000000E+00 0.  1.
         11    1    1    2    0    0 -0.66025100514E+02  0.87741648113E+02  0.97200895563E+01  0.11023788302E+03  0.00000000000E+00 0. -1.
<mgrwt>
<rscale>  0 0.15703735E+03</rscale>
<asrwt>0</asrwt>
<pdfrwt beam="1">  1        3 0.18354900E-01 0.16342137E+03</pdfrwt>
<pdfrwt beam="2">  1       -3 0.29849670E-01 0.16342137E+03</pdfrwt>
<totfact> 0.67266856E+02</totfact>
</mgrwt>
</event>
<event>
 7    1  0.6095443E-006  0.1700655E+03  0.7546771E-02  0.1182009E+00
         -1   -1    0    0    0  501 -0.00000000000E+00  0.00000000000E+00  0.10036693799E+03  0.10036693799E+03  0.00000000000E+00 0.  1.
          1   -1    0    0  501    0  0.00000000000E+00 -0.00000000000E+00 -0.29190095088E+03  0.29190095088E+03  0.00000000000E+00 0. -1.
         23    2    1    2    0    0 -0.23092443099E+02  0.12301220100E+03 -0.37801348520E+02  0.17421602193E+03  0.11513912378E+03 0.  0.
          5    1    3    3  502    0  0.42047214476E+02  0.17174341003E+02 -0.11776632839E+02  0.47156180031E+02  0.47000000000E+01 0. -1.
         -5    1    3    3    0  502 -0.65139657575E+02  0.10583786000E+03 -0.26024715681E+02  0.12705984190E+03  0.47000000000E+01 0.  1.
        -11    1    1    2    0    0  0.19770670022E+02 -0.13790143458E+03 -0.13652839695E+03  0.19505816626E+03  0.00000000000E+00 0. -1.
         11    1    1    2    0    0  0.33217730771E+01  0.14889233581E+02 -0.17204267426E+02  0.22993700674E+02  0.00000000000E+00 0.  1.
<mgrwt>
<rscale>  0 0.16607000E+03</rscale>
<asrwt>0</asrwt>
<pdfrwt beam="2">  1        1 0.44907838E-01 0.17006552E+03</pdfrwt>
<pdfrwt beam="1">  1       -1 0.15441068E-01 0.17006552E+03</pdfrwt>
<totfact> 0.27282245E+03</totfact>
</mgrwt>
</event>
<event>
 7    1  0.6095443E-006  0.1264882E+03  0.7546771E-02  0.1247688E+00
          1   -1    0    0  501    0  0.00000000000E+00  0.00000000000E+00  0.13386930601E+03  0.13386930601E+03  0.00000000000E+00 0. -1.
         -1   -1    0    0    0  501 -0.00000000000E+00 -0.00000000000E+00 -0.90921144916E+02  0.90921144916E+02  0.00000000000E+00 0.  1.
         23    2    1    2    0    0 -0.18612178575E+02  0.53339885392E+01  0.15577592354E+02  0.12744380279E+03  0.12499758742E+03 0.  0.
          5    1    3    3  502    0 -0.21532224669E+02 -0.67894166441E+01 -0.52885967618E+02  0.57695306988E+02  0.47000000000E+01 0. -1.
         -5    1    3    3    0  502  0.29200460940E+01  0.12123405183E+02  0.68463559972E+02  0.69748495801E+02  0.47000000000E+01 0. -1.
        -11    1    1    2    0    0 -0.25168184826E+02  0.20816746337E+02 -0.99610751678E+01  0.34146705170E+02  0.00000000000E+00 0.  1.
         11    1    1    2    0    0  0.43780363400E+02 -0.26150734877E+02  0.37331643908E+02  0.63199942966E+02  0.00000000000E+00 0. -1.
<mgrwt>
<rscale>  0 0.11725921E+03</rscale>
<asrwt>0</asrwt>
<pdfrwt beam="1">  1        1 0.20595278E-01 0.12648819E+03</pdfrwt>
<pdfrwt beam="2">  1       -1 0.13987868E-01 0.12648819E+03</pdfrwt>
<totfact> 0.82955403E+03</totfact>
</mgrwt>
</event>
<event>
 7    1  0.6095443E-006  0.1256357E+03  0.7546771E-02  0.1248357E+00
         -4   -1    0    0    0  501 -0.00000000000E+00  0.00000000000E+00  0.78747959518E+02  0.78747959518E+02  0.00000000000E+00 0.  1.
          4   -1    0    0  501    0  0.00000000000E+00 -0.00000000000E+00 -0.15360765020E+03  0.15360765020E+03  0.00000000000E+00 0. -1.
         23    2    1    2    0    0 -0.69650046225E+01 -0.10583827726E+02 -0.37151496343E+02  0.13101363013E+03  0.12499523551E+03 0.  0.
          5    1    3    3  502    0  0.20601066705E+02  0.52294672128E+02 -0.22053457469E+02  0.60560561992E+02  0.47000000000E+01 0.  1.
         -5    1    3    3    0  502 -0.27566071328E+02 -0.62878499855E+02 -0.15098038874E+02  0.70453068139E+02  0.47000000000E+01 0.  1.
        -11    1    1    2    0    0  0.23283381781E+02 -0.18422573171E+02  0.19241812873E+02  0.35380141775E+02  0.00000000000E+00 0.  1.
         11    1    1    2    0    0 -0.16318377158E+02  0.29006400897E+02 -0.56950007212E+02  0.65961837812E+02  0.00000000000E+00 0. -1.
<mgrwt>
<rscale>  0 0.11686711E+03</rscale>
<asrwt>0</asrwt>
<pdfrwt beam="2">  1        4 0.23631946E-01 0.12563573E+03</pdfrwt>
<pdfrwt beam="1">  1       -4 0.12115071E-01 0.12563573E+03</pdfrwt>
<totfact> 0.14709504E+03</totfact>
</mgrwt>
</event>
<event>
 7    1  0.6095443E-006  0.1474954E+03  0.7546771E-02  0.1213190E+00
         -2   -1    0    0    0  501 -0.00000000000E+00  0.00000000000E+00  0.18160593495E+03  0.18160593495E+03  0.00000000000E+00 0.  1.
          2   -1    0    0  501    0  0.00000000000E+00 -0.00000000000E+00 -0.10479002023E+03  0.10479002023E+03  0.00000000000E+00 0. -1.
         23    2    1    2    0    0  0.39206717396E+02 -0.67766334873E+02  0.76859454582E+02  0.16631974240E+03  0.12500175248E+03 0.  0.
          5    1    3    3  502    0  0.29385901661E+02 -0.10361323527E+03  0.43818935505E+02  0.11636761942E+03  0.47000000000E+01 0.  1.
         -5    1    3    3    0  502  0.98208157341E+01  0.35846900399E+02  0.33040519077E+02  0.49952122985E+02  0.47000000000E+01 0.  1.
        -11    1    1    2    0    0 -0.60128541149E+02  0.61250427442E+02  0.22402899945E+02  0.88707081163E+02  0.00000000000E+00 0.  1.
         11    1    1    2    0    0  0.20921823753E+02  0.65159074310E+01 -0.22446439807E+02  0.31369131624E+02  0.00000000000E+00 0. -1.
<mgrwt>
<rscale>  0 0.14010318E+03</rscale>
<asrwt>0</asrwt>
<pdfrwt beam="2">  1        2 0.16121542E-01 0.14749536E+03</pdfrwt>
<pdfrwt beam="1">  1       -2 0.27939375E-01 0.14749536E+03</pdfrwt>
<totfact> 0.40048463E+03</totfact>
</mgrwt>
</event>
<event>
 7    1  0.6095443E-006  0.1269195E+03  0.7546771E-02  0.1247887E+00
          4   -1    0    0  501    0  0.00000000000E+00  0.00000000000E+00  0.11834480109E+03  0.11834480109E+03  0.00000000000E+00 0. -1.
         -4   -1    0    0    0  501 -0.00000000000E+00 -0.00000000000E+00 -0.11539724400E+03  0.11539724400E+03  0.00000000000E+00 0.  1.
         23    2    1    2    0    0  0.20270769843E+02 -0.85172354466E+01 -0.38659556384E+02  0.13267679232E+03  0.12500049004E+03 0.  0.
          5    1    3    3  502    0  0.53376446248E+02  0.13446689054E+00 -0.68545019313E+02  0.87003291707E+02  0.47000000000E+01 0. -1.
         -5    1    3    3    0  502 -0.33105676405E+02 -0.86517023371E+01  0.29885462929E+02  0.45673500610E+02  0.47000000000E+01 0. -1.
        -11    1    1    2    0    0 -0.47416485887E+02 -0.17832038833E+02  0.37466887583E+02  0.63008510599E+02  0.00000000000E+00 0. -1.
         11    1    1    2    0    0  0.27145716044E+02  0.26349274280E+02  0.41402258929E+01  0.38056742176E+02  0.00000000000E+00 0.  1.
<mgrwt>
<rscale>  0 0.11714271E+03</rscale>
<asrwt>0</asrwt>
<pdfrwt beam="1">  1        4 0.18206893E-01 0.12691954E+03</pdfrwt>
<pdfrwt beam="2">  1       -4 0.17753422E-01 0.12691954E+03</pdfrwt>
<totfact> 0.12137206E+03</totfact>
</mgrwt>
</event>
<event>
 7    1  0.6095443E-006  0.1573223E+03  0.7546771E-02  0.1202750E+00
         -2   -1    0    0    0  501 -0.00000000000E+00  0.00000000000E+00  0.13796737747E+03  0.13796737747E+03  0.00000000000E+00 0.  1.
          2   -1    0    0  501    0  0.00000000000E+00 -0.00000000000E+00 -0.15087899531E+03  0.15087899531E+03  0.00000000000E+00 0. -1.
         23    2    1    2    0    0  0.54666308398E+02 -0.78338378179E+02  0.25254561913E+02  0.15933641119E+03  0.12499996905E+03 0.  0.
          5    1    3    3  502    0  0.17209060433E+02  0.34051622836E+02  0.18390835050E+01  0.38485542830E+02  0.47000000000E+01 0.  1.
         -5    1    3    3    0  502  0.37457247965E+02 -0.11239000102E+03  0.23415478408E+02  0.12085086836E+03  0.47000000000E+01 0.  1.
        -11    1    1    2    0    0 -0.44983119147E+01  0.64632035503E+02 -0.42243538117E+02  0.77343722021E+02  0.00000000000E+00 0. -1.
         11    1    1    2    0    0 -0.50167996483E+02  0.13706342676E+02  0.40773583628E+01  0.52166239580E+02  0.00000000000E+00 0.  1.
<mgrwt>
<rscale>  0 0.14816187E+03</rscale>
<asrwt>0</asrwt>
<pdfrwt beam="2">  1        2 0.23212153E-01 0.15732228E+03</pdfrwt>
<pdfrwt beam="1">  1       -2 0.21225751E-01 0.15732228E+03</pdfrwt>
<totfact> 0.42861721E+03</totfact>
</mgrwt>
</event>
<event>
 7    1  0.6095443E-006  0.1462208E+03  0.7546771E-02  0.1214976E+00
          1   -1    0    0  501    0  0.00000000000E+00  0.00000000000E+00  0.68865752774E+03  0.68865752774E+03  0.00000000000E+00 0. -1.
         -1   -1    0    0    0  501 -0.00000000000E+00 -0.00000000000E+00 -0.26038752551E+02  0.26038752551E+02  0.00000000000E+00 0.  1.
         23    2    1    2    0    0 -0.57021514089E+02  0.50021611543E+02  0.31255627276E+03  0.34506804087E+03  0.12500765774E+03 0.  0.
          5    1    3    3  502    0 -0.36804574714E+02 -0.16315078870E+02  0.21607779702E+02  0.45931956872E+02  0.47000000000E+01 0.  1.
         -5    1    3    3    0  502 -0.20216939375E+02  0.66336690413E+02  0.29094849306E+03  0.29913608399E+03  0.47000000000E+01 0.  1.
        -11    1    1    2    0    0  0.16568426032E+02  0.26741786836E+02  0.79744148594E+02  0.85724938842E+02  0.00000000000E+00 0.  1.
         11    1    1    2    0    0  0.40453088058E+02 -0.76763398379E+02  0.27031835383E+03  0.28390330058E+03  0.00000000000E+00 0. -1.
<mgrwt>
<rscale>  0 0.13878329E+03</rscale>
<asrwt>0</asrwt>
<pdfrwt beam="1">  1        1 0.10594730E+00 0.14622082E+03</pdfrwt>
<pdfrwt beam="2">  1       -1 0.40059624E-02 0.14622082E+03</pdfrwt>
<totfact> 0.68569644E+03</totfact>
</mgrwt>
</event>
<event>
 7    1  0.6095443E-006  0.1419163E+03  0.7546771E-02  0.1221510E+00
         -2   -1    0    0    0  501 -0.00000000000E+00  0.00000000000E+00  0.26063592342E+02  0.26063592342E+02  0.00000000000E+00 0.  1.
          2   -1    0    0  501    0  0.00000000000E+00 -0.00000000000E+00 -0.63133523630E+03  0.63133523630E+03  0.00000000000E+00 0. -1.
         23    2    1    2    0    0  0.24586292313E+02 -0.62541240437E+02 -0.30080691126E+03  0.33260342533E+03  0.12499739259E+03 0.  0.
          5    1    3    3  502    0 -0.12575515815E+02  0.24729493875E+02 -0.15977322396E+02  0.32358249277E+02  0.47000000000E+01 0.  1.
         -5    1    3    3    0  502  0.37161808128E+02 -0.87270734313E+02 -0.28482958887E+03  0.30024517605E+03  0.47000000000E+01 0.  1.
        -11    1    1    2    0    0  0.30341692356E+02  0.11776818023E+02 -0.14575775273E+03  0.14934736094E+03  0.00000000000E+00 0. -1.
         11    1    1    2    0    0 -0.54927984669E+02  0.50764422415E+02 -0.15870697997E+03  0.17544804238E+03  0.00000000000E+00 0.  1.
<mgrwt>
<rscale>  0 0.13409018E+03</rscale>
<asrwt>0</asrwt>
<pdfrwt beam="2">  1        2 0.97128491E-01 0.14191632E+03</pdfrwt>
<pdfrwt beam="1">  1       -2 0.40097837E-02 0.14191632E+03</pdfrwt>
<totfact> 0.12427700E+04</totfact>
</mgrwt>
</event>
<event>
 7    1  0.6095443E-006  0.2362474E+03  0.7546771E-02  0.1125748E+00
         -2   -1    0    0    0  501 -0.00000000000E+00  0.00000000000E+00  0.85691934743E+02  0.85691934743E+02  0.00000000000E+00 0. -1.
          2   -1    0    0  501    0  0.00000000000E+00 -0.00000000000E+00 -0.60267202353E+03  0.60267202353E+03  0.00000000000E+00 0.  1.
         23    2    1    2    0    0  0.75418825203E+02 -0.16049834038E+03 -0.22158550753E+03  0.31011698736E+03  0.12499876895E+03 0.  0.
          5    1    3    3  502    0  0.23145912855E+02 -0.42381348552E+02 -0.15952022563E+03  0.16673543226E+03  0.47000000000E+01 0. -1.
         -5    1    3    3    0  502  0.52272912348E+02 -0.11811699183E+03 -0.62065281906E+02  0.14338155509E+03  0.47000000000E+01 0. -1.
        -11    1    1    2    0    0  0.40123484306E+02  0.60990523216E+02 -0.47140784794E+02  0.86902195058E+02  0.00000000000E+00 0.  1.
         11    1    1    2    0    0 -0.11554230951E+03  0.99507817162E+02 -0.24825379646E+03  0.29134477585E+03  0.00000000000E+00 0. -1.
<mgrwt>
<rscale>  0 0.23127091E+03</rscale>
<asrwt>0</asrwt>
<pdfrwt beam="2">  1        2 0.92718774E-01 0.23624735E+03</pdfrwt>
<pdfrwt beam="1">  1       -2 0.13183374E-01 0.23624735E+03</pdfrwt>
<totfact> 0.21188378E+03</totfact>
</mgrwt>
</event>
<event>
 7    1  0.7146529E-006  0.1267217E+03  0.7546771E-02  0.1256718E+00
         -1   -1    0    0    0  501 -0.00000000000E+00  0.00000000000E+00  0.18892263504E+02  0.18892263504E+02  0.00000000000E+00 0.  1.
          1   -1    0    0  501    0  0.00000000000E+00 -0.00000000000E+00 -0.57699403396E+03  0.57699403396E+03  0.00000000000E+00 0. -1.
         23    2    1    2    0    0 -0.11772916810E+02  0.17170619040E+02 -0.28364867560E+03  0.31066859029E+03  0.12499988038E+03 0.  0.
          5    1    3    3  502    0 -0.61713154226E+02  0.36245211732E+02 -0.13958405831E+03  0.15693319634E+03  0.47000000000E+01 0.  1.
         -5    1    3    3    0  502  0.49940237416E+02 -0.19074592693E+02 -0.14406461728E+03  0.15373539395E+03  0.47000000000E+01 0.  1.
        -11    1    1    2    0    0 -0.16794509340E+01  0.29071513996E+02 -0.90797783981E+02  0.95353086250E+02  0.00000000000E+00 0.  1.
         11    1    1    2    0    0  0.13452367744E+02 -0.46242133035E+02 -0.18365531088E+03  0.18986462093E+03  0.00000000000E+00 0. -1.
<mgrwt>
<rscale>  0 0.11210623E+03</rscale>
<asrwt>0</asrwt>
<pdfrwt beam="2">  1        1 0.88768301E-01 0.12672175E+03</pdfrwt>
<pdfrwt beam="1">  1       -1 0.29065025E-02 0.12672175E+03</pdfrwt>
<totfact> 0.13863559E+04</totfact>
</mgrwt>
</event>
<event>
 7    1  0.6095443E-006  0.1320378E+03  0.7546771E-02  0.1238706E+00
         -2   -1    0    0    0  501 -0.00000000000E+00  0.00000000000E+00  0.19109190132E+02  0.19109190132E+02  0.00000000000E+00 0.  1.
          2   -1    0    0  501    0  0.00000000000E+00 -0.00000000000E+00 -0.69898533769E+03  0.69898533769E+03  0.00000000000E+00 0. -1.
         23    2    1    2    0    0  0.43807943779E+02 -0.82310945690E+01 -0.41556175920E+03  0.43603390824E+03  0.12428638929E+03 0.  0.
          5    1    3    3  502    0  0.45755323511E+02 -0.56288665168E+02 -0.15722493149E+03  0.17321585533E+03  0.47000000000E+01 0. -1.
         -5    1    3    3    0  502 -0.19473797318E+01  0.48057570599E+02 -0.25833682772E+03  0.26281805291E+03  0.47000000000E+01 0. -1.
        -11    1    1    2    0    0  0.24663592923E+02 -0.72122946212E+01 -0.10261941754E+03  0.10578778221E+03  0.00000000000E+00 0. -1.
         11    1    1    2    0    0 -0.68471536702E+02  0.15443389190E+02 -0.16169497082E+03  0.17627283737E+03  0.00000000000E+00 0.  1.
<mgrwt>
<rscale>  0 0.12270110E+03</rscale>
<asrwt>0</asrwt>
<pdfrwt beam="2">  1        2 0.10753619E+00 0.13203785E+03</pdfrwt>
<pdfrwt beam="1">  1       -2 0.29398758E-02 0.13203785E+03</pdfrwt>
<totfact> 0.17359908E+04</totfact>
</mgrwt>
</event>
<event>
 7    1  0.6095443E-006  0.2338279E+03  0.7546771E-02  0.1126945E+00
          2   -1    0    0  501    0  0.00000000000E+00  0.00000000000E+00  0.15363098889E+04  0.15363098889E+04  0.00000000000E+00 0. -1.
         -2   -1    0    0    0  501 -0.00000000000E+00 -0.00000000000E+00 -0.33132373799E+02  0.33132373799E+02  0.00000000000E+00 0.  1.
         23    2    1    2    0    0  0.33351599240E+02  0.19477709453E+03  0.79990465202E+03  0.83338043347E+03  0.12500019534E+03 0.  0.
          5    1    3    3  502    0  0.65172412672E+02  0.61046036094E+02  0.22199541799E+03  0.23932847199E+03  0.47000000000E+01 0.  1.
         -5    1    3    3    0  502 -0.31820813431E+02  0.13373105844E+03  0.57790923403E+03  0.59405196148E+03  0.47000000000E+01 0.  1.
        -11    1    1    2    0    0  0.59869332454E+00 -0.10648868686E+03  0.50854868765E+03  0.51957864330E+03  0.00000000000E+00 0. -1.
         11    1    1    2    0    0 -0.33950292565E+02 -0.88288407676E+02  0.19472417545E+03  0.21648318595E+03  0.00000000000E+00 0.  1.
<mgrwt>
<rscale>  0 0.22956647E+03</rscale>
<asrwt>0</asrwt>
<pdfrwt beam="1">  1        2 0.23635531E+00 0.23382792E+03</pdfrwt>
<pdfrwt beam="2">  1       -2 0.50972895E-02 0.23382792E+03</pdfrwt>
<totfact> 0.24810268E+03</totfact>
</mgrwt>
</event>
<event>
 7    1  0.6095443E-006  0.1244969E+03  0.7546771E-02  0.1247598E+00
          2   -1    0    0  501    0  0.00000000000E+00  0.00000000000E+00  0.32147180389E+03  0.32147180389E+03  0.00000000000E+00 0. -1.
         -2   -1    0    0    0  501 -0.00000000000E+00 -0.00000000000E+00 -0.62638205158E+02  0.62638205158E+02  0.00000000000E+00 0.  1.
         23    2    1    2    0    0  0.23683102934E+02  0.95936189065E+01  0.20260008501E+02  0.12613459894E+03  0.12184638779E+03 0.  0.
          5    1    3    3  502    0 -0.19865193748E+02  0.24541133271E+00  0.61777830832E+02  0.65063634480E+02  0.47000000000E+01 0. -1.
         -5    1    3    3    0  502  0.43548296682E+02  0.93482075737E+01 -0.41517822331E+02  0.61070964458E+02  0.47000000000E+01 0.  1.
        -11    1    1    2    0    0  0.65909232527E+01 -0.44949825141E+02  0.72987319915E+02  0.85971366849E+02  0.00000000000E+00 0.  1.
         11    1    1    2    0    0 -0.30274026187E+02  0.35356206234E+02  0.16558627032E+03  0.17200404326E+03  0.00000000000E+00 0. -1.
<mgrwt>
<rscale>  0 0.11731252E+03</rscale>
<asrwt>0</asrwt>
<pdfrwt beam="1">  1        2 0.49457200E-01 0.12449686E+03</pdfrwt>
<pdfrwt beam="2">  1       -2 0.96366472E-02 0.12449686E+03</pdfrwt>
<totfact> 0.67704433E+03</totfact>
</mgrwt>
</event>
<event>
 7    1  0.6095443E-006  0.1322091E+03  0.7546771E-02  0.1259361E+00
         -4   -1    0    0    0  501 -0.00000000000E+00  0.00000000000E+00  0.29452143475E+03  0.29452143475E+03  0.00000000000E+00 0.  1.
          4   -1    0    0  501    0  0.00000000000E+00 -0.00000000000E+00 -0.49333186220E+02  0.49333186220E+02  0.00000000000E+00 0. -1.
         23    2    1    2    0    0  0.16622917285E+02  0.39708115796E+02  0.24565558941E+03  0.27897294191E+03  0.12500471137E+03 0.  0.
          5    1    3    3  502    0 -0.27698881805E+02 -0.30526156528E+02  0.42238658334E+02  0.59205308407E+02  0.47000000000E+01 0.  1.
         -5    1    3    3    0  502  0.44321799091E+02  0.70234272324E+02  0.20341693108E+03  0.21976763350E+03  0.47000000000E+01 0.  1.
        -11    1    1    2    0    0  0.17268335241E+02 -0.11128688306E+02 -0.46007647826E+00  0.20548838794E+02  0.00000000000E+00 0. -1.
         11    1    1    2    0    0 -0.33891252526E+02 -0.28579427490E+02 -0.72644090905E-02  0.44332840268E+02  0.00000000000E+00 0.  1.
<mgrwt>
<rscale>  0 0.11065565E+03</rscale>
<asrwt>0</asrwt>
<pdfrwt beam="2">  1        4 0.75897211E-02 0.13220905E+03</pdfrwt>
<pdfrwt beam="1">  1       -4 0.45310989E-01 0.13220905E+03</pdfrwt>
<totfact> 0.93897136E+02</totfact>
</mgrwt>
</event>
<event>
 7    1  0.6095443E-006  0.1271507E+03  0.7546771E-02  0.1262536E+00
          2   -1    0    0  501    0  0.00000000000E+00  0.00000000000E+00  0.45972666022E+03  0.45972666022E+03  0.00000000000E+00 0. -1.
         -2   -1    0    0    0  501 -0.00000000000E+00 -0.00000000000E+00 -0.22993866459E+02  0.22993866459E+02  0.00000000000E+00 0.  1.
         23    2    1    2    0    0 -0.76411705228E+01  0.21997104360E+02  0.20651376947E+03  0.24251855197E+03  0.12500020392E+03 0.  0.
          5    1    3    3  502    0  0.28438699415E+02  0.57858640445E+02  0.63330255285E+02  0.90494160767E+02  0.47000000000E+01 0. -1.
         -5    1    3    3    0  502 -0.36079869938E+02 -0.35861536085E+02  0.14318351418E+03  0.15202439120E+03  0.47000000000E+01 0. -1.
        -11    1    1    2    0    0 -0.28324621511E+02 -0.99086082281E+01  0.11735430801E+03  0.12113008838E+03  0.00000000000E+00 0. -1.
         11    1    1    2    0    0  0.35965792034E+02 -0.12088496132E+02  0.11286471628E+03  0.11907188634E+03  0.00000000000E+00 0.  1.
<mgrwt>
<rscale>  0 0.10894502E+03</rscale>
<asrwt>0</asrwt>
<pdfrwt beam="1">  1        2 0.70727172E-01 0.12715074E+03</pdfrwt>
<pdfrwt beam="2">  1       -2 0.35375183E-02 0.12715074E+03</pdfrwt>
<totfact> 0.21118761E+04</totfact>
</mgrwt>
</event>
<event>
 7    1  0.6095443E-006  0.1298627E+03  0.7546771E-02  0.1241213E+00
          2   -1    0    0  501    0  0.00000000000E+00  0.00000000000E+00  0.21926632624E+03  0.21926632624E+03  0.00000000000E+00 0. -1.
         -2   -1    0    0    0  501 -0.00000000000E+00 -0.00000000000E+00 -0.68110011813E+02  0.68110011813E+02  0.00000000000E+00 0.  1.
         23    2    1    2    0    0  0.27561799688E+02 -0.21910399073E+02  0.33682546298E+02  0.13415969213E+03  0.12499836270E+03 0.  0.
          5    1    3    3  502    0 -0.12405349028E+02 -0.59206175025E+02 -0.13080276414E+02  0.62068087426E+02  0.47000000000E+01 0.  1.
         -5    1    3    3    0  502  0.39967148717E+02  0.37295775952E+02  0.46762822712E+02  0.72091604701E+02  0.47000000000E+01 0.  1.
        -11    1    1    2    0    0 -0.10797801063E+02 -0.19289634205E+02  0.10460086757E+03  0.10691129029E+03  0.00000000000E+00 0. -1.
         11    1    1    2    0    0 -0.16763998626E+02  0.41200033279E+02  0.12872900567E+02  0.46305355642E+02  0.00000000000E+00 0.  1.
<mgrwt>
<rscale>  0 0.12114933E+03</rscale>
<asrwt>0</asrwt>
<pdfrwt beam="1">  1        2 0.33733280E-01 0.12986265E+03</pdfrwt>
<pdfrwt beam="2">  1       -2 0.10478464E-01 0.12986265E+03</pdfrwt>
<totfact> 0.89379678E+03</totfact>
</mgrwt>
</event>
<event>
 7    1  0.6095443E-006  0.1287892E+03  0.7546771E-02  0.1244568E+00
         -2   -1    0    0    0  501 -0.00000000000E+00  0.00000000000E+00  0.13875292903E+02  0.13875292903E+02  0.00000000000E+00 0.  1.
          2   -1    0    0  501    0  0.00000000000E+00 -0.00000000000E+00 -0.89960792364E+03  0.89960792364E+03  0.00000000000E+00 0. -1.
         23    2    1    2    0    0  0.29030945047E+02 -0.10931594211E+02 -0.48331522551E+03  0.50018023116E+03  0.12499744363E+03 0.  0.
          5    1    3    3  502    0  0.15428844332E+02 -0.57765669045E+01 -0.48454168978E+03  0.48484446691E+03  0.47000000000E+01 0. -1.
         -5    1    3    3    0  502  0.13602100715E+02 -0.51550273070E+01  0.12264642731E+01  0.15335764246E+02  0.47000000000E+01 0. -1.
        -11    1    1    2    0    0  0.28352669009E+02  0.12351411039E+02 -0.79121421828E+02  0.84950753891E+02  0.00000000000E+00 0.  1.
         11    1    1    2    0    0 -0.57383614056E+02 -0.14198168279E+01 -0.32329598341E+03  0.32835223150E+03  0.00000000000E+00 0. -1.
<mgrwt>
<rscale>  0 0.11911287E+03</rscale>
<asrwt>0</asrwt>
<pdfrwt beam="2">  1        2 0.13840122E+00 0.12878919E+03</pdfrwt>
<pdfrwt beam="1">  1       -2 0.21346604E-02 0.12878919E+03</pdfrwt>
<totfact> 0.20218430E+04</totfact>
</mgrwt>
</event>
<event>
 7    1  0.6095443E-006  0.1291974E+03  0.7546771E-02  0.1242770E+00
          1   -1    0    0  501    0  0.00000000000E+00  0.00000000000E+00  0.64001038566E+03  0.64001038566E+03  0.00000000000E+00 0. -1.
         -1   -1    0    0    0  501 -0.00000000000E+00 -0.00000000000E+00 -0.26513868652E+02  0.26513868652E+02  0.00000000000E+00 0.  1.
         23    2    1    2    0    0 -0.32580576630E+02  0.25333467067E+01  0.17530499088E+03  0.21777008889E+03  0.12499623982E+03 0.  0.
          5    1    3    3  502    0  0.27534410040E+02 -0.39237981618E+02  0.10784880196E+03  0.11811527006E+03  0.47000000000E+01 0.  1.
         -5    1    3    3    0  502 -0.60114986669E+02  0.41771328325E+02  0.67456188920E+02  0.99654818830E+02  0.47000000000E+01 0.  1.
        -11    1    1    2    0    0  0.64374874114E+02  0.28958571709E+01  0.30132291910E+03  0.30813635290E+03  0.00000000000E+00 0.  1.
         11    1    1    2    0    0 -0.31794297485E+02 -0.54292038777E+01  0.13686860702E+03  0.14061781251E+03  0.00000000000E+00 0. -1.
<mgrwt>
<rscale>  0 0.12019850E+03</rscale>
<asrwt>0</asrwt>
<pdfrwt beam="1">  1        1 0.98463125E-01 0.12919741E+03</pdfrwt>
<pdfrwt beam="2">  1       -1 0.40790572E-02 0.12919741E+03</pdfrwt>
<totfact> 0.73495290E+03</totfact>
</mgrwt>
</event>
<event>
 7    1  0.6095443E-006  0.1266602E+03  0.7546771E-02  0.1248038E+00
         -3   -1    0    0    0  501 -0.00000000000E+00  0.00000000000E+00  0.15405834121E+03  0.15405834121E+03  0.00000000000E+00 0.  1.
          3   -1    0    0  501    0  0.00000000000E+00 -0.00000000000E+00 -0.81091853890E+02  0.81091853890E+02  0.00000000000E+00 0. -1.
         23    2    1    2    0    0  0.19876073054E+02 -0.48341253950E+01  0.65141927479E+02  0.14242988064E+03  0.12499749251E+03 0.  0.
          5    1    3    3  502    0  0.54423594626E+02  0.18247824152E+02  0.79544106840E+02  0.98205222219E+02  0.47000000000E+01 0.  1.
         -5    1    3    3    0  502 -0.34547521572E+02 -0.23081949547E+02 -0.14402179360E+02  0.44224658416E+02  0.47000000000E+01 0.  1.
        -11    1    1    2    0    0 -0.48880050783E+02  0.23906251857E+01 -0.19610844123E+02  0.52721529384E+02  0.00000000000E+00 0. -1.
         11    1    1    2    0    0  0.29003977729E+02  0.24435002093E+01  0.27435403966E+02  0.39998785083E+02  0.00000000000E+00 0.  1.
<mgrwt>
<rscale>  0 0.11705388E+03</rscale>
<asrwt>0</asrwt>
<pdfrwt beam="2">  1        3 0.12475670E-01 0.12666018E+03</pdfrwt>
<pdfrwt beam="1">  1       -3 0.23701283E-01 0.12666018E+03</pdfrwt>
<totfact> 0.19075284E+03</totfact>
</mgrwt>
</event>
<event>
 7    1  0.6095443E-006  0.1381599E+03  0.7546771E-02  0.1227307E+00
         -3   -1    0    0    0  501 -0.00000000000E+00  0.00000000000E+00  0.65944436394E+03  0.65944436394E+03  0.00000000000E+00 0.  1.
          3   -1    0    0  501    0  0.00000000000E+00 -0.00000000000E+00 -0.27961261832E+02  0.27961261832E+02  0.00000000000E+00 0. -1.
         23    2    1    2    0    0 -0.46564354831E+02  0.35980950261E+02  0.48953347364E+03  0.50865624088E+03  0.12500112659E+03 0.  0.
          5    1    3    3  502    0 -0.22127575876E+02  0.48322035494E+02  0.47367654797E+03  0.47667201599E+03  0.47000000000E+01 0. -1.
         -5    1    3    3    0  502 -0.24436778955E+02 -0.12341085233E+02  0.15856925675E+02  0.31984224898E+02  0.47000000000E+01 0. -1.
        -11    1    1    2    0    0  0.15027337866E+02  0.16936419881E+02 -0.14393396912E+01  0.22687769844E+02  0.00000000000E+00 0. -1.
         11    1    1    2    0    0  0.31537016965E+02 -0.52917370143E+02  0.14338896815E+03  0.15606161504E+03  0.00000000000E+00 0.  1.
<mgrwt>
<rscale>  0 0.13010059E+03</rscale>
<asrwt>0</asrwt>
<pdfrwt beam="2">  1        3 0.43017331E-02 0.13815987E+03</pdfrwt>
<pdfrwt beam="1">  1       -3 0.10145297E+00 0.13815987E+03</pdfrwt>
<totfact> 0.58897091E+02</totfact>
</mgrwt>
</event>
<event>
 7    1  0.6095443E-006  0.1462526E+03  0.7546771E-02  0.1214881E+00
          1   -1    0    0  501    0  0.00000000000E+00  0.00000000000E+00  0.21659577601E+02  0.21659577601E+02  0.00000000000E+00 0. -1.
         -1   -1    0    0    0  501 -0.00000000000E+00 -0.00000000000E+00 -0.84453969195E+03  0.84453969195E+03  0.00000000000E+00 0.  1.
         23    2    1    2    0    0 -0.75864726574E+02 -0.29515121134E+01 -0.53814267091E+03  0.55766241152E+03  0.12500265118E+03 0.  0.
          5    1    3    3  502    0 -0.90182194083E+02 -0.12074863334E+02 -0.53082541666E+03  0.53858735914E+03  0.47000000000E+01 0.  1.
         -5    1    3    3    0  502  0.14317467509E+02  0.91233512208E+01 -0.73172542514E+01  0.19075052376E+02  0.47000000000E+01 0.  1.
        -11    1    1    2    0    0  0.35925346231E+02  0.44332417144E+02 -0.10094385125E+03  0.11595540012E+03  0.00000000000E+00 0. -1.
         11    1    1    2    0    0  0.39939380343E+02 -0.41380905031E+02 -0.18379359219E+03  0.19258145791E+03  0.00000000000E+00 0.  1.
<mgrwt>
<rscale>  0 0.13885307E+03</rscale>
<asrwt>0</asrwt>
<pdfrwt beam="1">  1        1 0.33322430E-02 0.14625263E+03</pdfrwt>
<pdfrwt beam="2">  1       -1 0.12992917E+00 0.14625263E+03</pdfrwt>
<totfact> 0.15662654E+03</totfact>
</mgrwt>
</event>
<event>
 7    1  0.6095443E-006  0.1559130E+03  0.7546771E-02  0.1201095E+00
         -2   -1    0    0    0  501 -0.00000000000E+00  0.00000000000E+00  0.15218050828E+02  0.15218050828E+02  0.00000000000E+00 0.  1.
          2   -1    0    0  501    0  0.00000000000E+00 -0.00000000000E+00 -0.13688807458E+04  0.13688807458E+04  0.00000000000E+00 0. -1.
         23    2    1    2    0    0 -0.55098904551E+02 -0.75141340546E+02 -0.78960800507E+03  0.80485382227E+03  0.12500705259E+03 0.  0.
          5    1    3    3  502    0 -0.26923888165E+02  0.33365555334E+02 -0.25160337864E+03  0.25527339497E+03  0.47000000000E+01 0.  1.
         -5    1    3    3    0  502 -0.28175016386E+02 -0.10850689588E+03 -0.53800462643E+03  0.54958042729E+03  0.47000000000E+01 0.  1.
        -11    1    1    2    0    0  0.71263486042E+02  0.22200534711E+02 -0.36979241667E+03  0.37725028775E+03  0.00000000000E+00 0. -1.
         11    1    1    2    0    0 -0.16164581491E+02  0.52940805835E+02 -0.19426227320E+03  0.20199468658E+03  0.00000000000E+00 0.  1.
<mgrwt>
<rscale>  0 0.14949531E+03</rscale>
<asrwt>0</asrwt>
<pdfrwt beam="2">  1        2 0.21059706E+00 0.15591303E+03</pdfrwt>
<pdfrwt beam="1">  1       -2 0.23412383E-02 0.15591303E+03</pdfrwt>
<totfact> 0.96379985E+03</totfact>
</mgrwt>
</event>
<event>
 7    1  0.6095443E-006  0.1371498E+03  0.7546771E-02  0.1228587E+00
          2   -1    0    0  501    0  0.00000000000E+00  0.00000000000E+00  0.88446838538E+02  0.88446838538E+02  0.00000000000E+00 0. -1.
         -2   -1    0    0    0  501 -0.00000000000E+00 -0.00000000000E+00 -0.18496457623E+03  0.18496457623E+03  0.00000000000E+00 0.  1.
         23    2    1    2    0    0 -0.51603953740E+02  0.22868265904E+02 -0.92042596581E+02  0.16517236275E+03  0.12499657676E+03 0.  0.
          5    1    3    3  502    0  0.36040112591E+02  0.14449823292E+02 -0.20231561677E+01  0.39164655873E+02  0.47000000000E+01 0. -1.
         -5    1    3    3    0  502 -0.87644066331E+02  0.84184426111E+01 -0.90019440413E+02  0.12600770687E+03  0.47000000000E+01 0. -1.
        -11    1    1    2    0    0 -0.15924284322E+02 -0.11265387522E+02 -0.29439227391E+02  0.35315151091E+02  0.00000000000E+00 0.  1.
         11    1    1    2    0    0  0.67528238063E+02 -0.11602878382E+02  0.24964086284E+02  0.72923900928E+02  0.00000000000E+00 0. -1.
<mgrwt>
<rscale>  0 0.12924077E+03</rscale>
<asrwt>0</asrwt>
<pdfrwt beam="1">  1        2 0.13607206E-01 0.13714981E+03</pdfrwt>
<pdfrwt beam="2">  1       -2 0.28456088E-01 0.13714981E+03</pdfrwt>
<totfact> 0.47086541E+03</totfact>
</mgrwt>
</event>
<event>
 7    1  0.6095443E-006  0.2462244E+03  0.7546771E-02  0.1118270E+00
          2   -1    0    0  501    0  0.00000000000E+00  0.00000000000E+00  0.21423751062E+03  0.21423751062E+03  0.00000000000E+00 0. -1.
         -2   -1    0    0    0  501 -0.00000000000E+00 -0.00000000000E+00 -0.44975915601E+03  0.44975915601E+03  0.00000000000E+00 0.  1.
         23    2    1    2    0    0 -0.20658375210E+03 -0.48180942138E+02 -0.33234601778E+03  0.41361855294E+03  0.12501272730E+03 0.  0.
          5    1    3    3  502    0 -0.16586518207E+02 -0.71351630289E+01  0.90490460228E+01  0.20736402090E+02  0.47000000000E+01 0.  1.
         -5    1    3    3    0  502 -0.18999723389E+03 -0.41045779109E+02 -0.34139506380E+03  0.39288215085E+03  0.47000000000E+01 0.  1.
        -11    1    1    2    0    0  0.69525139893E+02  0.35640870745E+02 -0.63246982521E+01  0.78383790114E+02  0.00000000000E+00 0.  1.
         11    1    1    2    0    0  0.13705861220E+03  0.12540071393E+02  0.10314907064E+03  0.17199432358E+03  0.00000000000E+00 0. -1.
<mgrwt>
<rscale>  0 0.24230014E+03</rscale>
<asrwt>0</asrwt>
<pdfrwt beam="1">  1        2 0.32959617E-01 0.24622435E+03</pdfrwt>
<pdfrwt beam="2">  1       -2 0.69193715E-01 0.24622435E+03</pdfrwt>
<totfact> 0.31071869E+02</totfact>
</mgrwt>
</event>
<event>
 7    1  0.6095443E-006  0.1288537E+03  0.7546771E-02  0.1245065E+00
         -2   -1    0    0    0  501 -0.00000000000E+00  0.00000000000E+00  0.39251196923E+03  0.39251196923E+03  0.00000000000E+00 0.  1.
          2   -1    0    0  501    0  0.00000000000E+00 -0.00000000000E+00 -0.32886402866E+02  0.32886402866E+02  0.00000000000E+00 0. -1.
         23    2    1    2    0    0 -0.12390992590E+02 -0.28739073889E+02  0.25219320418E+03  0.28320433930E+03  0.12499525790E+03 0.  0.
          5    1    3    3  502    0 -0.64003133288E+01  0.49368381200E+02  0.87809927404E+02  0.10104887146E+03  0.47000000000E+01 0. -1.
         -5    1    3    3    0  502 -0.59906792615E+01 -0.78107455090E+02  0.16438327678E+03  0.18215546783E+03  0.47000000000E+01 0. -1.
        -11    1    1    2    0    0  0.56923072229E+01 -0.18179368812E+02  0.89525415322E+02  0.91529731784E+02  0.00000000000E+00 0.  1.
         11    1    1    2    0    0  0.66986853674E+01  0.46918442701E+02  0.17906946859E+02  0.50664301012E+02  0.00000000000E+00 0. -1.
<mgrwt>
<rscale>  0 0.11881511E+03</rscale>
<asrwt>0</asrwt>
<pdfrwt beam="2">  1        2 0.50594469E-02 0.12885374E+03</pdfrwt>
<pdfrwt beam="1">  1       -2 0.60386454E-01 0.12885374E+03</pdfrwt>
<totfact> 0.38302324E+03</totfact>
</mgrwt>
</event>
<event>
 7    1  0.6095443E-006  0.1482884E+03  0.7546771E-02  0.1209835E+00
         -4   -1    0    0    0  501 -0.00000000000E+00  0.00000000000E+00  0.94035890124E+02  0.94035890124E+02  0.00000000000E+00 0.  1.
          4   -1    0    0  501    0  0.00000000000E+00 -0.00000000000E+00 -0.24249388327E+03  0.24249388327E+03  0.00000000000E+00 0. -1.
         23    2    1    2    0    0  0.67589909908E+02  0.42361467876E+02 -0.98777790439E+01  0.14861707242E+03  0.12500629509E+03 0.  0.
          5    1    3    3  502    0 -0.10224011762E+02 -0.26395110959E+02 -0.31327319359E+02  0.42482034288E+02  0.47000000000E+01 0.  1.
         -5    1    3    3    0  502  0.77813921670E+02  0.68756578836E+02  0.21449540315E+02  0.10613503813E+03  0.47000000000E+01 0.  1.
        -11    1    1    2    0    0  0.12407991623E+02  0.18732232571E+02 -0.45813326024E+02  0.51026616923E+02  0.00000000000E+00 0. -1.
         11    1    1    2    0    0 -0.79997901531E+02 -0.61093700447E+02 -0.92766888076E+02  0.13688608405E+03  0.00000000000E+00 0.  1.
<mgrwt>
<rscale>  0 0.14262851E+03</rscale>
<asrwt>0</asrwt>
<pdfrwt beam="2">  1        4 0.37306750E-01 0.14828845E+03</pdfrwt>
<pdfrwt beam="1">  1       -4 0.14467060E-01 0.14828845E+03</pdfrwt>
<totfact> 0.47303029E+02</totfact>
</mgrwt>
</event>
<event>
 7    1  0.6095443E-006  0.1307492E+03  0.7546771E-02  0.1237033E+00
         -1   -1    0    0    0  501 -0.00000000000E+00  0.00000000000E+00  0.12609613894E+03  0.12609613894E+03  0.00000000000E+00 0.  1.
          1   -1    0    0  501    0  0.00000000000E+00 -0.00000000000E+00 -0.11534776808E+03  0.11534776808E+03  0.00000000000E+00 0. -1.
         23    2    1    2    0    0 -0.35376515494E+02  0.14776450538E+02 -0.19611062554E+02  0.13221178044E+03  0.12500207908E+03 0.  0.
          5    1    3    3  502    0 -0.75990706129E+02 -0.59704539976E+01  0.10894044252E+02  0.77142750399E+02  0.47000000000E+01 0.  1.
         -5    1    3    3    0  502  0.40614190636E+02  0.20746904535E+02 -0.30505106805E+02  0.55069030044E+02  0.47000000000E+01 0.  1.
        -11    1    1    2    0    0 -0.76829463926E+01  0.10775974161E+02  0.52748959740E+02  0.54383839861E+02  0.00000000000E+00 0.  1.
         11    1    1    2    0    0  0.43059461886E+02 -0.25552424698E+02 -0.22389526325E+02  0.54848286709E+02  0.00000000000E+00 0. -1.
<mgrwt>
<rscale>  0 0.12375210E+03</rscale>
<asrwt>0</asrwt>
<pdfrwt beam="2">  1        1 0.17745810E-01 0.13074923E+03</pdfrwt>
<pdfrwt beam="1">  1       -1 0.19399406E-01 0.13074923E+03</pdfrwt>
<totfact> 0.60015449E+03</totfact>
</mgrwt>
</event>
<event>
 7    1  0.6095443E-006  0.1402974E+03  0.7546771E-02  0.1223880E+00
          4   -1    0    0  501    0  0.00000000000E+00  0.00000000000E+00  0.26736947209E+03  0.26736947209E+03  0.00000000000E+00 0. -1.
         -4   -1    0    0    0  501 -0.00000000000E+00 -0.00000000000E+00 -0.61016637455E+02  0.61016637455E+02  0.00000000000E+00 0.  1.
         23    2    1    2    0    0  0.56660061633E+02 -0.29115826587E+02  0.86835797381E+02  0.16499642567E+03  0.12500108334E+03 0.  0.
          5    1    3    3  502    0 -0.69806312225E+01 -0.59635807860E+02  0.10876460587E+02  0.61200867529E+02  0.47000000000E+01 0.  1.
         -5    1    3    3    0  502  0.63640692856E+02  0.30519981272E+02  0.75959336794E+02  0.10379555814E+03  0.47000000000E+01 0.  1.
        -11    1    1    2    0    0 -0.28450744468E+02  0.17471370052E+01  0.12074750994E+03  0.12406634719E+03  0.00000000000E+00 0. -1.
         11    1    1    2    0    0 -0.28209317165E+02  0.27368689582E+02 -0.12304726919E+01  0.39323336677E+02  0.00000000000E+00 0.  1.
<mgrwt>
<rscale>  0 0.13243930E+03</rscale>
<asrwt>0</asrwt>
<pdfrwt beam="1">  1        4 0.41133764E-01 0.14029742E+03</pdfrwt>
<pdfrwt beam="2">  1       -4 0.93871751E-02 0.14029742E+03</pdfrwt>
<totfact> 0.80904248E+02</totfact>
</mgrwt>
</event>
<event>
 7    1  0.6095443E-006  0.2143226E+03  0.7546771E-02  0.1141672E+00
          1   -1    0    0  501    0  0.00000000000E+00  0.00000000000E+00  0.16286505924E+03  0.16286505924E+03  0.00000000000E+00 0. -1.
         -1   -1    0    0    0  501 -0.00000000000E+00 -0.00000000000E+00 -0.29095616066E+03  0.29095616066E+03  0.00000000000E+00 0.  1.
         23    2    1    2    0    0  0.83942720446E+02  0.15252401485E+03 -0.14068534203E+03  0.25637189515E+03  0.12499691092E+03 0.  0.
          5    1    3    3  502    0  0.10174779326E+02  0.15277395091E+02  0.23356292024E+02  0.30075427050E+02  0.47000000000E+01 0. -1.
         -5    1    3    3    0  502  0.73767941119E+02  0.13724661976E+03 -0.16404163405E+03  0.22629646810E+03  0.47000000000E+01 0. -1.
        -11    1    1    2    0    0 -0.16972493734E+02 -0.95111906693E+02 -0.27648128220E+02  0.10049258347E+03  0.00000000000E+00 0.  1.
         11    1    1    2    0    0 -0.66970226712E+02 -0.57412108160E+02  0.40242368834E+02  0.96956741275E+02  0.00000000000E+00 0. -1.
<mgrwt>
<rscale>  0 0.20986673E+03</rscale>
<asrwt>0</asrwt>
<pdfrwt beam="1">  1        1 0.25056163E-01 0.21432261E+03</pdfrwt>
<pdfrwt beam="2">  1       -1 0.44762485E-01 0.21432261E+03</pdfrwt>
<totfact> 0.95922178E+02</totfact>
</mgrwt>
</event>
<event>
 7    1  0.6095443E-006  0.1778995E+03  0.7546771E-02  0.1175331E+00
          3   -1    0    0  501    0  0.00000000000E+00  0.00000000000E+00  0.29264927612E+03  0.29264927612E+03  0.00000000000E+00 0. -1.
         -3   -1    0    0    0  501 -0.00000000000E+00 -0.00000000000E+00 -0.96546784310E+02  0.96546784310E+02  0.00000000000E+00 0.  1.
         23    2    1    2    0    0  0.11385536605E+03 -0.55302507707E+02  0.87382248496E+02  0.19820161205E+03  0.12500723951E+03 0.  0.
          5    1    3    3  502    0  0.55892784869E+02 -0.46681596398E+02 -0.20100381684E+02  0.75692074793E+02  0.47000000000E+01 0.  1.
         -5    1    3    3    0  502  0.57962581186E+02 -0.86209113088E+01  0.10748263018E+03  0.12250953726E+03  0.47000000000E+01 0.  1.
        -11    1    1    2    0    0 -0.55808133486E+02 -0.21967737332E+02  0.48409686156E+02  0.77075462765E+02  0.00000000000E+00 0.  1.
         11    1    1    2    0    0 -0.58047232569E+02  0.77270245040E+02  0.60310557154E+02  0.11391898561E+03  0.00000000000E+00 0. -1.
<mgrwt>
<rscale>  0 0.17243581E+03</rscale>
<asrwt>0</asrwt>
<pdfrwt beam="1">  1        3 0.45022965E-01 0.17789947E+03</pdfrwt>
<pdfrwt beam="2">  1       -3 0.14853352E-01 0.17789947E+03</pdfrwt>
<totfact> 0.44768405E+02</totfact>
</mgrwt>
</event>
<event>
 7    1  0.6095443E-006  0.1272795E+03  0.7546771E-02  0.1247411E+00
         -1   -1    0    0    0  501 -0.00000000000E+00  0.00000000000E+00  0.21161868399E+02  0.21161868399E+02  0.00000000000E+00 0.  1.
          1   -1    0    0  501    0  0.00000000000E+00 -0.00000000000E+00 -0.59476507858E+03  0.59476507858E+03  0.00000000000E+00 0. -1.
         23    2    1    2    0    0  0.23402275136E+02  0.53114709690E+01 -0.26745186476E+03  0.29619345425E+03  0.12499673664E+03 0.  0.
          5    1    3    3  502    0  0.38519938778E+02 -0.53620616998E+02 -0.14400622281E+03  0.15848923768E+03  0.47000000000E+01 0. -1.
         -5    1    3    3    0  502 -0.15117663642E+02  0.58932087967E+02 -0.12344564194E+03  0.13770421657E+03  0.47000000000E+01 0. -1.
        -11    1    1    2    0    0 -0.24727060136E+02 -0.40289616919E+02 -0.99742760176E+02  0.11037798214E+03  0.00000000000E+00 0.  1.
         11    1    1    2    0    0  0.13247850007E+01  0.34978145950E+02 -0.20640858525E+03  0.20935551059E+03  0.00000000000E+00 0. -1.
<mgrwt>
<rscale>  0 0.11742258E+03</rscale>
<asrwt>0</asrwt>
<pdfrwt beam="2">  1        1 0.91502316E-01 0.12727947E+03</pdfrwt>
<pdfrwt beam="1">  1       -1 0.32556722E-02 0.12727947E+03</pdfrwt>
<totfact> 0.11286920E+04</totfact>
</mgrwt>
</event>
<event>
 7    1  0.6095443E-006  0.1270449E+03  0.7546771E-02  0.1269900E+00
          2   -1    0    0  501    0  0.00000000000E+00  0.00000000000E+00  0.11128153678E+03  0.11128153678E+03  0.00000000000E+00 0. -1.
         -2   -1    0    0    0  501 -0.00000000000E+00 -0.00000000000E+00 -0.82165280922E+02  0.82165280922E+02  0.00000000000E+00 0.  1.
         23    2    1    2    0    0  0.22323098710E+02 -0.39143982335E+01 -0.30274449806E+00  0.12704521631E+03  0.12500700814E+03 0.  0.
          5    1    3    3  502    0 -0.19234098468E+02 -0.55146794744E+02  0.11910463439E+02  0.59791877824E+02  0.47000000000E+01 0. -1.
         -5    1    3    3    0  502  0.41557197178E+02  0.51232396510E+02 -0.12213207937E+02  0.67253338487E+02  0.47000000000E+01 0. -1.
        -11    1    1    2    0    0 -0.33156092552E+02 -0.13901891237E+02  0.86647064093E+01  0.36981971154E+02  0.00000000000E+00 0.  1.
         11    1    1    2    0    0  0.10832993842E+02  0.17816289471E+02  0.20754293952E+02  0.29419630241E+02  0.00000000000E+00 0. -1.
<mgrwt>
<rscale>  0 0.10511141E+03</rscale>
<asrwt>0</asrwt>
<pdfrwt beam="1">  1        2 0.17120236E-01 0.12704486E+03</pdfrwt>
<pdfrwt beam="2">  1       -2 0.12640813E-01 0.12704486E+03</pdfrwt>
<totfact> 0.14033345E+04</totfact>
</mgrwt>
</event>
<event>
 7    1  0.6095443E-006  0.1347946E+03  0.7546771E-02  0.1232817E+00
          1   -1    0    0  501    0  0.00000000000E+00  0.00000000000E+00  0.29187097131E+03  0.29187097131E+03  0.00000000000E+00 0. -1.
         -1   -1    0    0    0  501 -0.00000000000E+00 -0.00000000000E+00 -0.49007808733E+02  0.49007808733E+02  0.00000000000E+00 0.  1.
         23    2    1    2    0    0  0.50032742678E+02  0.64952667207E+01  0.13803926835E+03  0.19293629639E+03  0.12499644406E+03 0.  0.
          5    1    3    3  502    0 -0.18102807593E+02  0.11108392965E+02 -0.14225808427E+02  0.25991761433E+02  0.47000000000E+01 0. -1.
         -5    1    3    3    0  502  0.68135550271E+02 -0.46131262446E+01  0.15226507678E+03  0.16694453496E+03  0.47000000000E+01 0. -1.
        -11    1    1    2    0    0 -0.20944201162E+02  0.41699386809E+02  0.35446510427E+02  0.58599944744E+02  0.00000000000E+00 0.  1.
         11    1    1    2    0    0 -0.29088541516E+02 -0.48194653529E+02  0.69377383795E+02  0.89342538908E+02  0.00000000000E+00 0. -1.
<mgrwt>
<rscale>  0 0.12645246E+03</rscale>
<asrwt>0</asrwt>
<pdfrwt beam="1">  1        1 0.44903225E-01 0.13479457E+03</pdfrwt>
<pdfrwt beam="2">  1       -1 0.75396631E-02 0.13479457E+03</pdfrwt>
<totfact> 0.81195731E+03</totfact>
</mgrwt>
</event>
<event>
 7    1  0.6095443E-006  0.1330555E+03  0.7546771E-02  0.1237279E+00
         -3   -1    0    0    0  501 -0.00000000000E+00  0.00000000000E+00  0.47895174029E+02  0.47895174029E+02  0.00000000000E+00 0.  1.
          3   -1    0    0  501    0  0.00000000000E+00 -0.00000000000E+00 -0.32624339261E+03  0.32624339261E+03  0.00000000000E+00 0. -1.
         23    2    1    2    0    0  0.45368278221E+02  0.45094708951E+01 -0.87909882671E+02  0.15947388720E+03  0.12500062893E+03 0.  0.
          5    1    3    3  502    0  0.44256490031E+02  0.24044594242E+02  0.16449057631E+02  0.53192489311E+02  0.47000000000E+01 0.  1.
         -5    1    3    3    0  502  0.11117881898E+01 -0.19535123347E+02 -0.10435894030E+03  0.10628139789E+03  0.47000000000E+01 0.  1.
        -11    1    1    2    0    0 -0.13065119667E+02  0.87724811007E+01  0.47010735745E+01  0.16424185500E+02  0.00000000000E+00 0.  1.
         11    1    1    2    0    0 -0.32303158554E+02 -0.13281951996E+02 -0.19513940948E+03  0.19824049393E+03  0.00000000000E+00 0. -1.
<mgrwt>
<rscale>  0 0.12359655E+03</rscale>
<asrwt>0</asrwt>
<pdfrwt beam="2">  1        3 0.50191293E-01 0.13305553E+03</pdfrwt>
<pdfrwt beam="1">  1       -3 0.73684880E-02 0.13305553E+03</pdfrwt>
<totfact> 0.11119534E+03</totfact>
</mgrwt>
</event>
<event>
 7    1  0.6095443E-006  0.1766742E+03  0.7546771E-02  0.1174531E+00
          2   -1    0    0  501    0  0.00000000000E+00  0.00000000000E+00  0.19817083831E+03  0.19817083831E+03  0.00000000000E+00 0. -1.
         -2   -1    0    0    0  501 -0.00000000000E+00 -0.00000000000E+00 -0.15348576486E+03  0.15348576486E+03  0.00000000000E+00 0.  1.
         23    2    1    2    0    0 -0.66928040624E+02 -0.11839004313E+03 -0.16200396449E+02  0.17741540083E+03  0.11277502680E+03 0.  0.
          5    1    3    3  502    0 -0.67260994031E+02 -0.43191879196E+02  0.33878756537E+02  0.86945039485E+02  0.47000000000E+01 0. -1.
         -5    1    3    3    0  502  0.33295340680E+00 -0.75198163937E+02 -0.50079152986E+02  0.90470361342E+02  0.47000000000E+01 0.  1.
        -11    1    1    2    0    0  0.21393641264E+02 -0.11062209532E+02  0.19264295051E+02  0.30841099690E+02  0.00000000000E+00 0.  1.
         11    1    1    2    0    0  0.45534399360E+02  0.12945225267E+03  0.41621174850E+02  0.14340010265E+03  0.00000000000E+00 0. -1.
<mgrwt>
<rscale>  0 0.17321999E+03</rscale>
<asrwt>0</asrwt>
<pdfrwt beam="1">  1        2 0.30487821E-01 0.17667420E+03</pdfrwt>
<pdfrwt beam="2">  1       -2 0.23613195E-01 0.17667420E+03</pdfrwt>
<totfact> 0.26546781E+03</totfact>
</mgrwt>
</event>
<event>
 7    1  0.6095443E-006  0.1348054E+03  0.7546771E-02  0.1233196E+00
         -1   -1    0    0    0  501 -0.00000000000E+00  0.00000000000E+00  0.53014032611E+02  0.53014032611E+02  0.00000000000E+00 0.  1.
          1   -1    0    0  501    0  0.00000000000E+00 -0.00000000000E+00 -0.26815426578E+03  0.26815426578E+03  0.00000000000E+00 0. -1.
         23    2    1    2    0    0  0.50389372390E+02 -0.29621050459E+01 -0.11722005920E+03  0.17864222165E+03  0.12499855264E+03 0.  0.
          5    1    3    3  502    0  0.17270652776E+02  0.49011420222E+02 -0.75037428055E+01  0.52714238263E+02  0.47000000000E+01 0. -1.
         -5    1    3    3    0  502  0.33118719614E+02 -0.51973525268E+02 -0.10971631639E+03  0.12592798339E+03  0.47000000000E+01 0. -1.
        -11    1    1    2    0    0  0.19533944654E+02 -0.48246793331E+01  0.21103445744E+01  0.20231314308E+02  0.00000000000E+00 0.  1.
         11    1    1    2    0    0 -0.69923317044E+02  0.77867843790E+01 -0.10003051855E+03  0.12229476243E+03  0.00000000000E+00 0. -1.
<mgrwt>
<rscale>  0 0.12620652E+03</rscale>
<asrwt>0</asrwt>
<pdfrwt beam="2">  1        1 0.41254502E-01 0.13480542E+03</pdfrwt>
<pdfrwt beam="1">  1       -1 0.81560050E-02 0.13480542E+03</pdfrwt>
<totfact> 0.80092863E+03</totfact>
</mgrwt>
</event>
<event>
 7    1  0.6095443E-006  0.1378629E+03  0.7546771E-02  0.1227978E+00
         -1   -1    0    0    0  501 -0.00000000000E+00  0.00000000000E+00  0.41952952876E+02  0.41952952876E+02  0.00000000000E+00 0.  1.
          1   -1    0    0  501    0  0.00000000000E+00 -0.00000000000E+00 -0.39863821085E+03  0.39863821085E+03  0.00000000000E+00 0. -1.
         23    2    1    2    0    0  0.29578801163E+02  0.50062147013E+02 -0.12964138210E+03  0.18924342836E+03  0.12500025274E+03 0.  0.
          5    1    3    3  502    0  0.30456366248E+02  0.25653741461E+02 -0.15113946315E+03  0.15636793794E+03  0.47000000000E+01 0. -1.
         -5    1    3    3    0  502 -0.87756508538E+00  0.24408405552E+02  0.21498081043E+02  0.32875490424E+02  0.47000000000E+01 0. -1.
        -11    1    1    2    0    0  0.17198573843E+02  0.66657429707E+01 -0.76635889518E+01  0.19973824551E+02  0.00000000000E+00 0.  1.
         11    1    1    2    0    0 -0.46777375006E+02 -0.56727889983E+02 -0.21938028692E+03  0.23137391081E+03  0.00000000000E+00 0. -1.
<mgrwt>
<rscale>  0 0.12964864E+03</rscale>
<asrwt>0</asrwt>
<pdfrwt beam="2">  1        1 0.61328955E-01 0.13786293E+03</pdfrwt>
<pdfrwt beam="1">  1       -1 0.64543005E-02 0.13786293E+03</pdfrwt>
<totfact> 0.69602458E+03</totfact>
</mgrwt>
</event>
<event>
 7    1  0.6095443E-006  0.1321355E+03  0.7546771E-02  0.1236247E+00
         -2   -1    0    0    0  501 -0.00000000000E+00  0.00000000000E+00  0.23488823194E+03  0.23488823194E+03  0.00000000000E+00 0.  1.
          2   -1    0    0  501    0  0.00000000000E+00 -0.00000000000E+00 -0.86809631342E+02  0.86809631342E+02  0.00000000000E+00 0. -1.
         23    2    1    2    0    0  0.25313651658E+02 -0.34538068130E+02  0.17077825670E+03  0.21592822698E+03  0.12500450846E+03 0.  0.
          5    1    3    3  502    0 -0.33762047021E+02 -0.58873030488E+02  0.90668419021E+02  0.11335237865E+03  0.47000000000E+01 0.  1.
         -5    1    3    3    0  502  0.59075698679E+02  0.24334962359E+02  0.80109837683E+02  0.10257584833E+03  0.47000000000E+01 0.  1.
        -11    1    1    2    0    0 -0.34366851381E+02  0.47843299540E+02  0.18332864712E+02  0.61694049253E+02  0.00000000000E+00 0.  1.
         11    1    1    2    0    0  0.90531997231E+01 -0.13305231410E+02 -0.41032520822E+02  0.44075587042E+02  0.00000000000E+00 0. -1.
<mgrwt>
<rscale>  0 0.12424961E+03</rscale>
<asrwt>0</asrwt>
<pdfrwt beam="2">  1        2 0.13355328E-01 0.13213548E+03</pdfrwt>
<pdfrwt beam="1">  1       -2 0.36136651E-01 0.13213548E+03</pdfrwt>
<totfact> 0.31103699E+03</totfact>
</mgrwt>
</event>
<event>
 7    1  0.6095443E-006  0.1241490E+03  0.7546771E-02  0.1242851E+00
         -1   -1    0    0    0  501 -0.00000000000E+00  0.00000000000E+00  0.31522799465E+02  0.31522799465E+02  0.00000000000E+00 0.  1.
          1   -1    0    0  501    0  0.00000000000E+00 -0.00000000000E+00 -0.43085830234E+03  0.43085830234E+03  0.00000000000E+00 0. -1.
         23    2    1    2    0    0  0.33048088329E+02  0.40744568867E+02 -0.20927902607E+03  0.24333248033E+03  0.11251972802E+03 0.  0.
          5    1    3    3  502    0 -0.34032106594E+02 -0.14321026808E+02 -0.64459742852E+02  0.74434028083E+02  0.47000000000E+01 0. -1.
         -5    1    3    3    0  502  0.67080194924E+02  0.55065595675E+02 -0.14481928322E+03  0.16889845225E+03  0.47000000000E+01 0.  1.
        -11    1    1    2    0    0  0.17560847116E+02  0.19120903962E+02 -0.23720664035E+02  0.35166208525E+02  0.00000000000E+00 0.  1.
         11    1    1    2    0    0 -0.50608935446E+02 -0.59865472829E+02 -0.16633581277E+03  0.18388241295E+03  0.00000000000E+00 0. -1.
<mgrwt>
<rscale>  0 0.12014949E+03</rscale>
<asrwt>0</asrwt>
<pdfrwt beam="2">  1        1 0.66285888E-01 0.12414904E+03</pdfrwt>
<pdfrwt beam="1">  1       -1 0.48496618E-02 0.12414904E+03</pdfrwt>
<totfact> 0.95738044E+03</totfact>
</mgrwt>
</event>
<event>
 7    1  0.6095443E-006  0.1481034E+03  0.7546771E-02  0.1212820E+00
          2   -1    0    0  501    0  0.00000000000E+00  0.00000000000E+00  0.28476519261E+03  0.28476519261E+03  0.00000000000E+00 0.  1.
         -2   -1    0    0    0  501 -0.00000000000E+00 -0.00000000000E+00 -0.10699326022E+03  0.10699326022E+03  0.00000000000E+00 0. -1.
         23    2    1    2    0    0  0.40286692564E+02 -0.68484343916E+02 -0.30881366138E+02  0.15128873948E+03  0.12498600306E+03 0.  0.
          5    1    3    3  502    0  0.37357797147E+02  0.52943542263E+01  0.35403145425E+02  0.51952939285E+02  0.47000000000E+01 0. -1.
         -5    1    3    3    0  502  0.29288954170E+01 -0.73778698142E+02 -0.66284511562E+02  0.99335800198E+02  0.47000000000E+01 0. -1.
        -11    1    1    2    0    0 -0.60112783538E+02  0.62174867839E+02  0.11147123733E+03  0.14108542691E+03  0.00000000000E+00 0. -1.
         11    1    1    2    0    0  0.19826090974E+02  0.63094760768E+01  0.97182061202E+02  0.99384286440E+02  0.00000000000E+00 0.  1.
<mgrwt>
<rscale>  0 0.14037859E+03</rscale>
<asrwt>0</asrwt>
<pdfrwt beam="1">  1        2 0.43810029E-01 0.14810342E+03</pdfrwt>
<pdfrwt beam="2">  1       -2 0.16460502E-01 0.14810342E+03</pdfrwt>
<totfact> 0.32905228E+03</totfact>
</mgrwt>
</event>
<event>
 7    1  0.6095443E-006  0.1264085E+03  0.7546771E-02  0.1248061E+00
          1   -1    0    0  501    0  0.00000000000E+00  0.00000000000E+00  0.29573139119E+02  0.29573139119E+02  0.00000000000E+00 0. -1.
         -1   -1    0    0    0  501 -0.00000000000E+00 -0.00000000000E+00 -0.55787352048E+03  0.55787352048E+03  0.00000000000E+00 0.  1.
         23    2    1    2    0    0 -0.27169851450E+01  0.18608431218E+02 -0.44521487499E+03  0.46281248699E+03  0.12500182992E+03 0.  0.
          5    1    3    3  502    0 -0.27194943714E+01 -0.16080552266E+01 -0.44173003632E+03  0.44176633696E+03  0.47000000000E+01 0.  1.
         -5    1    3    3    0  502  0.25092264148E-02  0.20216486445E+02 -0.34848386744E+01  0.21046150029E+02  0.47000000000E+01 0.  1.
        -11    1    1    2    0    0 -0.44785087537E+00 -0.39874669420E+02 -0.92826931017E+02  0.10102984190E+03  0.00000000000E+00 0.  1.
         11    1    1    2    0    0  0.31648360204E+01  0.21266238202E+02  0.97414246418E+01  0.23604330712E+02  0.00000000000E+00 0. -1.
<mgrwt>
<rscale>  0 0.11704061E+03</rscale>
<asrwt>0</asrwt>
<pdfrwt beam="1">  1        1 0.45497141E-02 0.12640852E+03</pdfrwt>
<pdfrwt beam="2">  1       -1 0.85826688E-01 0.12640852E+03</pdfrwt>
<totfact> 0.25715992E+03</totfact>
</mgrwt>
</event>
<event>
 7    1  0.6095443E-006  0.1273884E+03  0.7546771E-02  0.1250711E+00
          3   -1    0    0  501    0  0.00000000000E+00  0.00000000000E+00  0.13723559209E+03  0.13723559209E+03  0.00000000000E+00 0. -1.
         -3   -1    0    0    0  501 -0.00000000000E+00 -0.00000000000E+00 -0.10209362652E+03  0.10209362652E+03  0.00000000000E+00 0.  1.
         23    2    1    2    0    0  0.16818313652E+02 -0.17884519253E+02 -0.30598655034E+02  0.13101171726E+03  0.12500032267E+03 0.  0.
          5    1    3    3  502    0  0.39562970315E+02 -0.13958385979E+00 -0.70840430645E+02  0.81275486574E+02  0.47000000000E+01 0.  1.
         -5    1    3    3    0  502 -0.22744656663E+02 -0.17744935393E+02  0.40241775612E+02  0.49736230690E+02  0.47000000000E+01 0.  1.
        -11    1    1    2    0    0  0.16276523940E+02 -0.26031826272E+02  0.18668931054E+02  0.35932021893E+02  0.00000000000E+00 0. -1.
         11    1    1    2    0    0 -0.33094837592E+02  0.43916345525E+02  0.47071689546E+02  0.72385479457E+02  0.00000000000E+00 0.  1.
<mgrwt>
<rscale>  0 0.11549969E+03</rscale>
<asrwt>0</asrwt>
<pdfrwt beam="1">  1        3 0.21113168E-01 0.12738835E+03</pdfrwt>
<pdfrwt beam="2">  1       -3 0.15706712E-01 0.12738835E+03</pdfrwt>
<totfact> 0.15870970E+03</totfact>
</mgrwt>
</event>
<event>
 7    1  0.6095443E-006  0.1431786E+03  0.7546771E-02  0.1220583E+00
          1   -1    0    0  501    0  0.00000000000E+00  0.00000000000E+00  0.89272115723E+03  0.89272115723E+03  0.00000000000E+00 0. -1.
         -1   -1    0    0    0  501 -0.00000000000E+00 -0.00000000000E+00 -0.18656842474E+02  0.18656842474E+02  0.00000000000E+00 0.  1.
         23    2    1    2    0    0  0.69736724108E+02  0.30150449929E+01  0.55318575883E+03  0.57141455486E+03  0.12501123370E+03 0.  0.
          5    1    3    3  502    0  0.52567050691E+02 -0.41201735925E+02  0.13676720465E+03  0.15227684042E+03  0.47000000000E+01 0.  1.
         -5    1    3    3    0  502  0.17169673417E+02  0.44216780917E+02  0.41641855417E+03  0.41913771443E+03  0.47000000000E+01 0.  1.
        -11    1    1    2    0    0 -0.71614758365E+02  0.23479861031E+02  0.28799242260E+03  0.29769046502E+03  0.00000000000E+00 0. -1.
         11    1    1    2    0    0  0.18780342577E+01 -0.26494906024E+02  0.32886133331E+02  0.42272979826E+02  0.00000000000E+00 0.  1.
<mgrwt>
<rscale>  0 0.13474324E+03</rscale>
<asrwt>0</asrwt>
<pdfrwt beam="1">  1        1 0.13734168E+00 0.14317859E+03</pdfrwt>
<pdfrwt beam="2">  1       -1 0.28702842E-02 0.14317859E+03</pdfrwt>
<totfact> 0.75583359E+03</totfact>
</mgrwt>
</event>
<event>
 7    1  0.6095443E-006  0.1219698E+03  0.7546771E-02  0.1250675E+00
          1   -1    0    0  501    0  0.00000000000E+00  0.00000000000E+00  0.74105707398E+03  0.74105707398E+03  0.00000000000E+00 0. -1.
         -1   -1    0    0    0  501 -0.00000000000E+00 -0.00000000000E+00 -0.20684444497E+02  0.20684444497E+02  0.00000000000E+00 0.  1.
         23    2    1    2    0    0 -0.30366615256E+02 -0.38557878121E+02  0.21735930652E+03  0.24924223124E+03  0.11165921554E+03 0.  0.
          5    1    3    3  502    0  0.18744762840E+02 -0.55629821482E+02  0.16546197985E+03  0.17562972398E+03  0.47000000000E+01 0. -1.
         -5    1    3    3    0  502 -0.49111378095E+02  0.17071943361E+02  0.51897326673E+02  0.73612507255E+02  0.47000000000E+01 0.  1.
        -11    1    1    2    0    0 -0.28222964137E+02  0.67404369064E+00  0.13252195180E+03  0.13549560047E+03  0.00000000000E+00 0.  1.
         11    1    1    2    0    0  0.58589579393E+02  0.37883834431E+02  0.37049137116E+03  0.37700368676E+03  0.00000000000E+00 0. -1.
<mgrwt>
<rscale>  0 0.11552074E+03</rscale>
<asrwt>0</asrwt>
<pdfrwt beam="1">  1        1 0.11400876E+00 0.12196976E+03</pdfrwt>
<pdfrwt beam="2">  1       -1 0.31822228E-02 0.12196976E+03</pdfrwt>
<totfact> 0.85501070E+03</totfact>
</mgrwt>
</event>
<event>
 7    1  0.6095443E-006  0.1983049E+03  0.7546771E-02  0.1155553E+00
         -1   -1    0    0    0  501 -0.00000000000E+00  0.00000000000E+00  0.31403446077E+02  0.31403446077E+02  0.00000000000E+00 0.  1.
          1   -1    0    0  501    0  0.00000000000E+00 -0.00000000000E+00 -0.14452681732E+04  0.14452681732E+04  0.00000000000E+00 0. -1.
         23    2    1    2    0    0 -0.15386009050E+03  0.51118331439E+01 -0.39240685354E+03  0.43966802239E+03  0.12500309164E+03 0.  0.
          5    1    3    3  502    0 -0.16708854844E+03  0.20238849041E+02 -0.29116435944E+03  0.33634352713E+03  0.47000000000E+01 0.  1.
         -5    1    3    3    0  502  0.13228457948E+02 -0.15127015897E+02 -0.10124249410E+03  0.10332449526E+03  0.47000000000E+01 0.  1.
        -11    1    1    2    0    0  0.42419008343E+02  0.40323329000E+02 -0.32849134536E+03  0.33366436296E+03  0.00000000000E+00 0.  1.
         11    1    1    2    0    0  0.11144108215E+03 -0.45435162144E+02 -0.69296652820E+03  0.70333923391E+03  0.00000000000E+00 0. -1.
<mgrwt>
<rscale>  0 0.19326103E+03</rscale>
<asrwt>0</asrwt>
<pdfrwt beam="2">  1        1 0.22234891E+00 0.19830489E+03</pdfrwt>
<pdfrwt beam="1">  1       -1 0.48313003E-02 0.19830489E+03</pdfrwt>
<totfact> 0.14459516E+03</totfact>
</mgrwt>
</event>
<event>
 6    1  0.6095443E-006  0.1479904E+03  0.7546771E-02  0.1225075E+00
         -1   -1    0    0    0  501 -0.00000000000E+00  0.00000000000E+00  0.78754682610E+03  0.78754682610E+03  0.00000000000E+00 0.  1.
          1   -1    0    0  501    0  0.00000000000E+00 -0.00000000000E+00 -0.18375892955E+02  0.18375892955E+02  0.00000000000E+00 0. -1.
          5    1    1    2  502    0 -0.73779205700E+02 -0.25334006510E+01  0.13250083299E+03  0.15175094746E+03  0.47000000000E+01 0. -1.
         -5    1    1    2    0  502  0.41742315166E+02 -0.20191712567E+02  0.34565200962E+03  0.34878005661E+03  0.47000000000E+01 0.  1.
        -11    1    1    2    0    0 -0.16541270537E+02  0.22541351406E+02  0.34954896101E+02  0.44761265796E+02  0.00000000000E+00 0. -1.
         11    1    1    2    0    0  0.48578161071E+02  0.18376181179E+00  0.25606319444E+03  0.26063044920E+03  0.00000000000E+00 0.  1.
<mgrwt>
<rscale>  0 0.13161759E+03</rscale>
<asrwt>0</asrwt>
<pdfrwt beam="2">  1        1 0.28270611E-02 0.14799035E+03</pdfrwt>
<pdfrwt beam="1">  1       -1 0.12116102E+00 0.14799035E+03</pdfrwt>
<totfact> 0.23280577E+03</totfact>
</mgrwt>
</event>
<event>
 7    1  0.6095443E-006  0.1357024E+03  0.7546771E-02  0.1231858E+00
          1   -1    0    0  501    0  0.00000000000E+00  0.00000000000E+00  0.48638684626E+03  0.48638684626E+03  0.00000000000E+00 0. -1.
         -1   -1    0    0    0  501 -0.00000000000E+00 -0.00000000000E+00 -0.30130832367E+02  0.30130832367E+02  0.00000000000E+00 0.  1.
         23    2    1    2    0    0 -0.49498213720E+02  0.18454953419E+02  0.22406653455E+03  0.26195601856E+03  0.12499794113E+03 0.  0.
          5    1    3    3  502    0 -0.17574004780E+02  0.59318248185E+02  0.18965101993E+03  0.19954222504E+03  0.47000000000E+01 0.  1.
         -5    1    3    3    0  502 -0.31924208940E+02 -0.40863294766E+02  0.34415514622E+02  0.62413793526E+02  0.47000000000E+01 0.  1.
        -11    1    1    2    0    0  0.62084425002E+02  0.66857436557E+01  0.89510204775E+02  0.10913868130E+03  0.00000000000E+00 0.  1.
         11    1    1    2    0    0 -0.12586211282E+02 -0.25140697075E+02  0.14267927457E+03  0.14542297877E+03  0.00000000000E+00 0. -1.
<mgrwt>
<rscale>  0 0.12707718E+03</rscale>
<asrwt>0</asrwt>
<pdfrwt beam="1">  1        1 0.74828740E-01 0.13570241E+03</pdfrwt>
<pdfrwt beam="2">  1       -1 0.46355130E-02 0.13570241E+03</pdfrwt>
<totfact> 0.88152765E+03</totfact>
</mgrwt>
</event>
<event>
 7    1  0.6095443E-006  0.1336723E+03  0.7546771E-02  0.1235456E+00
         -1   -1    0    0    0  501 -0.00000000000E+00  0.00000000000E+00  0.11531379884E+03  0.11531379884E+03  0.00000000000E+00 0.  1.
          1   -1    0    0  501    0  0.00000000000E+00 -0.00000000000E+00 -0.16924583973E+03  0.16924583973E+03  0.00000000000E+00 0. -1.
         23    2    1    2    0    0 -0.35403422936E+02  0.31448453962E+02  0.46795916456E+02  0.14162672349E+03  0.12500345355E+03 0.  0.
          5    1    3    3  502    0  0.14917928700E+02 -0.28844040041E+02 -0.19995982846E+02  0.38424634970E+02  0.47000000000E+01 0.  1.
         -5    1    3    3    0  502 -0.50321351636E+02  0.60292494003E+02  0.66791899302E+02  0.10320208853E+03  0.47000000000E+01 0.  1.
        -11    1    1    2    0    0  0.27426540941E+02  0.14225615360E+02 -0.90258604448E+02  0.95400204178E+02  0.00000000000E+00 0. -1.
         11    1    1    2    0    0  0.79768819950E+01 -0.45674069322E+02 -0.10469352906E+02  0.47532710895E+02  0.00000000000E+00 0.  1.
<mgrwt>
<rscale>  0 0.12475260E+03</rscale>
<asrwt>0</asrwt>
<pdfrwt beam="2">  1        1 0.26037821E-01 0.13367225E+03</pdfrwt>
<pdfrwt beam="1">  1       -1 0.17740585E-01 0.13367225E+03</pdfrwt>
<totfact> 0.42667687E+03</totfact>
</mgrwt>
</event>
<event>
 7    1  0.6095443E-006  0.1725499E+03  0.7546771E-02  0.1182577E+00
         -1   -1    0    0    0  501 -0.00000000000E+00  0.00000000000E+00  0.26107561130E+02  0.26107561130E+02  0.00000000000E+00 0.  1.
          1   -1    0    0  501    0  0.00000000000E+00 -0.00000000000E+00 -0.97746955699E+03  0.97746955699E+03  0.00000000000E+00 0. -1.
         23    2    1    2    0    0 -0.45111053197E+02  0.11005331503E+03 -0.48030832665E+03  0.51036218034E+03  0.12500690863E+03 0.  0.
          5    1    3    3  502    0 -0.88290876889E+02  0.63341647439E+02 -0.30195097033E+03  0.32094224048E+03  0.47000000000E+01 0.  1.
         -5    1    3    3    0  502  0.43179823692E+02  0.46711667592E+02 -0.17835735632E+03  0.18941993986E+03  0.47000000000E+01 0.  1.
        -11    1    1    2    0    0  0.51062664022E+02 -0.12215687445E+03 -0.41761505925E+03  0.43810048544E+03  0.00000000000E+00 0.  1.
         11    1    1    2    0    0 -0.59516108251E+01  0.12103559415E+02 -0.53438609961E+02  0.55114452338E+02  0.00000000000E+00 0. -1.
<mgrwt>
<rscale>  0 0.16554273E+03</rscale>
<asrwt>0</asrwt>
<pdfrwt beam="2">  1        1 0.15037992E+00 0.17254990E+03</pdfrwt>
<pdfrwt beam="1">  1       -1 0.40165483E-02 0.17254990E+03</pdfrwt>
<totfact> 0.40120795E+03</totfact>
</mgrwt>
</event>
<event>
 6    1  0.6095443E-006  0.2199660E+03  0.7546771E-02  0.1162716E+00
         -2   -1    0    0    0  501 -0.00000000000E+00  0.00000000000E+00  0.17399152595E+04  0.17399152595E+04  0.00000000000E+00 0.  1.
          2   -1    0    0  501    0  0.00000000000E+00 -0.00000000000E+00 -0.15744877585E+02  0.15744877585E+02  0.00000000000E+00 0. -1.
          5    1    1    2  502    0  0.11719414121E+02  0.68864932735E+02  0.11461207887E+03  0.13430466206E+03  0.47000000000E+01 0. -1.
         -5    1    1    2    0  502 -0.37211138056E+02 -0.16232017562E+02  0.10562530172E+04  0.10570433641E+04  0.47000000000E+01 0.  1.
        -11    1    1    2    0    0 -0.34594701752E+02 -0.89051457714E+01  0.14797639373E+03  0.15222715958E+03  0.00000000000E+00 0. -1.
         11    1    1    2    0    0  0.60086425687E+02 -0.43727769401E+02  0.40532889209E+03  0.41208495135E+03  0.00000000000E+00 0.  1.
<mgrwt>
<rscale>  0 0.18535789E+03</rscale>
<asrwt>0</asrwt>
<pdfrwt beam="2">  1        2 0.24222902E-02 0.21996601E+03</pdfrwt>
<pdfrwt beam="1">  1       -2 0.26767912E+00 0.21996601E+03</pdfrwt>
<totfact> 0.23705161E+02</totfact>
</mgrwt>
</event>
<event>
 7    1  0.1968987E-005  0.1829565E+03  0.7546771E-02  0.1170317E+00
         -1   -1    0    0    0  501 -0.00000000000E+00  0.00000000000E+00  0.23675596187E+02  0.23675596187E+02  0.00000000000E+00 0.  1.
          1   -1    0    0  501    0  0.00000000000E+00 -0.00000000000E+00 -0.12611940141E+04  0.12611940141E+04  0.00000000000E+00 0. -1.
         23    2    1    2    0    0  0.11739123399E+03  0.63775376718E+02 -0.61230723641E+03  0.63905650820E+03  0.12500027364E+03 0.  0.
          5    1    3    3  502    0  0.10542094268E+03  0.85007829883E+02 -0.59102159363E+03  0.60635676003E+03  0.47000000000E+01 0.  1.
         -5    1    3    3    0  502  0.11970291312E+02 -0.21232453165E+02 -0.21285642783E+02  0.32699748167E+02  0.47000000000E+01 0.  1.
        -11    1    1    2    0    0 -0.23577399728E+01 -0.23660023165E+02 -0.30091686727E+02  0.38351861024E+02  0.00000000000E+00 0.  1.
         11    1    1    2    0    0 -0.11503349402E+03 -0.40115353553E+02 -0.59511949474E+03  0.60746124103E+03  0.00000000000E+00 0. -1.
<mgrwt>
<rscale>  0 0.17742651E+03</rscale>
<asrwt>0</asrwt>
<pdfrwt beam="2">  1        1 0.19402985E+00 0.18295647E+03</pdfrwt>
<pdfrwt beam="1">  1       -1 0.36423994E-02 0.18295647E+03</pdfrwt>
<totfact> 0.29198018E+03</totfact>
</mgrwt>
</event>
<event>
 7    1  0.6095443E-006  0.2598527E+03  0.7546771E-02  0.1109497E+00
          1   -1    0    0  501    0  0.00000000000E+00  0.00000000000E+00  0.32971537430E+03  0.32971537430E+03  0.00000000000E+00 0. -1.
         -1   -1    0    0    0  501 -0.00000000000E+00 -0.00000000000E+00 -0.23196059100E+03  0.23196059100E+03  0.00000000000E+00 0.  1.
         23    2    1    2    0    0 -0.15533840601E+03  0.16663670656E+03 -0.64346866126E+02  0.26770123746E+03  0.12500248399E+03 0.  0.
          5    1    3    3  502    0 -0.50769872595E+02 -0.11080468700E+02 -0.19358886100E+01  0.52212971709E+02  0.47000000000E+01 0. -1.
         -5    1    3    3    0  502 -0.10456853341E+03  0.17771717526E+03 -0.62410977516E+02  0.21548826575E+03  0.47000000000E+01 0. -1.
        -11    1    1    2    0    0  0.79562069799E+01  0.84613051663E+01 -0.27264849933E+01  0.11930156539E+02  0.00000000000E+00 0.  1.
         11    1    1    2    0    0  0.14738219903E+03 -0.17509801173E+03  0.16482813443E+03  0.28204457130E+03  0.00000000000E+00 0. -1.
<mgrwt>
<rscale>  0 0.25612069E+03</rscale>
<asrwt>0</asrwt>
<pdfrwt beam="1">  1        1 0.50725442E-01 0.25985271E+03</pdfrwt>
<pdfrwt beam="2">  1       -1 0.35686245E-01 0.25985271E+03</pdfrwt>
<totfact> 0.58973498E+02</totfact>
</mgrwt>
</event>
<event>
 7    1  0.6095443E-006  0.1465441E+03  0.7546771E-02  0.1214756E+00
         -2   -1    0    0    0  501 -0.00000000000E+00  0.00000000000E+00  0.30898843719E+02  0.30898843719E+02  0.00000000000E+00 0. -1.
          2   -1    0    0  501    0  0.00000000000E+00 -0.00000000000E+00 -0.66487320338E+03  0.66487320338E+03  0.00000000000E+00 0.  1.
         23    2    1    2    0    0 -0.62025651377E+02 -0.44767477787E+02 -0.21362198440E+03  0.25905507191E+03  0.12499547818E+03 0.  0.
          5    1    3    3  502    0 -0.48476202823E+02 -0.85659312772E+02 -0.17582302928E+03  0.20155219604E+03  0.47000000000E+01 0.  1.
         -5    1    3    3    0  502 -0.13549448554E+02  0.40891834985E+02 -0.37798955122E+02  0.57502875866E+02  0.47000000000E+01 0.  1.
        -11    1    1    2    0    0  0.36540757301E+02  0.56726386656E+02 -0.38803336958E+03  0.39385658024E+03  0.00000000000E+00 0.  1.
         11    1    1    2    0    0  0.25484894076E+02 -0.11958908869E+02 -0.32319005675E+02  0.42860394949E+02  0.00000000000E+00 0. -1.
<mgrwt>
<rscale>  0 0.13894453E+03</rscale>
<asrwt>0</asrwt>
<pdfrwt beam="2">  1        2 0.10228818E+00 0.14654412E+03</pdfrwt>
<pdfrwt beam="1">  1       -2 0.47536684E-02 0.14654412E+03</pdfrwt>
<totfact> 0.90929679E+03</totfact>
</mgrwt>
</event>
<event>
 7    1  0.6095443E-006  0.1140251E+03  0.7546771E-02  0.1261844E+00
          1   -1    0    0  501    0  0.00000000000E+00  0.00000000000E+00  0.29887644954E+03  0.29887644954E+03  0.00000000000E+00 0. -1.
         -1   -1    0    0    0  501 -0.00000000000E+00 -0.00000000000E+00 -0.66411090655E+02  0.66411090655E+02  0.00000000000E+00 0.  1.
         23    2    1    2    0    0 -0.91242759485E+01 -0.28465744493E+02  0.39881146847E+00  0.11402580005E+03  0.11003714376E+03 0.  0.
          5    1    3    3  502    0 -0.22279001617E+02 -0.44126609705E+02  0.43546939334E+02  0.66044965913E+02  0.47000000000E+01 0. -1.
         -5    1    3    3    0  502  0.13154725669E+02  0.15660865212E+02 -0.43148127865E+02  0.47980834141E+02  0.47000000000E+01 0.  1.
        -11    1    1    2    0    0  0.12859611943E+02  0.61304377801E+02  0.13777899233E+03  0.15134942049E+03  0.00000000000E+00 0.  1.
         11    1    1    2    0    0 -0.37353359948E+01 -0.32838633308E+02  0.94287555086E+02  0.99912319644E+02  0.00000000000E+00 0. -1.
<mgrwt>
<rscale>  0 0.10931498E+03</rscale>
<asrwt>0</asrwt>
<pdfrwt beam="1">  1        1 0.45980991E-01 0.11402510E+03</pdfrwt>
<pdfrwt beam="2">  1       -1 0.10217091E-01 0.11402510E+03</pdfrwt>
<totfact> 0.49256731E+03</totfact>
</mgrwt>
</event>
<event>
 7    1  0.6095443E-006  0.1606147E+03  0.7546771E-02  0.1195490E+00
         -2   -1    0    0    0  501 -0.00000000000E+00  0.00000000000E+00  0.14786256700E+03  0.14786256700E+03  0.00000000000E+00 0.  1.
          2   -1    0    0  501    0  0.00000000000E+00 -0.00000000000E+00 -0.15442461888E+03  0.15442461888E+03  0.00000000000E+00 0. -1.
         23    2    1    2    0    0  0.76359894425E+02  0.65889227865E+02  0.24817718875E+02  0.16252077969E+03  0.12499944334E+03 0.  0.
          5    1    3    3  502    0  0.53040872783E+02 -0.66977866100E+01 -0.36217274089E+02  0.64745466818E+02  0.47000000000E+01 0. -1.
         -5    1    3    3    0  502  0.23319021642E+02  0.72587014475E+02  0.61034992964E+02  0.97775312870E+02  0.47000000000E+01 0. -1.
        -11    1    1    2    0    0  0.60386472253E+01  0.13902907384E+02  0.96260500729E+01  0.17955972099E+02  0.00000000000E+00 0.  1.
         11    1    1    2    0    0 -0.82398541650E+02 -0.79792135248E+02 -0.41005820831E+02  0.12181043410E+03  0.00000000000E+00 0. -1.
<mgrwt>
<rscale>  0 0.15412811E+03</rscale>
<asrwt>0</asrwt>
<pdfrwt beam="2">  1        2 0.23757634E-01 0.16061471E+03</pdfrwt>
<pdfrwt beam="1">  1       -2 0.22748087E-01 0.16061471E+03</pdfrwt>
<totfact> 0.37116895E+03</totfact>
</mgrwt>
</event>
<event>
 7    1  0.6095443E-006  0.1613946E+03  0.7546771E-02  0.1192479E+00
          2   -1    0    0  501    0  0.00000000000E+00  0.00000000000E+00  0.54983146895E+03  0.54983146895E+03  0.00000000000E+00 0. -1.
         -2   -1    0    0    0  501 -0.00000000000E+00 -0.00000000000E+00 -0.43221478643E+02  0.43221478643E+02  0.00000000000E+00 0.  1.
         23    2    1    2    0    0 -0.96631365844E+02  0.55652373643E+02  0.31251129808E+03  0.35172651821E+03  0.11667658130E+03 0.  0.
          5    1    3    3  502    0 -0.87799194135E+02 -0.11047636445E+02  0.22051851713E+03  0.23765785314E+03  0.47000000000E+01 0. -1.
         -5    1    3    3    0  502 -0.88321717092E+01  0.66700010088E+02  0.91992780959E+02  0.11406866507E+03  0.47000000000E+01 0.  1.
        -11    1    1    2    0    0  0.63265286062E+02  0.15148541634E+02  0.92103682936E+02  0.11276108879E+03  0.00000000000E+00 0.  1.
         11    1    1    2    0    0  0.33366079782E+02 -0.70800915277E+02  0.10199500929E+03  0.12856534060E+03  0.00000000000E+00 0. -1.
<mgrwt>
<rscale>  0 0.15669519E+03</rscale>
<asrwt>0</asrwt>
<pdfrwt beam="1">  1        2 0.84589451E-01 0.16139465E+03</pdfrwt>
<pdfrwt beam="2">  1       -2 0.66494587E-02 0.16139465E+03</pdfrwt>
<totfact> 0.68357812E+03</totfact>
</mgrwt>
</event>
<event>
 7    1  0.6095443E-006  0.1668198E+03  0.7546771E-02  0.1189870E+00
         -1   -1    0    0    0  501 -0.00000000000E+00  0.00000000000E+00  0.90933703268E+03  0.90933703268E+03  0.00000000000E+00 0.  1.
          1   -1    0    0  501    0  0.00000000000E+00 -0.00000000000E+00 -0.25998144445E+02  0.25998144445E+02  0.00000000000E+00 0. -1.
         23    2    1    2    0    0  0.37402185838E+02 -0.10395146566E+03  0.54964191146E+03  0.57439976760E+03  0.12499612582E+03 0.  0.
          5    1    3    3  502    0  0.77321750468E+01  0.24050932706E+01 -0.37457549716E+01  0.10084229515E+02  0.47000000000E+01 0. -1.
         -5    1    3    3    0  502  0.29670010791E+02 -0.10635655893E+03  0.55338766643E+03  0.56431553808E+03  0.47000000000E+01 0. -1.
        -11    1    1    2    0    0 -0.50700968324E+02  0.60123499817E+02  0.12824421786E+03  0.15043936597E+03  0.00000000000E+00 0. -1.
         11    1    1    2    0    0  0.13298782487E+02  0.43827965842E+02  0.20545275891E+03  0.21049604355E+03  0.00000000000E+00 0.  1.
<mgrwt>
<rscale>  0 0.15896552E+03</rscale>
<asrwt>0</asrwt>
<pdfrwt beam="2">  1        1 0.39997152E-02 0.16681985E+03</pdfrwt>
<pdfrwt beam="1">  1       -1 0.13989798E+00 0.16681985E+03</pdfrwt>
<totfact> 0.10177371E+03</totfact>
</mgrwt>
</event>
<event>
 7    1  0.6095443E-006  0.1252394E+03  0.7546771E-02  0.1251886E+00
          1   -1    0    0  501    0  0.00000000000E+00  0.00000000000E+00  0.44616575119E+02  0.44616575119E+02  0.00000000000E+00 0. -1.
         -1   -1    0    0    0  501 -0.00000000000E+00 -0.00000000000E+00 -0.25786351815E+03  0.25786351815E+03  0.00000000000E+00 0.  1.
         23    2    1    2    0    0 -0.75655099416E+01  0.18213330412E+01 -0.13756170330E+03  0.18603257910E+03  0.12499737628E+03 0.  0.
          5    1    3    3  502    0 -0.41651111700E+02  0.54745815894E+01  0.19279482952E+01  0.42315400672E+02  0.47000000000E+01 0.  1.
         -5    1    3    3    0  502  0.34085601758E+02 -0.36532485482E+01 -0.13948965159E+03  0.14371717842E+03  0.47000000000E+01 0.  1.
        -11    1    1    2    0    0  0.44078247427E+02 -0.18746046453E+02 -0.35921141922E+02  0.59871818001E+02  0.00000000000E+00 0.  1.
         11    1    1    2    0    0 -0.36512737485E+02  0.16924713412E+02 -0.39764097813E+02  0.56575696174E+02  0.00000000000E+00 0. -1.
<mgrwt>
<rscale>  0 0.11482544E+03</rscale>
<asrwt>0</asrwt>
<pdfrwt beam="1">  1        1 0.68640886E-02 0.12523936E+03</pdfrwt>
<pdfrwt beam="2">  1       -1 0.39671310E-01 0.12523936E+03</pdfrwt>
<totfact> 0.63423560E+03</totfact>
</mgrwt>
</event>
<event>
 7    1  0.6095443E-006  0.1701442E+03  0.7546771E-02  0.1184145E+00
          2   -1    0    0  501    0  0.00000000000E+00  0.00000000000E+00  0.65561274692E+03  0.65561274692E+03  0.00000000000E+00 0. -1.
         -2   -1    0    0    0  501 -0.00000000000E+00 -0.00000000000E+00 -0.38667149594E+02  0.38667149594E+02  0.00000000000E+00 0.  1.
         23    2    1    2    0    0  0.66536955739E+02 -0.94312329518E+02  0.30223918837E+03  0.34683939757E+03  0.12500823468E+03 0.  0.
          5    1    3    3  502    0  0.62827143313E+02 -0.20447163639E+02  0.47418274844E+02  0.81461151642E+02  0.47000000000E+01 0. -1.
         -5    1    3    3    0  502  0.37098124263E+01 -0.73865165879E+02  0.25482091353E+03  0.26537824593E+03  0.47000000000E+01 0. -1.
        -11    1    1    2    0    0 -0.25684609494E+02  0.87765227143E+01  0.11003263569E+02  0.29288194293E+02  0.00000000000E+00 0.  1.
         11    1    1    2    0    0 -0.40852346245E+02  0.85535806804E+02  0.30370314538E+03  0.31815230465E+03  0.00000000000E+00 0. -1.
<mgrwt>
<rscale>  0 0.16409946E+03</rscale>
<asrwt>0</asrwt>
<pdfrwt beam="1">  1        2 0.10086349E+00 0.17014418E+03</pdfrwt>
<pdfrwt beam="2">  1       -2 0.59487927E-02 0.17014418E+03</pdfrwt>
<totfact> 0.66394027E+03</totfact>
</mgrwt>
</event>
<event>
 7    1  0.6095443E-006  0.1406072E+03  0.7546771E-02  0.1223855E+00
         -2   -1    0    0    0  501 -0.00000000000E+00  0.00000000000E+00  0.28305792934E+03  0.28305792934E+03  0.00000000000E+00 0.  1.
          2   -1    0    0  501    0  0.00000000000E+00 -0.00000000000E+00 -0.56555748078E+02  0.56555748078E+02  0.00000000000E+00 0. -1.
         23    2    1    2    0    0 -0.99703270702E+01  0.63612369688E+02  0.14610147328E+03  0.20277086358E+03  0.12499776647E+03 0.  0.
          5    1    3    3  502    0 -0.20755361301E+02 -0.33929305277E+02  0.59963761702E+02  0.72109122146E+02  0.47000000000E+01 0. -1.
         -5    1    3    3    0  502  0.10785034231E+02  0.97541674965E+02  0.86137711578E+02  0.13066174143E+03  0.47000000000E+01 0. -1.
        -11    1    1    2    0    0  0.47384700912E+02 -0.24635060865E+02  0.56555569000E+02  0.77786428696E+02  0.00000000000E+00 0. -1.
         11    1    1    2    0    0 -0.37414373842E+02 -0.38977308824E+02  0.23845138983E+02  0.59056385144E+02  0.00000000000E+00 0.  1.
<mgrwt>
<rscale>  0 0.13245685E+03</rscale>
<asrwt>0</asrwt>
<pdfrwt beam="2">  1        2 0.87008845E-02 0.14060719E+03</pdfrwt>
<pdfrwt beam="1">  1       -2 0.43547373E-01 0.14060719E+03</pdfrwt>
<totfact> 0.36960822E+03</totfact>
</mgrwt>
</event>
<event>
 7    1  0.6095443E-006  0.1798567E+03  0.7546771E-02  0.1179965E+00
         -2   -1    0    0    0  501 -0.00000000000E+00  0.00000000000E+00  0.39049378175E+02  0.39049378175E+02  0.00000000000E+00 0.  1.
          2   -1    0    0  501    0  0.00000000000E+00 -0.00000000000E+00 -0.65511352547E+03  0.65511352547E+03  0.00000000000E+00 0. -1.
         23    2    1    2    0    0  0.12640087160E+03 -0.27317800297E+02 -0.30079115426E+03  0.35046222148E+03  0.12500003058E+03 0.  0.
          5    1    3    3  502    0  0.10037786618E+03 -0.20548029087E+01 -0.29717533608E+03  0.31371198353E+03  0.47000000000E+01 0.  1.
         -5    1    3    3    0  502  0.26023005418E+02 -0.25262997388E+02 -0.36158181812E+01  0.36750237947E+02  0.47000000000E+01 0.  1.
        -11    1    1    2    0    0 -0.11607706992E+03  0.14004472546E+02 -0.24545679173E+03  0.27188057676E+03  0.00000000000E+00 0.  1.
         11    1    1    2    0    0 -0.10323801682E+02  0.13313327751E+02 -0.69816201299E+02  0.71820105408E+02  0.00000000000E+00 0. -1.
<mgrwt>
<rscale>  0 0.16798529E+03</rscale>
<asrwt>0</asrwt>
<pdfrwt beam="2">  1        2 0.10078670E+00 0.17985675E+03</pdfrwt>
<pdfrwt beam="1">  1       -2 0.60075966E-02 0.17985675E+03</pdfrwt>
<totfact> 0.65640262E+03</totfact>
</mgrwt>
</event>
<event>
 7    1  0.6095443E-006  0.2707332E+03  0.7546771E-02  0.1102914E+00
          2   -1    0    0  501    0  0.00000000000E+00  0.00000000000E+00  0.18106469416E+03  0.18106469416E+03  0.00000000000E+00 0. -1.
         -2   -1    0    0    0  501 -0.00000000000E+00 -0.00000000000E+00 -0.41913183697E+03  0.41913183697E+03  0.00000000000E+00 0.  1.
         23    2    1    2    0    0 -0.17123806690E+03  0.16837024839E+03 -0.20860737608E+03  0.34177990906E+03  0.12500181112E+03 0.  0.
          5    1    3    3  502    0  0.31400191469E+01  0.36595183634E+02 -0.79959058211E+02  0.88117014109E+02  0.47000000000E+01 0.  1.
         -5    1    3    3    0  502 -0.17437808605E+03  0.13177506476E+03 -0.12864831787E+03  0.25366289495E+03  0.47000000000E+01 0.  1.
        -11    1    1    2    0    0  0.89701485466E+02 -0.11619647981E+03 -0.57475993718E+02  0.15764348470E+03  0.00000000000E+00 0.  1.
         11    1    1    2    0    0  0.81536581436E+02 -0.52173768586E+02  0.28016226993E+02  0.10077313737E+03  0.00000000000E+00 0. -1.
<mgrwt>
<rscale>  0 0.26716287E+03</rscale>
<asrwt>0</asrwt>
<pdfrwt beam="1">  1        2 0.27856107E-01 0.27073321E+03</pdfrwt>
<pdfrwt beam="2">  1       -2 0.64481821E-01 0.27073321E+03</pdfrwt>
<totfact> 0.43449696E+02</totfact>
</mgrwt>
</event>
<event>
 7    1  0.6095443E-006  0.1446185E+03  0.7546771E-02  0.1217829E+00
         -2   -1    0    0    0  501 -0.00000000000E+00  0.00000000000E+00  0.81958192054E+02  0.81958192054E+02  0.00000000000E+00 0.  1.
          2   -1    0    0  501    0  0.00000000000E+00 -0.00000000000E+00 -0.20661374473E+03  0.20661374473E+03  0.00000000000E+00 0. -1.
         23    2    1    2    0    0 -0.68935965628E+02  0.23179537005E+02 -0.64219451585E+02  0.15823603619E+03  0.12500018758E+03 0.  0.
          5    1    3    3  502    0  0.23789712270E+02 -0.11511619554E+02  0.15538311590E+02  0.31016075215E+02  0.47000000000E+01 0.  1.
         -5    1    3    3    0  502 -0.92725677898E+02  0.34691156559E+02 -0.79757763175E+02  0.12721996098E+03  0.47000000000E+01 0.  1.
        -11    1    1    2    0    0  0.36620796322E+02 -0.32629127207E+02  0.11967273115E+02  0.50487209186E+02  0.00000000000E+00 0.  1.
         11    1    1    2    0    0  0.32315169306E+02  0.94495902020E+01 -0.72403374205E+02  0.79848691401E+02  0.00000000000E+00 0. -1.
<mgrwt>
<rscale>  0 0.13670729E+03</rscale>
<asrwt>0</asrwt>
<pdfrwt beam="2">  1        2 0.31786730E-01 0.14461848E+03</pdfrwt>
<pdfrwt beam="1">  1       -2 0.12608953E-01 0.14461848E+03</pdfrwt>
<totfact> 0.71526084E+03</totfact>
</mgrwt>
</event>
<event>
 6    1  0.6095443E-006  0.2323249E+03  0.7546771E-02  0.1132981E+00
         -2   -1    0    0    0  501 -0.00000000000E+00  0.00000000000E+00  0.29653604432E+03  0.29653604432E+03  0.00000000000E+00 0.  1.
          2   -1    0    0  501    0  0.00000000000E+00 -0.00000000000E+00 -0.22606576105E+03  0.22606576105E+03  0.00000000000E+00 0. -1.
          5    1    1    2  502    0 -0.26988161848E+02  0.45603760896E+02 -0.91584285116E+01  0.53981762667E+02  0.47000000000E+01 0. -1.
         -5    1    1    2    0  502 -0.13881332099E+03 -0.42911109894E+02  0.19672429752E+03  0.24460793256E+03  0.47000000000E+01 0.  1.
        -11    1    1    2    0    0 -0.93272234684E+01  0.11583529285E+02 -0.13195101389E+02  0.19881799440E+02  0.00000000000E+00 0.  1.
         11    1    1    2    0    0  0.17512870631E+03 -0.14276180287E+02 -0.10390048436E+03  0.20413031070E+03  0.00000000000E+00 0. -1.
<mgrwt>
<rscale>  0 0.22121463E+03</rscale>
<asrwt>0</asrwt>
<pdfrwt beam="2">  1        2 0.34779348E-01 0.23232488E+03</pdfrwt>
<pdfrwt beam="1">  1       -2 0.45620930E-01 0.23232488E+03</pdfrwt>
<totfact> 0.68754033E+02</totfact>
</mgrwt>
</event>
<event>
 7    1  0.6095443E-006  0.1636064E+03  0.7546771E-02  0.1191808E+00
         -3   -1    0    0    0  501 -0.00000000000E+00  0.00000000000E+00  0.12644039772E+03  0.12644039772E+03  0.00000000000E+00 0.  1.
          3   -1    0    0  501    0  0.00000000000E+00 -0.00000000000E+00 -0.21192623417E+03  0.21192623417E+03  0.00000000000E+00 0. -1.
         23    2    1    2    0    0 -0.10493606098E+03 -0.11422544827E+02  0.17867477988E+02  0.16457916137E+03  0.12500000865E+03 0.  0.
          5    1    3    3  502    0 -0.53394349488E+02  0.47189130848E+02 -0.24683976652E+02  0.75558979154E+02  0.47000000000E+01 0. -1.
         -5    1    3    3    0  502 -0.51541711494E+02 -0.58611675675E+02  0.42551454640E+02  0.89020182212E+02  0.47000000000E+01 0. -1.
        -11    1    1    2    0    0  0.36676817720E+02  0.19662503118E+02 -0.96010885492E+02  0.10464173699E+03  0.00000000000E+00 0. -1.
         11    1    1    2    0    0  0.68259243262E+02 -0.82399582911E+01 -0.73424289463E+01  0.69145733535E+02  0.00000000000E+00 0.  1.
<mgrwt>
<rscale>  0 0.15727536E+03</rscale>
<asrwt>0</asrwt>
<pdfrwt beam="2">  1        3 0.32604036E-01 0.16360640E+03</pdfrwt>
<pdfrwt beam="1">  1       -3 0.19452369E-01 0.16360640E+03</pdfrwt>
<totfact> 0.51531001E+02</totfact>
</mgrwt>
</event>
<event>
 7    1  0.6095443E-006  0.1295731E+03  0.7546771E-02  0.1242295E+00
         -1   -1    0    0    0  501 -0.00000000000E+00  0.00000000000E+00  0.24726869779E+03  0.24726869779E+03  0.00000000000E+00 0.  1.
          1   -1    0    0  501    0  0.00000000000E+00 -0.00000000000E+00 -0.54289231389E+02  0.54289231389E+02  0.00000000000E+00 0. -1.
         23    2    1    2    0    0  0.33104801703E+02 -0.82212332625E+01  0.14145581031E+03  0.19183048973E+03  0.12500269576E+03 0.  0.
          5    1    3    3  502    0  0.58549035250E+02  0.37301072094E+01  0.15076613019E+03  0.16184690062E+03  0.47000000000E+01 0.  1.
         -5    1    3    3    0  502 -0.25444233547E+02 -0.11951340472E+02 -0.93103198777E+01  0.29983589113E+02  0.47000000000E+01 0.  1.
        -11    1    1    2    0    0 -0.57513706565E+02  0.42574754768E+01  0.60792452478E+01  0.57990600644E+02  0.00000000000E+00 0.  1.
         11    1    1    2    0    0  0.24408904862E+02  0.39637577857E+01  0.45444410848E+02  0.51736838806E+02  0.00000000000E+00 0. -1.
<mgrwt>
<rscale>  0 0.12048775E+03</rscale>
<asrwt>0</asrwt>
<pdfrwt beam="2">  1        1 0.83521896E-02 0.12957311E+03</pdfrwt>
<pdfrwt beam="1">  1       -1 0.38041337E-01 0.12957311E+03</pdfrwt>
<totfact> 0.52565825E+03</totfact>
</mgrwt>
</event>
<event>
 7    1  0.6095443E-006  0.1702340E+03  0.7546771E-02  0.1184133E+00
         -2   -1    0    0    0  501 -0.00000000000E+00  0.00000000000E+00  0.29431367911E+03  0.29431367911E+03  0.00000000000E+00 0.  1.
          2   -1    0    0  501    0  0.00000000000E+00 -0.00000000000E+00 -0.85813581591E+02  0.85813581591E+02  0.00000000000E+00 0. -1.
         23    2    1    2    0    0  0.14578208303E+01  0.11554931469E+03  0.12328590169E+03  0.21018809193E+03  0.12500340423E+03 0.  0.
          5    1    3    3  502    0 -0.17044588308E+02  0.13633763543E+03  0.81681692318E+02  0.15991390710E+03  0.47000000000E+01 0. -1.
         -5    1    3    3    0  502  0.18502409138E+02 -0.20788320740E+02  0.41604209368E+02  0.50274184829E+02  0.47000000000E+01 0. -1.
        -11    1    1    2    0    0  0.17495654374E+02 -0.10767170585E+03  0.97254590202E+02  0.14614290773E+03  0.00000000000E+00 0.  1.
         11    1    1    2    0    0 -0.18953475204E+02 -0.78776088375E+01 -0.12040394365E+02  0.23796261046E+02  0.00000000000E+00 0. -1.
<mgrwt>
<rscale>  0 0.16411049E+03</rscale>
<asrwt>0</asrwt>
<pdfrwt beam="2">  1        2 0.13202090E-01 0.17023402E+03</pdfrwt>
<pdfrwt beam="1">  1       -2 0.45279027E-01 0.17023402E+03</pdfrwt>
<totfact> 0.20808666E+03</totfact>
</mgrwt>
</event>
<event>
 7    1  0.6095443E-006  0.1424057E+03  0.7546771E-02  0.1219074E+00
         -1   -1    0    0    0  501 -0.00000000000E+00  0.00000000000E+00  0.10890033727E+03  0.10890033727E+03  0.00000000000E+00 0.  1.
          1   -1    0    0  501    0  0.00000000000E+00 -0.00000000000E+00 -0.18906860593E+03  0.18906860593E+03  0.00000000000E+00 0. -1.
         23    2    1    2    0    0  0.62376280121E+02 -0.27646944383E+02  0.19390281893E+02  0.14371970857E+03  0.12499687093E+03 0.  0.
          5    1    3    3  502    0  0.14154897010E+02 -0.71823008909E+02  0.25987476318E+02  0.77822520157E+02  0.47000000000E+01 0.  1.
         -5    1    3    3    0  502  0.48221383111E+02  0.44176064527E+02 -0.65971944250E+01  0.65897188411E+02  0.47000000000E+01 0.  1.
        -11    1    1    2    0    0 -0.29015927863E+02  0.14025977415E+02  0.13980088378E+02  0.35129688061E+02  0.00000000000E+00 0.  1.
         11    1    1    2    0    0 -0.33360352259E+02  0.13620966968E+02 -0.11353863893E+03  0.11911954657E+03  0.00000000000E+00 0. -1.
<mgrwt>
<rscale>  0 0.13581499E+03</rscale>
<asrwt>0</asrwt>
<pdfrwt beam="2">  1        1 0.29087477E-01 0.14240566E+03</pdfrwt>
<pdfrwt beam="1">  1       -1 0.16753898E-01 0.14240566E+03</pdfrwt>
<totfact> 0.40822667E+03</totfact>
</mgrwt>
</event>
<event>
 7    1  0.6095443E-006  0.1572622E+03  0.7546771E-02  0.1199646E+00
         -1   -1    0    0    0  501 -0.00000000000E+00  0.00000000000E+00  0.28129202804E+02  0.28129202804E+02  0.00000000000E+00 0.  1.
          1   -1    0    0  501    0  0.00000000000E+00 -0.00000000000E+00 -0.85926012487E+03  0.85926012487E+03  0.00000000000E+00 0. -1.
         23    2    1    2    0    0 -0.22794925111E+02  0.92654063038E+02 -0.28604250312E+03  0.32642257738E+03  0.12500800544E+03 0.  0.
          5    1    3    3  502    0 -0.51742062555E+02  0.68161531529E+02 -0.27286051754E+03  0.28600382419E+03  0.47000000000E+01 0. -1.
         -5    1    3    3    0  502  0.28947137444E+02  0.24492531509E+02 -0.13181985585E+02  0.40418753196E+02  0.47000000000E+01 0. -1.
        -11    1    1    2    0    0  0.31241359772E+02  0.10005085784E+01 -0.70002912236E+02  0.76664406991E+02  0.00000000000E+00 0.  1.
         11    1    1    2    0    0 -0.84464346613E+01 -0.93654571617E+02 -0.47508550671E+03  0.48430234330E+03  0.00000000000E+00 0. -1.
<mgrwt>
<rscale>  0 0.15067489E+03</rscale>
<asrwt>0</asrwt>
<pdfrwt beam="2">  1        1 0.13219386E+00 0.15726216E+03</pdfrwt>
<pdfrwt beam="1">  1       -1 0.43275699E-02 0.15726216E+03</pdfrwt>
<totfact> 0.44143844E+03</totfact>
</mgrwt>
</event>
<event>
 7    1  0.6095443E-006  0.1300835E+03  0.7546771E-02  0.1241791E+00
         -1   -1    0    0    0  501 -0.00000000000E+00  0.00000000000E+00  0.13477608914E+02  0.13477608914E+02  0.00000000000E+00 0. -1.
          1   -1    0    0  501    0  0.00000000000E+00 -0.00000000000E+00 -0.10055259460E+04  0.10055259460E+04  0.00000000000E+00 0.  1.
         23    2    1    2    0    0 -0.79862359437E+01  0.35099801737E+02 -0.67918584319E+03  0.69153099689E+03  0.12500373603E+03 0.  0.
          5    1    3    3  502    0 -0.34039912535E+02  0.68170788681E+02 -0.55705562207E+03  0.56226241930E+03  0.47000000000E+01 0. -1.
         -5    1    3    3    0  502  0.26053676591E+02 -0.33070986944E+02 -0.12213022112E+03  0.12926857759E+03  0.47000000000E+01 0. -1.
        -11    1    1    2    0    0  0.30443041828E+02 -0.56358960922E+02 -0.23813028589E+03  0.24659510200E+03  0.00000000000E+00 0.  1.
         11    1    1    2    0    0 -0.22456805884E+02  0.21259159185E+02 -0.74732208002E+02  0.80877456022E+02  0.00000000000E+00 0. -1.
<mgrwt>
<rscale>  0 0.12079502E+03</rscale>
<asrwt>0</asrwt>
<pdfrwt beam="2">  1        1 0.15469633E+00 0.13008347E+03</pdfrwt>
<pdfrwt beam="1">  1       -1 0.20734778E-02 0.13008347E+03</pdfrwt>
<totfact> 0.99127494E+03</totfact>
</mgrwt>
</event>
<event>
 7    1  0.6095443E-006  0.1745928E+03  0.7546771E-02  0.1178960E+00
         -2   -1    0    0    0  501 -0.00000000000E+00  0.00000000000E+00  0.10018011853E+03  0.10018011853E+03  0.00000000000E+00 0.  1.
          2   -1    0    0  501    0  0.00000000000E+00 -0.00000000000E+00 -0.26830789945E+03  0.26830789945E+03  0.00000000000E+00 0. -1.
         23    2    1    2    0    0  0.12111372670E+03  0.13745922857E+02 -0.82332426287E+02  0.19303177323E+03  0.12500060747E+03 0.  0.
          5    1    3    3  502    0  0.11192746085E+02  0.52998340446E+02 -0.44452327227E+02  0.70229630860E+02  0.47000000000E+01 0.  1.
         -5    1    3    3    0  502  0.10992098062E+03 -0.39252417589E+02 -0.37880099060E+02  0.12280214237E+03  0.47000000000E+01 0.  1.
        -11    1    1    2    0    0 -0.47247505792E+02 -0.34606825667E+02  0.23033668751E+01  0.58611131069E+02  0.00000000000E+00 0.  1.
         11    1    1    2    0    0 -0.73866220910E+02  0.20860902810E+02 -0.88098721510E+02  0.11684511367E+03  0.00000000000E+00 0. -1.
<mgrwt>
<rscale>  0 0.16893804E+03</rscale>
<asrwt>0</asrwt>
<pdfrwt beam="2">  1        2 0.41278138E-01 0.17459277E+03</pdfrwt>
<pdfrwt beam="1">  1       -2 0.15412326E-01 0.17459277E+03</pdfrwt>
<totfact> 0.39388844E+03</totfact>
</mgrwt>
</event>
<event>
 7    1  0.6095443E-006  0.1234693E+03  0.7546771E-02  0.1245478E+00
          4   -1    0    0  501    0  0.00000000000E+00  0.00000000000E+00  0.17129600135E+03  0.17129600135E+03  0.00000000000E+00 0. -1.
         -4   -1    0    0    0  501 -0.00000000000E+00 -0.00000000000E+00 -0.97540252315E+02  0.97540252315E+02  0.00000000000E+00 0.  1.
         23    2    1    2    0    0  0.24110404541E+02 -0.49925328903E+02 -0.23533082962E+02  0.12569197051E+03  0.11032141852E+03 0.  0.
          5    1    3    3  502    0  0.33572214028E+02  0.12593056531E+02  0.26574885977E+02  0.44877535496E+02  0.47000000000E+01 0. -1.
         -5    1    3    3    0  502 -0.94618094871E+01 -0.62518385434E+02 -0.50107968939E+02  0.80814435018E+02  0.47000000000E+01 0.  1.
        -11    1    1    2    0    0  0.14351558771E+02 -0.13017073519E+01 -0.10449534686E+02  0.17800406072E+02  0.00000000000E+00 0.  1.
         11    1    1    2    0    0 -0.38461963311E+02  0.51227036255E+02  0.10773836668E+03  0.12534387708E+03  0.00000000000E+00 0. -1.
<mgrwt>
<rscale>  0 0.11856797E+03</rscale>
<asrwt>0</asrwt>
<pdfrwt beam="1">  1        4 0.26353231E-01 0.12346929E+03</pdfrwt>
<pdfrwt beam="2">  1       -4 0.15006193E-01 0.12346929E+03</pdfrwt>
<totfact> 0.82859024E+02</totfact>
</mgrwt>
</event>
<event>
 6    1  0.6095443E-006  0.2387780E+03  0.7546771E-02  0.1142017E+00
          1   -1    0    0  501    0  0.00000000000E+00  0.00000000000E+00  0.16782092034E+03  0.16782092034E+03  0.00000000000E+00 0. -1.
         -1   -1    0    0    0  501 -0.00000000000E+00 -0.00000000000E+00 -0.24095428058E+03  0.24095428058E+03  0.00000000000E+00 0.  1.
          5    1    1    2  502    0 -0.15362160744E+02  0.83320497108E+02 -0.23780073563E+02  0.88124248194E+02  0.47000000000E+01 0. -1.
         -5    1    1    2    0  502  0.12909857613E+03 -0.80184807011E+02 -0.85973757909E+02  0.17467003946E+03  0.47000000000E+01 0.  1.
        -11    1    1    2    0    0 -0.39461482387E+02 -0.69015684535E+01  0.56255986299E+02  0.69062118660E+02  0.00000000000E+00 0. -1.
         11    1    1    2    0    0 -0.74274933003E+02  0.37658783572E+01 -0.19635515066E+02  0.76918794610E+02  0.00000000000E+00 0.  1.
<mgrwt>
<rscale>  0 0.20943115E+03</rscale>
<asrwt>0</asrwt>
<pdfrwt beam="1">  1        1 0.25818603E-01 0.23877800E+03</pdfrwt>
<pdfrwt beam="2">  1       -1 0.37069889E-01 0.23877800E+03</pdfrwt>
<totfact> 0.12938695E+03</totfact>
</mgrwt>
</event>
<event>
 7    1  0.6095443E-006  0.1440103E+03  0.7546771E-02  0.1217850E+00
         -1   -1    0    0    0  501 -0.00000000000E+00  0.00000000000E+00  0.13660251930E+03  0.13660251930E+03  0.00000000000E+00 0.  1.
          1   -1    0    0  501    0  0.00000000000E+00 -0.00000000000E+00 -0.14021067003E+03  0.14021067003E+03  0.00000000000E+00 0. -1.
         23    2    1    2    0    0  0.55353010028E+02  0.45291155553E+02  0.44018267965E+02  0.15058743872E+03  0.12499489708E+03 0.  0.
          5    1    3    3  502    0 -0.23766912394E+02 -0.11971540169E+02 -0.20082562903E+02  0.33668727798E+02  0.47000000000E+01 0. -1.
         -5    1    3    3    0  502  0.79119922422E+02  0.57262695722E+02  0.64100830868E+02  0.11691871092E+03  0.47000000000E+01 0. -1.
        -11    1    1    2    0    0 -0.33672819221E+02 -0.26816638455E+02  0.23900127846E+02  0.49236236283E+02  0.00000000000E+00 0.  1.
         11    1    1    2    0    0 -0.21680190807E+02 -0.18474517099E+02 -0.71526546543E+02  0.76989514324E+02  0.00000000000E+00 0. -1.
<mgrwt>
<rscale>  0 0.13669262E+03</rscale>
<asrwt>0</asrwt>
<pdfrwt beam="2">  1        1 0.21570873E-01 0.14401031E+03</pdfrwt>
<pdfrwt beam="1">  1       -1 0.21015772E-01 0.14401031E+03</pdfrwt>
<totfact> 0.41403377E+03</totfact>
</mgrwt>
</event>
<event>
 7    1  0.6095443E-006  0.1818339E+03  0.7546771E-02  0.1171386E+00
         -3   -1    0    0    0  501 -0.00000000000E+00  0.00000000000E+00  0.81251167990E+02  0.81251167990E+02  0.00000000000E+00 0.  1.
          3   -1    0    0  501    0  0.00000000000E+00 -0.00000000000E+00 -0.51301493014E+03  0.51301493014E+03  0.00000000000E+00 0. -1.
         23    2    1    2    0    0  0.26020004170E+02 -0.12946152484E+03 -0.63840931437E+02  0.19271541465E+03  0.12500495784E+03 0.  0.
          5    1    3    3  502    0  0.27229506071E+02 -0.93203374595E+02  0.21765929408E+02  0.99620081910E+02  0.47000000000E+01 0.  1.
         -5    1    3    3    0  502 -0.12095019008E+01 -0.36258150249E+02 -0.85606860845E+02  0.93095332740E+02  0.47000000000E+01 0.  1.
        -11    1    1    2    0    0  0.39964655245E+01  0.13055662714E+03 -0.29093008696E+03  0.31890644416E+03  0.00000000000E+00 0.  1.
         11    1    1    2    0    0 -0.30016469694E+02 -0.10951023001E+01 -0.76992743755E+02  0.82644239321E+02  0.00000000000E+00 0. -1.
<mgrwt>
<rscale>  0 0.17634686E+03</rscale>
<asrwt>0</asrwt>
<pdfrwt beam="2">  1        3 0.78925374E-01 0.18183390E+03</pdfrwt>
<pdfrwt beam="1">  1       -3 0.12500180E-01 0.18183390E+03</pdfrwt>
<totfact> 0.18849738E+02</totfact>
</mgrwt>
</event>
<event>
 7    1  0.6095443E-006  0.1354670E+03  0.7546771E-02  0.1232110E+00
         -2   -1    0    0    0  501 -0.00000000000E+00  0.00000000000E+00  0.10841607961E+03  0.10841607961E+03  0.00000000000E+00 0.  1.
          2   -1    0    0  501    0  0.00000000000E+00 -0.00000000000E+00 -0.14427107229E+03  0.14427107229E+03  0.00000000000E+00 0. -1.
         23    2    1    2    0    0 -0.52211878892E+02 -0.85136213460E+00  0.15550732205E+02  0.13635667343E+03  0.12499804799E+03 0.  0.
          5    1    3    3  502    0  0.96754329993E+01  0.52519386621E+02  0.63240061095E+01  0.53981321104E+02  0.47000000000E+01 0. -1.
         -5    1    3    3    0  502 -0.61887311891E+02 -0.53370748756E+02  0.92267260958E+01  0.82375352323E+02  0.47000000000E+01 0. -1.
        -11    1    1    2    0    0 -0.12023596559E+02 -0.23811570557E+02  0.52653831522E+01  0.27189741197E+02  0.00000000000E+00 0.  1.
         11    1    1    2    0    0  0.64235475451E+02  0.24662932692E+02 -0.56671108042E+02  0.89140737275E+02  0.00000000000E+00 0. -1.
<mgrwt>
<rscale>  0 0.12691263E+03</rscale>
<asrwt>0</asrwt>
<pdfrwt beam="2">  1        2 0.22195549E-01 0.13546703E+03</pdfrwt>
<pdfrwt beam="1">  1       -2 0.16679397E-01 0.13546703E+03</pdfrwt>
<totfact> 0.66946979E+03</totfact>
</mgrwt>
</event>
<event>
 6    1  0.6095443E-006  0.1587762E+03  0.7546771E-02  0.1206090E+00
         -1   -1    0    0    0  501 -0.00000000000E+00  0.00000000000E+00  0.68330202727E+03  0.68330202727E+03  0.00000000000E+00 0.  1.
          1   -1    0    0  501    0  0.00000000000E+00 -0.00000000000E+00 -0.37121213237E+02  0.37121213237E+02  0.00000000000E+00 0. -1.
          5    1    1    2  502    0 -0.21877706988E+02 -0.68030569993E+02  0.39369157531E+03  0.40015239471E+03  0.47000000000E+01 0.  1.
         -5    1    1    2    0  502  0.67757358100E+02  0.25745218654E+02  0.15731532677E+03  0.17327457372E+03  0.47000000000E+01 0. -1.
        -11    1    1    2    0    0  0.86594860662E-01 -0.23917641130E+02  0.47949869175E+02  0.53584055556E+02  0.00000000000E+00 0.  1.
         11    1    1    2    0    0 -0.45966245973E+02  0.66202992470E+02  0.47224042776E+02  0.93412216529E+02  0.00000000000E+00 0. -1.
<mgrwt>
<rscale>  0 0.14551869E+03</rscale>
<asrwt>0</asrwt>
<pdfrwt beam="2">  1        1 0.57109564E-02 0.15877620E+03</pdfrwt>
<pdfrwt beam="1">  1       -1 0.10512338E+00 0.15877620E+03</pdfrwt>
<totfact> 0.12270676E+03</totfact>
</mgrwt>
</event>
<event>
 7    1  0.6095443E-006  0.1300962E+03  0.7546771E-02  0.1240693E+00
         -2   -1    0    0    0  501 -0.00000000000E+00  0.00000000000E+00  0.13686224599E+03  0.13686224599E+03  0.00000000000E+00 0.  1.
          2   -1    0    0  501    0  0.00000000000E+00 -0.00000000000E+00 -0.10539385793E+03  0.10539385793E+03  0.00000000000E+00 0. -1.
         23    2    1    2    0    0 -0.23285361842E+02 -0.27514933129E+02  0.53985377750E+02  0.14085251595E+03  0.12500292243E+03 0.  0.
          5    1    3    3  502    0 -0.34681934779E+01 -0.63534425508E+02 -0.10072220213E+02  0.64592501196E+02  0.47000000000E+01 0.  1.
         -5    1    3    3    0  502 -0.19817168364E+02  0.36019492380E+02  0.64057597963E+02  0.76260014753E+02  0.47000000000E+01 0.  1.
        -11    1    1    2    0    0  0.35032695998E+02  0.56052106453E+02 -0.59220219259E+01  0.66364137683E+02  0.00000000000E+00 0.  1.
         11    1    1    2    0    0 -0.11747334156E+02 -0.28537173324E+02 -0.16594967762E+02  0.35039450283E+02  0.00000000000E+00 0. -1.
<mgrwt>
<rscale>  0 0.12146934E+03</rscale>
<asrwt>0</asrwt>
<pdfrwt beam="2">  1        2 0.16214440E-01 0.13009616E+03</pdfrwt>
<pdfrwt beam="1">  1       -2 0.21055730E-01 0.13009616E+03</pdfrwt>
<totfact> 0.64543967E+03</totfact>
</mgrwt>
</event>
<event>
 7    1  0.6095443E-006  0.1219848E+03  0.7546771E-02  0.1251169E+00
          2   -1    0    0  501    0  0.00000000000E+00  0.00000000000E+00  0.11946288340E+03  0.11946288340E+03  0.00000000000E+00 0. -1.
         -2   -1    0    0    0  501 -0.00000000000E+00 -0.00000000000E+00 -0.12461580469E+03  0.12461580469E+03  0.00000000000E+00 0.  1.
         23    2    1    2    0    0 -0.42957064050E+02 -0.17147948548E+02 -0.56229915649E+02  0.13432089338E+03  0.11287576132E+03 0.  0.
          5    1    3    3  502    0  0.36559751733E+02  0.15491731800E+00 -0.30345446750E+01  0.36985644614E+02  0.47000000000E+01 0. -1.
         -5    1    3    3    0  502 -0.79516815783E+02 -0.17302865866E+02 -0.53195370974E+02  0.97335248767E+02  0.47000000000E+01 0.  1.
        -11    1    1    2    0    0  0.53898347223E+02  0.38032162669E+02  0.54963285319E+02  0.85862913785E+02  0.00000000000E+00 0. -1.
         11    1    1    2    0    0 -0.10941283172E+02 -0.20884214121E+02 -0.38862909625E+01  0.23894880923E+02  0.00000000000E+00 0.  1.
<mgrwt>
<rscale>  0 0.11523619E+03</rscale>
<asrwt>0</asrwt>
<pdfrwt beam="1">  1        2 0.18378905E-01 0.12198483E+03</pdfrwt>
<pdfrwt beam="2">  1       -2 0.19171662E-01 0.12198483E+03</pdfrwt>
<totfact> 0.65176757E+03</totfact>
</mgrwt>
</event>
<event>
 7    1  0.6095443E-006  0.1462790E+03  0.7546771E-02  0.1215645E+00
          3   -1    0    0  501    0  0.00000000000E+00  0.00000000000E+00  0.54708568581E+03  0.54708568581E+03  0.00000000000E+00 0. -1.
         -3   -1    0    0    0  501 -0.00000000000E+00 -0.00000000000E+00 -0.32440878331E+02  0.32440878331E+02  0.00000000000E+00 0.  1.
         23    2    1    2    0    0 -0.21942543900E+02 -0.72745079043E+02  0.24015034978E+03  0.28119341592E+03  0.12499689955E+03 0.  0.
          5    1    3    3  502    0  0.24766871610E+01 -0.51797657292E+02  0.24303601999E+03  0.24855125888E+03  0.47000000000E+01 0. -1.
         -5    1    3    3    0  502 -0.24419231061E+02 -0.20947421751E+02 -0.28856702032E+01  0.32642157039E+02  0.47000000000E+01 0. -1.
        -11    1    1    2    0    0  0.55088864863E+02  0.44792216454E+02  0.19881519975E+03  0.21111278819E+03  0.00000000000E+00 0. -1.
         11    1    1    2    0    0 -0.33146320963E+02  0.27952862589E+02  0.75679257946E+02  0.87220360029E+02  0.00000000000E+00 0.  1.
<mgrwt>
<rscale>  0 0.13829287E+03</rscale>
<asrwt>0</asrwt>
<pdfrwt beam="1">  1        3 0.84167022E-01 0.14627900E+03</pdfrwt>
<pdfrwt beam="2">  1       -3 0.49909048E-02 0.14627900E+03</pdfrwt>
<totfact> 0.71425571E+02</totfact>
</mgrwt>
</event>
<event>
 7    1  0.6095443E-006  0.1325277E+03  0.7546771E-02  0.1235397E+00
         -4   -1    0    0    0  501 -0.00000000000E+00  0.00000000000E+00  0.74602802315E+02  0.74602802315E+02  0.00000000000E+00 0.  1.
          4   -1    0    0  501    0  0.00000000000E+00 -0.00000000000E+00 -0.19387663080E+03  0.19387663080E+03  0.00000000000E+00 0. -1.
         23    2    1    2    0    0 -0.27281558562E-01 -0.44042479028E+02 -0.42897334540E+02  0.13929739563E+03  0.12499536957E+03 0.  0.
          5    1    3    3  502    0 -0.31950868961E+02 -0.39421744914E+02  0.30216836044E+02  0.59245921209E+02  0.47000000000E+01 0. -1.
         -5    1    3    3    0  502  0.31923587403E+02 -0.46207341139E+01 -0.73114170584E+02  0.80051474419E+02  0.47000000000E+01 0. -1.
        -11    1    1    2    0    0  0.14902351813E+02  0.38035532089E+02 -0.95707780783E+02  0.10406133332E+03  0.00000000000E+00 0. -1.
         11    1    1    2    0    0 -0.14875070255E+02  0.60069469384E+01  0.19331286841E+02  0.25120704161E+02  0.00000000000E+00 0.  1.
<mgrwt>
<rscale>  0 0.12479058E+03</rscale>
<asrwt>0</asrwt>
<pdfrwt beam="2">  1        4 0.29827173E-01 0.13252767E+03</pdfrwt>
<pdfrwt beam="1">  1       -4 0.11477354E-01 0.13252767E+03</pdfrwt>
<totfact> 0.10590312E+03</totfact>
</mgrwt>
</event>
<event>
 7    1  0.6095443E-006  0.1949436E+03  0.7546771E-02  0.1159552E+00
         -1   -1    0    0    0  501 -0.00000000000E+00  0.00000000000E+00  0.37702817284E+03  0.37702817284E+03  0.00000000000E+00 0.  1.
          1   -1    0    0  501    0  0.00000000000E+00 -0.00000000000E+00 -0.10660718161E+03  0.10660718161E+03  0.00000000000E+00 0. -1.
         23    2    1    2    0    0  0.99953671296E+02  0.11130662480E+03  0.24044566755E+03  0.30954340612E+03  0.12499240016E+03 0.  0.
          5    1    3    3  502    0  0.42431509035E+02  0.95070967271E+02  0.22449228636E+03  0.24750312809E+03  0.47000000000E+01 0.  1.
         -5    1    3    3    0  502  0.57522162261E+02  0.16235657528E+02  0.15953381186E+02  0.62040278029E+02  0.47000000000E+01 0.  1.
        -11    1    1    2    0    0 -0.81685230024E+02 -0.68746588910E+02  0.56423982969E+02  0.12075693001E+03  0.00000000000E+00 0.  1.
         11    1    1    2    0    0 -0.18268441272E+02 -0.42560035889E+02 -0.26448659284E+02  0.53335018321E+02  0.00000000000E+00 0. -1.
<mgrwt>
<rscale>  0 0.18879594E+03</rscale>
<asrwt>0</asrwt>
<pdfrwt beam="2">  1        1 0.16401105E-01 0.19494358E+03</pdfrwt>
<pdfrwt beam="1">  1       -1 0.58004334E-01 0.19494358E+03</pdfrwt>
<totfact> 0.10219934E+03</totfact>
</mgrwt>
</event>
<event>
 7    1  0.6095443E-006  0.2066417E+03  0.7546771E-02  0.1147731E+00
          1   -1    0    0  501    0  0.00000000000E+00  0.00000000000E+00  0.14232215014E+04  0.14232215014E+04  0.00000000000E+00 0. -1.
         -1   -1    0    0    0  501 -0.00000000000E+00 -0.00000000000E+00 -0.29084336142E+02  0.29084336142E+02  0.00000000000E+00 0.  1.
         23    2    1    2    0    0 -0.15456535072E+03 -0.56059721330E+02  0.88506718144E+03  0.90887001062E+03  0.12517044598E+03 0.  0.
          5    1    3    3  502    0 -0.13044248616E+03 -0.56788977655E+02  0.42616026304E+03  0.44930489645E+03  0.47000000000E+01 0. -1.
         -5    1    3    3    0  502 -0.24122864558E+02  0.72925632560E+00  0.45890691840E+03  0.45956511418E+03  0.47000000000E+01 0. -1.
        -11    1    1    2    0    0  0.46763437376E+02  0.53382499800E+02  0.29897630724E+03  0.30728381450E+03  0.00000000000E+00 0.  1.
         11    1    1    2    0    0  0.10780191334E+03  0.26772215298E+01  0.21009367660E+03  0.23615201245E+03  0.00000000000E+00 0. -1.
<mgrwt>
<rscale>  0 0.20239854E+03</rscale>
<asrwt>0</asrwt>
<pdfrwt beam="1">  1        1 0.21895710E+00 0.20664167E+03</pdfrwt>
<pdfrwt beam="2">  1       -1 0.44745143E-02 0.20664167E+03</pdfrwt>
<totfact> 0.16763110E+03</totfact>
</mgrwt>
</event>
<event>
 7    1  0.6095443E-006  0.1441119E+03  0.7546771E-02  0.1218160E+00
          4   -1    0    0  501    0  0.00000000000E+00  0.00000000000E+00  0.33212576717E+02  0.33212576717E+02  0.00000000000E+00 0. -1.
         -4   -1    0    0    0  501 -0.00000000000E+00 -0.00000000000E+00 -0.52041146078E+03  0.52041146078E+03  0.00000000000E+00 0.  1.
         23    2    1    2    0    0 -0.48454899311E+02 -0.52865583262E+02 -0.31048587584E+03  0.34230061937E+03  0.12500235105E+03 0.  0.
          5    1    3    3  502    0 -0.44088504070E+02 -0.71480604500E+02 -0.31142902531E+03  0.32258859375E+03  0.47000000000E+01 0.  1.
         -5    1    3    3    0  502 -0.43663952411E+01  0.18615021239E+02  0.94314947697E+00  0.19712025620E+02  0.47000000000E+01 0.  1.
        -11    1    1    2    0    0 -0.49848673739E+01 -0.20240507566E+02 -0.60526691469E+02  0.64015681121E+02  0.00000000000E+00 0.  1.
         11    1    1    2    0    0  0.53439766685E+02  0.73106090828E+02 -0.11618631676E+03  0.14730773700E+03  0.00000000000E+00 0. -1.
<mgrwt>
<rscale>  0 0.13646923E+03</rscale>
<asrwt>0</asrwt>
<pdfrwt beam="1">  1        4 0.51096277E-02 0.14411188E+03</pdfrwt>
<pdfrwt beam="2">  1       -4 0.80063293E-01 0.14411188E+03</pdfrwt>
<totfact> 0.54940978E+02</totfact>
</mgrwt>
</event>
<event>
 6    1  0.6095443E-006  0.2802355E+03  0.7546771E-02  0.1095560E+00
         -2   -1    0    0    0  501 -0.00000000000E+00  0.00000000000E+00  0.51021408015E+02  0.51021408015E+02  0.00000000000E+00 0.  1.
          2   -1    0    0  501    0  0.00000000000E+00 -0.00000000000E+00 -0.38479888791E+03  0.38479888791E+03  0.00000000000E+00 0. -1.
          5    1    1    2  502    0  0.13722532890E+02  0.79993272432E+02 -0.13252591385E+03  0.15547488346E+03  0.47000000000E+01 0. -1.
         -5    1    1    2    0  502  0.19124047768E+02 -0.20808168828E+02  0.15760451309E+02  0.32698484957E+02  0.47000000000E+01 0.  1.
        -11    1    1    2    0    0  0.25173592832E+02 -0.44472280391E+02 -0.55715883082E+02  0.75602600001E+02  0.00000000000E+00 0. -1.
         11    1    1    2    0    0 -0.58020173490E+02 -0.14712823213E+02 -0.16129613426E+03  0.17204432751E+03  0.00000000000E+00 0.  1.
<mgrwt>
<rscale>  0 0.28023548E+03</rscale>
<asrwt>0</asrwt>
<pdfrwt beam="2">  1        2 0.59199828E-01 0.28023548E+03</pdfrwt>
<pdfrwt beam="1">  1       -2 0.78494475E-02 0.28023548E+03</pdfrwt>
<totfact> 0.80688829E+03</totfact>
</mgrwt>
</event>
<event>
 7    1  0.6095443E-006  0.1262775E+03  0.7546771E-02  0.1248032E+00
          1   -1    0    0  501    0  0.00000000000E+00  0.00000000000E+00  0.25150729319E+03  0.25150729319E+03  0.00000000000E+00 0. -1.
         -1   -1    0    0    0  501 -0.00000000000E+00 -0.00000000000E+00 -0.53417895128E+02  0.53417895128E+02  0.00000000000E+00 0.  1.
         23    2    1    2    0    0  0.17445651364E+02 -0.42091429382E+01  0.63910971753E+02  0.14152956522E+03  0.12499575147E+03 0.  0.
          5    1    3    3  502    0  0.22815138765E+02  0.65396467479E+01 -0.34576304900E+02  0.42200810384E+02  0.47000000000E+01 0. -1.
         -5    1    3    3    0  502 -0.53694874017E+01 -0.10748789686E+02  0.98487276653E+02  0.99328754836E+02  0.47000000000E+01 0. -1.
        -11    1    1    2    0    0  0.16612011621E+02 -0.49595368013E+01 -0.63848231708E+01  0.18474899250E+02  0.00000000000E+00 0.  1.
         11    1    1    2    0    0 -0.34057662985E+02  0.91686797395E+01  0.14056324948E+03  0.14492072385E+03  0.00000000000E+00 0. -1.
<mgrwt>
<rscale>  0 0.11705734E+03</rscale>
<asrwt>0</asrwt>
<pdfrwt beam="1">  1        1 0.38693429E-01 0.12627749E+03</pdfrwt>
<pdfrwt beam="2">  1       -1 0.82181379E-02 0.12627749E+03</pdfrwt>
<totfact> 0.85289501E+03</totfact>
</mgrwt>
</event>
<event>
 7    1  0.6095443E-006  0.1822814E+03  0.7546771E-02  0.1170913E+00
         -2   -1    0    0    0  501 -0.00000000000E+00  0.00000000000E+00  0.42666691861E+02  0.42666691861E+02  0.00000000000E+00 0.  1.
          2   -1    0    0  501    0  0.00000000000E+00 -0.00000000000E+00 -0.76794895028E+03  0.76794895028E+03  0.00000000000E+00 0. -1.
         23    2    1    2    0    0 -0.53533963675E+02  0.12137811477E+03 -0.25535118348E+03  0.31373672514E+03  0.12501189458E+03 0.  0.
          5    1    3    3  502    0 -0.62412613767E+02  0.59942347783E+01 -0.12094581790E+03  0.13631304441E+03  0.47000000000E+01 0.  1.
         -5    1    3    3    0  502  0.88786500918E+01  0.11538387999E+03 -0.13440536557E+03  0.17742368073E+03  0.47000000000E+01 0.  1.
        -11    1    1    2    0    0 -0.14175862588E+02 -0.74903846934E+02 -0.17849568644E+03  0.19409340907E+03  0.00000000000E+00 0. -1.
         11    1    1    2    0    0  0.67709826263E+02 -0.46474267836E+02 -0.29143538851E+03  0.30278550794E+03  0.00000000000E+00 0.  1.
<mgrwt>
<rscale>  0 0.17682346E+03</rscale>
<asrwt>0</asrwt>
<pdfrwt beam="2">  1        2 0.11814598E+00 0.18228139E+03</pdfrwt>
<pdfrwt beam="1">  1       -2 0.65641069E-02 0.18228139E+03</pdfrwt>
<totfact> 0.47338213E+03</totfact>
</mgrwt>
</event>
<event>
 7    1  0.6095443E-006  0.1813776E+03  0.7546771E-02  0.1172567E+00
         -1   -1    0    0    0  501 -0.00000000000E+00  0.00000000000E+00  0.73658130593E+03  0.73658130593E+03  0.00000000000E+00 0.  1.
          1   -1    0    0  501    0  0.00000000000E+00 -0.00000000000E+00 -0.39647671745E+02  0.39647671745E+02  0.00000000000E+00 0. -1.
         23    2    1    2    0    0 -0.89939908660E+02 -0.95823764470E+02  0.42032617079E+03  0.45779026952E+03  0.12500583990E+03 0.  0.
          5    1    3    3  502    0 -0.98403633852E+02 -0.11882652985E+03  0.38253227142E+03  0.41249975519E+03  0.47000000000E+01 0. -1.
         -5    1    3    3    0  502  0.84637251922E+01  0.23002765375E+02  0.37793899371E+02  0.45290514335E+02  0.47000000000E+01 0. -1.
        -11    1    1    2    0    0  0.38308827805E+02  0.71878534931E+02  0.23274186307E+03  0.24658236940E+03  0.00000000000E+00 0.  1.
         11    1    1    2    0    0  0.51631080856E+02  0.23945229539E+02  0.43865600322E+02  0.71856338757E+02  0.00000000000E+00 0. -1.
<mgrwt>
<rscale>  0 0.17516374E+03</rscale>
<asrwt>0</asrwt>
<pdfrwt beam="2">  1        1 0.60996424E-02 0.18137762E+03</pdfrwt>
<pdfrwt beam="1">  1       -1 0.11332019E+00 0.18137762E+03</pdfrwt>
<totfact> 0.94834302E+02</totfact>
</mgrwt>
</event>
<event>
 7    1  0.6095443E-006  0.1463023E+03  0.7546771E-02  0.1215266E+00
         -1   -1    0    0    0  501 -0.00000000000E+00  0.00000000000E+00  0.11472661986E+03  0.11472661986E+03  0.00000000000E+00 0.  1.
          1   -1    0    0  501    0  0.00000000000E+00 -0.00000000000E+00 -0.17114856695E+03  0.17114856695E+03  0.00000000000E+00 0. -1.
         23    2    1    2    0    0  0.17851746558E+02  0.73894308526E+02  0.16738068440E+02  0.14725662725E+03  0.12500119058E+03 0.  0.
          5    1    3    3  502    0  0.39902216615E+02 -0.72877721421E+01  0.42710624052E+02  0.59089643090E+02  0.47000000000E+01 0. -1.
         -5    1    3    3    0  502 -0.22050470056E+02  0.81182080669E+02 -0.25972555612E+02  0.88166984163E+02  0.47000000000E+01 0. -1.
        -11    1    1    2    0    0 -0.41197282203E+02 -0.82797607012E+02 -0.61371591731E+02  0.11099158553E+03  0.00000000000E+00 0. -1.
         11    1    1    2    0    0  0.23345535645E+02  0.89032984853E+01 -0.11788423799E+02  0.27626974031E+02  0.00000000000E+00 0.  1.
<mgrwt>
<rscale>  0 0.13857003E+03</rscale>
<asrwt>0</asrwt>
<pdfrwt beam="2">  1        1 0.26330549E-01 0.14630226E+03</pdfrwt>
<pdfrwt beam="1">  1       -1 0.17650249E-01 0.14630226E+03</pdfrwt>
<totfact> 0.42630062E+03</totfact>
</mgrwt>
</event>
<event>
 7    1  0.6095443E-006  0.1564711E+03  0.7546771E-02  0.1201129E+00
          1   -1    0    0  501    0  0.00000000000E+00  0.00000000000E+00  0.35473831319E+03  0.35473831319E+03  0.00000000000E+00 0. -1.
         -1   -1    0    0    0  501 -0.00000000000E+00 -0.00000000000E+00 -0.60770370420E+02  0.60770370420E+02  0.00000000000E+00 0.  1.
         23    2    1    2    0    0 -0.32448010019E+02 -0.88291440286E+02  0.11519711045E+03  0.19430282460E+03  0.12503984009E+03 0.  0.
          5    1    3    3  502    0  0.24055575233E+02  0.19183402118E+02  0.42584357441E+02  0.52746479648E+02  0.47000000000E+01 0.  1.
         -5    1    3    3    0  502 -0.56503585251E+02 -0.10747484240E+03  0.72612753008E+02  0.14155634495E+03  0.47000000000E+01 0.  1.
        -11    1    1    2    0    0  0.69634211270E+01  0.69421257542E+02  0.17605935241E+03  0.18937976609E+03  0.00000000000E+00 0. -1.
         11    1    1    2    0    0  0.25484588892E+02  0.18870182744E+02  0.27114799135E+01  0.31826092929E+02  0.00000000000E+00 0.  1.
<mgrwt>
<rscale>  0 0.14946708E+03</rscale>
<asrwt>0</asrwt>
<pdfrwt beam="1">  1        1 0.54575124E-01 0.15647113E+03</pdfrwt>
<pdfrwt beam="2">  1       -1 0.93492880E-02 0.15647113E+03</pdfrwt>
<totfact> 0.46397534E+03</totfact>
</mgrwt>
</event>
<event>
 6    1  0.6095443E-006  0.1610659E+03  0.7546771E-02  0.1203642E+00
         -2   -1    0    0    0  501 -0.00000000000E+00  0.00000000000E+00  0.13357632575E+03  0.13357632575E+03  0.00000000000E+00 0.  1.
          2   -1    0    0  501    0  0.00000000000E+00 -0.00000000000E+00 -0.16647217006E+03  0.16647217006E+03  0.00000000000E+00 0. -1.
          5    1    1    2  502    0  0.30445267515E+02 -0.18604644965E+02 -0.26282427109E+02  0.44563472745E+02  0.47000000000E+01 0. -1.
         -5    1    1    2    0  502 -0.80895118284E+02  0.61835738637E+02  0.65654767048E+02  0.12124486451E+03  0.47000000000E+01 0.  1.
        -11    1    1    2    0    0  0.70193904789E+02 -0.20130585250E+02 -0.73789171937E+02  0.10381361485E+03  0.00000000000E+00 0.  1.
         11    1    1    2    0    0 -0.19744054021E+02 -0.23100508422E+02  0.15209876887E+01  0.30426543709E+02  0.00000000000E+00 0. -1.
<mgrwt>
<rscale>  0 0.14744984E+03</rscale>
<asrwt>0</asrwt>
<pdfrwt beam="2">  1        2 0.25611103E-01 0.16106590E+03</pdfrwt>
<pdfrwt beam="1">  1       -2 0.20550204E-01 0.16106590E+03</pdfrwt>
<totfact> 0.40660251E+03</totfact>
</mgrwt>
</event>
<event>
 7    1  0.6095443E-006  0.1297122E+03  0.7546771E-02  0.1240559E+00
          2   -1    0    0  501    0  0.00000000000E+00  0.00000000000E+00  0.16846986339E+03  0.16846986339E+03  0.00000000000E+00 0. -1.
         -2   -1    0    0    0  501 -0.00000000000E+00 -0.00000000000E+00 -0.83123320095E+02  0.83123320095E+02  0.00000000000E+00 0.  1.
         23    2    1    2    0    0  0.28563162087E+02  0.19620083899E+02  0.17868064191E+02  0.13093712073E+03  0.12499783977E+03 0.  0.
          5    1    3    3  502    0  0.39164974920E+02 -0.40430596363E+02 -0.18914379759E+02  0.59568214212E+02  0.47000000000E+01 0.  1.
         -5    1    3    3    0  502 -0.10601812833E+02  0.60050680262E+02  0.36782443950E+02  0.71368906522E+02  0.47000000000E+01 0.  1.
        -11    1    1    2    0    0  0.34319089093E+02 -0.13363401394E+02  0.24602328438E+02  0.44290573914E+02  0.00000000000E+00 0. -1.
         11    1    1    2    0    0 -0.62882251181E+02 -0.62566825047E+01  0.42876150668E+02  0.76365488839E+02  0.00000000000E+00 0.  1.
<mgrwt>
<rscale>  0 0.12155150E+03</rscale>
<asrwt>0</asrwt>
<pdfrwt beam="1">  1        2 0.25918441E-01 0.12971223E+03</pdfrwt>
<pdfrwt beam="2">  1       -2 0.12788203E-01 0.12971223E+03</pdfrwt>
<totfact> 0.86631766E+03</totfact>
</mgrwt>
</event>
<event>
 7    1  0.6095443E-006  0.1269433E+03  0.7546771E-02  0.1247228E+00
          2   -1    0    0  501    0  0.00000000000E+00  0.00000000000E+00  0.42571547331E+03  0.42571547331E+03  0.00000000000E+00 0. -1.
         -2   -1    0    0    0  501 -0.00000000000E+00 -0.00000000000E+00 -0.29251551476E+02  0.29251551476E+02  0.00000000000E+00 0.  1.
         23    2    1    2    0    0 -0.21076404338E+02 -0.66755593101E+01  0.19120004887E+03  0.22950394444E+03  0.12500329561E+03 0.  0.
          5    1    3    3  502    0 -0.56006485151E+02 -0.42554351510E+02  0.75232787249E+02  0.10310024970E+03  0.47000000000E+01 0.  1.
         -5    1    3    3    0  502  0.34930080813E+02  0.35878792200E+02  0.11596726162E+03  0.12640369473E+03  0.47000000000E+01 0.  1.
        -11    1    1    2    0    0  0.22995528038E+02  0.41225618779E+02  0.61136643760E+02  0.77240113695E+02  0.00000000000E+00 0.  1.
         11    1    1    2    0    0 -0.19191236997E+01 -0.34550059469E+02  0.14412722921E+03  0.14822296666E+03  0.00000000000E+00 0. -1.
<mgrwt>
<rscale>  0 0.11753018E+03</rscale>
<asrwt>0</asrwt>
<pdfrwt beam="1">  1        2 0.65494684E-01 0.12694330E+03</pdfrwt>
<pdfrwt beam="2">  1       -2 0.45002390E-02 0.12694330E+03</pdfrwt>
<totfact> 0.16050124E+04</totfact>
</mgrwt>
</event>
<event>
 7    1  0.6095443E-006  0.1302339E+03  0.7546771E-02  0.1240944E+00
          1   -1    0    0  501    0  0.00000000000E+00  0.00000000000E+00  0.15512195867E+03  0.15512195867E+03  0.00000000000E+00 0. -1.
         -1   -1    0    0    0  501 -0.00000000000E+00 -0.00000000000E+00 -0.96829621718E+02  0.96829621718E+02  0.00000000000E+00 0.  1.
         23    2    1    2    0    0  0.12525888632E+02  0.34329267769E+02 -0.12761182366E+02  0.13085758796E+03  0.12500185614E+03 0.  0.
          5    1    3    3  502    0  0.57499201870E+02  0.81706163853E+01  0.27954158197E+02  0.64625398632E+02  0.47000000000E+01 0.  1.
         -5    1    3    3    0  502 -0.44973313238E+02  0.26158651383E+02 -0.40715340563E+02  0.66232189326E+02  0.47000000000E+01 0.  1.
        -11    1    1    2    0    0  0.31147459624E+02  0.61986599428E+01  0.50173545089E+01  0.32152161240E+02  0.00000000000E+00 0.  1.
         11    1    1    2    0    0 -0.43673348257E+02 -0.40527927711E+02  0.66036164806E+02  0.88941831187E+02  0.00000000000E+00 0. -1.
<mgrwt>
<rscale>  0 0.12131443E+03</rscale>
<asrwt>0</asrwt>
<pdfrwt beam="1">  1        1 0.23864917E-01 0.13023387E+03</pdfrwt>
<pdfrwt beam="2">  1       -1 0.14896865E-01 0.13023387E+03</pdfrwt>
<totfact> 0.62575833E+03</totfact>
</mgrwt>
</event>
<event>
 7    1  0.6095443E-006  0.1355836E+03  0.7546771E-02  0.1231733E+00
         -4   -1    0    0    0  501 -0.00000000000E+00  0.00000000000E+00  0.78721545097E+03  0.78721545097E+03  0.00000000000E+00 0. -1.
          4   -1    0    0  501    0  0.00000000000E+00 -0.00000000000E+00 -0.20019063549E+02  0.20019063549E+02  0.00000000000E+00 0.  1.
         23    2    1    2    0    0  0.22459559158E+02  0.47458754531E+02  0.54362501575E+03  0.56027767518E+03  0.12500460142E+03 0.  0.
          5    1    3    3  502    0  0.26931491207E+02 -0.10809535771E+02  0.44182563720E+03  0.44280259142E+03  0.47000000000E+01 0. -1.
         -5    1    3    3    0  502 -0.44719320487E+01  0.58268290302E+02  0.10179937855E+03  0.11747508376E+03  0.47000000000E+01 0. -1.
        -11    1    1    2    0    0 -0.90902453641E+01 -0.74248939640E+02  0.16556075170E+03  0.18167526002E+03  0.00000000000E+00 0.  1.
         11    1    1    2    0    0 -0.13369313794E+02  0.26790185109E+02  0.58010619969E+02  0.65281579322E+02  0.00000000000E+00 0. -1.
<mgrwt>
<rscale>  0 0.12715893E+03</rscale>
<asrwt>0</asrwt>
<pdfrwt beam="2">  1        4 0.30798565E-02 0.13558361E+03</pdfrwt>
<pdfrwt beam="1">  1       -4 0.12111005E+00 0.13558361E+03</pdfrwt>
<totfact> 0.46743859E+02</totfact>
</mgrwt>
</event>
<event>
 7    1  0.6095443E-006  0.1322741E+03  0.7546771E-02  0.1241060E+00
          1   -1    0    0  501    0  0.00000000000E+00  0.00000000000E+00  0.13088523975E+02  0.13088523975E+02  0.00000000000E+00 0. -1.
         -1   -1    0    0    0  501 -0.00000000000E+00 -0.00000000000E+00 -0.12199215340E+04  0.12199215340E+04  0.00000000000E+00 0.  1.
         23    2    1    2    0    0 -0.31859135464E+02 -0.29266800683E+02 -0.96068619738E+03  0.96974966480E+03  0.12499956965E+03 0.  0.
          5    1    3    3  502    0  0.18318748907E+01 -0.28463055318E+02 -0.89765573091E+03  0.89812104002E+03  0.47000000000E+01 0. -1.
         -5    1    3    3    0  502 -0.33691010355E+02 -0.80374536472E+00 -0.63030466469E+02  0.71628624785E+02  0.47000000000E+01 0. -1.
        -11    1    1    2    0    0  0.86163463217E-01  0.48821380708E+02 -0.86640695845E+02  0.99449207211E+02  0.00000000000E+00 0. -1.
         11    1    1    2    0    0  0.31772972001E+02 -0.19554580025E+02 -0.15950611684E+03  0.16381118600E+03  0.00000000000E+00 0.  1.
<mgrwt>
<rscale>  0 0.12124306E+03</rscale>
<asrwt>0</asrwt>
<pdfrwt beam="1">  1        1 0.20136192E-02 0.13227412E+03</pdfrwt>
<pdfrwt beam="2">  1       -1 0.18768022E+00 0.13227412E+03</pdfrwt>
<totfact> 0.11846914E+03</totfact>
</mgrwt>
</event>
<event>
 7    1  0.6095443E-006  0.1425526E+03  0.7546771E-02  0.1222528E+00
          2   -1    0    0  501    0  0.00000000000E+00  0.00000000000E+00  0.78388634312E+03  0.78388634312E+03  0.00000000000E+00 0. -1.
         -2   -1    0    0    0  501 -0.00000000000E+00 -0.00000000000E+00 -0.20458731570E+02  0.20458731570E+02  0.00000000000E+00 0.  1.
         23    2    1    2    0    0 -0.57948535001E+02  0.36600177373E+02  0.38860257296E+03  0.41392415465E+03  0.12499456148E+03 0.  0.
          5    1    3    3  502    0 -0.66096846657E+02 -0.21696471956E+02  0.29595912648E+03  0.30406154735E+03  0.47000000000E+01 0. -1.
         -5    1    3    3    0  502  0.81483116562E+01  0.58296649330E+02  0.92643446481E+02  0.10986260730E+03  0.47000000000E+01 0. -1.
        -11    1    1    2    0    0  0.24502586622E+02  0.12687425072E+02  0.31111905897E+02  0.41584831305E+02  0.00000000000E+00 0.  1.
         11    1    1    2    0    0  0.33445948379E+02 -0.49287602445E+02  0.34371313270E+03  0.34883608874E+03  0.00000000000E+00 0. -1.
<mgrwt>
<rscale>  0 0.13337755E+03</rscale>
<asrwt>0</asrwt>
<pdfrwt beam="1">  1        2 0.12059788E+00 0.14255261E+03</pdfrwt>
<pdfrwt beam="2">  1       -2 0.31474978E-02 0.14255261E+03</pdfrwt>
<totfact> 0.13744220E+04</totfact>
</mgrwt>
</event>
<event>
 7    1  0.6095443E-006  0.1296322E+03  0.7546771E-02  0.1244008E+00
         -2   -1    0    0    0  501 -0.00000000000E+00  0.00000000000E+00  0.16758177574E+03  0.16758177574E+03  0.00000000000E+00 0.  1.
          2   -1    0    0  501    0  0.00000000000E+00 -0.00000000000E+00 -0.91626129715E+02  0.91626129715E+02  0.00000000000E+00 0. -1.
         23    2    1    2    0    0  0.17706856992E+02 -0.29426310267E+02  0.98812729311E+02  0.16299836913E+03  0.12500028938E+03 0.  0.
          5    1    3    3  502    0 -0.22235405624E+02  0.34258109703E+02  0.72256941121E+02  0.83133548486E+02  0.47000000000E+01 0.  1.
         -5    1    3    3    0  502  0.39942262616E+02 -0.63684419971E+02  0.26555788189E+02  0.79864820642E+02  0.47000000000E+01 0.  1.
        -11    1    1    2    0    0 -0.22520726347E+02  0.38864342068E+02  0.22072178872E+02  0.50047989767E+02  0.00000000000E+00 0.  1.
         11    1    1    2    0    0  0.48138693551E+01 -0.94380318010E+01 -0.44929262160E+02  0.46161546558E+02  0.00000000000E+00 0. -1.
<mgrwt>
<rscale>  0 0.11944977E+03</rscale>
<asrwt>0</asrwt>
<pdfrwt beam="2">  1        2 0.14096328E-01 0.12963222E+03</pdfrwt>
<pdfrwt beam="1">  1       -2 0.25781812E-01 0.12963222E+03</pdfrwt>
<totfact> 0.53566234E+03</totfact>
</mgrwt>
</event>
<event>
 7    1  0.6095443E-006  0.1499567E+03  0.7546771E-02  0.1209812E+00
         -1   -1    0    0    0  501 -0.00000000000E+00  0.00000000000E+00  0.47106191797E+02  0.47106191797E+02  0.00000000000E+00 0.  1.
          1   -1    0    0  501    0  0.00000000000E+00 -0.00000000000E+00 -0.42065958871E+03  0.42065958871E+03  0.00000000000E+00 0. -1.
         23    2    1    2    0    0 -0.62837320047E+02 -0.53986148424E+02 -0.14651026974E+03  0.20964799252E+03  0.12499595439E+03 0.  0.
          5    1    3    3  502    0  0.21343415859E+02 -0.35646996625E+02 -0.26507773491E+01  0.41897092852E+02  0.47000000000E+01 0.  1.
         -5    1    3    3    0  502 -0.84180735906E+02 -0.18339151798E+02 -0.14385949239E+03  0.16775089966E+03  0.47000000000E+01 0.  1.
        -11    1    1    2    0    0  0.16925200812E+02 -0.25591552535E+02 -0.50197372138E+02  0.58831676444E+02  0.00000000000E+00 0. -1.
         11    1    1    2    0    0  0.45912119235E+02  0.79577700958E+02 -0.17684575503E+03  0.19928611154E+03  0.00000000000E+00 0.  1.
<mgrwt>
<rscale>  0 0.14264646E+03</rscale>
<asrwt>0</asrwt>
<pdfrwt beam="2">  1        1 0.64716861E-01 0.14995673E+03</pdfrwt>
<pdfrwt beam="1">  1       -1 0.72471063E-02 0.14995673E+03</pdfrwt>
<totfact> 0.54916441E+03</totfact>
</mgrwt>
</event>
<event>
 7    1  0.6095443E-006  0.1302432E+03  0.7546771E-02  0.1244061E+00
         -2   -1    0    0    0  501 -0.00000000000E+00  0.00000000000E+00  0.10277388363E+03  0.10277388363E+03  0.00000000000E+00 0.  1.
          2   -1    0    0  501    0  0.00000000000E+00 -0.00000000000E+00 -0.12053161375E+03  0.12053161375E+03  0.00000000000E+00 0. -1.
         23    2    1    2    0    0 -0.36550769416E+02 -0.17530350615E+01 -0.46162610237E+01  0.13032496678E+03  0.12499702086E+03 0.  0.
          5    1    3    3  502    0  0.54116995807E+01  0.28156598346E+02 -0.52384490364E+02  0.59902465337E+02  0.47000000000E+01 0.  1.
         -5    1    3    3    0  502 -0.41962468996E+02 -0.29909633407E+02  0.47768229340E+02  0.70422501440E+02  0.47000000000E+01 0.  1.
        -11    1    1    2    0    0  0.32609878359E+02  0.29290834866E+02  0.21278045321E+02  0.48724864150E+02  0.00000000000E+00 0.  1.
         11    1    1    2    0    0  0.39408910566E+01 -0.27537799805E+02 -0.34419514423E+02  0.44255666457E+02  0.00000000000E+00 0. -1.
<mgrwt>
<rscale>  0 0.11941774E+03</rscale>
<asrwt>0</asrwt>
<pdfrwt beam="2">  1        2 0.18543325E-01 0.13024318E+03</pdfrwt>
<pdfrwt beam="1">  1       -2 0.15811367E-01 0.13024318E+03</pdfrwt>
<totfact> 0.89284496E+03</totfact>
</mgrwt>
</event>
<event>
 7    1  0.6095443E-006  0.1220709E+03  0.7546771E-02  0.1249106E+00
         -3   -1    0    0    0  501 -0.00000000000E+00  0.00000000000E+00  0.35456517533E+03  0.35456517533E+03  0.00000000000E+00 0.  1.
          3   -1    0    0  501    0  0.00000000000E+00 -0.00000000000E+00 -0.37155564750E+02  0.37155564750E+02  0.00000000000E+00 0. -1.
         23    2    1    2    0    0 -0.39564609787E+02  0.15944432902E+02  0.21879959438E+03  0.25054853505E+03  0.11437535847E+03 0.  0.
          5    1    3    3  502    0 -0.62968678170E+02  0.37138163382E+02  0.81487267835E+02  0.10957446066E+03  0.47000000000E+01 0. -1.
         -5    1    3    3    0  502  0.23404068383E+02 -0.21193730481E+02  0.13731232654E+03  0.14097407439E+03  0.47000000000E+01 0.  1.
        -11    1    1    2    0    0  0.66832547360E+02 -0.63545013944E+01  0.46773633107E+02  0.81821402021E+02  0.00000000000E+00 0.  1.
         11    1    1    2    0    0 -0.27267937573E+02 -0.95899315072E+01  0.51836383100E+02  0.59350803016E+02  0.00000000000E+00 0. -1.
<mgrwt>
<rscale>  0 0.11642982E+03</rscale>
<asrwt>0</asrwt>
<pdfrwt beam="2">  1        3 0.57162410E-02 0.12207091E+03</pdfrwt>
<pdfrwt beam="1">  1       -3 0.54548486E-01 0.12207091E+03</pdfrwt>
<totfact> 0.13921122E+03</totfact>
</mgrwt>
</event>
<event>
 7    1  0.6095443E-006  0.1455507E+03  0.7546771E-02  0.1215505E+00
          2   -1    0    0  501    0  0.00000000000E+00  0.00000000000E+00  0.60176868492E+03  0.60176868492E+03  0.00000000000E+00 0.  1.
         -2   -1    0    0    0  501 -0.00000000000E+00 -0.00000000000E+00 -0.38058746375E+02  0.38058746375E+02  0.00000000000E+00 0. -1.
         23    2    1    2    0    0 -0.66224846121E+02  0.34255515495E+02  0.14860618760E+03  0.20801156502E+03  0.12500336637E+03 0.  0.
          5    1    3    3  502    0 -0.39727164366E+02  0.58013016985E+02  0.18236925731E+02  0.72790337191E+02  0.47000000000E+01 0.  1.
         -5    1    3    3    0  502 -0.26497681755E+02 -0.23757501490E+02  0.13036926187E+03  0.13522122783E+03  0.47000000000E+01 0.  1.
        -11    1    1    2    0    0  0.89618183439E+01  0.95212113942E+01  0.29465208155E+01  0.13403344335E+02  0.00000000000E+00 0. -1.
         11    1    1    2    0    0  0.57263027778E+02 -0.43776726889E+02  0.41215723013E+03  0.41841252194E+03  0.00000000000E+00 0.  1.
<mgrwt>
<rscale>  0 0.13839486E+03</rscale>
<asrwt>0</asrwt>
<pdfrwt beam="1">  1        2 0.92579791E-01 0.14555072E+03</pdfrwt>
<pdfrwt beam="2">  1       -2 0.58551922E-02 0.14555072E+03</pdfrwt>
<totfact> 0.74490524E+03</totfact>
</mgrwt>
</event>
<event>
 7    1  0.6095443E-006  0.1658389E+03  0.7546771E-02  0.1189503E+00
         -2   -1    0    0    0  501 -0.00000000000E+00  0.00000000000E+00  0.36562702619E+02  0.36562702619E+02  0.00000000000E+00 0.  1.
          2   -1    0    0  501    0  0.00000000000E+00 -0.00000000000E+00 -0.71035373185E+03  0.71035373185E+03  0.00000000000E+00 0. -1.
         23    2    1    2    0    0  0.23827131780E+02  0.10635369281E+03 -0.24799285963E+03  0.29833369123E+03  0.12499477074E+03 0.  0.
          5    1    3    3  502    0 -0.35897906084E+02  0.14408409397E+02 -0.13625831223E+03  0.14172042751E+03  0.47000000000E+01 0.  1.
         -5    1    3    3    0  502  0.59725037864E+02  0.91945283413E+02 -0.11173454740E+03  0.15661326372E+03  0.47000000000E+01 0.  1.
        -11    1    1    2    0    0 -0.55092010867E+02 -0.60183406139E+02 -0.30160324337E+03  0.31244469662E+03  0.00000000000E+00 0. -1.
         11    1    1    2    0    0  0.31264879087E+02 -0.46170286670E+02 -0.12419492624E+03  0.13613804662E+03  0.00000000000E+00 0.  1.
<mgrwt>
<rscale>  0 0.15928778E+03</rscale>
<asrwt>0</asrwt>
<pdfrwt beam="2">  1        2 0.10928518E+00 0.16583888E+03</pdfrwt>
<pdfrwt beam="1">  1       -2 0.56250315E-02 0.16583888E+03</pdfrwt>
<totfact> 0.65640185E+03</totfact>
</mgrwt>
</event>
<event>
 7    1  0.6095443E-006  0.1715435E+03  0.7546771E-02  0.1181008E+00
         -1   -1    0    0    0  501 -0.00000000000E+00  0.00000000000E+00  0.79103766156E+02  0.79103766156E+02  0.00000000000E+00 0.  1.
          1   -1    0    0  501    0  0.00000000000E+00 -0.00000000000E+00 -0.42015995147E+03  0.42015995147E+03  0.00000000000E+00 0. -1.
         23    2    1    2    0    0 -0.11687870861E+03  0.11881842561E+02 -0.65646709443E+02  0.18367544570E+03  0.12500147272E+03 0.  0.
          5    1    3    3  502    0  0.23157443602E+02  0.15062391563E+02 -0.25499649603E+02  0.37887530451E+02  0.47000000000E+01 0.  1.
         -5    1    3    3    0  502 -0.14003615221E+03 -0.31805490025E+01 -0.40147059840E+02  0.14578791525E+03  0.47000000000E+01 0.  1.
        -11    1    1    2    0    0  0.10064331049E+02 -0.25478911193E+02 -0.13964974118E+03  0.14231133436E+03  0.00000000000E+00 0. -1.
         11    1    1    2    0    0  0.10681437756E+03  0.13597068632E+02 -0.13575973469E+03  0.17327693757E+03  0.00000000000E+00 0.  1.
<mgrwt>
<rscale>  0 0.16700466E+03</rscale>
<asrwt>0</asrwt>
<pdfrwt beam="2">  1        1 0.64639993E-01 0.17154352E+03</pdfrwt>
<pdfrwt beam="1">  1       -1 0.12169810E-01 0.17154352E+03</pdfrwt>
<totfact> 0.25055082E+03</totfact>
</mgrwt>
</event>
<event>
 7    1  0.6095443E-006  0.1470167E+03  0.7546771E-02  0.1213802E+00
          3   -1    0    0  501    0  0.00000000000E+00  0.00000000000E+00  0.49683330786E+02  0.49683330786E+02  0.00000000000E+00 0. -1.
         -3   -1    0    0    0  501 -0.00000000000E+00 -0.00000000000E+00 -0.35931411034E+03  0.35931411034E+03  0.00000000000E+00 0.  1.
         23    2    1    2    0    0  0.45335051434E+02 -0.62709391744E+02 -0.15795833285E+03  0.21578865740E+03  0.12500470008E+03 0.  0.
          5    1    3    3  502    0  0.79553245165E+02 -0.39583745464E+02 -0.14856504387E+03  0.17317405689E+03  0.47000000000E+01 0.  1.
         -5    1    3    3    0  502 -0.34218193730E+02 -0.23125646279E+02 -0.93932889837E+01  0.42614600502E+02  0.47000000000E+01 0.  1.
        -11    1    1    2    0    0 -0.61477005750E+01  0.54609396385E+02 -0.25013960591E+02  0.60379455283E+02  0.00000000000E+00 0. -1.
         11    1    1    2    0    0 -0.39187350859E+02  0.80999953591E+01 -0.12665848611E+03  0.13282932845E+03  0.00000000000E+00 0.  1.
<mgrwt>
<rscale>  0 0.13964880E+03</rscale>
<asrwt>0</asrwt>
<pdfrwt beam="1">  1        3 0.76435894E-02 0.14701670E+03</pdfrwt>
<pdfrwt beam="2">  1       -3 0.55279093E-01 0.14701670E+03</pdfrwt>
<totfact> 0.87554028E+02</totfact>
</mgrwt>
</event>
<event>
 7    1  0.6095443E-006  0.1280438E+03  0.7546771E-02  0.1244717E+00
          2   -1    0    0  501    0  0.00000000000E+00  0.00000000000E+00  0.60504005579E+03  0.60504005579E+03  0.00000000000E+00 0. -1.
         -2   -1    0    0    0  501 -0.00000000000E+00 -0.00000000000E+00 -0.20667669240E+02  0.20667669240E+02  0.00000000000E+00 0.  1.
         23    2    1    2    0    0  0.10251654641E+02 -0.25755746295E+02  0.33218521516E+03  0.35600876335E+03  0.12500706989E+03 0.  0.
          5    1    3    3  502    0 -0.88461262996E+00 -0.61849424339E+02  0.81359210984E+02  0.10231102112E+03  0.47000000000E+01 0. -1.
         -5    1    3    3    0  502  0.11136267271E+02  0.36093678044E+02  0.25082600417E+03  0.25369774223E+03  0.47000000000E+01 0. -1.
        -11    1    1    2    0    0 -0.20444476810E+02  0.53469463424E+02  0.21343603879E+03  0.22097941716E+03  0.00000000000E+00 0. -1.
         11    1    1    2    0    0  0.10192822170E+02 -0.27713717129E+02  0.38751132599E+02  0.48719544523E+02  0.00000000000E+00 0.  1.
<mgrwt>
<rscale>  0 0.11902338E+03</rscale>
<asrwt>0</asrwt>
<pdfrwt beam="1">  1        2 0.93083072E-01 0.12804383E+03</pdfrwt>
<pdfrwt beam="2">  1       -2 0.31796419E-02 0.12804383E+03</pdfrwt>
<totfact> 0.18246021E+04</totfact>
</mgrwt>
</event>
<event>
 6    1  0.6095443E-006  0.1413155E+03  0.7546771E-02  0.1232083E+00
         -2   -1    0    0    0  501 -0.00000000000E+00  0.00000000000E+00  0.16570338609E+03  0.16570338609E+03  0.00000000000E+00 0.  1.
          2   -1    0    0  501    0  0.00000000000E+00 -0.00000000000E+00 -0.94267734462E+02  0.94267734462E+02  0.00000000000E+00 0. -1.
          5    1    1    2  502    0  0.58509196213E+02  0.32048425966E+02  0.38772315129E+02  0.77303363891E+02  0.47000000000E+01 0. -1.
         -5    1    1    2    0  502 -0.62277073769E+02 -0.40342919343E+02  0.49278086287E+02  0.89198681866E+02  0.47000000000E+01 0.  1.
        -11    1    1    2    0    0  0.36870069111E+02  0.17520183118E+02 -0.35640091504E+02  0.54190173788E+02  0.00000000000E+00 0. -1.
         11    1    1    2    0    0 -0.33102191555E+02 -0.92256897407E+01  0.19025341716E+02  0.39278901007E+02  0.00000000000E+00 0.  1.
<mgrwt>
<rscale>  0 0.12693057E+03</rscale>
<asrwt>0</asrwt>
<pdfrwt beam="2">  1        2 0.14502728E-01 0.14131546E+03</pdfrwt>
<pdfrwt beam="1">  1       -2 0.25492828E-01 0.14131546E+03</pdfrwt>
<totfact> 0.53148074E+03</totfact>
</mgrwt>
</event>
<event>
 6    1  0.6095443E-006  0.1533242E+03  0.7546771E-02  0.1220142E+00
          2   -1    0    0  501    0  0.00000000000E+00  0.00000000000E+00  0.48841067645E+03  0.48841067645E+03  0.00000000000E+00 0. -1.
         -2   -1    0    0    0  501 -0.00000000000E+00 -0.00000000000E+00 -0.65588871686E+02  0.65588871686E+02  0.00000000000E+00 0.  1.
          5    1    1    2  502    0 -0.36335637764E+02  0.27003483124E+01  0.82965843219E+02  0.90735834122E+02  0.47000000000E+01 0. -1.
         -5    1    1    2    0  502  0.44750546852E+02  0.20561012502E+02 -0.45374849833E+02  0.67129231160E+02  0.47000000000E+01 0.  1.
        -11    1    1    2    0    0 -0.18907295845E+02 -0.55180761388E+02  0.26114530248E+03  0.26758040151E+03  0.00000000000E+00 0.  1.
         11    1    1    2    0    0  0.10492386756E+02  0.31919400573E+02  0.12408550890E+03  0.12855408135E+03  0.00000000000E+00 0. -1.
<mgrwt>
<rscale>  0 0.13505519E+03</rscale>
<asrwt>0</asrwt>
<pdfrwt beam="1">  1        2 0.75140102E-01 0.15332415E+03</pdfrwt>
<pdfrwt beam="2">  1       -2 0.10090596E-01 0.15332415E+03</pdfrwt>
<totfact> 0.40690910E+03</totfact>
</mgrwt>
</event>
<event>
 7    1  0.6095443E-006  0.1546464E+03  0.7546771E-02  0.1203230E+00
          2   -1    0    0  501    0  0.00000000000E+00  0.00000000000E+00  0.92492415815E+03  0.92492415815E+03  0.00000000000E+00 0. -1.
         -2   -1    0    0    0  501 -0.00000000000E+00 -0.00000000000E+00 -0.23531494257E+02  0.23531494257E+02  0.00000000000E+00 0.  1.
         23    2    1    2    0    0  0.11399076469E+02 -0.90335006332E+02  0.35803029880E+03  0.39000152385E+03  0.12500056572E+03 0.  0.
          5    1    3    3  502    0  0.12460051561E+02  0.25214790823E+02  0.14328349901E+03  0.14609342782E+03  0.47000000000E+01 0.  1.
         -5    1    3    3    0  502 -0.10609750921E+01 -0.11554979716E+03  0.21474679979E+03  0.24390809603E+03  0.47000000000E+01 0.  1.
        -11    1    1    2    0    0 -0.10188067083E+02  0.10214372839E+03  0.53269305402E+03  0.54249334352E+03  0.00000000000E+00 0. -1.
         11    1    1    2    0    0 -0.12110093858E+01 -0.11808722061E+02  0.10669311071E+02  0.15960785043E+02  0.00000000000E+00 0.  1.
<mgrwt>
<rscale>  0 0.14777838E+03</rscale>
<asrwt>0</asrwt>
<pdfrwt beam="1">  1        2 0.14229600E+00 0.15464635E+03</pdfrwt>
<pdfrwt beam="2">  1       -2 0.36202306E-02 0.15464635E+03</pdfrwt>
<totfact> 0.90836859E+03</totfact>
</mgrwt>
</event>
<event>
 6    1  0.6095443E-006  0.3068985E+03  0.7546771E-02  0.1116537E+00
          1   -1    0    0  501    0  0.00000000000E+00  0.00000000000E+00  0.94986281681E+03  0.94986281681E+03  0.00000000000E+00 0. -1.
         -1   -1    0    0    0  501 -0.00000000000E+00 -0.00000000000E+00 -0.49406921669E+02  0.49406921669E+02  0.00000000000E+00 0.  1.
          5    1    1    2  502    0  0.78283682280E+02  0.36766558691E+02  0.49117082206E+03  0.49874941724E+03  0.47000000000E+01 0. -1.
         -5    1    1    2    0  502 -0.13352625592E+03  0.27411694383E+02  0.10626230484E+03  0.17290005622E+03  0.47000000000E+01 0.  1.
        -11    1    1    2    0    0  0.68456923284E+02 -0.73005971481E+02  0.29089399416E+03  0.30762889666E+03  0.00000000000E+00 0.  1.
         11    1    1    2    0    0 -0.13214349643E+02  0.88277184073E+01  0.12128774073E+02  0.19991368369E+02  0.00000000000E+00 0. -1.
<mgrwt>
<rscale>  0 0.24495165E+03</rscale>
<asrwt>0</asrwt>
<pdfrwt beam="1">  1        1 0.14613273E+00 0.30689848E+03</pdfrwt>
<pdfrwt beam="2">  1       -1 0.76010656E-02 0.30689848E+03</pdfrwt>
<totfact> 0.16265204E+03</totfact>
</mgrwt>
</event>
<event>
 7    1  0.6095443E-006  0.1346594E+03  0.7546771E-02  0.1234365E+00
          2   -1    0    0  501    0  0.00000000000E+00  0.00000000000E+00  0.22449061781E+03  0.22449061781E+03  0.00000000000E+00 0. -1.
         -2   -1    0    0    0  501 -0.00000000000E+00 -0.00000000000E+00 -0.79952157258E+02  0.79952157258E+02  0.00000000000E+00 0.  1.
         23    2    1    2    0    0 -0.15876006837E+02 -0.47507783784E+02  0.87423217804E+01  0.13494291705E+03  0.12499650219E+03 0.  0.
          5    1    3    3  502    0 -0.65802189919E+01  0.34049840576E+02 -0.28064968335E+02  0.44860042052E+02  0.47000000000E+01 0. -1.
         -5    1    3    3    0  502 -0.92957878448E+01 -0.81557624361E+02  0.36807290116E+02  0.90082875002E+02  0.47000000000E+01 0. -1.
        -11    1    1    2    0    0  0.39922519778E+02  0.41361121446E+02  0.13253761973E+03  0.14446719557E+03  0.00000000000E+00 0. -1.
         11    1    1    2    0    0 -0.24046512941E+02  0.61466623387E+01  0.32585190385E+01  0.25032662440E+02  0.00000000000E+00 0.  1.
<mgrwt>
<rscale>  0 0.12545196E+03</rscale>
<asrwt>0</asrwt>
<pdfrwt beam="1">  1        2 0.34537018E-01 0.13465943E+03</pdfrwt>
<pdfrwt beam="2">  1       -2 0.12300332E-01 0.13465943E+03</pdfrwt>
<totfact> 0.67745021E+03</totfact>
</mgrwt>
</event>
<event>
 7    1  0.6095443E-006  0.2106852E+03  0.7546771E-02  0.1144882E+00
         -2   -1    0    0    0  501 -0.00000000000E+00  0.00000000000E+00  0.66651250735E+02  0.66651250735E+02  0.00000000000E+00 0.  1.
          2   -1    0    0  501    0  0.00000000000E+00 -0.00000000000E+00 -0.60956000721E+03  0.60956000721E+03  0.00000000000E+00 0. -1.
         23    2    1    2    0    0  0.16945695896E+03  0.69864446568E+01 -0.29865238843E+03  0.36548805864E+03  0.12499520207E+03 0.  0.
          5    1    3    3  502    0  0.65724484686E+02  0.51499071994E+02 -0.19495522015E+03  0.21213554669E+03  0.47000000000E+01 0. -1.
         -5    1    3    3    0  502  0.10373247427E+03 -0.44512627338E+02 -0.10369716828E+03  0.15335251195E+03  0.47000000000E+01 0. -1.
        -11    1    1    2    0    0 -0.97942083226E+02  0.38029877553E+02 -0.11023154320E+03  0.15228235738E+03  0.00000000000E+00 0.  1.
         11    1    1    2    0    0 -0.71514875734E+02 -0.45016322210E+02 -0.13402482484E+03  0.15844084193E+03  0.00000000000E+00 0. -1.
<mgrwt>
<rscale>  0 0.20586657E+03</rscale>
<asrwt>0</asrwt>
<pdfrwt beam="2">  1        2 0.93778461E-01 0.21068524E+03</pdfrwt>
<pdfrwt beam="1">  1       -2 0.10254039E-01 0.21068524E+03</pdfrwt>
<totfact> 0.31256131E+03</totfact>
</mgrwt>
</event>
<event>
 7    1  0.6095443E-006  0.1623579E+03  0.7546771E-02  0.1186821E+00
         -1   -1    0    0    0  501 -0.00000000000E+00  0.00000000000E+00  0.82434551246E+03  0.82434551246E+03  0.00000000000E+00 0.  1.
          1   -1    0    0  501    0  0.00000000000E+00 -0.00000000000E+00 -0.36846013580E+02  0.36846013580E+02  0.00000000000E+00 0. -1.
         23    2    1    2    0    0  0.90831185853E+02 -0.70269534578E+02  0.56147720886E+03  0.58447988517E+03  0.11476919575E+03 0.  0.
          5    1    3    3  502    0  0.24851932335E+02 -0.71230570829E+02  0.15269850207E+03  0.17038290788E+03  0.47000000000E+01 0. -1.
         -5    1    3    3    0  502  0.65979253518E+02  0.96103625101E+00  0.40877870679E+03  0.41409697730E+03  0.47000000000E+01 0.  1.
        -11    1    1    2    0    0 -0.89540676310E+02  0.22302101779E+02  0.20403098466E+03  0.22392757570E+03  0.00000000000E+00 0. -1.
         11    1    1    2    0    0 -0.12905095428E+01  0.47967432799E+02  0.21991305368E+02  0.52784065171E+02  0.00000000000E+00 0.  1.
<mgrwt>
<rscale>  0 0.16167277E+03</rscale>
<asrwt>0</asrwt>
<pdfrwt beam="2">  1        1 0.56686181E-02 0.16235788E+03</pdfrwt>
<pdfrwt beam="1">  1       -1 0.12682237E+00 0.16235788E+03</pdfrwt>
<totfact> 0.80159073E+02</totfact>
</mgrwt>
</event>
<event>
 7    1  0.6095443E-006  0.1472510E+03  0.7546771E-02  0.1213715E+00
          1   -1    0    0  501    0  0.00000000000E+00  0.00000000000E+00  0.11590580442E+03  0.11590580442E+03  0.00000000000E+00 0. -1.
         -1   -1    0    0    0  501 -0.00000000000E+00 -0.00000000000E+00 -0.15822926625E+03  0.15822926625E+03  0.00000000000E+00 0.  1.
         23    2    1    2    0    0 -0.78021962965E+02 -0.33270029951E+01 -0.47394696764E+02  0.15469040776E+03  0.12483737148E+03 0.  0.
          5    1    3    3  502    0 -0.86986335048E+02  0.33330316084E+02 -0.64078951117E+02  0.11316242500E+03  0.47000000000E+01 0.  1.
         -5    1    3    3    0  502  0.89643720825E+01 -0.36657319079E+02  0.16684254352E+02  0.41527982761E+02  0.47000000000E+01 0.  1.
        -11    1    1    2    0    0  0.17097998477E+02 -0.13954741884E+02 -0.37235978901E+02  0.43285037803E+02  0.00000000000E+00 0.  1.
         11    1    1    2    0    0  0.60923964488E+02  0.17281744879E+02  0.42307213834E+02  0.76159625114E+02  0.00000000000E+00 0. -1.
<mgrwt>
<rscale>  0 0.13971322E+03</rscale>
<asrwt>0</asrwt>
<pdfrwt beam="1">  1        1 0.17831662E-01 0.14725103E+03</pdfrwt>
<pdfrwt beam="2">  1       -1 0.24342964E-01 0.14725103E+03</pdfrwt>
<totfact> 0.41600039E+03</totfact>
</mgrwt>
</event>
<event>
 7    1  0.6095443E-006  0.2309854E+03  0.7546771E-02  0.1129000E+00
         -2   -1    0    0    0  501 -0.00000000000E+00  0.00000000000E+00  0.51150569051E+02  0.51150569051E+02  0.00000000000E+00 0.  1.
          2   -1    0    0  501    0  0.00000000000E+00 -0.00000000000E+00 -0.99748075576E+03  0.99748075576E+03  0.00000000000E+00 0. -1.
         23    2    1    2    0    0 -0.13070267406E+03  0.14368545800E+03 -0.40160348334E+03  0.46329215394E+03  0.12500224887E+03 0.  0.
          5    1    3    3  502    0 -0.11760857613E+03  0.10537363151E+03 -0.39020014704E+03  0.42096748585E+03  0.47000000000E+01 0.  1.
         -5    1    3    3    0  502 -0.13094097932E+02  0.38311826491E+02 -0.11403336303E+02  0.42324668086E+02  0.47000000000E+01 0.  1.
        -11    1    1    2    0    0  0.57757031074E+01 -0.59500181328E+02 -0.10915766200E+03  0.12445491351E+03  0.00000000000E+00 0.  1.
         11    1    1    2    0    0  0.12492697096E+03 -0.84185276674E+02 -0.43556904137E+03  0.46088425736E+03  0.00000000000E+00 0. -1.
<mgrwt>
<rscale>  0 0.22667771E+03</rscale>
<asrwt>0</asrwt>
<pdfrwt beam="2">  1        2 0.15345859E+00 0.23098542E+03</pdfrwt>
<pdfrwt beam="1">  1       -2 0.78693179E-02 0.23098542E+03</pdfrwt>
<totfact> 0.25486732E+03</totfact>
</mgrwt>
</event>
<event>
 7    1  0.6095443E-006  0.1477301E+03  0.7546771E-02  0.1212459E+00
          2   -1    0    0  501    0  0.00000000000E+00  0.00000000000E+00  0.43361961741E+03  0.43361961741E+03  0.00000000000E+00 0. -1.
         -2   -1    0    0    0  501 -0.00000000000E+00 -0.00000000000E+00 -0.53982096762E+02  0.53982096762E+02  0.00000000000E+00 0.  1.
         23    2    1    2    0    0 -0.38544314534E+02  0.68652171412E+02  0.88583723963E+02  0.17225344336E+03  0.12500155109E+03 0.  0.
          5    1    3    3  502    0 -0.54227952811E+02 -0.18091489343E+01  0.83559309910E+02  0.99740624414E+02  0.47000000000E+01 0. -1.
         -5    1    3    3    0  502  0.15683638276E+02  0.70461320347E+02  0.50244140524E+01  0.72512818943E+02  0.47000000000E+01 0. -1.
        -11    1    1    2    0    0  0.66669603835E+02 -0.46422733704E+02  0.23654864674E+03  0.25011031277E+03  0.00000000000E+00 0. -1.
         11    1    1    2    0    0 -0.28125289301E+02 -0.22229437709E+02  0.54505149949E+02  0.65237958047E+02  0.00000000000E+00 0.  1.
<mgrwt>
<rscale>  0 0.14064853E+03</rscale>
<asrwt>0</asrwt>
<pdfrwt beam="1">  1        2 0.66710708E-01 0.14773007E+03</pdfrwt>
<pdfrwt beam="2">  1       -2 0.83049383E-02 0.14773007E+03</pdfrwt>
<totfact> 0.62697183E+03</totfact>
</mgrwt>
</event>
<event>
 7    1  0.6095443E-006  0.2570055E+03  0.7546771E-02  0.1110946E+00
         -3   -1    0    0    0  501 -0.00000000000E+00  0.00000000000E+00  0.13606733696E+04  0.13606733696E+04  0.00000000000E+00 0.  1.
          3   -1    0    0  501    0  0.00000000000E+00 -0.00000000000E+00 -0.46466027289E+02  0.46466027289E+02  0.00000000000E+00 0. -1.
         23    2    1    2    0    0 -0.18017912728E+03  0.13397615668E+03  0.72943146202E+03  0.77338351693E+03  0.12505070174E+03 0.  0.
          5    1    3    3  502    0 -0.79481450489E+02  0.13354549920E+03  0.41385874777E+03  0.44210050264E+03  0.47000000000E+01 0. -1.
         -5    1    3    3    0  502 -0.10069767679E+03  0.43065748032E+00  0.31557271425E+03  0.33128301429E+03  0.47000000000E+01 0. -1.
        -11    1    1    2    0    0  0.92347854576E+02 -0.64974805051E+02  0.16909001614E+03  0.20332556429E+03  0.00000000000E+00 0.  1.
         11    1    1    2    0    0  0.87831272705E+02 -0.69001351630E+02  0.41568586416E+03  0.43043031567E+03  0.00000000000E+00 0. -1.
<mgrwt>
<rscale>  0 0.25376909E+03</rscale>
<asrwt>0</asrwt>
<pdfrwt beam="2">  1        3 0.71486206E-02 0.25700546E+03</pdfrwt>
<pdfrwt beam="1">  1       -3 0.20933433E+00 0.25700546E+03</pdfrwt>
<totfact> 0.44702029E+01</totfact>
</mgrwt>
</event>
<event>
 7    1  0.6095443E-006  0.2071179E+03  0.7546771E-02  0.1148179E+00
          3   -1    0    0  501    0  0.00000000000E+00  0.00000000000E+00  0.51883374882E+02  0.51883374882E+02  0.00000000000E+00 0. -1.
         -3   -1    0    0    0  501 -0.00000000000E+00 -0.00000000000E+00 -0.80921694803E+03  0.80921694803E+03  0.00000000000E+00 0.  1.
         23    2    1    2    0    0 -0.14047121958E+03  0.86836530114E+02 -0.27835152408E+03  0.34695443044E+03  0.12500023742E+03 0.  0.
          5    1    3    3  502    0 -0.50164183895E+02  0.74650146348E+02 -0.54618234306E+02  0.10532963123E+03  0.47000000000E+01 0.  1.
         -5    1    3    3    0  502 -0.90307035689E+02  0.12186383765E+02 -0.22373328977E+03  0.24162479922E+03  0.47000000000E+01 0.  1.
        -11    1    1    2    0    0  0.13793059849E+03 -0.65902700528E+02 -0.46329655151E+03  0.48786443873E+03  0.00000000000E+00 0.  1.
         11    1    1    2    0    0  0.25406210889E+01 -0.20933829586E+02 -0.15685497553E+02  0.26281453730E+02  0.00000000000E+00 0. -1.
<mgrwt>
<rscale>  0 0.20186027E+03</rscale>
<asrwt>0</asrwt>
<pdfrwt beam="1">  1        3 0.79820582E-02 0.20711785E+03</pdfrwt>
<pdfrwt beam="2">  1       -3 0.12449491E+00 0.20711785E+03</pdfrwt>
<totfact> 0.14206616E+02</totfact>
</mgrwt>
</event>
<event>
 7    1  0.6095443E-006  0.3344047E+03  0.7546771E-02  0.1070409E+00
         -2   -1    0    0    0  501 -0.00000000000E+00  0.00000000000E+00  0.37684867449E+03  0.37684867449E+03  0.00000000000E+00 0.  1.
          2   -1    0    0  501    0  0.00000000000E+00 -0.00000000000E+00 -0.28791399494E+03  0.28791399494E+03  0.00000000000E+00 0. -1.
         23    2    1    2    0    0 -0.10989109163E+03  0.29004858669E+03  0.62183636470E+02  0.34013719027E+03  0.12498907513E+03 0.  0.
          5    1    3    3  502    0 -0.12191415647E+03  0.23862538640E+03  0.13801736040E+02  0.26836116429E+03  0.47000000000E+01 0. -1.
         -5    1    3    3    0  502  0.12023064845E+02  0.51423200289E+02  0.48381900430E+02  0.71776025980E+02  0.47000000000E+01 0. -1.
        -11    1    1    2    0    0  0.55949054418E+02 -0.10052451443E+03  0.51462093176E+02  0.12603103477E+03  0.00000000000E+00 0.  1.
         11    1    1    2    0    0  0.53942037210E+02 -0.18952407226E+03 -0.24711050101E+02  0.19859444439E+03  0.00000000000E+00 0. -1.
<mgrwt>
<rscale>  0 0.33165002E+03</rscale>
<asrwt>0</asrwt>
<pdfrwt beam="2">  1        2 0.44294461E-01 0.33440470E+03</pdfrwt>
<pdfrwt beam="1">  1       -2 0.57976719E-01 0.33440470E+03</pdfrwt>
<totfact> 0.32597964E+02</totfact>
</mgrwt>
</event>
<event>
 7    1  0.6095443E-006  0.1289530E+03  0.7546771E-02  0.1237641E+00
          1   -1    0    0  501    0  0.00000000000E+00  0.00000000000E+00  0.35686465287E+03  0.35686465287E+03  0.00000000000E+00 0. -1.
         -1   -1    0    0    0  501 -0.00000000000E+00 -0.00000000000E+00 -0.69402416724E+02  0.69402416724E+02  0.00000000000E+00 0.  1.
         23    2    1    2    0    0  0.56889232789E+02 -0.95825709752E+01  0.10967339250E+02  0.12941853938E+03  0.11532851049E+03 0.  0.
          5    1    3    3  502    0 -0.12119924325E+02  0.36058323651E+02 -0.17035453955E+02  0.41945106528E+02  0.47000000000E+01 0. -1.
         -5    1    3    3    0  502  0.69009157114E+02 -0.45640894626E+02  0.28002793205E+02  0.87473432854E+02  0.47000000000E+01 0.  1.
        -11    1    1    2    0    0 -0.37682738113E+02 -0.35409960051E+02  0.19552946713E+03  0.20225139441E+03  0.00000000000E+00 0.  1.
         11    1    1    2    0    0 -0.19206494677E+02  0.44992531026E+02  0.80965429765E+02  0.94597135807E+02  0.00000000000E+00 0. -1.
<mgrwt>
<rscale>  0 0.12336890E+03</rscale>
<asrwt>0</asrwt>
<pdfrwt beam="1">  1        1 0.54902253E-01 0.12895300E+03</pdfrwt>
<pdfrwt beam="2">  1       -1 0.10677295E-01 0.12895300E+03</pdfrwt>
<totfact> 0.37230402E+03</totfact>
</mgrwt>
</event>
<event>
 7    1  0.6095443E-006  0.1325391E+03  0.7546771E-02  0.1238342E+00
          2   -1    0    0  501    0  0.00000000000E+00  0.00000000000E+00  0.10052244012E+03  0.10052244012E+03  0.00000000000E+00 0. -1.
         -2   -1    0    0    0  501 -0.00000000000E+00 -0.00000000000E+00 -0.13375582026E+03  0.13375582026E+03  0.00000000000E+00 0.  1.
         23    2    1    2    0    0 -0.42841761310E+02 -0.10303392383E+02 -0.31272924122E+02  0.13617858576E+03  0.12500014011E+03 0.  0.
          5    1    3    3  502    0 -0.48630816474E+02 -0.15662071592E+02  0.39538818967E+02  0.64773953120E+02  0.47000000000E+01 0.  1.
         -5    1    3    3    0  502  0.57890551642E+01  0.53586792095E+01 -0.70811743089E+02  0.71404632636E+02  0.47000000000E+01 0.  1.
        -11    1    1    2    0    0  0.13533756408E+02 -0.24603608579E+02 -0.32716261017E+02  0.43114427429E+02  0.00000000000E+00 0.  1.
         11    1    1    2    0    0  0.29308004902E+02  0.34907000961E+02  0.30755805007E+02  0.54985247195E+02  0.00000000000E+00 0. -1.
<mgrwt>
<rscale>  0 0.12292868E+03</rscale>
<asrwt>0</asrwt>
<pdfrwt beam="1">  1        2 0.15464991E-01 0.13253909E+03</pdfrwt>
<pdfrwt beam="2">  1       -2 0.20577818E-01 0.13253909E+03</pdfrwt>
<totfact> 0.71006705E+03</totfact>
</mgrwt>
</event>
<event>
 7    1  0.6095443E-006  0.1724876E+03  0.7546771E-02  0.1181732E+00
          2   -1    0    0  501    0  0.00000000000E+00  0.00000000000E+00  0.42254077785E+03  0.42254077785E+03  0.00000000000E+00 0. -1.
         -2   -1    0    0    0  501 -0.00000000000E+00 -0.00000000000E+00 -0.61245977558E+02  0.61245977558E+02  0.00000000000E+00 0.  1.
         23    2    1    2    0    0  0.29249155396E+02  0.11520157993E+03  0.18733491599E+03  0.25464946951E+03  0.12500025786E+03 0.  0.
          5    1    3    3  502    0  0.66419678819E+02  0.88567702217E+02  0.17487106611E+03  0.20702123411E+03  0.47000000000E+01 0.  1.
         -5    1    3    3    0  502 -0.37170523423E+02  0.26633877714E+02  0.12463849873E+02  0.47628235399E+02  0.47000000000E+01 0.  1.
        -11    1    1    2    0    0  0.14297531794E+02 -0.42554688333E+01 -0.35428207210E+01  0.15332319102E+02  0.00000000000E+00 0.  1.
         11    1    1    2    0    0 -0.43546687189E+02 -0.11094611110E+03  0.17750270503E+03  0.21380496679E+03  0.00000000000E+00 0. -1.
<mgrwt>
<rscale>  0 0.16632780E+03</rscale>
<asrwt>0</asrwt>
<pdfrwt beam="1">  1        2 0.65006271E-01 0.17248763E+03</pdfrwt>
<pdfrwt beam="2">  1       -2 0.94224584E-02 0.17248763E+03</pdfrwt>
<totfact> 0.53379721E+03</totfact>
</mgrwt>
</event>
<event>
 7    1  0.6095443E-006  0.1915193E+03  0.7546771E-02  0.1159743E+00
          1   -1    0    0  501    0  0.00000000000E+00  0.00000000000E+00  0.94858659498E+03  0.94858659498E+03  0.00000000000E+00 0. -1.
         -1   -1    0    0    0  501 -0.00000000000E+00 -0.00000000000E+00 -0.38321432227E+02  0.38321432227E+02  0.00000000000E+00 0.  1.
         23    2    1    2    0    0 -0.15061967319E+03 -0.36477291881E+02  0.57928634370E+03  0.61012483933E+03  0.11252898649E+03 0.  0.
          5    1    3    3  502    0 -0.97130040932E+02  0.19379253885E+02  0.20272722741E+03  0.22567724535E+03  0.47000000000E+01 0. -1.
         -5    1    3    3    0  502 -0.53489632255E+02 -0.55856545765E+02  0.37655911628E+03  0.38444759398E+03  0.47000000000E+01 0.  1.
        -11    1    1    2    0    0  0.85317320134E+02  0.66449676043E+02  0.20350928162E+03  0.23045744133E+03  0.00000000000E+00 0.  1.
         11    1    1    2    0    0  0.65302353054E+02 -0.29972384162E+02  0.12746953744E+03  0.14632574654E+03  0.00000000000E+00 0. -1.
<mgrwt>
<rscale>  0 0.18858568E+03</rscale>
<asrwt>0</asrwt>
<pdfrwt beam="1">  1        1 0.14593638E+00 0.19151932E+03</pdfrwt>
<pdfrwt beam="2">  1       -1 0.58956057E-02 0.19151932E+03</pdfrwt>
<totfact> 0.23877130E+03</totfact>
</mgrwt>
</event>
<event>
 7    1  0.6095443E-006  0.1304278E+03  0.7546771E-02  0.1242168E+00
          1   -1    0    0  501    0  0.00000000000E+00  0.00000000000E+00  0.58443187296E+03  0.58443187296E+03  0.00000000000E+00 0. -1.
         -1   -1    0    0    0  501 -0.00000000000E+00 -0.00000000000E+00 -0.22810824485E+02  0.22810824485E+02  0.00000000000E+00 0.  1.
         23    2    1    2    0    0 -0.18775266132E+01 -0.37194237824E+02  0.25892507384E+03  0.28991998195E+03  0.12499786253E+03 0.  0.
          5    1    3    3  502    0  0.49443849244E+02 -0.55241467781E+02  0.17070307670E+03  0.18616644269E+03  0.47000000000E+01 0. -1.
         -5    1    3    3    0  502 -0.51321375857E+02  0.18047229958E+02  0.88221997141E+02  0.10375353926E+03  0.47000000000E+01 0. -1.
        -11    1    1    2    0    0 -0.36018298397E+02  0.89875173445E+01  0.21028802947E+03  0.21353957157E+03  0.00000000000E+00 0. -1.
         11    1    1    2    0    0  0.37895825010E+02  0.28206720479E+02  0.92407945170E+02  0.10378314393E+03  0.00000000000E+00 0.  1.
<mgrwt>
<rscale>  0 0.12056509E+03</rscale>
<asrwt>0</asrwt>
<pdfrwt beam="1">  1        1 0.89912585E-01 0.13042777E+03</pdfrwt>
<pdfrwt beam="2">  1       -1 0.35093581E-02 0.13042777E+03</pdfrwt>
<totfact> 0.10377387E+04</totfact>
</mgrwt>
</event>
<event>
 7    1  0.6095443E-006  0.1975225E+03  0.7546771E-02  0.1156014E+00
         -1   -1    0    0    0  501 -0.00000000000E+00  0.00000000000E+00  0.10919392667E+03  0.10919392667E+03  0.00000000000E+00 0.  1.
          1   -1    0    0  501    0  0.00000000000E+00 -0.00000000000E+00 -0.32489391809E+03  0.32489391809E+03  0.00000000000E+00 0. -1.
         23    2    1    2    0    0  0.98691898672E+02  0.11683222350E+03 -0.11833665416E+03  0.23025794085E+03  0.12500118517E+03 0.  0.
          5    1    3    3  502    0  0.12069032592E+03  0.12334576290E+03 -0.11271892399E+03  0.20617462943E+03  0.47000000000E+01 0.  1.
         -5    1    3    3    0  502 -0.21998427248E+02 -0.65135393917E+01 -0.56177301709E+01  0.24083311422E+02  0.47000000000E+01 0.  1.
        -11    1    1    2    0    0 -0.38142129600E+02 -0.10743292689E+03 -0.42767579315E+02  0.12176092013E+03  0.00000000000E+00 0.  1.
         11    1    1    2    0    0 -0.60549769071E+02 -0.93992966099E+01 -0.54595757951E+02  0.82068983773E+02  0.00000000000E+00 0. -1.
<mgrwt>
<rscale>  0 0.19273909E+03</rscale>
<asrwt>0</asrwt>
<pdfrwt beam="2">  1        1 0.49983679E-01 0.19752254E+03</pdfrwt>
<pdfrwt beam="1">  1       -1 0.16799066E-01 0.19752254E+03</pdfrwt>
<totfact> 0.20976978E+03</totfact>
</mgrwt>
</event>
<event>
 7    1  0.6095443E-006  0.1413284E+03  0.7546771E-02  0.1222419E+00
          3   -1    0    0  501    0  0.00000000000E+00  0.00000000000E+00  0.12589849047E+03  0.12589849047E+03  0.00000000000E+00 0. -1.
         -3   -1    0    0    0  501 -0.00000000000E+00 -0.00000000000E+00 -0.17837351693E+03  0.17837351693E+03  0.00000000000E+00 0.  1.
         23    2    1    2    0    0  0.12414714674E+02  0.64752775788E+02 -0.10900980116E+03  0.17848491296E+03  0.12500672099E+03 0.  0.
          5    1    3    3  502    0 -0.17726806199E+02  0.70047277077E+02 -0.12437744286E+03  0.14391907092E+03  0.47000000000E+01 0.  1.
         -5    1    3    3    0  502  0.30141520874E+02 -0.52945012896E+01  0.15367641693E+02  0.34565842037E+02  0.47000000000E+01 0.  1.
        -11    1    1    2    0    0 -0.48718568027E+02 -0.51485699689E+02  0.49613052073E+02  0.86520119504E+02  0.00000000000E+00 0. -1.
         11    1    1    2    0    0  0.36303853352E+02 -0.13267076098E+02  0.69217226295E+01  0.39266974935E+02  0.00000000000E+00 0.  1.
<mgrwt>
<rscale>  0 0.13345391E+03</rscale>
<asrwt>0</asrwt>
<pdfrwt beam="1">  1        3 0.19368999E-01 0.14132844E+03</pdfrwt>
<pdfrwt beam="2">  1       -3 0.27442080E-01 0.14132844E+03</pdfrwt>
<totfact> 0.69997706E+02</totfact>
</mgrwt>
</event>
<event>
 7    1  0.6095443E-006  0.1277283E+03  0.7546771E-02  0.1245683E+00
         -2   -1    0    0    0  501 -0.00000000000E+00  0.00000000000E+00  0.14387321571E+03  0.14387321571E+03  0.00000000000E+00 0.  1.
          2   -1    0    0  501    0  0.00000000000E+00 -0.00000000000E+00 -0.94122236598E+02  0.94122236598E+02  0.00000000000E+00 0. -1.
         23    2    1    2    0    0 -0.21518430825E+02 -0.15032803593E+02  0.63338312812E+02  0.14257022550E+03  0.12500199710E+03 0.  0.
          5    1    3    3  502    0  0.32745913009E+02 -0.15468660376E+02 -0.21033613948E+02  0.42143530801E+02  0.47000000000E+01 0. -1.
         -5    1    3    3    0  502 -0.54264343834E+02  0.43585678252E+00  0.84371926760E+02  0.10042669470E+03  0.47000000000E+01 0. -1.
        -11    1    1    2    0    0 -0.14124502635E+02  0.18806793783E+02  0.30558069985E+02  0.38561544423E+02  0.00000000000E+00 0.  1.
         11    1    1    2    0    0  0.35642933459E+02 -0.37739901898E+01 -0.44145403687E+02  0.56863682384E+02  0.00000000000E+00 0. -1.
<mgrwt>
<rscale>  0 0.11844570E+03</rscale>
<asrwt>0</asrwt>
<pdfrwt beam="2">  1        2 0.14480344E-01 0.12772833E+03</pdfrwt>
<pdfrwt beam="1">  1       -2 0.22134341E-01 0.12772833E+03</pdfrwt>
<totfact> 0.67526304E+03</totfact>
</mgrwt>
</event>
<event>
 6    1  0.6095443E-006  0.1347406E+03  0.7546771E-02  0.1236919E+00
         -1   -1    0    0    0  501 -0.00000000000E+00  0.00000000000E+00  0.87641122762E+02  0.87641122762E+02  0.00000000000E+00 0.  1.
          1   -1    0    0  501    0  0.00000000000E+00 -0.00000000000E+00 -0.21526816914E+03  0.21526816914E+03  0.00000000000E+00 0. -1.
          5    1    1    2  502    0  0.30490140325E+02  0.35955269048E+01 -0.45599461356E+02  0.55172251600E+02  0.47000000000E+01 0. -1.
         -5    1    1    2    0  502 -0.55388995318E+02 -0.14681335193E+02  0.55532617920E+02  0.79933998138E+02  0.47000000000E+01 0.  1.
        -11    1    1    2    0    0 -0.33341017646E+02  0.14601371211E+02 -0.39623671562E+02  0.53803892489E+02  0.00000000000E+00 0.  1.
         11    1    1    2    0    0  0.58239872640E+02 -0.35155629226E+01 -0.97936531380E+02  0.11399914967E+03  0.00000000000E+00 0. -1.
<mgrwt>
<rscale>  0 0.12382370E+03</rscale>
<asrwt>0</asrwt>
<pdfrwt beam="2">  1        1 0.33118179E-01 0.13474061E+03</pdfrwt>
<pdfrwt beam="1">  1       -1 0.13483250E-01 0.13474061E+03</pdfrwt>
<totfact> 0.48687562E+03</totfact>
</mgrwt>
</event>
<event>
 7    1  0.6095443E-006  0.1461839E+03  0.7546771E-02  0.1208805E+00
         -1   -1    0    0    0  501 -0.00000000000E+00  0.00000000000E+00  0.52671921248E+02  0.52671921248E+02  0.00000000000E+00 0.  1.
          1   -1    0    0  501    0  0.00000000000E+00 -0.00000000000E+00 -0.67712035645E+03  0.67712035645E+03  0.00000000000E+00 0. -1.
         23    2    1    2    0    0  0.44009225732E+02 -0.61708356874E+02 -0.75779718208E+02  0.16465813825E+03  0.12500001417E+03 0.  0.
          5    1    3    3  502    0  0.40010385294E+02 -0.46508998423E+02  0.22125863443E+02  0.65387779430E+02  0.47000000000E+01 0.  1.
         -5    1    3    3    0  502  0.39988404381E+01 -0.15199358450E+02 -0.97905581651E+02  0.99270358822E+02  0.47000000000E+01 0.  1.
        -11    1    1    2    0    0 -0.52760521613E+02 -0.17346507184E+02 -0.20598388428E+03  0.21333995063E+03  0.00000000000E+00 0.  1.
         11    1    1    2    0    0  0.87512958809E+01  0.79054864058E+02 -0.34268483271E+03  0.35179418881E+03  0.00000000000E+00 0. -1.
<mgrwt>
<rscale>  0 0.14341591E+03</rscale>
<asrwt>0</asrwt>
<pdfrwt beam="2">  1        1 0.10417235E+00 0.14618391E+03</pdfrwt>
<pdfrwt beam="1">  1       -1 0.81033732E-02 0.14618391E+03</pdfrwt>
<totfact> 0.24582481E+03</totfact>
</mgrwt>
</event>
<event>
 7    1  0.6095443E-006  0.1408879E+03  0.7546771E-02  0.1222480E+00
         -1   -1    0    0    0  501 -0.00000000000E+00  0.00000000000E+00  0.76964124855E+02  0.76964124855E+02  0.00000000000E+00 0.  1.
          1   -1    0    0  501    0  0.00000000000E+00 -0.00000000000E+00 -0.20985075107E+03  0.20985075107E+03  0.00000000000E+00 0. -1.
         23    2    1    2    0    0  0.61474584676E+02 -0.21114572658E+02 -0.72630515291E+02  0.15850742387E+03  0.12499784770E+03 0.  0.
          5    1    3    3  502    0 -0.79290463366E+01 -0.49520744871E+02 -0.66071772085E+02  0.83082747997E+02  0.47000000000E+01 0. -1.
         -5    1    3    3    0  502  0.69403631013E+02  0.28406172213E+02 -0.65587432068E+01  0.75424675870E+02  0.47000000000E+01 0. -1.
        -11    1    1    2    0    0 -0.27080320233E+01  0.18544450374E+02  0.20902272169E+02  0.28073743230E+02  0.00000000000E+00 0.  1.
         11    1    1    2    0    0 -0.58766552653E+02  0.25701222835E+01 -0.81158383092E+02  0.10023370883E+03  0.00000000000E+00 0. -1.
<mgrwt>
<rscale>  0 0.13341116E+03</rscale>
<asrwt>0</asrwt>
<pdfrwt beam="2">  1        1 0.32284730E-01 0.14088794E+03</pdfrwt>
<pdfrwt beam="1">  1       -1 0.11840635E-01 0.14088794E+03</pdfrwt>
<totfact> 0.61618112E+03</totfact>
</mgrwt>
</event>
<event>
 7    1  0.6095443E-006  0.1611886E+03  0.7546771E-02  0.1195085E+00
         -1   -1    0    0    0  501 -0.00000000000E+00  0.00000000000E+00  0.59462545097E+03  0.59462545097E+03  0.00000000000E+00 0.  1.
          1   -1    0    0  501    0  0.00000000000E+00 -0.00000000000E+00 -0.80857159651E+02  0.80857159651E+02  0.00000000000E+00 0. -1.
         23    2    1    2    0    0  0.91920974278E+02  0.43677669053E+02  0.51488691228E+03  0.53952785969E+03  0.12499829863E+03 0.  0.
          5    1    3    3  502    0  0.93229376304E+02  0.58782920068E+02  0.23950673044E+03  0.26369056150E+03  0.47000000000E+01 0. -1.
         -5    1    3    3    0  502 -0.13084020262E+01 -0.15105251015E+02  0.27538018184E+03  0.27583729819E+03  0.47000000000E+01 0. -1.
        -11    1    1    2    0    0 -0.59864391362E+02 -0.39717819924E+02  0.41123059621E+02  0.82778962335E+02  0.00000000000E+00 0.  1.
         11    1    1    2    0    0 -0.32056582915E+02 -0.39598491297E+01 -0.42241680587E+02  0.53175788590E+02  0.00000000000E+00 0. -1.
<mgrwt>
<rscale>  0 0.15447057E+03</rscale>
<asrwt>0</asrwt>
<pdfrwt beam="2">  1        1 0.12439563E-01 0.16118864E+03</pdfrwt>
<pdfrwt beam="1">  1       -1 0.91480836E-01 0.16118864E+03</pdfrwt>
<totfact> 0.58528025E+02</totfact>
</mgrwt>
</event>
<event>
 6    1  0.6095443E-006  0.4316972E+03  0.7546771E-02  0.1078714E+00
          1   -1    0    0  501    0  0.00000000000E+00  0.00000000000E+00  0.60321346454E+03  0.60321346454E+03  0.00000000000E+00 0. -1.
         -1   -1    0    0    0  501 -0.00000000000E+00 -0.00000000000E+00 -0.15364959087E+03  0.15364959087E+03  0.00000000000E+00 0.  1.
          5    1    1    2  502    0  0.30771189001E+01 -0.16041169578E+03  0.17322109285E+03  0.23615464808E+03  0.47000000000E+01 0. -1.
         -5    1    1    2    0  502 -0.83501262968E+01  0.23519595795E+03  0.18244946927E+02  0.23609708032E+03  0.47000000000E+01 0.  1.
        -11    1    1    2    0    0  0.44954996286E+02 -0.13535479728E+02  0.10395292780E+03  0.11406301811E+03  0.00000000000E+00 0. -1.
         11    1    1    2    0    0 -0.39681988889E+02 -0.61248782448E+02  0.15414490610E+03  0.17054830890E+03  0.00000000000E+00 0.  1.
<mgrwt>
<rscale>  0 0.31342863E+03</rscale>
<asrwt>0</asrwt>
<pdfrwt beam="1">  1        1 0.92802070E-01 0.43169717E+03</pdfrwt>
<pdfrwt beam="2">  1       -1 0.23638399E-01 0.43169717E+03</pdfrwt>
<totfact> 0.53258524E+02</totfact>
</mgrwt>
</event>
<event>
 7    1  0.6095443E-006  0.2508508E+03  0.7546771E-02  0.1115241E+00
          1   -1    0    0  501    0  0.00000000000E+00  0.00000000000E+00  0.11362220102E+04  0.11362220102E+04  0.00000000000E+00 0. -1.
         -1   -1    0    0    0  501 -0.00000000000E+00 -0.00000000000E+00 -0.52091358959E+02  0.52091358959E+02  0.00000000000E+00 0.  1.
         23    2    1    2    0    0  0.64656997486E+02 -0.20766139157E+03  0.54877746375E+03  0.60339275935E+03  0.12498934531E+03 0.  0.
          5    1    3    3  502    0  0.57547710287E+02 -0.22105405598E+03  0.46466697774E+03  0.51779737816E+03  0.47000000000E+01 0.  1.
         -5    1    3    3    0  502  0.71092871990E+01  0.13392664407E+02  0.84110486010E+02  0.85595381191E+02  0.47000000000E+01 0.  1.
        -11    1    1    2    0    0 -0.29689177108E+02  0.67445391425E+02  0.87859067236E+02  0.11467146008E+03  0.00000000000E+00 0.  1.
         11    1    1    2    0    0 -0.34967820379E+02  0.14021600015E+03  0.44749412030E+03  0.47024914977E+03  0.00000000000E+00 0. -1.
<mgrwt>
<rscale>  0 0.24696003E+03</rscale>
<asrwt>0</asrwt>
<pdfrwt beam="1">  1        1 0.17480337E+00 0.25085079E+03</pdfrwt>
<pdfrwt beam="2">  1       -1 0.80140561E-02 0.25085079E+03</pdfrwt>
<totfact> 0.10929589E+03</totfact>
</mgrwt>
</event>
<event>
 7    1  0.6095443E-006  0.1178264E+03  0.7546771E-02  0.1310888E+00
          2   -1    0    0  501    0  0.00000000000E+00  0.00000000000E+00  0.23309599925E+03  0.23309599925E+03  0.00000000000E+00 0. -1.
         -2   -1    0    0    0  501 -0.00000000000E+00 -0.00000000000E+00 -0.27044941655E+02  0.27044941655E+02  0.00000000000E+00 0.  1.
         23    2    1    2    0    0 -0.48480282202E+01  0.38334230059E+00  0.12387679564E+03  0.17096351738E+03  0.11772601008E+03 0.  0.
          5    1    3    3  502    0 -0.29215969031E+02  0.75167358453E+01  0.13813344090E+03  0.14146735192E+03  0.47000000000E+01 0. -1.
         -5    1    3    3    0  502  0.24367940811E+02 -0.71333935447E+01 -0.14256645261E+02  0.29496165461E+02  0.47000000000E+01 0.  1.
        -11    1    1    2    0    0 -0.91546075630E+01 -0.95869547288E+01  0.59642828700E+02  0.61098146911E+02  0.00000000000E+00 0. -1.
         11    1    1    2    0    0  0.14002635783E+02  0.92036124282E+01  0.22531433260E+02  0.28079276617E+02  0.00000000000E+00 0.  1.
<mgrwt>
<rscale>  0 0.86762051E+02</rscale>
<asrwt>0</asrwt>
<pdfrwt beam="1">  1        2 0.35860922E-01 0.11782641E+03</pdfrwt>
<pdfrwt beam="2">  1       -2 0.41607604E-02 0.11782641E+03</pdfrwt>
<totfact> 0.33899453E+04</totfact>
</mgrwt>
</event>
<event>
 7    1  0.6095443E-006  0.1717939E+03  0.7546771E-02  0.1182236E+00
          3   -1    0    0  501    0  0.00000000000E+00  0.00000000000E+00  0.45712635954E+02  0.45712635954E+02  0.00000000000E+00 0. -1.
         -3   -1    0    0    0  501 -0.00000000000E+00 -0.00000000000E+00 -0.64020424206E+03  0.64020424206E+03  0.00000000000E+00 0.  1.
         23    2    1    2    0    0 -0.99228234880E+02  0.63572646901E+02 -0.43391402647E+03  0.46668461631E+03  0.12500169878E+03 0.  0.
          5    1    3    3  502    0 -0.84757456142E+02  0.98763154748E+02 -0.29281104933E+03  0.32046589166E+03  0.47000000000E+01 0. -1.
         -5    1    3    3    0  502 -0.14470778738E+02 -0.35190507847E+02 -0.14110297714E+03  0.14621872465E+03  0.47000000000E+01 0. -1.
        -11    1    1    2    0    0  0.29542184015E+02 -0.69246817400E+02 -0.10845928437E+03  0.13202756804E+03  0.00000000000E+00 0.  1.
         11    1    1    2    0    0  0.69686050865E+02  0.56741704990E+01 -0.52118295260E+02  0.87204693663E+02  0.00000000000E+00 0. -1.
<mgrwt>
<rscale>  0 0.16585915E+03</rscale>
<asrwt>0</asrwt>
<pdfrwt beam="1">  1        3 0.70327135E-02 0.17179391E+03</pdfrwt>
<pdfrwt beam="2">  1       -3 0.98492956E-01 0.17179391E+03</pdfrwt>
<totfact> 0.29606996E+02</totfact>
</mgrwt>
</event>
<event>
 7    1  0.6095443E-006  0.1450004E+03  0.7546771E-02  0.1217690E+00
          2   -1    0    0  501    0  0.00000000000E+00  0.00000000000E+00  0.32811523076E+02  0.32811523076E+02  0.00000000000E+00 0. -1.
         -2   -1    0    0    0  501 -0.00000000000E+00 -0.00000000000E+00 -0.51885766270E+03  0.51885766270E+03  0.00000000000E+00 0.  1.
         23    2    1    2    0    0  0.29887861742E+02  0.67136331924E+02 -0.29550103985E+03  0.32915950675E+03  0.12499817995E+03 0.  0.
          5    1    3    3  502    0 -0.31619429470E+01 -0.23962881987E+02 -0.82549832612E+01  0.25970220349E+02  0.47000000000E+01 0.  1.
         -5    1    3    3    0  502  0.33049804689E+02  0.91099213911E+02 -0.28724605659E+03  0.30318928640E+03  0.47000000000E+01 0.  1.
        -11    1    1    2    0    0  0.76826084056E+01 -0.72690607822E+02 -0.15054261935E+03  0.16735001398E+03  0.00000000000E+00 0.  1.
         11    1    1    2    0    0 -0.37570470147E+02  0.55542758987E+01 -0.40002480429E+02  0.55159665049E+02  0.00000000000E+00 0. -1.
<mgrwt>
<rscale>  0 0.13680800E+03</rscale>
<asrwt>0</asrwt>
<pdfrwt beam="1">  1        2 0.50479269E-02 0.14500040E+03</pdfrwt>
<pdfrwt beam="2">  1       -2 0.79824252E-01 0.14500040E+03</pdfrwt>
<totfact> 0.21425544E+03</totfact>
</mgrwt>
</event>
<event>
 7    1  0.6095443E-006  0.1674942E+03  0.7546771E-02  0.1184107E+00
         -4   -1    0    0    0  501 -0.00000000000E+00  0.00000000000E+00  0.16458970657E+03  0.16458970657E+03  0.00000000000E+00 0.  1.
          4   -1    0    0  501    0  0.00000000000E+00 -0.00000000000E+00 -0.21453459667E+03  0.21453459667E+03  0.00000000000E+00 0. -1.
         23    2    1    2    0    0 -0.78720775638E+02 -0.78955089913E+02  0.72019823261E+02  0.18232155832E+03  0.12499371562E+03 0.  0.
          5    1    3    3  502    0  0.33762443914E+02 -0.18512253752E+02  0.88862414948E+01  0.39795244011E+02  0.47000000000E+01 0. -1.
         -5    1    3    3    0  502 -0.11248321955E+03 -0.60442836161E+02  0.63133581766E+02  0.14252631431E+03  0.47000000000E+01 0. -1.
        -11    1    1    2    0    0  0.56500887068E+02  0.55174810447E+02 -0.13915036966E+03  0.15999823538E+03  0.00000000000E+00 0. -1.
         11    1    1    2    0    0  0.22219888570E+02  0.23780279466E+02  0.17185656304E+02  0.36804509535E+02  0.00000000000E+00 0.  1.
<mgrwt>
<rscale>  0 0.16413428E+03</rscale>
<asrwt>0</asrwt>
<pdfrwt beam="2">  1        4 0.33005322E-01 0.16749417E+03</pdfrwt>
<pdfrwt beam="1">  1       -4 0.25321494E-01 0.16749417E+03</pdfrwt>
<totfact> 0.22401413E+02</totfact>
</mgrwt>
</event>
<event>
 7    1  0.6095443E-006  0.1315064E+03  0.7546771E-02  0.1231769E+00
         -2   -1    0    0    0  501 -0.00000000000E+00  0.00000000000E+00  0.62625064370E+02  0.62625064370E+02  0.00000000000E+00 0.  1.
          2   -1    0    0  501    0  0.00000000000E+00 -0.00000000000E+00 -0.25963082424E+03  0.25963082424E+03  0.00000000000E+00 0. -1.
         23    2    1    2    0    0 -0.22803066210E+01  0.40770527866E+02 -0.63205675733E+02  0.14590715111E+03  0.12500601409E+03 0.  0.
          5    1    3    3  502    0 -0.25396468274E+02  0.80207069057E+02 -0.50471488211E+02  0.98222276749E+02  0.47000000000E+01 0. -1.
         -5    1    3    3    0  502  0.23116161653E+02 -0.39436541191E+02 -0.12734187522E+02  0.47684874358E+02  0.47000000000E+01 0. -1.
        -11    1    1    2    0    0  0.27039958620E+02  0.29301554202E+02 -0.37778480295E+02  0.54926805972E+02  0.00000000000E+00 0.  1.
         11    1    1    2    0    0 -0.24759651999E+02 -0.70072082067E+02 -0.96021603841E+02  0.12142193153E+03  0.00000000000E+00 0. -1.
<mgrwt>
<rscale>  0 0.12713561E+03</rscale>
<asrwt>0</asrwt>
<pdfrwt beam="2">  1        2 0.39943203E-01 0.13150642E+03</pdfrwt>
<pdfrwt beam="1">  1       -2 0.96346255E-02 0.13150642E+03</pdfrwt>
<totfact> 0.85233342E+03</totfact>
</mgrwt>
</event>
<event>
 7    1  0.6095443E-006  0.1716835E+03  0.7546771E-02  0.1180523E+00
          1   -1    0    0  501    0  0.00000000000E+00  0.00000000000E+00  0.52167054205E+03  0.52167054205E+03  0.00000000000E+00 0. -1.
         -1   -1    0    0    0  501 -0.00000000000E+00 -0.00000000000E+00 -0.53544269344E+02  0.53544269344E+02  0.00000000000E+00 0.  1.
         23    2    1    2    0    0 -0.63114286106E+02  0.99331973626E+02  0.18601517803E+03  0.25313410655E+03  0.12499990138E+03 0.  0.
          5    1    3    3  502    0  0.24817040368E+01  0.73162711901E+02  0.25423207879E+02  0.77636143429E+02  0.47000000000E+01 0.  1.
         -5    1    3    3    0  502 -0.65595990143E+02  0.26169261724E+02  0.16059197015E+03  0.17549796312E+03  0.47000000000E+01 0.  1.
        -11    1    1    2    0    0  0.36884287706E+02 -0.11757241112E+03  0.21670155275E+03  0.24928555012E+03  0.00000000000E+00 0.  1.
         11    1    1    2    0    0  0.26229998401E+02  0.18240437492E+02  0.65409541928E+02  0.72795154724E+02  0.00000000000E+00 0. -1.
<mgrwt>
<rscale>  0 0.16745940E+03</rscale>
<asrwt>0</asrwt>
<pdfrwt beam="1">  1        1 0.80257003E-01 0.17168352E+03</pdfrwt>
<pdfrwt beam="2">  1       -1 0.82375802E-02 0.17168352E+03</pdfrwt>
<totfact> 0.34434614E+03</totfact>
</mgrwt>
</event>
<event>
 7    1  0.6095443E-006  0.1269029E+03  0.7546771E-02  0.1246344E+00
         -1   -1    0    0    0  501 -0.00000000000E+00  0.00000000000E+00  0.27521312677E+03  0.27521312677E+03  0.00000000000E+00 0.  1.
          1   -1    0    0  501    0  0.00000000000E+00 -0.00000000000E+00 -0.52156571607E+02  0.52156571607E+02  0.00000000000E+00 0. -1.
         23    2    1    2    0    0 -0.55595421919E+01  0.21206088897E+02  0.18642109460E+03  0.22551535147E+03  0.12499496998E+03 0.  0.
          5    1    3    3  502    0  0.73011751525E+01  0.31682334089E+02 -0.50787792464E+01  0.33240960434E+02  0.47000000000E+01 0.  1.
         -5    1    3    3    0  502 -0.12860717344E+02 -0.10476245193E+02  0.19149987384E+03  0.19227439103E+03  0.47000000000E+01 0.  1.
        -11    1    1    2    0    0 -0.83219171994E+00 -0.43103856702E+02 -0.14804718717E+02  0.45583052793E+02  0.00000000000E+00 0. -1.
         11    1    1    2    0    0  0.63917339119E+01  0.21897767805E+02  0.51440179283E+02  0.56271294120E+02  0.00000000000E+00 0.  1.
<mgrwt>
<rscale>  0 0.11805315E+03</rscale>
<asrwt>0</asrwt>
<pdfrwt beam="2">  1        1 0.80240881E-02 0.12690291E+03</pdfrwt>
<pdfrwt beam="1">  1       -1 0.42340480E-01 0.12690291E+03</pdfrwt>
<totfact> 0.45911038E+03</totfact>
</mgrwt>
</event>
<event>
 7    1  0.6095443E-006  0.1531830E+03  0.7546771E-02  0.1205179E+00
          2   -1    0    0  501    0  0.00000000000E+00  0.00000000000E+00  0.58267537010E+03  0.58267537010E+03  0.00000000000E+00 0. -1.
         -2   -1    0    0    0  501 -0.00000000000E+00 -0.00000000000E+00 -0.33815940134E+02  0.33815940134E+02  0.00000000000E+00 0.  1.
         23    2    1    2    0    0  0.54904023245E+02 -0.69466329102E+02  0.28472973716E+03  0.32332037413E+03  0.12500007384E+03 0.  0.
          5    1    3    3  502    0  0.11327437326E+00 -0.22499442791E+02  0.23365850704E+03  0.23478634046E+03  0.47000000000E+01 0.  1.
         -5    1    3    3    0  502  0.54790748871E+02 -0.46966886311E+02  0.51071230119E+02  0.88534033668E+02  0.47000000000E+01 0.  1.
        -11    1    1    2    0    0 -0.11994484846E+02  0.59470915797E+02  0.63747330334E+02  0.88002156889E+02  0.00000000000E+00 0.  1.
         11    1    1    2    0    0 -0.42909538398E+02  0.99954133050E+01  0.20038236247E+03  0.20516877921E+03  0.00000000000E+00 0. -1.
<mgrwt>
<rscale>  0 0.14623323E+03</rscale>
<asrwt>0</asrwt>
<pdfrwt beam="1">  1        2 0.89642357E-01 0.15318303E+03</pdfrwt>
<pdfrwt beam="2">  1       -2 0.52024528E-02 0.15318303E+03</pdfrwt>
<totfact> 0.92687944E+03</totfact>
</mgrwt>
</event>
<event>
 7    1  0.6095443E-006  0.1253490E+03  0.7546771E-02  0.1250326E+00
         -1   -1    0    0    0  501 -0.00000000000E+00  0.00000000000E+00  0.61465667652E+02  0.61465667652E+02  0.00000000000E+00 0.  1.
          1   -1    0    0  501    0  0.00000000000E+00 -0.00000000000E+00 -0.19055426418E+03  0.19055426418E+03  0.00000000000E+00 0. -1.
         23    2    1    2    0    0 -0.88592191912E+01  0.29820671020E+01 -0.72212346170E+02  0.14466168950E+03  0.12500001192E+03 0.  0.
          5    1    3    3  502    0  0.18305980709E+01 -0.51592114651E+02 -0.72163115336E+02  0.88852138964E+02  0.47000000000E+01 0. -1.
         -5    1    3    3    0  502 -0.10689817262E+02  0.54574181753E+02 -0.49230834297E-01  0.55809550534E+02  0.47000000000E+01 0. -1.
        -11    1    1    2    0    0  0.17384614260E+02 -0.32157287786E+02  0.64452021393E+01  0.37119490855E+02  0.00000000000E+00 0.  1.
         11    1    1    2    0    0 -0.85253950687E+01  0.29175220684E+02 -0.63321452493E+02  0.70238751476E+02  0.00000000000E+00 0. -1.
<mgrwt>
<rscale>  0 0.11572198E+03</rscale>
<asrwt>0</asrwt>
<pdfrwt beam="2">  1        1 0.29316040E-01 0.12534904E+03</pdfrwt>
<pdfrwt beam="1">  1       -1 0.94562568E-02 0.12534904E+03</pdfrwt>
<totfact> 0.97169659E+03</totfact>
</mgrwt>
</event>
<event>
 7    1  0.6095443E-006  0.1606846E+03  0.7546771E-02  0.1196542E+00
          2   -1    0    0  501    0  0.00000000000E+00  0.00000000000E+00  0.65858056494E+02  0.65858056494E+02  0.00000000000E+00 0. -1.
         -2   -1    0    0    0  501 -0.00000000000E+00 -0.00000000000E+00 -0.72632855415E+03  0.72632855415E+03  0.00000000000E+00 0.  1.
         23    2    1    2    0    0 -0.12558137529E+02  0.10019594330E+03 -0.63731036512E+03  0.65725493031E+03  0.12499043187E+03 0.  0.
          5    1    3    3  502    0 -0.13563044699E+02 -0.17200851633E+02 -0.24160929425E+02  0.32949445961E+02  0.47000000000E+01 0. -1.
         -5    1    3    3    0  502  0.10049071709E+01  0.11739679493E+03 -0.61314943569E+03  0.62430548435E+03  0.47000000000E+01 0. -1.
        -11    1    1    2    0    0 -0.67768933133E+01 -0.10718738434E+03 -0.32695651423E+02  0.11226783719E+03  0.00000000000E+00 0.  1.
         11    1    1    2    0    0  0.19335030842E+02  0.69914410428E+01  0.95355188883E+01  0.22663843142E+02  0.00000000000E+00 0. -1.
<mgrwt>
<rscale>  0 0.15324481E+03</rscale>
<asrwt>0</asrwt>
<pdfrwt beam="1">  1        2 0.10132009E-01 0.16068460E+03</pdfrwt>
<pdfrwt beam="2">  1       -2 0.11174285E+00 0.16068460E+03</pdfrwt>
<totfact> 0.41245451E+02</totfact>
</mgrwt>
</event>
<event>
 7    1  0.6095443E-006  0.1382787E+03  0.7546771E-02  0.1226743E+00
         -2   -1    0    0    0  501 -0.00000000000E+00  0.00000000000E+00  0.13829167207E+03  0.13829167207E+03  0.00000000000E+00 0.  1.
          2   -1    0    0  501    0  0.00000000000E+00 -0.00000000000E+00 -0.12862026270E+03  0.12862026270E+03  0.00000000000E+00 0. -1.
         23    2    1    2    0    0 -0.58776037779E+02 -0.69084794215E+01  0.54283343129E+02  0.14855190745E+03  0.12497455005E+03 0.  0.
          5    1    3    3  502    0  0.26403532912E+02  0.33436956206E+02  0.25574617742E+02  0.49913201291E+02  0.47000000000E+01 0. -1.
         -5    1    3    3    0  502 -0.85179570691E+02 -0.40345435627E+02  0.28708725387E+02  0.98638706157E+02  0.47000000000E+01 0. -1.
        -11    1    1    2    0    0  0.65507197408E+02 -0.29098384895E+02 -0.20673288610E+02  0.74600896628E+02  0.00000000000E+00 0.  1.
         11    1    1    2    0    0 -0.67311596287E+01  0.36006864316E+02 -0.23938645144E+02  0.43759130695E+02  0.00000000000E+00 0. -1.
<mgrwt>
<rscale>  0 0.13048162E+03</rscale>
<asrwt>0</asrwt>
<pdfrwt beam="2">  1        2 0.19787733E-01 0.13827866E+03</pdfrwt>
<pdfrwt beam="1">  1       -2 0.21275642E-01 0.13827866E+03</pdfrwt>
<totfact> 0.50685397E+03</totfact>
</mgrwt>
</event>
<event>
 7    1  0.6095443E-006  0.1856091E+03  0.7546771E-02  0.1167779E+00
         -1   -1    0    0    0  501 -0.00000000000E+00  0.00000000000E+00  0.65478810954E+02  0.65478810954E+02  0.00000000000E+00 0.  1.
          1   -1    0    0  501    0  0.00000000000E+00 -0.00000000000E+00 -0.57775726503E+03  0.57775726503E+03  0.00000000000E+00 0. -1.
         23    2    1    2    0    0 -0.13681181756E+03 -0.10229284067E+02 -0.12840582655E+03  0.22569627973E+03  0.12501457002E+03 0.  0.
          5    1    3    3  502    0 -0.48476643644E+02 -0.34066807659E+02  0.94414090787E+01  0.60181081483E+02  0.47000000000E+01 0. -1.
         -5    1    3    3    0  502 -0.88335173920E+02  0.23837523592E+02 -0.13784723563E+03  0.16551519825E+03  0.47000000000E+01 0. -1.
        -11    1    1    2    0    0  0.66483235527E+02 -0.11176196074E+02 -0.78651979595E+02  0.10359083868E+03  0.00000000000E+00 0.  1.
         11    1    1    2    0    0  0.70328582038E+02  0.21405480141E+02 -0.30522064793E+03  0.31394895756E+03  0.00000000000E+00 0. -1.
<mgrwt>
<rscale>  0 0.18002481E+03</rscale>
<asrwt>0</asrwt>
<pdfrwt beam="2">  1        1 0.88885732E-01 0.18560914E+03</pdfrwt>
<pdfrwt beam="1">  1       -1 0.10073663E-01 0.18560914E+03</pdfrwt>
<totfact> 0.22121262E+03</totfact>
</mgrwt>
</event>
<event>
 7    1  0.6095443E-006  0.1393515E+03  0.7546771E-02  0.1227017E+00
          2   -1    0    0  501    0  0.00000000000E+00  0.00000000000E+00  0.39637493912E+03  0.39637493912E+03  0.00000000000E+00 0. -1.
         -2   -1    0    0    0  501 -0.00000000000E+00 -0.00000000000E+00 -0.38394318812E+02  0.38394318812E+02  0.00000000000E+00 0.  1.
         23    2    1    2    0    0  0.50654291305E+02 -0.35048212930E+02  0.18471400344E+03  0.23138303598E+03  0.12499844726E+03 0.  0.
          5    1    3    3  502    0 -0.76595675454E+01  0.16314252876E+02  0.14074890010E+03  0.14197593705E+03  0.47000000000E+01 0. -1.
         -5    1    3    3    0  502  0.58313858850E+02 -0.51362465807E+02  0.43965103334E+02  0.89407098929E+02  0.47000000000E+01 0. -1.
        -11    1    1    2    0    0 -0.31683889029E+02 -0.12414478406E+01  0.74277182442E+01  0.32566562838E+02  0.00000000000E+00 0.  1.
         11    1    1    2    0    0 -0.18970402276E+02  0.36289660771E+02  0.16583889862E+03  0.17081965911E+03  0.00000000000E+00 0. -1.
<mgrwt>
<rscale>  0 0.13029645E+03</rscale>
<asrwt>0</asrwt>
<pdfrwt beam="1">  1        2 0.60980757E-01 0.13935152E+03</pdfrwt>
<pdfrwt beam="2">  1       -2 0.59068186E-02 0.13935152E+03</pdfrwt>
<totfact> 0.11597201E+04</totfact>
</mgrwt>
</event>
<event>
 7    1  0.6095443E-006  0.1786585E+03  0.7546771E-02  0.1175025E+00
         -1   -1    0    0    0  501 -0.00000000000E+00  0.00000000000E+00  0.36444724367E+02  0.36444724367E+02  0.00000000000E+00 0.  1.
          1   -1    0    0  501    0  0.00000000000E+00 -0.00000000000E+00 -0.78017331901E+03  0.78017331901E+03  0.00000000000E+00 0. -1.
         23    2    1    2    0    0 -0.88778283182E+02  0.91720655592E+02 -0.44572600229E+03  0.48019842315E+03  0.12499837696E+03 0.  0.
          5    1    3    3  502    0 -0.73679024030E+02 -0.10583771946E+02 -0.16821045917E+03  0.18400397655E+03  0.47000000000E+01 0. -1.
         -5    1    3    3    0  502 -0.15099259153E+02  0.10230442754E+03 -0.27751554312E+03  0.29619444660E+03  0.47000000000E+01 0. -1.
        -11    1    1    2    0    0  0.47885769689E+02 -0.91820733632E+02 -0.14589975923E+03  0.17891571705E+03  0.00000000000E+00 0.  1.
         11    1    1    2    0    0  0.40892513493E+02  0.10007803934E+00 -0.15210283311E+03  0.15750390318E+03  0.00000000000E+00 0. -1.
<mgrwt>
<rscale>  0 0.17273507E+03</rscale>
<asrwt>0</asrwt>
<pdfrwt beam="2">  1        1 0.12002665E+00 0.17865849E+03</pdfrwt>
<pdfrwt beam="1">  1       -1 0.56068813E-02 0.17865849E+03</pdfrwt>
<totfact> 0.34985406E+03</totfact>
</mgrwt>
</event>
<event>
 7    1  0.6095443E-006  0.1498167E+03  0.7546771E-02  0.1209735E+00
          3   -1    0    0  501    0  0.00000000000E+00  0.00000000000E+00  0.16933859450E+03  0.16933859450E+03  0.00000000000E+00 0. -1.
         -3   -1    0    0    0  501 -0.00000000000E+00 -0.00000000000E+00 -0.11309831084E+03  0.11309831084E+03  0.00000000000E+00 0.  1.
         23    2    1    2    0    0 -0.54138837948E+02  0.62361738219E+02  0.80763579787E+01  0.15003421017E+03  0.12500014599E+03 0.  0.
          5    1    3    3  502    0 -0.34572398850E+02  0.99955485217E+02 -0.32330349060E+01  0.10591927257E+03  0.47000000000E+01 0.  1.
         -5    1    3    3    0  502 -0.19566439098E+02 -0.37593746998E+02  0.11309392885E+02  0.44114937604E+02  0.47000000000E+01 0.  1.
        -11    1    1    2    0    0  0.48711174226E+02  0.10456197682E+02  0.13774158323E+02  0.51689824936E+02  0.00000000000E+00 0.  1.
         11    1    1    2    0    0  0.54276637222E+01 -0.72817935901E+02  0.34389767355E+02  0.80712870232E+02  0.00000000000E+00 0. -1.
<mgrwt>
<rscale>  0 0.14270487E+03</rscale>
<asrwt>0</asrwt>
<pdfrwt beam="1">  1        3 0.26052091E-01 0.14981668E+03</pdfrwt>
<pdfrwt beam="2">  1       -3 0.17399740E-01 0.14981668E+03</pdfrwt>
<totfact> 0.93633643E+02</totfact>
</mgrwt>
</event>
<event>
 7    1  0.6095443E-006  0.2301343E+03  0.7546771E-02  0.1129767E+00
          4   -1    0    0  501    0  0.00000000000E+00  0.00000000000E+00  0.13967344196E+03  0.13967344196E+03  0.00000000000E+00 0. -1.
         -4   -1    0    0    0  501 -0.00000000000E+00 -0.00000000000E+00 -0.40073275515E+03  0.40073275515E+03  0.00000000000E+00 0.  1.
         23    2    1    2    0    0  0.19227441821E+03 -0.19175006652E+02 -0.23037991469E+03  0.32563275192E+03  0.12499860500E+03 0.  0.
          5    1    3    3  502    0  0.21039173959E+03 -0.15940568125E+02 -0.20873361967E+03  0.29683429684E+03  0.47000000000E+01 0. -1.
         -5    1    3    3    0  502 -0.18117321385E+02 -0.32344385264E+01 -0.21646295015E+02  0.28798455074E+02  0.47000000000E+01 0. -1.
        -11    1    1    2    0    0 -0.77458659984E+02  0.11000586845E+02 -0.56874331688E+02  0.96724074162E+02  0.00000000000E+00 0.  1.
         11    1    1    2    0    0 -0.11481575822E+03  0.81744198068E+01  0.26194933186E+02  0.11804937103E+03  0.00000000000E+00 0. -1.
<mgrwt>
<rscale>  0 0.22561187E+03</rscale>
<asrwt>0</asrwt>
<pdfrwt beam="1">  1        4 0.21488222E-01 0.23013427E+03</pdfrwt>
<pdfrwt beam="2">  1       -4 0.61651192E-01 0.23013427E+03</pdfrwt>
<totfact> 0.89732663E+01</totfact>
</mgrwt>
</event>
<event>
 7    1  0.6095443E-006  0.1416988E+03  0.7546771E-02  0.1232841E+00
          1   -1    0    0  501    0  0.00000000000E+00  0.00000000000E+00  0.29216487747E+03  0.29216487747E+03  0.00000000000E+00 0. -1.
         -1   -1    0    0    0  501 -0.00000000000E+00 -0.00000000000E+00 -0.47198772316E+02  0.47198772316E+02  0.00000000000E+00 0.  1.
         23    2    1    2    0    0 -0.54312744754E+02  0.38785537808E+02  0.12135271379E+03  0.18656105420E+03  0.12499741442E+03 0.  0.
          5    1    3    3  502    0 -0.39734644031E+02  0.38865668105E+02 -0.79588247619E+01  0.56345496582E+02  0.47000000000E+01 0. -1.
         -5    1    3    3    0  502 -0.14578100723E+02 -0.80130296880E-01  0.12931153855E+03  0.13021555761E+03  0.47000000000E+01 0. -1.
        -11    1    1    2    0    0  0.11796701628E+02  0.23162918106E+00 -0.42337336873E+01  0.12535562306E+02  0.00000000000E+00 0.  1.
         11    1    1    2    0    0  0.42516043125E+02 -0.39017166989E+02  0.12784712505E+03  0.14026703328E+03  0.00000000000E+00 0. -1.
<mgrwt>
<rscale>  0 0.12643659E+03</rscale>
<asrwt>0</asrwt>
<pdfrwt beam="1">  1        1 0.44948442E-01 0.14169879E+03</pdfrwt>
<pdfrwt beam="2">  1       -1 0.72613497E-02 0.14169879E+03</pdfrwt>
<totfact> 0.86111486E+03</totfact>
</mgrwt>
</event>
<event>
 7    1  0.6095443E-006  0.1289238E+03  0.7546771E-02  0.1243349E+00
          2   -1    0    0  501    0  0.00000000000E+00  0.00000000000E+00  0.97468418891E+02  0.97468418891E+02  0.00000000000E+00 0.  1.
         -2   -1    0    0    0  501 -0.00000000000E+00 -0.00000000000E+00 -0.21871750549E+03  0.21871750549E+03  0.00000000000E+00 0. -1.
         23    2    1    2    0    0 -0.82766236396E+01 -0.30480247955E+02 -0.16586300854E+03  0.21007591249E+03  0.12499521347E+03 0.  0.
          5    1    3    3  502    0  0.32754448928E+02 -0.26042062792E+02 -0.16309878747E+03  0.16844686828E+03  0.47000000000E+01 0. -1.
         -5    1    3    3    0  502 -0.41031072568E+02 -0.44381851635E+01 -0.27642210712E+01  0.41629044209E+02  0.47000000000E+01 0. -1.
        -11    1    1    2    0    0  0.19612509194E+02  0.19382337259E+02 -0.23465241242E+02  0.36206947691E+02  0.00000000000E+00 0. -1.
         11    1    1    2    0    0 -0.11335885555E+02  0.11097910696E+02  0.68079163191E+02  0.69903064195E+02  0.00000000000E+00 0.  1.
<mgrwt>
<rscale>  0 0.11984739E+03</rscale>
<asrwt>0</asrwt>
<pdfrwt beam="1">  1        2 0.14995142E-01 0.12892382E+03</pdfrwt>
<pdfrwt beam="2">  1       -2 0.33648846E-01 0.12892382E+03</pdfrwt>
<totfact> 0.30908087E+03</totfact>
</mgrwt>
</event>
<event>
 7    1  0.6095443E-006  0.1639505E+03  0.7546771E-02  0.1190915E+00
          3   -1    0    0  501    0  0.00000000000E+00  0.00000000000E+00  0.16031256125E+03  0.16031256125E+03  0.00000000000E+00 0. -1.
         -3   -1    0    0    0  501 -0.00000000000E+00 -0.00000000000E+00 -0.19987155269E+03  0.19987155269E+03  0.00000000000E+00 0.  1.
         23    2    1    2    0    0 -0.10585310806E+03 -0.71215556790E+01 -0.11450520460E+03  0.19997805893E+03  0.12499674048E+03 0.  0.
          5    1    3    3  502    0 -0.11300277614E+03  0.34220603159E+02 -0.10158306464E+03  0.15582646154E+03  0.47000000000E+01 0.  1.
         -5    1    3    3    0  502  0.71496680771E+01 -0.41342158838E+02 -0.12922139968E+02  0.44151597393E+02  0.47000000000E+01 0.  1.
        -11    1    1    2    0    0  0.25303855179E+02 -0.26920167533E+02 -0.10018343411E+02  0.38279860392E+02  0.00000000000E+00 0.  1.
         11    1    1    2    0    0  0.80549252881E+02  0.34041723212E+02  0.84964556581E+02  0.12192619462E+03  0.00000000000E+00 0. -1.
<mgrwt>
<rscale>  0 0.15805068E+03</rscale>
<asrwt>0</asrwt>
<pdfrwt beam="1">  1        3 0.24663471E-01 0.16395055E+03</pdfrwt>
<pdfrwt beam="2">  1       -3 0.30749470E-01 0.16395055E+03</pdfrwt>
<totfact> 0.37632563E+02</totfact>
</mgrwt>
</event>
<event>
 6    1  0.6095443E-006  0.2059317E+03  0.7546771E-02  0.1246059E+00
          2   -1    0    0  501    0  0.00000000000E+00  0.00000000000E+00  0.94755173918E+02  0.94755173918E+02  0.00000000000E+00 0. -1.
         -2   -1    0    0    0  501 -0.00000000000E+00 -0.00000000000E+00 -0.14096844599E+03  0.14096844599E+03  0.00000000000E+00 0.  1.
          5    1    1    2  502    0  0.40670122709E+02 -0.25683338983E+02  0.61989165222E+02  0.78603049479E+02  0.47000000000E+01 0. -1.
         -5    1    1    2    0  502 -0.59380659312E+02  0.35871899905E+02 -0.11443169887E+03  0.13390130548E+03  0.47000000000E+01 0.  1.
        -11    1    1    2    0    0  0.10678769182E+02 -0.25566293196E+01  0.11810731896E+01  0.11043885122E+02  0.00000000000E+00 0.  1.
         11    1    1    2    0    0  0.80317674215E+01 -0.76319316021E+01  0.50481883876E+01  0.12175379825E+02  0.00000000000E+00 0. -1.
<mgrwt>
<rscale>  0 0.11822235E+03</rscale>
<asrwt>0</asrwt>
<pdfrwt beam="1">  1        2 0.14577719E-01 0.20593174E+03</pdfrwt>
<pdfrwt beam="2">  1       -2 0.21687453E-01 0.20593174E+03</pdfrwt>
<totfact> 0.71735373E+03</totfact>
</mgrwt>
</event>
<event>
 7    1  0.6095443E-006  0.2039013E+03  0.7546771E-02  0.1150539E+00
          2   -1    0    0  501    0  0.00000000000E+00  0.00000000000E+00  0.33576408485E+02  0.33576408485E+02  0.00000000000E+00 0. -1.
         -2   -1    0    0    0  501 -0.00000000000E+00 -0.00000000000E+00 -0.11757107682E+04  0.11757107682E+04  0.00000000000E+00 0.  1.
         23    2    1    2    0    0  0.70463517807E+02  0.14485178591E+03 -0.72000497820E+03  0.74832006659E+03  0.12501442395E+03 0.  0.
          5    1    3    3  502    0 -0.35602537697E+02  0.30728022292E+02 -0.14155987354E+03  0.14924154864E+03  0.47000000000E+01 0. -1.
         -5    1    3    3    0  502  0.10606605550E+03  0.11412376361E+03 -0.57844510467E+03  0.59907851795E+03  0.47000000000E+01 0. -1.
        -11    1    1    2    0    0 -0.25577356574E+02 -0.13551136720E+03 -0.29023631943E+03  0.32133262039E+03  0.00000000000E+00 0. -1.
         11    1    1    2    0    0 -0.44886161233E+02 -0.93404187040E+01 -0.13189306211E+03  0.13963448974E+03  0.00000000000E+00 0.  1.
<mgrwt>
<rscale>  0 0.19905486E+03</rscale>
<asrwt>0</asrwt>
<pdfrwt beam="1">  1        2 0.51656020E-02 0.20390133E+03</pdfrwt>
<pdfrwt beam="2">  1       -2 0.18087855E+00 0.20390133E+03</pdfrwt>
<totfact> 0.28775165E+02</totfact>
</mgrwt>
</event>
<event>
 7    1  0.6095443E-006  0.1273998E+03  0.7546771E-02  0.1246842E+00
          4   -1    0    0  501    0  0.00000000000E+00  0.00000000000E+00  0.10314075291E+03  0.10314075291E+03  0.00000000000E+00 0.  1.
         -4   -1    0    0    0  501 -0.00000000000E+00 -0.00000000000E+00 -0.11815820089E+03  0.11815820089E+03  0.00000000000E+00 0. -1.
         23    2    1    2    0    0 -0.66526455709E+01 -0.23678256562E+02 -0.15206259488E+02  0.12830409783E+03  0.12500317462E+03 0.  0.
          5    1    3    3  502    0  0.44031910979E+02  0.29946217284E+02 -0.57597410945E+01  0.53766622840E+02  0.47000000000E+01 0.  1.
         -5    1    3    3    0  502 -0.50684556550E+02 -0.53624473846E+02 -0.94465183939E+01  0.74537474989E+02  0.47000000000E+01 0.  1.
        -11    1    1    2    0    0  0.84436300627E+01 -0.30437228387E+02 -0.17403014178E+02  0.36063619661E+02  0.00000000000E+00 0. -1.
         11    1    1    2    0    0 -0.17909844918E+01  0.54115484949E+02  0.17591825686E+02  0.56931236309E+02  0.00000000000E+00 0.  1.
<mgrwt>
<rscale>  0 0.11775818E+03</rscale>
<asrwt>0</asrwt>
<pdfrwt beam="1">  1        4 0.15867808E-01 0.12739981E+03</pdfrwt>
<pdfrwt beam="2">  1       -4 0.18178185E-01 0.12739981E+03</pdfrwt>
<totfact> 0.14848448E+03</totfact>
</mgrwt>
</event>
<event>
 7    1  0.6095443E-006  0.2162760E+03  0.7546771E-02  0.1141088E+00
          2   -1    0    0  501    0  0.00000000000E+00  0.00000000000E+00  0.12621816403E+03  0.12621816403E+03  0.00000000000E+00 0. -1.
         -2   -1    0    0    0  501 -0.00000000000E+00 -0.00000000000E+00 -0.34485187190E+03  0.34485187190E+03  0.00000000000E+00 0.  1.
         23    2    1    2    0    0 -0.60512032609E+02 -0.16579152516E+03 -0.15634482797E+03  0.26686893702E+03  0.12500715343E+03 0.  0.
          5    1    3    3  502    0 -0.49386462579E+02 -0.17877818776E+03 -0.16393027245E+03  0.24758006246E+03  0.47000000000E+01 0.  1.
         -5    1    3    3    0  502 -0.11125570030E+02  0.12986662595E+02  0.75854444805E+01  0.19288874561E+02  0.47000000000E+01 0.  1.
        -11    1    1    2    0    0  0.22098589743E+02  0.11196378899E+02  0.13035934229E+02  0.27993609098E+02  0.00000000000E+00 0. -1.
         11    1    1    2    0    0  0.38413442866E+02  0.15459514627E+03 -0.75324814127E+02  0.17620748981E+03  0.00000000000E+00 0.  1.
<mgrwt>
<rscale>  0 0.21060510E+03</rscale>
<asrwt>0</asrwt>
<pdfrwt beam="1">  1        2 0.19418179E-01 0.21627604E+03</pdfrwt>
<pdfrwt beam="2">  1       -2 0.53054133E-01 0.21627604E+03</pdfrwt>
<totfact> 0.97444039E+02</totfact>
</mgrwt>
</event>
<event>
 7    1  0.7902726E-006  0.1649263E+03  0.7546771E-02  0.1190483E+00
         -1   -1    0    0    0  501 -0.00000000000E+00  0.00000000000E+00  0.36217286821E+02  0.36217286821E+02  0.00000000000E+00 0.  1.
          1   -1    0    0  501    0  0.00000000000E+00 -0.00000000000E+00 -0.66796994604E+03  0.66796994604E+03  0.00000000000E+00 0. -1.
         23    2    1    2    0    0  0.20644740689E+02  0.10558800854E+03 -0.27328615209E+03  0.31919585492E+03  0.12500256001E+03 0.  0.
          5    1    3    3  502    0 -0.34370025370E+02  0.21999851112E+02 -0.17161541849E+03  0.17646312350E+03  0.47000000000E+01 0. -1.
         -5    1    3    3    0  502  0.55014766058E+02  0.83588157433E+02 -0.10167073360E+03  0.14273273142E+03  0.47000000000E+01 0. -1.
        -11    1    1    2    0    0 -0.12819149358E+02 -0.51433059603E+02 -0.54078207938E+02  0.75724122868E+02  0.00000000000E+00 0.  1.
         11    1    1    2    0    0 -0.78255913301E+01 -0.54154948942E+02 -0.30438829919E+03  0.30926725507E+03  0.00000000000E+00 0. -1.
<mgrwt>
<rscale>  0 0.15842768E+03</rscale>
<asrwt>0</asrwt>
<pdfrwt beam="2">  1        1 0.10276460E+00 0.16492626E+03</pdfrwt>
<pdfrwt beam="1">  1       -1 0.55718905E-02 0.16492626E+03</pdfrwt>
<totfact> 0.44168768E+03</totfact>
</mgrwt>
</event>
<event>
 7    1  0.6095443E-006  0.1331451E+03  0.7546771E-02  0.1235789E+00
         -2   -1    0    0    0  501 -0.00000000000E+00  0.00000000000E+00  0.31959238899E+02  0.31959238899E+02  0.00000000000E+00 0.  1.
          2   -1    0    0  501    0  0.00000000000E+00 -0.00000000000E+00 -0.43313047878E+03  0.43313047878E+03  0.00000000000E+00 0. -1.
         23    2    1    2    0    0 -0.18692357987E+01  0.45817699739E+02 -0.21675239406E+03  0.25438006310E+03  0.12499944208E+03 0.  0.
          5    1    3    3  502    0  0.57985625819E+02  0.26959922773E+02 -0.14733956042E+03  0.16068667121E+03  0.47000000000E+01 0.  1.
         -5    1    3    3    0  502 -0.59854861618E+02  0.18857776967E+02 -0.69412833633E+02  0.93693391893E+02  0.47000000000E+01 0.  1.
        -11    1    1    2    0    0 -0.15192874177E+02 -0.15330504716E+02  0.14058481453E+01  0.21629244315E+02  0.00000000000E+00 0.  1.
         11    1    1    2    0    0  0.17062109976E+02 -0.30487195023E+02 -0.18582469397E+03  0.18908041027E+03  0.00000000000E+00 0. -1.
<mgrwt>
<rscale>  0 0.12454080E+03</rscale>
<asrwt>0</asrwt>
<pdfrwt beam="2">  1        2 0.66635451E-01 0.13314509E+03</pdfrwt>
<pdfrwt beam="1">  1       -2 0.49168065E-02 0.13314509E+03</pdfrwt>
<totfact> 0.13856403E+04</totfact>
</mgrwt>
</event>
<event>
 7    1  0.6095443E-006  0.2665671E+03  0.7546771E-02  0.1105382E+00
         -1   -1    0    0    0  501 -0.00000000000E+00  0.00000000000E+00  0.67599292644E+02  0.67599292644E+02  0.00000000000E+00 0.  1.
          1   -1    0    0  501    0  0.00000000000E+00 -0.00000000000E+00 -0.10018672427E+04  0.10018672427E+04  0.00000000000E+00 0. -1.
         23    2    1    2    0    0 -0.63573274890E+02  0.22669500450E+03 -0.52051860406E+03  0.58480563359E+03  0.12500330220E+03 0.  0.
          5    1    3    3  502    0 -0.23629036361E+02  0.84009036598E+02 -0.74647845056E+02  0.11493580974E+03  0.47000000000E+01 0.  1.
         -5    1    3    3    0  502 -0.39944238529E+02  0.14268596790E+03 -0.44587075900E+03  0.46986982385E+03  0.47000000000E+01 0.  1.
        -11    1    1    2    0    0 -0.51863048790E+01 -0.43174259779E+02 -0.14933155642E+03  0.15553400982E+03  0.00000000000E+00 0. -1.
         11    1    1    2    0    0  0.68759579769E+02 -0.18352074472E+03 -0.26441778956E+03  0.32912689192E+03  0.00000000000E+00 0.  1.
<mgrwt>
<rscale>  0 0.26295344E+03</rscale>
<asrwt>0</asrwt>
<pdfrwt beam="2">  1        1 0.15413341E+00 0.26656709E+03</pdfrwt>
<pdfrwt beam="1">  1       -1 0.10399892E-01 0.26656709E+03</pdfrwt>
<totfact> 0.91579910E+02</totfact>
</mgrwt>
</event>
<event>
 7    1  0.6095443E-006  0.1627127E+03  0.7546771E-02  0.1193552E+00
          1   -1    0    0  501    0  0.00000000000E+00  0.00000000000E+00  0.37228155926E+03  0.37228155926E+03  0.00000000000E+00 0. -1.
         -1   -1    0    0    0  501 -0.00000000000E+00 -0.00000000000E+00 -0.12709498828E+03  0.12709498828E+03  0.00000000000E+00 0.  1.
         23    2    1    2    0    0  0.10111383320E+03  0.82306888665E+01 -0.53187305257E+02  0.17118497857E+03  0.12721499889E+03 0.  0.
          5    1    3    3  502    0  0.12538468365E+03 -0.13932906940E+02 -0.27495833202E+02  0.12920354342E+03  0.47000000000E+01 0. -1.
         -5    1    3    3    0  502 -0.24270850448E+02  0.22163595807E+02 -0.25691472056E+02  0.41981435146E+02  0.47000000000E+01 0.  1.
        -11    1    1    2    0    0 -0.76562071443E+02 -0.42803674176E+02  0.24367442330E+03  0.25898094501E+03  0.00000000000E+00 0. -1.
         11    1    1    2    0    0 -0.24551761758E+02  0.34572985310E+02  0.54699452932E+02  0.69210623965E+02  0.00000000000E+00 0.  1.
<mgrwt>
<rscale>  0 0.15577439E+03</rscale>
<asrwt>0</asrwt>
<pdfrwt beam="1">  1        1 0.57274085E-01 0.16271265E+03</pdfrwt>
<pdfrwt beam="2">  1       -1 0.19553075E-01 0.16271265E+03</pdfrwt>
<totfact> 0.13793930E+03</totfact>
</mgrwt>
</event>
<event>
 7    1  0.6095443E-006  0.1708037E+03  0.7546771E-02  0.1182820E+00
         -2   -1    0    0    0  501 -0.00000000000E+00  0.00000000000E+00  0.31902943270E+03  0.31902943270E+03  0.00000000000E+00 0.  1.
          2   -1    0    0  501    0  0.00000000000E+00 -0.00000000000E+00 -0.85641627147E+02  0.85641627147E+02  0.00000000000E+00 0. -1.
         23    2    1    2    0    0  0.11270918366E+03  0.29086780713E+02  0.17287135429E+03  0.24301932709E+03  0.12499794923E+03 0.  0.
          5    1    3    3  502    0  0.83323256103E+02  0.47348967531E+02  0.18302944541E+03  0.20665564987E+03  0.47000000000E+01 0.  1.
         -5    1    3    3    0  502  0.29385927557E+02 -0.18262186818E+02 -0.10158091123E+02  0.36363677221E+02  0.47000000000E+01 0.  1.
        -11    1    1    2    0    0 -0.10700997217E+02  0.26945118508E+02  0.29154659377E+02  0.41116236650E+02  0.00000000000E+00 0.  1.
         11    1    1    2    0    0 -0.10200818644E+03 -0.56031899221E+02  0.31361791884E+02  0.12053549611E+03  0.00000000000E+00 0. -1.
<mgrwt>
<rscale>  0 0.16531830E+03</rscale>
<asrwt>0</asrwt>
<pdfrwt beam="2">  1        2 0.13175635E-01 0.17080365E+03</pdfrwt>
<pdfrwt beam="1">  1       -2 0.49081450E-01 0.17080365E+03</pdfrwt>
<totfact> 0.17808024E+03</totfact>
</mgrwt>
</event>
<event>
 7    1  0.6095443E-006  0.1238274E+03  0.7546771E-02  0.1248260E+00
         -2   -1    0    0    0  501 -0.00000000000E+00  0.00000000000E+00  0.87847350359E+02  0.87847350359E+02  0.00000000000E+00 0.  1.
          2   -1    0    0  501    0  0.00000000000E+00 -0.00000000000E+00 -0.40949674477E+03  0.40949674477E+03  0.00000000000E+00 0. -1.
         23    2    1    2    0    0  0.35898458041E+02  0.49667745716E+01  0.33928860763E+02  0.12839154830E+03  0.11840546416E+03 0.  0.
          5    1    3    3  502    0 -0.35511793760E+02 -0.24897465571E+02 -0.30495678102E+00  0.43625156579E+02  0.47000000000E+01 0. -1.
         -5    1    3    3    0  502  0.71410251801E+02  0.29864240142E+02  0.34233817544E+02  0.84766391720E+02  0.47000000000E+01 0.  1.
        -11    1    1    2    0    0 -0.54065594438E+02  0.25879192476E+02 -0.26179357398E+03  0.26856786197E+03  0.00000000000E+00 0. -1.
         11    1    1    2    0    0  0.18167136397E+02 -0.30845967047E+02 -0.93784681196E+02  0.10038468486E+03  0.00000000000E+00 0.  1.
<mgrwt>
<rscale>  0 0.11692395E+03</rscale>
<asrwt>0</asrwt>
<pdfrwt beam="2">  1        2 0.62999498E-01 0.12382739E+03</pdfrwt>
<pdfrwt beam="1">  1       -2 0.13514977E-01 0.12382739E+03</pdfrwt>
<totfact> 0.30617138E+03</totfact>
</mgrwt>
</event>
<event>
 7    1  0.6095443E-006  0.2022811E+03  0.7546771E-02  0.1151994E+00
         -1   -1    0    0    0  501 -0.00000000000E+00  0.00000000000E+00  0.57750604450E+02  0.57750604450E+02  0.00000000000E+00 0.  1.
          1   -1    0    0  501    0  0.00000000000E+00 -0.00000000000E+00 -0.64359299401E+03  0.64359299401E+03  0.00000000000E+00 0. -1.
         23    2    1    2    0    0  0.15007256004E+03  0.52637524607E+02 -0.30298503051E+03  0.36430420679E+03  0.12500057639E+03 0.  0.
          5    1    3    3  502    0  0.13101696068E+03  0.28685776527E+02 -0.30505399583E+03  0.33326918269E+03  0.47000000000E+01 0.  1.
         -5    1    3    3    0  502  0.19055599360E+02  0.23951748080E+02  0.20689653213E+01  0.31035024095E+02  0.47000000000E+01 0.  1.
        -11    1    1    2    0    0 -0.96354735134E+02 -0.77852088528E+02 -0.19495172619E+03  0.23097912939E+03  0.00000000000E+00 0. -1.
         11    1    1    2    0    0 -0.53717824904E+02  0.25214563921E+02 -0.87905632860E+02  0.10606026228E+03  0.00000000000E+00 0.  1.
<mgrwt>
<rscale>  0 0.19735051E+03</rscale>
<asrwt>0</asrwt>
<pdfrwt beam="2">  1        1 0.99014312E-01 0.20228106E+03</pdfrwt>
<pdfrwt beam="1">  1       -1 0.88847079E-02 0.20228106E+03</pdfrwt>
<totfact> 0.23145020E+03</totfact>
</mgrwt>
</event>
<event>
 6    1  0.6095443E-006  0.1519622E+03  0.7546771E-02  0.1214524E+00
         -2   -1    0    0    0  501 -0.00000000000E+00  0.00000000000E+00  0.80949533893E+03  0.80949533893E+03  0.00000000000E+00 0.  1.
          2   -1    0    0  501    0  0.00000000000E+00 -0.00000000000E+00 -0.12154899653E+03  0.12154899653E+03  0.00000000000E+00 0. -1.
          5    1    1    2  502    0  0.30177935008E+02 -0.79028249650E+02  0.28602296369E+03  0.29830755566E+03  0.47000000000E+01 0. -1.
         -5    1    1    2    0  502  0.14440475421E+02  0.46526615753E+02  0.49117335904E+03  0.49360572519E+03  0.47000000000E+01 0.  1.
        -11    1    1    2    0    0 -0.11715212633E+02  0.55364787340E+02 -0.21732481010E+02  0.60620183232E+02  0.00000000000E+00 0. -1.
         11    1    1    2    0    0 -0.32903197796E+02 -0.22863153443E+02 -0.67517499323E+02  0.78510871384E+02  0.00000000000E+00 0.  1.
<mgrwt>
<rscale>  0 0.13911573E+03</rscale>
<asrwt>0</asrwt>
<pdfrwt beam="2">  1        2 0.18699846E-01 0.15196223E+03</pdfrwt>
<pdfrwt beam="1">  1       -2 0.12453774E+00 0.15196223E+03</pdfrwt>
<totfact> 0.15353149E+02</totfact>
</mgrwt>
</event>
<event>
 7    1  0.6095443E-006  0.4230567E+03  0.7546771E-02  0.1036076E+00
          4   -1    0    0  501    0  0.00000000000E+00  0.00000000000E+00  0.14522426479E+03  0.14522426479E+03  0.00000000000E+00 0. -1.
         -4   -1    0    0    0  501 -0.00000000000E+00 -0.00000000000E+00 -0.30810452438E+03  0.30810452438E+03  0.00000000000E+00 0.  1.
         23    2    1    2    0    0 -0.11516251497E+03 -0.46175995262E+02 -0.14920246726E+03  0.23082667285E+03  0.12499979709E+03 0.  0.
          5    1    3    3  502    0 -0.14123861436E+03 -0.45224033466E+02 -0.11601256005E+03  0.18834692320E+03  0.47000000000E+01 0.  1.
         -5    1    3    3    0  502  0.26076099388E+02 -0.95196179621E+00 -0.33189907207E+02  0.42479749658E+02  0.47000000000E+01 0.  1.
        -11    1    1    2    0    0  0.32984428832E+02  0.65642603470E+02 -0.84725104591E+02  0.11213949921E+03  0.00000000000E+00 0.  1.
         11    1    1    2    0    0  0.82178086139E+02 -0.19466608208E+02  0.71047312251E+02  0.11036261711E+03  0.00000000000E+00 0. -1.
<mgrwt>
<rscale>  0 0.42305675E+03</rscale>
<asrwt>0</asrwt>
<pdfrwt beam="1">  1        4 0.22342195E-01 0.42305675E+03</pdfrwt>
<pdfrwt beam="2">  1       -4 0.47400696E-01 0.42305675E+03</pdfrwt>
<totfact> 0.15535830E+02</totfact>
</mgrwt>
</event>
<event>
 7    1  0.6095443E-006  0.1219559E+03  0.7546771E-02  0.1247681E+00
          2   -1    0    0  501    0  0.00000000000E+00  0.00000000000E+00  0.30265047858E+03  0.30265047858E+03  0.00000000000E+00 0. -1.
         -2   -1    0    0    0  501 -0.00000000000E+00 -0.00000000000E+00 -0.15984869021E+03  0.15984869021E+03  0.00000000000E+00 0.  1.
         23    2    1    2    0    0  0.22232879229E+02  0.47292576557E+02 -0.12529546098E+03  0.17484904374E+03  0.11019231751E+03 0.  0.
          5    1    3    3  502    0 -0.21582848995E+02  0.52660621247E+02 -0.19879293057E+02  0.60466823080E+02  0.47000000000E+01 0. -1.
         -5    1    3    3    0  502  0.43815728224E+02 -0.53680446899E+01 -0.10541616792E+03  0.11438222066E+03  0.47000000000E+01 0.  1.
        -11    1    1    2    0    0  0.27884528739E+02 -0.41082296568E+02  0.93110048589E+02  0.10552148209E+03  0.00000000000E+00 0.  1.
         11    1    1    2    0    0 -0.50117407967E+02 -0.62102799890E+01  0.17498720075E+03  0.18212864296E+03  0.00000000000E+00 0. -1.
<mgrwt>
<rscale>  0 0.11726355E+03</rscale>
<asrwt>0</asrwt>
<pdfrwt beam="1">  1        2 0.46561612E-01 0.12195588E+03</pdfrwt>
<pdfrwt beam="2">  1       -2 0.24592106E-01 0.12195588E+03</pdfrwt>
<totfact> 0.15508726E+03</totfact>
</mgrwt>
</event>
<event>
 7    1  0.6095443E-006  0.1251997E+03  0.7546771E-02  0.1248645E+00
          3   -1    0    0  501    0  0.00000000000E+00  0.00000000000E+00  0.34238183173E+03  0.34238183173E+03  0.00000000000E+00 0. -1.
         -3   -1    0    0    0  501 -0.00000000000E+00 -0.00000000000E+00 -0.35592028929E+02  0.35592028929E+02  0.00000000000E+00 0.  1.
         23    2    1    2    0    0 -0.69957148622E+01  0.14889186514E+01  0.15615501363E+03  0.20014835216E+03  0.12499527065E+03 0.  0.
          5    1    3    3  502    0  0.11373472827E+02  0.42064445832E+02  0.14834683728E+03  0.15468564128E+03  0.47000000000E+01 0.  1.
         -5    1    3    3    0  502 -0.18369187690E+02 -0.40575527181E+02  0.78081763512E+01  0.45462710877E+02  0.47000000000E+01 0.  1.
        -11    1    1    2    0    0 -0.48276296291E+01 -0.37951467120E+02  0.12735804900E+03  0.13298004553E+03  0.00000000000E+00 0. -1.
         11    1    1    2    0    0  0.11823344491E+02  0.36462548469E+02  0.23276740163E+02  0.44845462964E+02  0.00000000000E+00 0.  1.
<mgrwt>
<rscale>  0 0.11669856E+03</rscale>
<asrwt>0</asrwt>
<pdfrwt beam="1">  1        3 0.52674126E-01 0.12519974E+03</pdfrwt>
<pdfrwt beam="2">  1       -3 0.54756970E-02 0.12519974E+03</pdfrwt>
<totfact> 0.16072852E+03</totfact>
</mgrwt>
</event>
<event>
 7    1  0.6095443E-006  0.1783198E+03  0.7546771E-02  0.1172253E+00
          4   -1    0    0  501    0  0.00000000000E+00  0.00000000000E+00  0.64821641639E+02  0.64821641639E+02  0.00000000000E+00 0. -1.
         -4   -1    0    0    0  501 -0.00000000000E+00 -0.00000000000E+00 -0.61481730710E+03  0.61481730710E+03  0.00000000000E+00 0.  1.
         23    2    1    2    0    0  0.11147126183E+03  0.60026897259E+02 -0.45180203360E+03  0.48571910226E+03  0.12557427336E+03 0.  0.
          5    1    3    3  502    0  0.18461621889E+02 -0.13394575096E+02 -0.54982240232E+01  0.23928363759E+02  0.47000000000E+01 0. -1.
         -5    1    3    3    0  502  0.93009639940E+02  0.73421472354E+02 -0.44630380957E+03  0.46179073850E+03  0.47000000000E+01 0.  1.
        -11    1    1    2    0    0  0.19874807649E+02 -0.17822092203E+02 -0.29560778368E+02  0.39830573274E+02  0.00000000000E+00 0.  1.
         11    1    1    2    0    0 -0.13134606948E+03 -0.42204805056E+02 -0.68632853492E+02  0.15408927320E+03  0.00000000000E+00 0. -1.
<mgrwt>
<rscale>  0 0.17547796E+03</rscale>
<asrwt>0</asrwt>
<pdfrwt beam="1">  1        4 0.99725602E-02 0.17831985E+03</pdfrwt>
<pdfrwt beam="2">  1       -4 0.94587279E-01 0.17831985E+03</pdfrwt>
<totfact> 0.12970012E+02</totfact>
</mgrwt>
</event>
<event>
 7    1  0.6095443E-006  0.1576308E+03  0.7546771E-02  0.1199011E+00
         -2   -1    0    0    0  501 -0.00000000000E+00  0.00000000000E+00  0.67372187979E+03  0.67372187979E+03  0.00000000000E+00 0.  1.
          2   -1    0    0  501    0  0.00000000000E+00 -0.00000000000E+00 -0.35369965501E+02  0.35369965501E+02  0.00000000000E+00 0. -1.
         23    2    1    2    0    0  0.80694651581E+02 -0.52067486741E+02  0.46065766769E+03  0.48688082935E+03  0.12499922084E+03 0.  0.
          5    1    3    3  502    0 -0.51397016831E+01 -0.20070683068E+02  0.46606090813E+01  0.21749945499E+02  0.47000000000E+01 0.  1.
         -5    1    3    3    0  502  0.85834353264E+02 -0.31996803673E+02  0.45599705861E+03  0.46513088385E+03  0.47000000000E+01 0.  1.
        -11    1    1    2    0    0 -0.89585652339E+02  0.66828418155E+02  0.16973958851E+03  0.20323177529E+03  0.00000000000E+00 0.  1.
         11    1    1    2    0    0  0.88910007580E+01 -0.14760931415E+02  0.79546580845E+01  0.18979240658E+02  0.00000000000E+00 0. -1.
<mgrwt>
<rscale>  0 0.15119618E+03</rscale>
<asrwt>0</asrwt>
<pdfrwt beam="2">  1        2 0.54415336E-02 0.15763076E+03</pdfrwt>
<pdfrwt beam="1">  1       -2 0.10364951E+00 0.15763076E+03</pdfrwt>
<totfact> 0.10823952E+03</totfact>
</mgrwt>
</event>
<event>
 7    1  0.6095443E-006  0.1551034E+03  0.7546771E-02  0.1203076E+00
          1   -1    0    0  501    0  0.00000000000E+00  0.00000000000E+00  0.75069554271E+03  0.75069554271E+03  0.00000000000E+00 0. -1.
         -1   -1    0    0    0  501 -0.00000000000E+00 -0.00000000000E+00 -0.26746735498E+02  0.26746735498E+02  0.00000000000E+00 0.  1.
         23    2    1    2    0    0 -0.86696424501E+02  0.30293713061E+02  0.40401510205E+03  0.43276469325E+03  0.12499239163E+03 0.  0.
          5    1    3    3  502    0  0.31977839057E+02  0.43231125836E+01  0.67544335392E+02  0.75003991472E+02  0.47000000000E+01 0.  1.
         -5    1    3    3    0  502 -0.11867426356E+03  0.25970600478E+02  0.33647076666E+03  0.35776070178E+03  0.47000000000E+01 0.  1.
        -11    1    1    2    0    0  0.56573269497E+02 -0.48187233780E+02  0.28744468780E+03  0.29689559253E+03  0.00000000000E+00 0. -1.
         11    1    1    2    0    0  0.30123155004E+02  0.17893520718E+02  0.32489017362E+02  0.47781992426E+02  0.00000000000E+00 0.  1.
<mgrwt>
<rscale>  0 0.14790080E+03</rscale>
<asrwt>0</asrwt>
<pdfrwt beam="1">  1        1 0.11549161E+00 0.15510344E+03</pdfrwt>
<pdfrwt beam="2">  1       -1 0.41148830E-02 0.15510344E+03</pdfrwt>
<totfact> 0.58342494E+03</totfact>
</mgrwt>
</event>
<event>
 7    1  0.6095443E-006  0.1224732E+03  0.7546771E-02  0.1245993E+00
          2   -1    0    0  501    0  0.00000000000E+00  0.00000000000E+00  0.16027744549E+03  0.16027744549E+03  0.00000000000E+00 0. -1.
         -2   -1    0    0    0  501 -0.00000000000E+00 -0.00000000000E+00 -0.87337123029E+02  0.87337123029E+02  0.00000000000E+00 0.  1.
         23    2    1    2    0    0  0.49351876282E+02  0.21084012942E+02  0.76445563918E+01  0.12271158407E+03  0.11008882926E+03 0.  0.
          5    1    3    3  502    0  0.61416942687E+02 -0.20525664739E+02 -0.23608409305E+02  0.69085387398E+02  0.47000000000E+01 0. -1.
         -5    1    3    3    0  502 -0.12065066406E+02  0.41609677681E+02  0.31252965697E+02  0.53626196667E+02  0.47000000000E+01 0.  1.
        -11    1    1    2    0    0 -0.46781582852E+02  0.95077696223E+01  0.78185472505E+02  0.91607217446E+02  0.00000000000E+00 0. -1.
         11    1    1    2    0    0 -0.25702934293E+01 -0.30591782564E+02 -0.12889706435E+02  0.33295767009E+02  0.00000000000E+00 0.  1.
<mgrwt>
<rscale>  0 0.11826173E+03</rscale>
<asrwt>0</asrwt>
<pdfrwt beam="1">  1        2 0.24658068E-01 0.12247324E+03</pdfrwt>
<pdfrwt beam="2">  1       -2 0.13436481E-01 0.12247324E+03</pdfrwt>
<totfact> 0.84139157E+03</totfact>
</mgrwt>
</event>
<event>
 7    1  0.6095443E-006  0.1387685E+03  0.7546771E-02  0.1226194E+00
          2   -1    0    0  501    0  0.00000000000E+00  0.00000000000E+00  0.52050038039E+02  0.52050038039E+02  0.00000000000E+00 0.  1.
         -2   -1    0    0    0  501 -0.00000000000E+00 -0.00000000000E+00 -0.31776515011E+03  0.31776515011E+03  0.00000000000E+00 0. -1.
         23    2    1    2    0    0  0.40740542519E+02  0.44407082587E+02 -0.19481009661E+03  0.23918122402E+03  0.12499961357E+03 0.  0.
          5    1    3    3  502    0  0.44604969121E+02 -0.34943540040E+02 -0.60202850611E+02  0.82807774288E+02  0.47000000000E+01 0.  1.
         -5    1    3    3    0  502 -0.38644266022E+01  0.79350622627E+02 -0.13460724600E+03  0.15637344973E+03  0.47000000000E+01 0.  1.
        -11    1    1    2    0    0  0.17797481057E+02 -0.34710927829E+02 -0.11068489957E+01  0.39023377064E+02  0.00000000000E+00 0.  1.
         11    1    1    2    0    0 -0.58538023576E+02 -0.96961547582E+01 -0.69798166463E+02  0.91610587068E+02  0.00000000000E+00 0. -1.
<mgrwt>
<rscale>  0 0.13085371E+03</rscale>
<asrwt>0</asrwt>
<pdfrwt beam="1">  1        2 0.80076984E-02 0.13876846E+03</pdfrwt>
<pdfrwt beam="2">  1       -2 0.48886945E-01 0.13876846E+03</pdfrwt>
<totfact> 0.32710989E+03</totfact>
</mgrwt>
</event>
<event>
 7    1  0.6095443E-006  0.1398000E+03  0.7546771E-02  0.1224921E+00
          2   -1    0    0  501    0  0.00000000000E+00  0.00000000000E+00  0.84740054028E+03  0.84740054028E+03  0.00000000000E+00 0. -1.
         -2   -1    0    0    0  501 -0.00000000000E+00 -0.00000000000E+00 -0.18487833001E+02  0.18487833001E+02  0.00000000000E+00 0.  1.
         23    2    1    2    0    0  0.27870803303E+02  0.56020020962E+02  0.48601282259E+03  0.50571978753E+03  0.12501606038E+03 0.  0.
          5    1    3    3  502    0  0.72352015172E+02  0.97584791361E+01  0.30358373330E+03  0.31227426269E+03  0.47000000000E+01 0. -1.
         -5    1    3    3    0  502 -0.44481211869E+02  0.46261541826E+02  0.18242908928E+03  0.19344552484E+03  0.47000000000E+01 0. -1.
        -11    1    1    2    0    0 -0.43935465529E+02 -0.46200369945E+02  0.33270274631E+03  0.33875642683E+03  0.00000000000E+00 0. -1.
         11    1    1    2    0    0  0.16064662226E+02 -0.98196510175E+01  0.10197138374E+02  0.21412158918E+02  0.00000000000E+00 0.  1.
<mgrwt>
<rscale>  0 0.13172328E+03</rscale>
<asrwt>0</asrwt>
<pdfrwt beam="1">  1        2 0.13036928E+00 0.13980000E+03</pdfrwt>
<pdfrwt beam="2">  1       -2 0.28442827E-02 0.13980000E+03</pdfrwt>
<totfact> 0.14447716E+04</totfact>
</mgrwt>
</event>
<event>
 7    1  0.6095443E-006  0.2817984E+03  0.7546771E-02  0.1096651E+00
          2   -1    0    0  501    0  0.00000000000E+00  0.00000000000E+00  0.28948609083E+03  0.28948609083E+03  0.00000000000E+00 0. -1.
         -2   -1    0    0    0  501 -0.00000000000E+00 -0.00000000000E+00 -0.27481097093E+03  0.27481097093E+03  0.00000000000E+00 0.  1.
         23    2    1    2    0    0 -0.12618326315E+03  0.21877459886E+03 -0.55923496165E+02  0.28729387724E+03  0.12500317385E+03 0.  0.
          5    1    3    3  502    0 -0.13343962479E+03  0.19385988691E+03 -0.82903913246E+02  0.24956549851E+03  0.47000000000E+01 0.  1.
         -5    1    3    3    0  502  0.72563616373E+01  0.24914711944E+02  0.26980417081E+02  0.37728378726E+02  0.47000000000E+01 0.  1.
        -11    1    1    2    0    0  0.13452561742E+03 -0.16403484945E+03  0.61597522630E+02  0.22090456847E+03  0.00000000000E+00 0. -1.
         11    1    1    2    0    0 -0.83423542720E+01 -0.54739749403E+02  0.90010934336E+01  0.56098616048E+02  0.00000000000E+00 0.  1.
<mgrwt>
<rscale>  0 0.27824608E+03</rscale>
<asrwt>0</asrwt>
<pdfrwt beam="1">  1        2 0.44536322E-01 0.28179839E+03</pdfrwt>
<pdfrwt beam="2">  1       -2 0.42278611E-01 0.28179839E+03</pdfrwt>
<totfact> 0.61050916E+02</totfact>
</mgrwt>
</event>
<event>
 7    1  0.6095443E-006  0.1778576E+03  0.7546771E-02  0.1175730E+00
         -1   -1    0    0    0  501 -0.00000000000E+00  0.00000000000E+00  0.22188081269E+02  0.22188081269E+02  0.00000000000E+00 0.  1.
          1   -1    0    0  501    0  0.00000000000E+00 -0.00000000000E+00 -0.12567433703E+04  0.12567433703E+04  0.00000000000E+00 0. -1.
         23    2    1    2    0    0 -0.10887914502E+03  0.64416610274E+02 -0.62736401039E+03  0.65208813281E+03  0.12501665297E+03 0.  0.
          5    1    3    3  502    0 -0.11793458750E+03  0.44759250023E+02 -0.32104425989E+03  0.34496878728E+03  0.47000000000E+01 0. -1.
         -5    1    3    3    0  502  0.90554424835E+01  0.19657360251E+02 -0.30631975050E+03  0.30711934553E+03  0.47000000000E+01 0. -1.
        -11    1    1    2    0    0  0.19388389633E+02 -0.63275284715E+02 -0.26609262983E+03  0.27419875812E+03  0.00000000000E+00 0.  1.
         11    1    1    2    0    0  0.89490755383E+02 -0.11413255589E+01 -0.34109864886E+03  0.35264456068E+03  0.00000000000E+00 0. -1.
<mgrwt>
<rscale>  0 0.17204665E+03</rscale>
<asrwt>0</asrwt>
<pdfrwt beam="2">  1        1 0.19334515E+00 0.17785762E+03</pdfrwt>
<pdfrwt beam="1">  1       -1 0.34135507E-02 0.17785762E+03</pdfrwt>
<totfact> 0.32336539E+03</totfact>
</mgrwt>
</event>
<event>
 7    1  0.6095443E-006  0.1391897E+03  0.7546771E-02  0.1224949E+00
          3   -1    0    0  501    0  0.00000000000E+00  0.00000000000E+00  0.10591678940E+03  0.10591678940E+03  0.00000000000E+00 0. -1.
         -3   -1    0    0    0  501 -0.00000000000E+00 -0.00000000000E+00 -0.14878379542E+03  0.14878379542E+03  0.00000000000E+00 0.  1.
         23    2    1    2    0    0  0.50038677639E+02 -0.35293741052E+02 -0.17591300788E+02  0.14029689929E+03  0.12499699464E+03 0.  0.
          5    1    3    3  502    0  0.42242469562E+02  0.17345783165E+02 -0.57527097267E+02  0.73598636864E+02  0.47000000000E+01 0. -1.
         -5    1    3    3    0  502  0.77962080771E+01 -0.52639524217E+02  0.39935796478E+02  0.66698262425E+02  0.47000000000E+01 0. -1.
        -11    1    1    2    0    0 -0.96055027255E+01  0.18715687255E+02  0.34469816386E+02  0.40382061286E+02  0.00000000000E+00 0. -1.
         11    1    1    2    0    0 -0.40433174914E+02  0.16578053797E+02 -0.59745521624E+02  0.74021624242E+02  0.00000000000E+00 0.  1.
<mgrwt>
<rscale>  0 0.13170388E+03</rscale>
<asrwt>0</asrwt>
<pdfrwt beam="1">  1        3 0.16294891E-01 0.13918968E+03</pdfrwt>
<pdfrwt beam="2">  1       -3 0.22889815E-01 0.13918968E+03</pdfrwt>
<totfact> 0.13095934E+03</totfact>
</mgrwt>
</event>
<event>
 7    1  0.6095443E-006  0.1277043E+03  0.7546771E-02  0.1245214E+00
          2   -1    0    0  501    0  0.00000000000E+00  0.00000000000E+00  0.20789949370E+03  0.20789949370E+03  0.00000000000E+00 0.  1.
         -2   -1    0    0    0  501 -0.00000000000E+00 -0.00000000000E+00 -0.60105835608E+02  0.60105835608E+02  0.00000000000E+00 0. -1.
         23    2    1    2    0    0  0.15443024993E+02 -0.21045070632E+02  0.76028781407E+02  0.14862292777E+03  0.12500806789E+03 0.  0.
          5    1    3    3  502    0  0.47344893328E+02 -0.48897542028E+02  0.84684803021E+01  0.68748190516E+02  0.47000000000E+01 0. -1.
         -5    1    3    3    0  502 -0.31901868334E+02  0.27852471396E+02  0.67560301105E+02  0.79874737255E+02  0.47000000000E+01 0. -1.
        -11    1    1    2    0    0 -0.54609000145E+01 -0.23109440842E+02  0.70177162268E+02  0.74085773188E+02  0.00000000000E+00 0.  1.
         11    1    1    2    0    0 -0.99821249788E+01  0.44154511474E+02  0.15877144163E+01  0.45296628348E+02  0.00000000000E+00 0. -1.
<mgrwt>
<rscale>  0 0.11872608E+03</rscale>
<asrwt>0</asrwt>
<pdfrwt beam="1">  1        2 0.31984537E-01 0.12770434E+03</pdfrwt>
<pdfrwt beam="2">  1       -2 0.92470517E-02 0.12770434E+03</pdfrwt>
<totfact> 0.11496628E+04</totfact>
</mgrwt>
</event>
<event>
 7    1  0.6095443E-006  0.2391951E+03  0.7546771E-02  0.1123064E+00
          2   -1    0    0  501    0  0.00000000000E+00  0.00000000000E+00  0.58075286497E+02  0.58075286497E+02  0.00000000000E+00 0. -1.
         -2   -1    0    0    0  501 -0.00000000000E+00 -0.00000000000E+00 -0.94923533741E+03  0.94923533741E+03  0.00000000000E+00 0.  1.
         23    2    1    2    0    0  0.78267753068E+02 -0.18831691198E+03 -0.54662084923E+03  0.59666459090E+03  0.12500072282E+03 0.  0.
          5    1    3    3  502    0  0.44373350099E+02 -0.17264621684E+03 -0.31469927190E+03  0.36170904346E+03  0.47000000000E+01 0. -1.
         -5    1    3    3    0  502  0.33894402969E+02 -0.15670695147E+02 -0.23192157733E+03  0.23495554744E+03  0.47000000000E+01 0. -1.
        -11    1    1    2    0    0 -0.10672351690E+02  0.71161271647E+02 -0.20066266671E+03  0.21317441564E+03  0.00000000000E+00 0.  1.
         11    1    1    2    0    0 -0.67595401378E+02  0.11715564034E+03 -0.14387653497E+03  0.19747161737E+03  0.00000000000E+00 0. -1.
<mgrwt>
<rscale>  0 0.23515361E+03</rscale>
<asrwt>0</asrwt>
<pdfrwt beam="1">  1        2 0.89346594E-02 0.23919507E+03</pdfrwt>
<pdfrwt beam="2">  1       -2 0.14603621E+00 0.23919507E+03</pdfrwt>
<totfact> 0.25091952E+02</totfact>
</mgrwt>
</event>
<event>
 7    1  0.6095443E-006  0.1223875E+03  0.7546771E-02  0.1252195E+00
          1   -1    0    0  501    0  0.00000000000E+00  0.00000000000E+00  0.16651307031E+03  0.16651307031E+03  0.00000000000E+00 0. -1.
         -1   -1    0    0    0  501 -0.00000000000E+00 -0.00000000000E+00 -0.96213917010E+02  0.96213917010E+02  0.00000000000E+00 0.  1.
         23    2    1    2    0    0  0.18987943142E+02  0.16813201336E+02 -0.29048012889E+02  0.12578743227E+03  0.11973080364E+03 0.  0.
          5    1    3    3  502    0  0.57218277564E+02  0.29683096527E+02  0.14504650219E+02  0.66238149014E+02  0.47000000000E+01 0. -1.
         -5    1    3    3    0  502 -0.38230334421E+02 -0.12869895191E+02 -0.43552663108E+02  0.59549283253E+02  0.47000000000E+01 0.  1.
        -11    1    1    2    0    0  0.40746167887E+01  0.25065804424E+02 -0.13901821539E+01  0.25432846082E+02  0.00000000000E+00 0.  1.
         11    1    1    2    0    0 -0.23062559931E+02 -0.41879005761E+02  0.10073734834E+03  0.11150670897E+03  0.00000000000E+00 0. -1.
<mgrwt>
<rscale>  0 0.11464896E+03</rscale>
<asrwt>0</asrwt>
<pdfrwt beam="1">  1        1 0.25617395E-01 0.12238746E+03</pdfrwt>
<pdfrwt beam="2">  1       -1 0.14802141E-01 0.12238746E+03</pdfrwt>
<totfact> 0.57585083E+03</totfact>
</mgrwt>
</event>
<event>
 7    1  0.6095443E-006  0.1329438E+03  0.7546771E-02  0.1237700E+00
          1   -1    0    0  501    0  0.00000000000E+00  0.00000000000E+00  0.69445473226E+03  0.69445473226E+03  0.00000000000E+00 0. -1.
         -1   -1    0    0    0  501 -0.00000000000E+00 -0.00000000000E+00 -0.23717556731E+02  0.23717556731E+02  0.00000000000E+00 0.  1.
         23    2    1    2    0    0 -0.14438264029E+02  0.42908042970E+02  0.22203109293E+03  0.25878919974E+03  0.12499792022E+03 0.  0.
          5    1    3    3  502    0 -0.77743205347E+01  0.93809580240E+00  0.21531676962E+03  0.21551037414E+03  0.47000000000E+01 0. -1.
         -5    1    3    3    0  502 -0.66639434946E+01  0.41969947167E+02  0.67143233072E+01  0.43278825603E+02  0.47000000000E+01 0. -1.
        -11    1    1    2    0    0  0.10789917258E+02  0.23585734515E+02  0.65764124510E+02  0.70693912465E+02  0.00000000000E+00 0.  1.
         11    1    1    2    0    0  0.36483467710E+01 -0.66493777484E+02  0.38294195810E+03  0.38868917678E+03  0.00000000000E+00 0. -1.
<mgrwt>
<rscale>  0 0.12333128E+03</rscale>
<asrwt>0</asrwt>
<pdfrwt beam="1">  1        1 0.10683917E+00 0.13294376E+03</pdfrwt>
<pdfrwt beam="2">  1       -1 0.36488554E-02 0.13294376E+03</pdfrwt>
<totfact> 0.77292606E+03</totfact>
</mgrwt>
</event>
<event>
 7    1  0.6095443E-006  0.1269749E+03  0.7546771E-02  0.1248152E+00
          4   -1    0    0  501    0  0.00000000000E+00  0.00000000000E+00  0.11309595412E+03  0.11309595412E+03  0.00000000000E+00 0. -1.
         -4   -1    0    0    0  501 -0.00000000000E+00 -0.00000000000E+00 -0.12539880662E+03  0.12539880662E+03  0.00000000000E+00 0.  1.
         23    2    1    2    0    0 -0.13888439246E+02 -0.17485133882E+02 -0.53957096023E+02  0.13796371447E+03  0.12499599853E+03 0.  0.
          5    1    3    3  502    0  0.35512974652E+02  0.38166265012E+02 -0.24472773702E+02  0.57782712002E+02  0.47000000000E+01 0. -1.
         -5    1    3    3    0  502 -0.49401413898E+02 -0.55651398894E+02 -0.29484322321E+02  0.80181002468E+02  0.47000000000E+01 0. -1.
        -11    1    1    2    0    0  0.43852707420E+02 -0.14476535634E+02  0.12284141026E+02  0.47786296705E+02  0.00000000000E+00 0. -1.
         11    1    1    2    0    0 -0.29964268174E+02  0.31961669516E+02  0.29370102504E+02  0.52744749564E+02  0.00000000000E+00 0.  1.
<mgrwt>
<rscale>  0 0.11698716E+03</rscale>
<asrwt>0</asrwt>
<pdfrwt beam="1">  1        4 0.17399378E-01 0.12697487E+03</pdfrwt>
<pdfrwt beam="2">  1       -4 0.19292124E-01 0.12697487E+03</pdfrwt>
<totfact> 0.11345135E+03</totfact>
</mgrwt>
</event>
<event>
 7    1  0.6095443E-006  0.1290272E+03  0.7546771E-02  0.1246239E+00
          3   -1    0    0  501    0  0.00000000000E+00  0.00000000000E+00  0.36244302324E+03  0.36244302324E+03  0.00000000000E+00 0. -1.
         -3   -1    0    0    0  501 -0.00000000000E+00 -0.00000000000E+00 -0.35543670212E+02  0.35543670212E+02  0.00000000000E+00 0.  1.
         23    2    1    2    0    0  0.27439711088E+02 -0.16426802344E+02  0.14066142876E+03  0.19087601941E+03  0.12500095866E+03 0.  0.
          5    1    3    3  502    0 -0.20936089319E+02  0.20398163446E+01 -0.15328822836E+02  0.26448884594E+02  0.47000000000E+01 0. -1.
         -5    1    3    3    0  502  0.48375800408E+02 -0.18466618689E+02  0.15599025159E+03  0.16442713481E+03  0.47000000000E+01 0. -1.
        -11    1    1    2    0    0  0.26663132779E+02  0.92961296271E+01  0.28161581328E+02  0.39880011766E+02  0.00000000000E+00 0.  1.
         11    1    1    2    0    0 -0.54102843867E+02  0.71306727171E+01  0.15807634294E+03  0.16723066228E+03  0.00000000000E+00 0. -1.
<mgrwt>
<rscale>  0 0.11811515E+03</rscale>
<asrwt>0</asrwt>
<pdfrwt beam="1">  1        3 0.55760463E-01 0.12902720E+03</pdfrwt>
<pdfrwt beam="2">  1       -3 0.54682572E-02 0.12902720E+03</pdfrwt>
<totfact> 0.14434154E+03</totfact>
</mgrwt>
</event>
<event>
 7    1  0.6095443E-006  0.1309006E+03  0.7546771E-02  0.1239818E+00
          2   -1    0    0  501    0  0.00000000000E+00  0.00000000000E+00  0.65704392090E+03  0.65704392090E+03  0.00000000000E+00 0.  1.
         -2   -1    0    0    0  501 -0.00000000000E+00 -0.00000000000E+00 -0.21057074727E+02  0.21057074727E+02  0.00000000000E+00 0. -1.
         23    2    1    2    0    0  0.88890040203E+01  0.37810760986E+02  0.28784781195E+03  0.31621403808E+03  0.12500514788E+03 0.  0.
          5    1    3    3  502    0  0.24400186588E+02  0.53014828046E+02  0.28810068176E+03  0.29398985344E+03  0.47000000000E+01 0.  1.
         -5    1    3    3    0  502 -0.15511182568E+02 -0.15204067060E+02 -0.25286980288E+00  0.22224184641E+02  0.47000000000E+01 0.  1.
        -11    1    1    2    0    0 -0.47413187299E+02 -0.41585861991E+01  0.16194122262E+03  0.16879059142E+03  0.00000000000E+00 0. -1.
         11    1    1    2    0    0  0.38524183278E+02 -0.33652174787E+02  0.18619781161E+03  0.19309636613E+03  0.00000000000E+00 0.  1.
<mgrwt>
<rscale>  0 0.12200989E+03</rscale>
<asrwt>0</asrwt>
<pdfrwt beam="1">  1        2 0.10108366E+00 0.13090055E+03</pdfrwt>
<pdfrwt beam="2">  1       -2 0.32395505E-02 0.13090055E+03</pdfrwt>
<totfact> 0.16174559E+04</totfact>
</mgrwt>
</event>
<event>
 7    1  0.6095443E-006  0.1292626E+03  0.7546771E-02  0.1242933E+00
         -1   -1    0    0    0  501 -0.00000000000E+00  0.00000000000E+00  0.38880873660E+03  0.38880873660E+03  0.00000000000E+00 0.  1.
          1   -1    0    0  501    0  0.00000000000E+00 -0.00000000000E+00 -0.51820737702E+02  0.51820737702E+02  0.00000000000E+00 0. -1.
         23    2    1    2    0    0  0.18604328317E+02  0.27216190689E+02  0.31687372908E+03  0.34222475068E+03  0.12498791034E+03 0.  0.
          5    1    3    3  502    0 -0.19930378633E+02  0.34617603646E+01 -0.13040654320E+01  0.20808516620E+02  0.47000000000E+01 0.  1.
         -5    1    3    3    0  502  0.38534706950E+02  0.23754430325E+02  0.31817779451E+03  0.32141623406E+03  0.47000000000E+01 0.  1.
        -11    1    1    2    0    0 -0.29930042298E+02 -0.52445070189E+02  0.31959069898E+02  0.68320384717E+02  0.00000000000E+00 0. -1.
         11    1    1    2    0    0  0.11325713980E+02  0.25228879500E+02 -0.11844800082E+02  0.30084338899E+02  0.00000000000E+00 0.  1.
<mgrwt>
<rscale>  0 0.12009966E+03</rscale>
<asrwt>0</asrwt>
<pdfrwt beam="2">  1        1 0.79724214E-02 0.12926260E+03</pdfrwt>
<pdfrwt beam="1">  1       -1 0.59816727E-01 0.12926260E+03</pdfrwt>
<totfact> 0.24658044E+03</totfact>
</mgrwt>
</event>
<event>
 7    1  0.6095443E-006  0.1491144E+03  0.7546771E-02  0.1210109E+00
          2   -1    0    0  501    0  0.00000000000E+00  0.00000000000E+00  0.73301643317E+02  0.73301643317E+02  0.00000000000E+00 0. -1.
         -2   -1    0    0    0  501 -0.00000000000E+00 -0.00000000000E+00 -0.26699967695E+03  0.26699967695E+03  0.00000000000E+00 0.  1.
         23    2    1    2    0    0  0.78634416023E+02  0.20655187644E+02 -0.14188425046E+03  0.20583065288E+03  0.12500043591E+03 0.  0.
          5    1    3    3  502    0  0.55309631875E+02  0.64377187816E+02 -0.43310082150E+02  0.95401419828E+02  0.47000000000E+01 0. -1.
         -5    1    3    3    0  502  0.23324784148E+02 -0.43722000173E+02 -0.98574168311E+02  0.11042923305E+03  0.47000000000E+01 0. -1.
        -11    1    1    2    0    0  0.11442417189E+02 -0.24135157070E+02 -0.32876137218E+02  0.42358884738E+02  0.00000000000E+00 0.  1.
         11    1    1    2    0    0 -0.90076833212E+02  0.34799694265E+01 -0.18937645958E+02  0.92111782651E+02  0.00000000000E+00 0. -1.
<mgrwt>
<rscale>  0 0.14242025E+03</rscale>
<asrwt>0</asrwt>
<pdfrwt beam="1">  1        2 0.11277176E-01 0.14911444E+03</pdfrwt>
<pdfrwt beam="2">  1       -2 0.41076873E-01 0.14911444E+03</pdfrwt>
<totfact> 0.30150480E+03</totfact>
</mgrwt>
</event>
<event>
 7    1  0.6095443E-006  0.1414932E+03  0.7546771E-02  0.1221815E+00
         -2   -1    0    0    0  501 -0.00000000000E+00  0.00000000000E+00  0.56680608066E+02  0.56680608066E+02  0.00000000000E+00 0.  1.
          2   -1    0    0  501    0  0.00000000000E+00 -0.00000000000E+00 -0.54011183143E+03  0.54011183143E+03  0.00000000000E+00 0. -1.
         23    2    1    2    0    0 -0.42119134460E+02  0.51165678176E+02 -0.52061846771E+02  0.15076720782E+03  0.12501346709E+03 0.  0.
          5    1    3    3  502    0 -0.55506190015E+02  0.86656155979E+02 -0.33903269831E+02  0.10845159383E+03  0.47000000000E+01 0.  1.
         -5    1    3    3    0  502  0.13387055556E+02 -0.35490477803E+02 -0.18158576940E+02  0.42315613993E+02  0.47000000000E+01 0.  1.
        -11    1    1    2    0    0  0.57254843093E+02 -0.26414591734E+01 -0.29442115728E+03  0.29994818256E+03  0.00000000000E+00 0. -1.
         11    1    1    2    0    0 -0.15135708633E+02 -0.48524219002E+02 -0.13694821931E+03  0.14607704912E+03  0.00000000000E+00 0.  1.
<mgrwt>
<rscale>  0 0.13387589E+03</rscale>
<asrwt>0</asrwt>
<pdfrwt beam="2">  1        2 0.83094129E-01 0.14149316E+03</pdfrwt>
<pdfrwt beam="1">  1       -2 0.87200934E-02 0.14149316E+03</pdfrwt>
<totfact> 0.45586598E+03</totfact>
</mgrwt>
</event>
<event>
 7    1  0.6095443E-006  0.1388583E+03  0.7546771E-02  0.1227411E+00
          1   -1    0    0  501    0  0.00000000000E+00  0.00000000000E+00  0.25122463457E+03  0.25122463457E+03  0.00000000000E+00 0. -1.
         -1   -1    0    0    0  501 -0.00000000000E+00 -0.00000000000E+00 -0.67071950624E+02  0.67071950624E+02  0.00000000000E+00 0.  1.
         23    2    1    2    0    0 -0.54118610927E+02 -0.26977291815E+02  0.51709751291E+02  0.14817393529E+03  0.12500007360E+03 0.  0.
          5    1    3    3  502    0 -0.38798556035E+02 -0.14909216556E+02 -0.37839586372E+02  0.56405114888E+02  0.47000000000E+01 0. -1.
         -5    1    3    3    0  502 -0.15320054893E+02 -0.12068075259E+02  0.89549337664E+02  0.91768820404E+02  0.47000000000E+01 0. -1.
        -11    1    1    2    0    0  0.39739926001E+02  0.55582283781E+02  0.60045420819E+02  0.90962105023E+02  0.00000000000E+00 0.  1.
         11    1    1    2    0    0  0.14378684926E+02 -0.28604991966E+02  0.72397511837E+02  0.79160544880E+02  0.00000000000E+00 0. -1.
<mgrwt>
<rscale>  0 0.13003034E+03</rscale>
<asrwt>0</asrwt>
<pdfrwt beam="1">  1        1 0.38649943E-01 0.13885826E+03</pdfrwt>
<pdfrwt beam="2">  1       -1 0.10318762E-01 0.13885826E+03</pdfrwt>
<totfact> 0.60845924E+03</totfact>
</mgrwt>
</event>
<event>
 7    1  0.6095443E-006  0.2224568E+03  0.7546771E-02  0.1135135E+00
         -2   -1    0    0    0  501 -0.00000000000E+00  0.00000000000E+00  0.92973449078E+02  0.92973449078E+02  0.00000000000E+00 0.  1.
          2   -1    0    0  501    0  0.00000000000E+00 -0.00000000000E+00 -0.87794510643E+03  0.87794510643E+03  0.00000000000E+00 0. -1.
         23    2    1    2    0    0 -0.10161312834E+03  0.15341747286E+03 -0.80081604700E+02  0.23643198965E+03  0.12499949395E+03 0.  0.
          5    1    3    3  502    0 -0.12800331169E+03  0.11380154067E+03 -0.45113302142E+02  0.17718052515E+03  0.47000000000E+01 0.  1.
         -5    1    3    3    0  502  0.26390183356E+02  0.39615932191E+02 -0.34968302558E+02  0.59251464494E+02  0.47000000000E+01 0.  1.
        -11    1    1    2    0    0  0.62443564816E+02 -0.62190175098E+02 -0.18151615226E+03  0.20177940974E+03  0.00000000000E+00 0.  1.
         11    1    1    2    0    0  0.39169563520E+02 -0.91227297766E+02 -0.52337390040E+03  0.53270715612E+03  0.00000000000E+00 0. -1.
<mgrwt>
<rscale>  0 0.21832885E+03</rscale>
<asrwt>0</asrwt>
<pdfrwt beam="2">  1        2 0.13506848E+00 0.22245679E+03</pdfrwt>
<pdfrwt beam="1">  1       -2 0.14303608E-01 0.22245679E+03</pdfrwt>
<totfact> 0.11655183E+03</totfact>
</mgrwt>
</event>
<event>
 7    1  0.6095443E-006  0.1289485E+03  0.7546771E-02  0.1243393E+00
          2   -1    0    0  501    0  0.00000000000E+00  0.00000000000E+00  0.35315495512E+02  0.35315495512E+02  0.00000000000E+00 0. -1.
         -2   -1    0    0    0  501 -0.00000000000E+00 -0.00000000000E+00 -0.49219331682E+03  0.49219331682E+03  0.00000000000E+00 0.  1.
         23    2    1    2    0    0  0.31407925033E+02 -0.41713451456E+01 -0.38902848597E+03  0.40984251033E+03  0.12499544992E+03 0.  0.
          5    1    3    3  502    0  0.44596037614E+02  0.53331150184E+02 -0.20281218771E+03  0.21444787627E+03  0.47000000000E+01 0. -1.
         -5    1    3    3    0  502 -0.13188112581E+02 -0.57502495330E+02 -0.18621629826E+03  0.19539463406E+03  0.47000000000E+01 0. -1.
        -11    1    1    2    0    0  0.21949976729E+02 -0.22040104803E+01 -0.59277696980E+02  0.63249541499E+02  0.00000000000E+00 0.  1.
         11    1    1    2    0    0 -0.53357901762E+02  0.63753556259E+01 -0.85716383570E+01  0.54416760506E+02  0.00000000000E+00 0. -1.
<mgrwt>
<rscale>  0 0.11982074E+03</rscale>
<asrwt>0</asrwt>
<pdfrwt beam="1">  1        2 0.54331535E-02 0.12894852E+03</pdfrwt>
<pdfrwt beam="2">  1       -2 0.75722043E-01 0.12894852E+03</pdfrwt>
<totfact> 0.21679137E+03</totfact>
</mgrwt>
</event>
<event>
 7    1  0.6095443E-006  0.1763640E+03  0.7546771E-02  0.1177570E+00
          1   -1    0    0  501    0  0.00000000000E+00  0.00000000000E+00  0.24265879437E+02  0.24265879437E+02  0.00000000000E+00 0. -1.
         -1   -1    0    0    0  501 -0.00000000000E+00 -0.00000000000E+00 -0.11547003027E+04  0.11547003027E+04  0.00000000000E+00 0.  1.
         23    2    1    2    0    0 -0.90528885033E+02  0.85343014509E+02 -0.70701618304E+03  0.72868109824E+03  0.12500140277E+03 0.  0.
          5    1    3    3  502    0 -0.14030644228E+02  0.70964632178E+02 -0.15416834308E+03  0.17036081124E+03  0.47000000000E+01 0.  1.
         -5    1    3    3    0  502 -0.76498240804E+02  0.14378382331E+02 -0.55284783996E+03  0.55832028700E+03  0.47000000000E+01 0.  1.
        -11    1    1    2    0    0 -0.14805168120E+02 -0.11580024056E+02 -0.10862942699E+03  0.11024355930E+03  0.00000000000E+00 0.  1.
         11    1    1    2    0    0  0.10533405315E+03 -0.73762990452E+02 -0.31478881325E+03  0.34004152461E+03  0.00000000000E+00 0. -1.
<mgrwt>
<rscale>  0 0.17026682E+03</rscale>
<asrwt>0</asrwt>
<pdfrwt beam="1">  1        1 0.37332117E-02 0.17636400E+03</pdfrwt>
<pdfrwt beam="2">  1       -1 0.17764623E+00 0.17636400E+03</pdfrwt>
<totfact> 0.59218209E+02</totfact>
</mgrwt>
</event>
<event>
 7    1  0.6095443E-006  0.1427286E+03  0.7546771E-02  0.1219585E+00
          2   -1    0    0  501    0  0.00000000000E+00  0.00000000000E+00  0.49484798908E+03  0.49484798908E+03  0.00000000000E+00 0. -1.
         -2   -1    0    0    0  501 -0.00000000000E+00 -0.00000000000E+00 -0.35370558043E+02  0.35370558043E+02  0.00000000000E+00 0.  1.
         23    2    1    2    0    0  0.68585078682E+02 -0.65410493882E+01  0.19629947016E+03  0.24270336330E+03  0.12499896891E+03 0.  0.
          5    1    3    3  502    0 -0.23875605414E+02 -0.17976984366E+02  0.11516389478E+03  0.11907152960E+03  0.47000000000E+01 0. -1.
         -5    1    3    3    0  502  0.92460684096E+02  0.11435934978E+02  0.81135575380E+02  0.12363183370E+03  0.47000000000E+01 0. -1.
        -11    1    1    2    0    0  0.14427326453E+01  0.14686675631E+02 -0.30795471210E+00  0.14760581109E+02  0.00000000000E+00 0.  1.
         11    1    1    2    0    0 -0.70027811327E+02 -0.81456262431E+01  0.26348591559E+03  0.27275460271E+03  0.00000000000E+00 0. -1.
<mgrwt>
<rscale>  0 0.13545054E+03</rscale>
<asrwt>0</asrwt>
<pdfrwt beam="1">  1        2 0.76130455E-01 0.14272856E+03</pdfrwt>
<pdfrwt beam="2">  1       -2 0.54416247E-02 0.14272856E+03</pdfrwt>
<totfact> 0.10344716E+04</totfact>
</mgrwt>
</event>
<event>
 7    1  0.6095443E-006  0.1809349E+03  0.7546771E-02  0.1172389E+00
          2   -1    0    0  501    0  0.00000000000E+00  0.00000000000E+00  0.31577467850E+03  0.31577467850E+03  0.00000000000E+00 0. -1.
         -2   -1    0    0    0  501 -0.00000000000E+00 -0.00000000000E+00 -0.94523820417E+02  0.94523820417E+02  0.00000000000E+00 0.  1.
         23    2    1    2    0    0 -0.95490306643E+02 -0.89406131774E+02  0.82593762269E+02  0.19889482562E+03  0.12500226810E+03 0.  0.
          5    1    3    3  502    0  0.16647998490E+02 -0.47165214923E+02 -0.48589660247E+01  0.50471902117E+02  0.47000000000E+01 0. -1.
         -5    1    3    3    0  502 -0.11213830513E+03 -0.42240916851E+02  0.87452728293E+02  0.14842292350E+03  0.47000000000E+01 0. -1.
        -11    1    1    2    0    0  0.68189157354E+02  0.10650486531E+03  0.11910232392E+03  0.17371934572E+03  0.00000000000E+00 0.  1.
         11    1    1    2    0    0  0.27301149289E+02 -0.17098733535E+02  0.19554771893E+02  0.37684327574E+02  0.00000000000E+00 0. -1.
<mgrwt>
<rscale>  0 0.17534209E+03</rscale>
<asrwt>0</asrwt>
<pdfrwt beam="1">  1        2 0.48580719E-01 0.18093486E+03</pdfrwt>
<pdfrwt beam="2">  1       -2 0.14542126E-01 0.18093486E+03</pdfrwt>
<totfact> 0.36470921E+03</totfact>
</mgrwt>
</event>
<event>
 7    1  0.6095443E-006  0.1270252E+03  0.7546771E-02  0.1247798E+00
          1   -1    0    0  501    0  0.00000000000E+00  0.00000000000E+00  0.53771086537E+03  0.53771086537E+03  0.00000000000E+00 0. -1.
         -1   -1    0    0    0  501 -0.00000000000E+00 -0.00000000000E+00 -0.24026489331E+02  0.24026489331E+02  0.00000000000E+00 0.  1.
         23    2    1    2    0    0 -0.22683128140E+02  0.47923517191E+00  0.22079003017E+03  0.25472265680E+03  0.12498256077E+03 0.  0.
          5    1    3    3  502    0 -0.46094625298E+01  0.62193178976E+02  0.10737701682E+03  0.12426243357E+03  0.47000000000E+01 0.  1.
         -5    1    3    3    0  502 -0.18073665610E+02 -0.61713943804E+02  0.11341301335E+03  0.13046022323E+03  0.47000000000E+01 0.  1.
        -11    1    1    2    0    0  0.20040504307E+02 -0.43629955250E+02  0.13390033991E+03  0.14224800820E+03  0.00000000000E+00 0.  1.
         11    1    1    2    0    0  0.26426238331E+01  0.43150720079E+02  0.15899400597E+03  0.16476668971E+03  0.00000000000E+00 0. -1.
<mgrwt>
<rscale>  0 0.11719490E+03</rscale>
<asrwt>0</asrwt>
<pdfrwt beam="1">  1        1 0.82724739E-01 0.12702517E+03</pdfrwt>
<pdfrwt beam="2">  1       -1 0.36963834E-02 0.12702517E+03</pdfrwt>
<totfact> 0.10730176E+04</totfact>
</mgrwt>
</event>
<event>
 7    1  0.6095443E-006  0.1322213E+03  0.7546771E-02  0.1236819E+00
          1   -1    0    0  501    0  0.00000000000E+00  0.00000000000E+00  0.33584862385E+02  0.33584862385E+02  0.00000000000E+00 0. -1.
         -1   -1    0    0    0  501 -0.00000000000E+00 -0.00000000000E+00 -0.46762346313E+03  0.46762346313E+03  0.00000000000E+00 0.  1.
         23    2    1    2    0    0  0.37532030531E+02  0.21148667179E+02 -0.33033925016E+03  0.35581805358E+03  0.12500619032E+03 0.  0.
          5    1    3    3  502    0  0.34542887017E+02  0.34277745368E+02 -0.33667930858E+03  0.34021055494E+03  0.47000000000E+01 0.  1.
         -5    1    3    3    0  502  0.29891435133E+01 -0.13129078188E+02  0.63400584156E+01  0.15607498638E+02  0.47000000000E+01 0.  1.
        -11    1    1    2    0    0 -0.66101268105E+02 -0.53350619709E+01 -0.84834405371E+02  0.10767876702E+03  0.00000000000E+00 0.  1.
         11    1    1    2    0    0  0.28569237575E+02 -0.15813605209E+02 -0.18864945212E+02  0.37711504918E+02  0.00000000000E+00 0. -1.
<mgrwt>
<rscale>  0 0.12388698E+03</rscale>
<asrwt>0</asrwt>
<pdfrwt beam="1">  1        1 0.51669021E-02 0.13222128E+03</pdfrwt>
<pdfrwt beam="2">  1       -1 0.71942069E-01 0.13222128E+03</pdfrwt>
<totfact> 0.31028691E+03</totfact>
</mgrwt>
</event>
<event>
 7    1  0.6095443E-006  0.1453850E+03  0.7546771E-02  0.1215669E+00
         -1   -1    0    0    0  501 -0.00000000000E+00  0.00000000000E+00  0.75719111828E+02  0.75719111828E+02  0.00000000000E+00 0.  1.
          1   -1    0    0  501    0  0.00000000000E+00 -0.00000000000E+00 -0.25759558460E+03  0.25759558460E+03  0.00000000000E+00 0. -1.
         23    2    1    2    0    0 -0.37838026366E+02 -0.63860930999E+02 -0.45491173021E+02  0.15233597396E+03  0.12500746934E+03 0.  0.
          5    1    3    3  502    0 -0.27863486477E+02  0.33482147267E+02 -0.30131652090E+02  0.53173626187E+02  0.47000000000E+01 0. -1.
         -5    1    3    3    0  502 -0.99745398892E+01 -0.97343078266E+02 -0.15359520931E+02  0.99162347772E+02  0.47000000000E+01 0. -1.
        -11    1    1    2    0    0  0.17463133415E+01 -0.22879593401E+02 -0.14720935287E+02  0.27262269535E+02  0.00000000000E+00 0.  1.
         11    1    1    2    0    0  0.36091713024E+02  0.86740524400E+02 -0.12166436447E+03  0.15371645294E+03  0.00000000000E+00 0. -1.
<mgrwt>
<rscale>  0 0.13827488E+03</rscale>
<asrwt>0</asrwt>
<pdfrwt beam="2">  1        1 0.39630089E-01 0.14538501E+03</pdfrwt>
<pdfrwt beam="1">  1       -1 0.11649094E-01 0.14538501E+03</pdfrwt>
<totfact> 0.49096409E+03</totfact>
</mgrwt>
</event>
<event>
 7    1  0.6095443E-006  0.1734337E+03  0.7546771E-02  0.1180176E+00
         -1   -1    0    0    0  501 -0.00000000000E+00  0.00000000000E+00  0.18624009279E+02  0.18624009279E+02  0.00000000000E+00 0.  1.
          1   -1    0    0  501    0  0.00000000000E+00 -0.00000000000E+00 -0.14637929071E+04  0.14637929071E+04  0.00000000000E+00 0. -1.
         23    2    1    2    0    0 -0.94686642402E+02  0.74086731932E+02 -0.64248025918E+03  0.66547738225E+03  0.12499943502E+03 0.  0.
          5    1    3    3  502    0 -0.12500449422E+03  0.57918044900E+02 -0.48407371230E+03  0.50331905630E+03  0.47000000000E+01 0. -1.
         -5    1    3    3    0  502  0.30317851820E+02  0.16168687031E+02 -0.15840654688E+03  0.16215832595E+03  0.47000000000E+01 0. -1.
        -11    1    1    2    0    0  0.10405520951E+03 -0.79761720623E+02 -0.78675330047E+03  0.79760276736E+03  0.00000000000E+00 0. -1.
         11    1    1    2    0    0 -0.93685671048E+01  0.56749886918E+01 -0.15935338162E+02  0.19336766756E+02  0.00000000000E+00 0.  1.
<mgrwt>
<rscale>  0 0.16778664E+03</rscale>
<asrwt>0</asrwt>
<pdfrwt beam="2">  1        1 0.22519890E+00 0.17343374E+03</pdfrwt>
<pdfrwt beam="1">  1       -1 0.28652324E-02 0.17343374E+03</pdfrwt>
<totfact> 0.30396844E+03</totfact>
</mgrwt>
</event>
<event>
 7    1  0.6095443E-006  0.1295139E+03  0.7546771E-02  0.1241720E+00
         -2   -1    0    0    0  501 -0.00000000000E+00  0.00000000000E+00  0.74730488080E+03  0.74730488080E+03  0.00000000000E+00 0. -1.
          2   -1    0    0  501    0  0.00000000000E+00 -0.00000000000E+00 -0.18316457271E+02  0.18316457271E+02  0.00000000000E+00 0.  1.
         23    2    1    2    0    0  0.19693662539E+02 -0.27578931880E+02  0.49967643547E+03  0.51618833699E+03  0.12500168498E+03 0.  0.
          5    1    3    3  502    0 -0.95373171988E+01  0.39433204328E+02  0.76522702171E+02  0.86739564044E+02  0.47000000000E+01 0. -1.
         -5    1    3    3    0  502  0.29230979737E+02 -0.67012136208E+02  0.42315373330E+03  0.42944877294E+03  0.47000000000E+01 0. -1.
        -11    1    1    2    0    0 -0.48196697285E+02  0.20111397361E+01  0.66345112963E+02  0.82028289793E+02  0.00000000000E+00 0.  1.
         11    1    1    2    0    0  0.28503034747E+02  0.25567792144E+02  0.16296687510E+03  0.16740471130E+03  0.00000000000E+00 0. -1.
<mgrwt>
<rscale>  0 0.12083886E+03</rscale>
<asrwt>0</asrwt>
<pdfrwt beam="2">  1        2 0.28179171E-02 0.12951393E+03</pdfrwt>
<pdfrwt beam="1">  1       -2 0.11496996E+00 0.12951393E+03</pdfrwt>
<totfact> 0.20078978E+03</totfact>
</mgrwt>
</event>
<event>
 7    1  0.6095443E-006  0.1299196E+03  0.7546771E-02  0.1241457E+00
          1   -1    0    0  501    0  0.00000000000E+00  0.00000000000E+00  0.41036368353E+02  0.41036368353E+02  0.00000000000E+00 0. -1.
         -1   -1    0    0    0  501 -0.00000000000E+00 -0.00000000000E+00 -0.58268822833E+03  0.58268822833E+03  0.00000000000E+00 0.  1.
         23    2    1    2    0    0 -0.23135165717E+02  0.26795567992E+02 -0.50148997611E+03  0.51804564446E+03  0.12500342097E+03 0.  0.
          5    1    3    3  502    0  0.31237338126E+02  0.37274758584E+02 -0.86451466055E+02  0.99303196845E+02  0.47000000000E+01 0. -1.
         -5    1    3    3    0  502 -0.54372503843E+02 -0.10479190592E+02 -0.41503851005E+03  0.41874244762E+03  0.47000000000E+01 0. -1.
        -11    1    1    2    0    0  0.31811162034E+02 -0.57108451025E+02 -0.20452067384E+02  0.68495344869E+02  0.00000000000E+00 0.  1.
         11    1    1    2    0    0 -0.86759963173E+01  0.30312883034E+02 -0.19709816488E+02  0.37183607355E+02  0.00000000000E+00 0. -1.
<mgrwt>
<rscale>  0 0.12099993E+03</rscale>
<asrwt>0</asrwt>
<pdfrwt beam="1">  1        1 0.63132872E-02 0.12991957E+03</pdfrwt>
<pdfrwt beam="2">  1       -1 0.89644347E-01 0.12991957E+03</pdfrwt>
<totfact> 0.15045468E+03</totfact>
</mgrwt>
</event>
<event>
 7    1  0.6095443E-006  0.2241712E+03  0.7546771E-02  0.1134723E+00
          2   -1    0    0  501    0  0.00000000000E+00  0.00000000000E+00  0.89598056066E+03  0.89598056066E+03  0.00000000000E+00 0. -1.
         -2   -1    0    0    0  501 -0.00000000000E+00 -0.00000000000E+00 -0.53493877034E+02  0.53493877034E+02  0.00000000000E+00 0.  1.
         23    2    1    2    0    0 -0.18347908079E+03  0.31035651361E+02  0.33992428413E+03  0.40718696884E+03  0.12499969565E+03 0.  0.
          5    1    3    3  502    0 -0.17152700786E+03  0.66968558999E+02  0.26016980689E+03  0.31877377674E+03  0.47000000000E+01 0.  1.
         -5    1    3    3    0  502 -0.11952072930E+02 -0.35932907638E+02  0.79754477235E+02  0.88413192102E+02  0.47000000000E+01 0.  1.
        -11    1    1    2    0    0  0.10104750927E+03 -0.35417307927E+02  0.18100968829E+03  0.21030808849E+03  0.00000000000E+00 0.  1.
         11    1    1    2    0    0  0.82431571516E+02  0.43816565659E+01  0.32155271121E+03  0.33197938036E+03  0.00000000000E+00 0. -1.
<mgrwt>
<rscale>  0 0.21887675E+03</rscale>
<asrwt>0</asrwt>
<pdfrwt beam="1">  1        2 0.13784315E+00 0.22417116E+03</pdfrwt>
<pdfrwt beam="2">  1       -2 0.82298279E-02 0.22417116E+03</pdfrwt>
<totfact> 0.27504910E+03</totfact>
</mgrwt>
</event>
<event>
 7    1  0.6095443E-006  0.3090518E+03  0.7546771E-02  0.1082265E+00
          2   -1    0    0  501    0  0.00000000000E+00  0.00000000000E+00  0.16328379360E+03  0.16328379360E+03  0.00000000000E+00 0. -1.
         -2   -1    0    0    0  501 -0.00000000000E+00 -0.00000000000E+00 -0.66119031048E+03  0.66119031048E+03  0.00000000000E+00 0.  1.
         23    2    1    2    0    0  0.25200083279E+03 -0.12802299814E+03 -0.93975151829E+02  0.32302371487E+03  0.12497473116E+03 0.  0.
          5    1    3    3  502    0  0.73680891479E+02 -0.27334332064E+02  0.29240718587E+02  0.83983028655E+02  0.47000000000E+01 0.  1.
         -5    1    3    3    0  502  0.17831994131E+03 -0.10068866608E+03 -0.12321587042E+03  0.23904068622E+03  0.47000000000E+01 0.  1.
        -11    1    1    2    0    0 -0.13153718290E+03  0.69177239629E+02 -0.13422420575E+03  0.20025897827E+03  0.00000000000E+00 0. -1.
         11    1    1    2    0    0 -0.12046364989E+03  0.58845758512E+02 -0.26970715931E+03  0.30119141094E+03  0.00000000000E+00 0.  1.
<mgrwt>
<rscale>  0 0.30602968E+03</rscale>
<asrwt>0</asrwt>
<pdfrwt beam="1">  1        2 0.25120584E-01 0.30905176E+03</pdfrwt>
<pdfrwt beam="2">  1       -2 0.10172159E+00 0.30905176E+03</pdfrwt>
<totfact> 0.17691810E+02</totfact>
</mgrwt>
</event>
<event>
 7    1  0.6095443E-006  0.1848037E+03  0.7546771E-02  0.1168975E+00
         -1   -1    0    0    0  501 -0.00000000000E+00  0.00000000000E+00  0.30468221992E+02  0.30468221992E+02  0.00000000000E+00 0.  1.
          1   -1    0    0  501    0  0.00000000000E+00 -0.00000000000E+00 -0.10160980826E+04  0.10160980826E+04  0.00000000000E+00 0. -1.
         23    2    1    2    0    0  0.13545574207E+03  0.13333786780E+02 -0.43508748764E+03  0.47270871241E+03  0.12500542770E+03 0.  0.
          5    1    3    3  502    0  0.71982900127E+02 -0.42190345535E+02 -0.31497579656E+03  0.32587329683E+03  0.47000000000E+01 0. -1.
         -5    1    3    3    0  502  0.63472841941E+02  0.55524132315E+02 -0.12011169108E+03  0.14683541557E+03  0.47000000000E+01 0. -1.
        -11    1    1    2    0    0 -0.65284170685E+01  0.18193150198E+02 -0.23849465424E+02  0.30698663563E+02  0.00000000000E+00 0.  1.
         11    1    1    2    0    0 -0.12892732500E+03 -0.31526936978E+02 -0.52669290751E+03  0.54315892859E+03  0.00000000000E+00 0. -1.
<mgrwt>
<rscale>  0 0.17879403E+03</rscale>
<asrwt>0</asrwt>
<pdfrwt beam="2">  1        1 0.15632281E+00 0.18480369E+03</pdfrwt>
<pdfrwt beam="1">  1       -1 0.46874178E-02 0.18480369E+03</pdfrwt>
<totfact> 0.29928252E+03</totfact>
</mgrwt>
</event>
<event>
 7    1  0.6095443E-006  0.1380106E+03  0.7546771E-02  0.1223957E+00
          3   -1    0    0  501    0  0.00000000000E+00  0.00000000000E+00  0.88917129642E+02  0.88917129642E+02  0.00000000000E+00 0. -1.
         -3   -1    0    0    0  501 -0.00000000000E+00 -0.00000000000E+00 -0.58188764734E+03  0.58188764734E+03  0.00000000000E+00 0.  1.
         23    2    1    2    0    0  0.58975313631E+02 -0.41265450810E+02 -0.53043311473E+03  0.54809326307E+03  0.11775402657E+03 0.  0.
          5    1    3    3  502    0 -0.35994777607E+02 -0.10580472248E+02 -0.13039880215E+03  0.13577005565E+03  0.47000000000E+01 0. -1.
         -5    1    3    3    0  502  0.94970091239E+02 -0.30684978561E+02 -0.40003431258E+03  0.41232320743E+03  0.47000000000E+01 0.  1.
        -11    1    1    2    0    0 -0.70722280356E+02 -0.30816864072E+01  0.19326272867E+02  0.73380123690E+02  0.00000000000E+00 0. -1.
         11    1    1    2    0    0  0.11746966725E+02  0.44347137217E+02  0.18136324168E+02  0.49331390219E+02  0.00000000000E+00 0.  1.
<mgrwt>
<rscale>  0 0.13238676E+03</rscale>
<asrwt>0</asrwt>
<pdfrwt beam="1">  1        3 0.13679558E-01 0.13801064E+03</pdfrwt>
<pdfrwt beam="2">  1       -3 0.89521178E-01 0.13801064E+03</pdfrwt>
<totfact> 0.11887795E+02</totfact>
</mgrwt>
</event>
<event>
 7    1  0.6095443E-006  0.1426891E+03  0.7546771E-02  0.1220377E+00
         -1   -1    0    0    0  501 -0.00000000000E+00  0.00000000000E+00  0.39450299829E+02  0.39450299829E+02  0.00000000000E+00 0.  1.
          1   -1    0    0  501    0  0.00000000000E+00 -0.00000000000E+00 -0.42230074630E+03  0.42230074630E+03  0.00000000000E+00 0. -1.
         23    2    1    2    0    0 -0.65085318557E+02 -0.22366242246E+02 -0.18789120726E+03  0.23593067447E+03  0.12499531953E+03 0.  0.
          5    1    3    3  502    0 -0.58952341534E+01  0.50906567360E+00 -0.16953788061E+03  0.16970620465E+03  0.47000000000E+01 0.  1.
         -5    1    3    3    0  502 -0.59190084403E+02 -0.22875307919E+02 -0.18353326651E+02  0.66224469822E+02  0.47000000000E+01 0.  1.
        -11    1    1    2    0    0 -0.19324724993E+02  0.10680333372E+02 -0.14964941087E+02  0.26673282114E+02  0.00000000000E+00 0.  1.
         11    1    1    2    0    0  0.84410043550E+02  0.11685908874E+02 -0.17999429813E+03  0.19914708955E+03  0.00000000000E+00 0. -1.
<mgrwt>
<rscale>  0 0.13488896E+03</rscale>
<asrwt>0</asrwt>
<pdfrwt beam="2">  1        1 0.64969349E-01 0.14268909E+03</pdfrwt>
<pdfrwt beam="1">  1       -1 0.60692766E-02 0.14268909E+03</pdfrwt>
<totfact> 0.71078922E+03</totfact>
</mgrwt>
</event>
<event>
 7    1  0.6095443E-006  0.1358037E+03  0.7546771E-02  0.1231831E+00
         -1   -1    0    0    0  501 -0.00000000000E+00  0.00000000000E+00  0.17431765786E+03  0.17431765786E+03  0.00000000000E+00 0.  1.
          1   -1    0    0  501    0  0.00000000000E+00 -0.00000000000E+00 -0.89389358165E+02  0.89389358165E+02  0.00000000000E+00 0. -1.
         23    2    1    2    0    0 -0.23753012096E+02  0.47460024539E+02  0.83692890509E+02  0.15952163291E+03  0.12500396766E+03 0.  0.
          5    1    3    3  502    0 -0.29266785948E+02 -0.70454867497E+01 -0.23879950166E+02  0.38710795177E+02  0.47000000000E+01 0. -1.
         -5    1    3    3    0  502  0.55137738528E+01  0.54505511289E+02  0.10757284067E+03  0.12081083773E+03  0.47000000000E+01 0. -1.
        -11    1    1    2    0    0  0.46785044887E+02 -0.60607115743E+02 -0.56918735161E+01  0.76775388817E+02  0.00000000000E+00 0. -1.
         11    1    1    2    0    0 -0.23032032792E+02  0.13147091205E+02  0.69272826999E+01  0.27409994295E+02  0.00000000000E+00 0.  1.
<mgrwt>
<rscale>  0 0.12709481E+03</rscale>
<asrwt>0</asrwt>
<pdfrwt beam="2">  1        1 0.13752209E-01 0.13580372E+03</pdfrwt>
<pdfrwt beam="1">  1       -1 0.26818101E-01 0.13580372E+03</pdfrwt>
<totfact> 0.49372422E+03</totfact>
</mgrwt>
</event>
<event>
 7    1  0.6095443E-006  0.1741963E+03  0.7546771E-02  0.1179287E+00
         -1   -1    0    0    0  501 -0.00000000000E+00  0.00000000000E+00  0.77681377044E+02  0.77681377044E+02  0.00000000000E+00 0.  1.
          1   -1    0    0  501    0  0.00000000000E+00 -0.00000000000E+00 -0.34590865420E+03  0.34590865420E+03  0.00000000000E+00 0. -1.
         23    2    1    2    0    0  0.80270042916E+02  0.90981590638E+02 -0.15643417132E+03  0.23412819387E+03  0.12499372618E+03 0.  0.
          5    1    3    3  502    0  0.33738401114E+02  0.48359541035E+02 -0.16016764772E+03  0.17074158924E+03  0.47000000000E+01 0.  1.
         -5    1    3    3    0  502  0.46531641801E+02  0.42622049603E+02  0.37334764004E+01  0.63386604635E+02  0.47000000000E+01 0.  1.
        -11    1    1    2    0    0 -0.52242659807E+02 -0.20765094642E+01 -0.69828796227E+02  0.87233412050E+02  0.00000000000E+00 0. -1.
         11    1    1    2    0    0 -0.28027383108E+02 -0.88905081173E+02 -0.41964309604E+02  0.10222842532E+03  0.00000000000E+00 0.  1.
<mgrwt>
<rscale>  0 0.16862688E+03</rscale>
<asrwt>0</asrwt>
<pdfrwt beam="2">  1        1 0.53216718E-01 0.17419633E+03</pdfrwt>
<pdfrwt beam="1">  1       -1 0.11950981E-01 0.17419633E+03</pdfrwt>
<totfact> 0.32982235E+03</totfact>
</mgrwt>
</event>
<event>
 7    1  0.6095443E-006  0.1470025E+03  0.7546771E-02  0.1216904E+00
         -2   -1    0    0    0  501 -0.00000000000E+00  0.00000000000E+00  0.16318295105E+03  0.16318295105E+03  0.00000000000E+00 0.  1.
          2   -1    0    0  501    0  0.00000000000E+00 -0.00000000000E+00 -0.11335326953E+03  0.11335326953E+03  0.00000000000E+00 0. -1.
         23    2    1    2    0    0 -0.65581361912E+02 -0.41035692296E+02  0.69673167610E+02  0.16267786847E+03  0.12499958213E+03 0.  0.
          5    1    3    3  502    0 -0.23642042223E+01  0.30350548335E+02 -0.15726683332E+02  0.34585601259E+02  0.47000000000E+01 0.  1.
         -5    1    3    3    0  502 -0.63217157690E+02 -0.71386240630E+02  0.85399850943E+02  0.12809226721E+03  0.47000000000E+01 0.  1.
        -11    1    1    2    0    0  0.67254331843E+02  0.55303823013E+02  0.27137466473E+01  0.87114995335E+02  0.00000000000E+00 0.  1.
         11    1    1    2    0    0 -0.16729699305E+01 -0.14268130717E+02 -0.22557232743E+02  0.26743356775E+02  0.00000000000E+00 0. -1.
<mgrwt>
<rscale>  0 0.13737582E+03</rscale>
<asrwt>0</asrwt>
<pdfrwt beam="2">  1        2 0.17438964E-01 0.14700251E+03</pdfrwt>
<pdfrwt beam="1">  1       -2 0.25105069E-01 0.14700251E+03</pdfrwt>
<totfact> 0.44156459E+03</totfact>
</mgrwt>
</event>
<event>
 7    1  0.1899230E-005  0.3496564E+03  0.7546771E-02  0.1063856E+00
         -1   -1    0    0    0  501 -0.00000000000E+00  0.00000000000E+00  0.16951943309E+03  0.16951943309E+03  0.00000000000E+00 0.  1.
          1   -1    0    0  501    0  0.00000000000E+00 -0.00000000000E+00 -0.72021702266E+03  0.72021702266E+03  0.00000000000E+00 0. -1.
         23    2    1    2    0    0 -0.20062216492E+03 -0.25765281260E+03 -0.20429039548E+03  0.40496192614E+03  0.12500148415E+03 0.  0.
          5    1    3    3  502    0 -0.26804737649E+02 -0.28266886726E+02  0.16124780338E+02  0.42421803198E+02  0.47000000000E+01 0. -1.
         -5    1    3    3    0  502 -0.17381742727E+03 -0.22938592587E+03 -0.22041517582E+03  0.36254012294E+03  0.47000000000E+01 0. -1.
        -11    1    1    2    0    0  0.13518164987E+03  0.10684078895E+03 -0.20614445209E+03  0.26867185891E+03  0.00000000000E+00 0.  1.
         11    1    1    2    0    0  0.65440515056E+02  0.15081202365E+03 -0.14026274201E+03  0.21610267070E+03  0.00000000000E+00 0. -1.
<mgrwt>
<rscale>  0 0.34699427E+03</rscale>
<asrwt>0</asrwt>
<pdfrwt beam="2">  1        1 0.11080262E+00 0.34965640E+03</pdfrwt>
<pdfrwt beam="1">  1       -1 0.26079913E-01 0.34965640E+03</pdfrwt>
<totfact> 0.35058749E+02</totfact>
</mgrwt>
</event>
<event>
 6    1  0.6095443E-006  0.2163908E+03  0.7546771E-02  0.1157056E+00
         -1   -1    0    0    0  501 -0.00000000000E+00  0.00000000000E+00  0.77893391173E+02  0.77893391173E+02  0.00000000000E+00 0.  1.
          1   -1    0    0  501    0  0.00000000000E+00 -0.00000000000E+00 -0.39274214327E+03  0.39274214327E+03  0.00000000000E+00 0. -1.
          5    1    1    2  502    0 -0.63186849155E+02  0.73931405096E+02 -0.24503370368E+02  0.10040386310E+03  0.47000000000E+01 0. -1.
         -5    1    1    2    0  502  0.74373337942E+02  0.27200824809E+02 -0.18275716009E+03  0.19923239654E+03  0.47000000000E+01 0.  1.
        -11    1    1    2    0    0 -0.20867920337E+02 -0.25935018611E+02  0.65965482563E+01  0.33935375914E+02  0.00000000000E+00 0.  1.
         11    1    1    2    0    0  0.96814315491E+01 -0.75197211294E+02 -0.11418476990E+03  0.13706389889E+03  0.00000000000E+00 0. -1.
<mgrwt>
<rscale>  0 0.19156663E+03</rscale>
<asrwt>0</asrwt>
<pdfrwt beam="2">  1        1 0.60421869E-01 0.21639076E+03</pdfrwt>
<pdfrwt beam="1">  1       -1 0.11983598E-01 0.21639076E+03</pdfrwt>
<totfact> 0.28183372E+03</totfact>
</mgrwt>
</event>
<event>
 7    1  0.6095443E-006  0.1272173E+03  0.7546771E-02  0.1245540E+00
         -2   -1    0    0    0  501 -0.00000000000E+00  0.00000000000E+00  0.52919615260E+03  0.52919615260E+03  0.00000000000E+00 0.  1.
          2   -1    0    0  501    0  0.00000000000E+00 -0.00000000000E+00 -0.24339578496E+02  0.24339578496E+02  0.00000000000E+00 0. -1.
         23    2    1    2    0    0 -0.17687166235E+01  0.23553962730E+02  0.33724675838E+03  0.36044363989E+03  0.12500529582E+03 0.  0.
          5    1    3    3  502    0 -0.58769361153E+02  0.28939535370E+02  0.22443547717E+03  0.23384761691E+03  0.47000000000E+01 0. -1.
         -5    1    3    3    0  502  0.57000644530E+02 -0.53855726408E+01  0.11281128120E+03  0.12659602299E+03  0.47000000000E+01 0. -1.
        -11    1    1    2    0    0  0.54601867256E+01  0.31699038231E+02  0.10347099436E+03  0.10835538444E+03  0.00000000000E+00 0. -1.
         11    1    1    2    0    0 -0.36914701022E+01 -0.55253000961E+02  0.64138821375E+02  0.84736706769E+02  0.00000000000E+00 0.  1.
<mgrwt>
<rscale>  0 0.11853128E+03</rscale>
<asrwt>0</asrwt>
<pdfrwt beam="2">  1        2 0.37445509E-02 0.12721730E+03</pdfrwt>
<pdfrwt beam="1">  1       -2 0.81414784E-01 0.12721730E+03</pdfrwt>
<totfact> 0.30142358E+03</totfact>
</mgrwt>
</event>
<event>
 7    1  0.6095443E-006  0.1633396E+03  0.7546771E-02  0.1191537E+00
         -1   -1    0    0    0  501 -0.00000000000E+00  0.00000000000E+00  0.70596050088E+02  0.70596050088E+02  0.00000000000E+00 0.  1.
          1   -1    0    0  501    0  0.00000000000E+00 -0.00000000000E+00 -0.32883611295E+03  0.32883611295E+03  0.00000000000E+00 0. -1.
         23    2    1    2    0    0  0.50252611674E+02 -0.92356918289E+02 -0.14462729254E+03  0.21816706549E+03  0.12499875751E+03 0.  0.
          5    1    3    3  502    0  0.89433551982E+01  0.31290417702E+02 -0.30012161154E+02  0.44518464252E+02  0.47000000000E+01 0. -1.
         -5    1    3    3    0  502  0.41309256476E+02 -0.12364733599E+03 -0.11461513139E+03  0.17364860124E+03  0.47000000000E+01 0. -1.
        -11    1    1    2    0    0 -0.53896019566E+01  0.42482976851E+02  0.68649779046E+01  0.43370255395E+02  0.00000000000E+00 0.  1.
         11    1    1    2    0    0 -0.44863009717E+02  0.49873941438E+02 -0.12047774822E+03  0.13789484215E+03  0.00000000000E+00 0. -1.
<mgrwt>
<rscale>  0 0.15751038E+03</rscale>
<asrwt>0</asrwt>
<pdfrwt beam="2">  1        1 0.50590173E-01 0.16333957E+03</pdfrwt>
<pdfrwt beam="1">  1       -1 0.10860930E-01 0.16333957E+03</pdfrwt>
<totfact> 0.40629853E+03</totfact>
</mgrwt>
</event>
<event>
 7    1  0.6095443E-006  0.1537184E+03  0.7546771E-02  0.1204215E+00
          2   -1    0    0  501    0  0.00000000000E+00  0.00000000000E+00  0.18019982874E+03  0.18019982874E+03  0.00000000000E+00 0. -1.
         -2   -1    0    0    0  501 -0.00000000000E+00 -0.00000000000E+00 -0.18618275807E+03  0.18618275807E+03  0.00000000000E+00 0.  1.
         23    2    1    2    0    0 -0.74820475486E+02 -0.49059061830E+02 -0.11964997605E+03  0.19479591996E+03  0.12499775423E+03 0.  0.
          5    1    3    3  502    0  0.29990860196E+01 -0.11632707188E+02  0.23928884010E+02  0.27184478723E+02  0.47000000000E+01 0. -1.
         -5    1    3    3    0  502 -0.77819561506E+02 -0.37426354642E+02 -0.14357886006E+03  0.16761144123E+03  0.47000000000E+01 0. -1.
        -11    1    1    2    0    0  0.65840467206E+02  0.66759804523E+02  0.11854782058E+03  0.15114702903E+03  0.00000000000E+00 0. -1.
         11    1    1    2    0    0  0.89800082806E+01 -0.17700742692E+02 -0.48807738572E+01  0.20439637815E+02  0.00000000000E+00 0.  1.
<mgrwt>
<rscale>  0 0.14699462E+03</rscale>
<asrwt>0</asrwt>
<pdfrwt beam="1">  1        2 0.27723051E-01 0.15371836E+03</pdfrwt>
<pdfrwt beam="2">  1       -2 0.28643501E-01 0.15371836E+03</pdfrwt>
<totfact> 0.20828886E+03</totfact>
</mgrwt>
</event>
<event>
 7    1  0.6095443E-006  0.1265571E+03  0.7546771E-02  0.1247777E+00
          2   -1    0    0  501    0  0.00000000000E+00  0.00000000000E+00  0.31810533294E+02  0.31810533294E+02  0.00000000000E+00 0. -1.
         -2   -1    0    0    0  501 -0.00000000000E+00 -0.00000000000E+00 -0.46866684664E+03  0.46866684664E+03  0.00000000000E+00 0.  1.
         23    2    1    2    0    0  0.17317749948E+01  0.19642902954E+02 -0.35364876895E+03  0.37561170102E+03  0.12501142142E+03 0.  0.
          5    1    3    3  502    0  0.33699473467E+02 -0.31187618182E+02 -0.59206234613E+02  0.75071900581E+02  0.47000000000E+01 0. -1.
         -5    1    3    3    0  502 -0.31967698472E+02  0.50830521135E+02 -0.29444253433E+03  0.30053980044E+03  0.47000000000E+01 0. -1.
        -11    1    1    2    0    0  0.19555723572E+02  0.16755838545E+02 -0.78285898863E+02  0.82412780627E+02  0.00000000000E+00 0.  1.
         11    1    1    2    0    0 -0.21287498567E+02 -0.36398741499E+02 -0.49216455356E+01  0.42452898284E+02  0.00000000000E+00 0. -1.
<mgrwt>
<rscale>  0 0.11720722E+03</rscale>
<asrwt>0</asrwt>
<pdfrwt beam="1">  1        2 0.48939286E-02 0.12655709E+03</pdfrwt>
<pdfrwt beam="2">  1       -2 0.72102586E-01 0.12655709E+03</pdfrwt>
<totfact> 0.27554592E+03</totfact>
</mgrwt>
</event>
<event>
 7    1  0.6095443E-006  0.1604100E+03  0.7546771E-02  0.1195771E+00
         -2   -1    0    0    0  501 -0.00000000000E+00  0.00000000000E+00  0.91048795500E+02  0.91048795500E+02  0.00000000000E+00 0.  1.
          2   -1    0    0  501    0  0.00000000000E+00 -0.00000000000E+00 -0.24644583693E+03  0.24644583693E+03  0.00000000000E+00 0. -1.
         23    2    1    2    0    0 -0.49757394750E+02  0.87370773981E+02 -0.59103571239E+02  0.17095200348E+03  0.12498761892E+03 0.  0.
          5    1    3    3  502    0 -0.44413671347E+02  0.11090101827E+03 -0.75502522573E+02  0.14140131177E+03  0.47000000000E+01 0. -1.
         -5    1    3    3    0  502 -0.53437234038E+01 -0.23530244286E+02  0.16398951334E+02  0.29550691715E+02  0.47000000000E+01 0. -1.
        -11    1    1    2    0    0  0.55578104405E+02 -0.71017279655E+02 -0.11154295225E+03  0.14343712872E+03  0.00000000000E+00 0. -1.
         11    1    1    2    0    0 -0.58207096548E+01 -0.16353494326E+02  0.15249482060E+02  0.23105500225E+02  0.00000000000E+00 0.  1.
<mgrwt>
<rscale>  0 0.15389137E+03</rscale>
<asrwt>0</asrwt>
<pdfrwt beam="2">  1        2 0.37914743E-01 0.16040996E+03</pdfrwt>
<pdfrwt beam="1">  1       -2 0.14007507E-01 0.16040996E+03</pdfrwt>
<totfact> 0.50236944E+03</totfact>
</mgrwt>
</event>
<event>
 7    1  0.6095443E-006  0.1958155E+03  0.7546771E-02  0.1156880E+00
          1   -1    0    0  501    0  0.00000000000E+00  0.00000000000E+00  0.97307478464E+03  0.97307478464E+03  0.00000000000E+00 0. -1.
         -1   -1    0    0    0  501 -0.00000000000E+00 -0.00000000000E+00 -0.43103069775E+02  0.43103069775E+02  0.00000000000E+00 0.  1.
         23    2    1    2    0    0 -0.66141626439E+02 -0.13887654542E+03  0.27974605743E+03  0.34146973043E+03  0.12117058446E+03 0.  0.
          5    1    3    3  502    0 -0.92624094907E+02 -0.60210109333E+02  0.13454347172E+03  0.17415084268E+03  0.47000000000E+01 0. -1.
         -5    1    3    3    0  502  0.26482468467E+02 -0.78666436084E+02  0.14520258571E+03  0.16731888775E+03  0.47000000000E+01 0.  1.
        -11    1    1    2    0    0  0.12697257065E+02  0.30371236621E+02  0.36392832980E+02  0.49072096381E+02  0.00000000000E+00 0. -1.
         11    1    1    2    0    0  0.53444369375E+02  0.10850530880E+03  0.61383282446E+03  0.62563602761E+03  0.00000000000E+00 0.  1.
<mgrwt>
<rscale>  0 0.19176375E+03</rscale>
<asrwt>0</asrwt>
<pdfrwt beam="1">  1        1 0.14970380E+00 0.19581553E+03</pdfrwt>
<pdfrwt beam="2">  1       -1 0.66312422E-02 0.19581553E+03</pdfrwt>
<totfact> 0.19175327E+03</totfact>
</mgrwt>
</event>
<event>
 7    1  0.6095443E-006  0.1612942E+03  0.7546771E-02  0.1194550E+00
         -1   -1    0    0    0  501 -0.00000000000E+00  0.00000000000E+00  0.70929084711E+02  0.70929084711E+02  0.00000000000E+00 0.  1.
          1   -1    0    0  501    0  0.00000000000E+00 -0.00000000000E+00 -0.31629267597E+03  0.31629267597E+03  0.00000000000E+00 0. -1.
         23    2    1    2    0    0 -0.80135788156E+02 -0.63009436037E+02 -0.11684361970E+03  0.19916890642E+03  0.12499555290E+03 0.  0.
          5    1    3    3  502    0 -0.11260970064E+03 -0.41026621503E+02 -0.74167842753E+02  0.14102158434E+03  0.47000000000E+01 0.  1.
         -5    1    3    3    0  502  0.32473912482E+02 -0.21982814535E+02 -0.42675776951E+02  0.58147322081E+02  0.47000000000E+01 0.  1.
        -11    1    1    2    0    0  0.33587517507E+02  0.67261444889E+02 -0.33804410471E+02  0.82431556264E+02  0.00000000000E+00 0.  1.
         11    1    1    2    0    0  0.46548270649E+02 -0.42520088519E+01 -0.94715561081E+02  0.10562129800E+03  0.00000000000E+00 0. -1.
<mgrwt>
<rscale>  0 0.15492371E+03</rscale>
<asrwt>0</asrwt>
<pdfrwt beam="2">  1        1 0.48660412E-01 0.16129421E+03</pdfrwt>
<pdfrwt beam="1">  1       -1 0.10912167E-01 0.16129421E+03</pdfrwt>
<totfact> 0.42318370E+03</totfact>
</mgrwt>
</event>
<event>
 7    1  0.6095443E-006  0.1805552E+03  0.7546771E-02  0.1173102E+00
          1   -1    0    0  501    0  0.00000000000E+00  0.00000000000E+00  0.69575530044E+02  0.69575530044E+02  0.00000000000E+00 0. -1.
         -1   -1    0    0    0  501 -0.00000000000E+00 -0.00000000000E+00 -0.47753630972E+03  0.47753630972E+03  0.00000000000E+00 0.  1.
         23    2    1    2    0    0  0.12824343634E+03  0.23125221350E+02 -0.31695839404E+03  0.36477775329E+03  0.12497612138E+03 0.  0.
          5    1    3    3  502    0 -0.15741149151E+01  0.41237185702E+02 -0.37024459545E+02  0.55640667924E+02  0.47000000000E+01 0. -1.
         -5    1    3    3    0  502  0.12981755125E+03 -0.18111964352E+02 -0.27993393450E+03  0.30913708536E+03  0.47000000000E+01 0. -1.
        -11    1    1    2    0    0 -0.10819649216E+02 -0.28472348048E+02  0.46192308874E+01  0.30807088576E+02  0.00000000000E+00 0. -1.
         11    1    1    2    0    0 -0.11742378712E+03  0.53471266984E+01 -0.95621616521E+02  0.15152699790E+03  0.00000000000E+00 0.  1.
<mgrwt>
<rscale>  0 0.17463143E+03</rscale>
<asrwt>0</asrwt>
<pdfrwt beam="1">  1        1 0.10703928E-01 0.18055522E+03</pdfrwt>
<pdfrwt beam="2">  1       -1 0.73467122E-01 0.18055522E+03</pdfrwt>
<totfact> 0.11273312E+03</totfact>
</mgrwt>
</event>
<event>
 7    1  0.6095443E-006  0.1637363E+03  0.7546771E-02  0.1192250E+00
         -1   -1    0    0    0  501 -0.00000000000E+00  0.00000000000E+00  0.10258754332E+04  0.10258754332E+04  0.00000000000E+00 0.  1.
          1   -1    0    0  501    0  0.00000000000E+00 -0.00000000000E+00 -0.22385638540E+02  0.22385638540E+02  0.00000000000E+00 0. -1.
         23    2    1    2    0    0  0.10575263517E+03 -0.13666275275E+01  0.59274923664E+03  0.61494816449E+03  0.12499639977E+03 0.  0.
          5    1    3    3  502    0  0.70773479406E+02  0.57916843641E+02  0.39609368956E+03  0.40654095375E+03  0.47000000000E+01 0. -1.
         -5    1    3    3    0  502  0.34979155765E+02 -0.59283471169E+02  0.19665554708E+03  0.20840721074E+03  0.47000000000E+01 0. -1.
        -11    1    1    2    0    0 -0.53026429542E+02  0.43657937150E+02  0.24138864618E+03  0.25097070788E+03  0.00000000000E+00 0.  1.
         11    1    1    2    0    0 -0.52726205630E+02 -0.42291309622E+02  0.16935191184E+03  0.18234219937E+03  0.00000000000E+00 0. -1.
<mgrwt>
<rscale>  0 0.15689248E+03</rscale>
<asrwt>0</asrwt>
<pdfrwt beam="2">  1        1 0.34439452E-02 0.16373634E+03</pdfrwt>
<pdfrwt beam="1">  1       -1 0.15782695E+00 0.16373634E+03</pdfrwt>
<totfact> 0.91585070E+02</totfact>
</mgrwt>
</event>
<event>
 7    1  0.6095443E-006  0.2443163E+03  0.7546771E-02  0.1119550E+00
          4   -1    0    0  501    0  0.00000000000E+00  0.00000000000E+00  0.12481642022E+04  0.12481642022E+04  0.00000000000E+00 0. -1.
         -4   -1    0    0    0  501 -0.00000000000E+00 -0.00000000000E+00 -0.53113474578E+02  0.53113474578E+02  0.00000000000E+00 0.  1.
         23    2    1    2    0    0 -0.18629024156E+03 -0.96755258992E+02  0.35745789935E+03  0.43297414159E+03  0.12499929293E+03 0.  0.
          5    1    3    3  502    0 -0.51681046485E+02 -0.78402094500E+02  0.77827544809E+02  0.12205341338E+03  0.47000000000E+01 0. -1.
         -5    1    3    3    0  502 -0.13460919507E+03 -0.18353164493E+02  0.27963035454E+03  0.31092072820E+03  0.47000000000E+01 0. -1.
        -11    1    1    2    0    0  0.10276528866E+03  0.72867277708E+01  0.30887962305E+03  0.32560777400E+03  0.00000000000E+00 0.  1.
         11    1    1    2    0    0  0.83524952898E+02  0.89468531222E+02  0.52871320520E+03  0.54269576116E+03  0.00000000000E+00 0. -1.
<mgrwt>
<rscale>  0 0.24036412E+03</rscale>
<asrwt>0</asrwt>
<pdfrwt beam="1">  1        4 0.19202524E+00 0.24431631E+03</pdfrwt>
<pdfrwt beam="2">  1       -4 0.81713047E-02 0.24431631E+03</pdfrwt>
<totfact> 0.31457304E+01</totfact>
</mgrwt>
</event>
<event>
 7    1  0.6095443E-006  0.1718257E+03  0.7546771E-02  0.1182471E+00
         -1   -1    0    0    0  501 -0.00000000000E+00  0.00000000000E+00  0.56192067057E+03  0.56192067057E+03  0.00000000000E+00 0.  1.
          1   -1    0    0  501    0  0.00000000000E+00 -0.00000000000E+00 -0.57842424216E+02  0.57842424216E+02  0.00000000000E+00 0. -1.
         23    2    1    2    0    0 -0.34637526166E+02 -0.11269329631E+03  0.40872940892E+03  0.44337772703E+03  0.12499816741E+03 0.  0.
          5    1    3    3  502    0 -0.32306357301E+02 -0.64227793666E+02  0.67645213265E+02  0.98827501633E+02  0.47000000000E+01 0.  1.
         -5    1    3    3    0  502 -0.23311688654E+01 -0.48465502643E+02  0.34108419565E+03  0.34455022539E+03  0.47000000000E+01 0.  1.
        -11    1    1    2    0    0  0.18773260588E+02  0.10001041835E+03  0.11111851144E+03  0.15067130675E+03  0.00000000000E+00 0.  1.
         11    1    1    2    0    0  0.15864265578E+02  0.12682877954E+02 -0.15769674003E+02  0.25714061011E+02  0.00000000000E+00 0. -1.
<mgrwt>
<rscale>  0 0.16564155E+03</rscale>
<asrwt>0</asrwt>
<pdfrwt beam="2">  1        1 0.88988349E-02 0.17182572E+03</pdfrwt>
<pdfrwt beam="1">  1       -1 0.86449330E-01 0.17182572E+03</pdfrwt>
<totfact> 0.10313022E+03</totfact>
</mgrwt>
</event>
<event>
 7    1  0.6095443E-006  0.2811137E+03  0.7546771E-02  0.1097515E+00
         -4   -1    0    0    0  501 -0.00000000000E+00  0.00000000000E+00  0.40401887344E+03  0.40401887344E+03  0.00000000000E+00 0.  1.
          4   -1    0    0  501    0  0.00000000000E+00 -0.00000000000E+00 -0.18380139933E+03  0.18380139933E+03  0.00000000000E+00 0. -1.
         23    2    1    2    0    0  0.23155399820E+03 -0.98902894126E+02  0.10803194660E+03  0.30115742012E+03  0.12500341458E+03 0.  0.
          5    1    3    3  502    0  0.38734716846E+02 -0.96292188781E+01 -0.27851427474E+02  0.48896749971E+02  0.47000000000E+01 0.  1.
         -5    1    3    3    0  502  0.19281928136E+03 -0.89273675248E+02  0.13588337407E+03  0.25226067015E+03  0.47000000000E+01 0.  1.
        -11    1    1    2    0    0 -0.20718759190E+03  0.82423567358E+02  0.12379346514E+03  0.25503953557E+03  0.00000000000E+00 0. -1.
         11    1    1    2    0    0 -0.24366406307E+02  0.16479326768E+02 -0.11607937628E+02  0.31623317078E+02  0.00000000000E+00 0.  1.
<mgrwt>
<rscale>  0 0.27668131E+03</rscale>
<asrwt>0</asrwt>
<pdfrwt beam="2">  1        4 0.28277138E-01 0.28111366E+03</pdfrwt>
<pdfrwt beam="1">  1       -4 0.62156750E-01 0.28111366E+03</pdfrwt>
<totfact> 0.54049236E+01</totfact>
</mgrwt>
</event>
<event>
 7    1  0.6095443E-006  0.1525460E+03  0.7546771E-02  0.1206278E+00
         -4   -1    0    0    0  501 -0.00000000000E+00  0.00000000000E+00  0.18448867402E+03  0.18448867402E+03  0.00000000000E+00 0.  1.
          4   -1    0    0  501    0  0.00000000000E+00 -0.00000000000E+00 -0.11205992594E+03  0.11205992594E+03  0.00000000000E+00 0. -1.
         23    2    1    2    0    0 -0.87206371515E+02  0.63229233383E+01  0.76538084383E+02  0.17067035858E+03  0.12500144937E+03 0.  0.
          5    1    3    3  502    0 -0.53942378259E+02 -0.38013008114E+02 -0.10888270133E+02  0.67047843996E+02  0.47000000000E+01 0. -1.
         -5    1    3    3    0  502 -0.33263993256E+02  0.44335931452E+02  0.87426354516E+02  0.10362251459E+03  0.47000000000E+01 0. -1.
        -11    1    1    2    0    0  0.37023641287E+02  0.29906771666E+02 -0.32654205489E+02  0.57718819649E+02  0.00000000000E+00 0. -1.
         11    1    1    2    0    0  0.50182730228E+02 -0.36229695004E+02  0.28544869185E+02  0.68159421726E+02  0.00000000000E+00 0.  1.
<mgrwt>
<rscale>  0 0.14537190E+03</rscale>
<asrwt>0</asrwt>
<pdfrwt beam="2">  1        4 0.17239989E-01 0.15254604E+03</pdfrwt>
<pdfrwt beam="1">  1       -4 0.28382873E-01 0.15254604E+03</pdfrwt>
<totfact> 0.58975841E+02</totfact>
</mgrwt>
</event>
<event>
 7    1  0.6095443E-006  0.1380161E+03  0.7546771E-02  0.1227900E+00
          2   -1    0    0  501    0  0.00000000000E+00  0.00000000000E+00  0.74835997336E+03  0.74835997336E+03  0.00000000000E+00 0.  1.
         -2   -1    0    0    0  501 -0.00000000000E+00 -0.00000000000E+00 -0.20163452591E+02  0.20163452591E+02  0.00000000000E+00 0. -1.
         23    2    1    2    0    0  0.58508586844E+02 -0.61881767484E+00  0.41396642511E+03  0.43636754347E+03  0.12499917683E+03 0.  0.
          5    1    3    3  502    0  0.21572874899E+02 -0.91368555855E-01  0.13993602565E+01  0.22123414943E+02  0.47000000000E+01 0. -1.
         -5    1    3    3    0  502  0.36935711945E+02 -0.52744911899E+00  0.41256706485E+03  0.41424412853E+03  0.47000000000E+01 0. -1.
        -11    1    1    2    0    0  0.11077537031E+02 -0.30370298499E+01  0.12979969786E+01  0.11559419238E+02  0.00000000000E+00 0. -1.
         11    1    1    2    0    0 -0.69586123875E+02  0.36558475248E+01  0.31293209869E+03  0.32059646324E+03  0.00000000000E+00 0.  1.
<mgrwt>
<rscale>  0 0.12970105E+03</rscale>
<asrwt>0</asrwt>
<pdfrwt beam="1">  1        2 0.11513228E+00 0.13801606E+03</pdfrwt>
<pdfrwt beam="2">  1       -2 0.31020702E-02 0.13801606E+03</pdfrwt>
<totfact> 0.14829678E+04</totfact>
</mgrwt>
</event>
<event>
 7    1  0.6095443E-006  0.1296340E+03  0.7546771E-02  0.1241991E+00
         -3   -1    0    0    0  501 -0.00000000000E+00  0.00000000000E+00  0.75033617946E+02  0.75033617946E+02  0.00000000000E+00 0.  1.
          3   -1    0    0  501    0  0.00000000000E+00 -0.00000000000E+00 -0.18019744121E+03  0.18019744121E+03  0.00000000000E+00 0. -1.
         23    2    1    2    0    0  0.75224972313E+01  0.33524493747E+02 -0.32176229470E+02  0.13356756054E+03  0.12499801534E+03 0.  0.
          5    1    3    3  502    0  0.26477214522E+02  0.44225352838E+01  0.42836934534E+02  0.50771002230E+02  0.47000000000E+01 0. -1.
         -5    1    3    3    0  502 -0.18954717291E+02  0.29101958463E+02 -0.75013164004E+02  0.82796558309E+02  0.47000000000E+01 0. -1.
        -11    1    1    2    0    0 -0.39422835191E+02  0.11899104633E+02 -0.38116564616E+02  0.56112575451E+02  0.00000000000E+00 0. -1.
         11    1    1    2    0    0  0.31900337960E+02 -0.45423598380E+02 -0.34871029174E+02  0.65550923162E+02  0.00000000000E+00 0.  1.
<mgrwt>
<rscale>  0 0.12067315E+03</rscale>
<asrwt>0</asrwt>
<pdfrwt beam="2">  1        3 0.27722683E-01 0.12963404E+03</pdfrwt>
<pdfrwt beam="1">  1       -3 0.11543634E-01 0.12963404E+03</pdfrwt>
<totfact> 0.16427770E+03</totfact>
</mgrwt>
</event>
<event>
 7    1  0.6095443E-006  0.2042914E+03  0.7546771E-02  0.1150165E+00
         -2   -1    0    0    0  501 -0.00000000000E+00  0.00000000000E+00  0.10880321919E+04  0.10880321919E+04  0.00000000000E+00 0.  1.
          2   -1    0    0  501    0  0.00000000000E+00 -0.00000000000E+00 -0.38588787211E+02  0.38588787211E+02  0.00000000000E+00 0. -1.
         23    2    1    2    0    0  0.13603473564E+03 -0.87205613817E+02  0.71984598729E+03  0.74827349926E+03  0.12499886360E+03 0.  0.
          5    1    3    3  502    0  0.33228254555E+02  0.32244359100E+02  0.17315999091E+03  0.17930501400E+03  0.47000000000E+01 0.  1.
         -5    1    3    3    0  502  0.10280648109E+03 -0.11944997292E+03  0.54668599638E+03  0.56896848526E+03  0.47000000000E+01 0.  1.
        -11    1    1    2    0    0 -0.73314904662E+02  0.31376258298E+02  0.25088662343E+03  0.26325585017E+03  0.00000000000E+00 0.  1.
         11    1    1    2    0    0 -0.62719830983E+02  0.55829355520E+02  0.78710793983E+02  0.11509162969E+03  0.00000000000E+00 0. -1.
<mgrwt>
<rscale>  0 0.19949611E+03</rscale>
<asrwt>0</asrwt>
<pdfrwt beam="2">  1        2 0.59367373E-02 0.20429142E+03</pdfrwt>
<pdfrwt beam="1">  1       -2 0.16738954E+00 0.20429142E+03</pdfrwt>
<totfact> 0.29608103E+02</totfact>
</mgrwt>
</event>
<event>
 7    1  0.6095443E-006  0.1419427E+03  0.7546771E-02  0.1221169E+00
          1   -1    0    0  501    0  0.00000000000E+00  0.00000000000E+00  0.13753245872E+03  0.13753245872E+03  0.00000000000E+00 0. -1.
         -1   -1    0    0    0  501 -0.00000000000E+00 -0.00000000000E+00 -0.13473665620E+03  0.13473665620E+03  0.00000000000E+00 0.  1.
         23    2    1    2    0    0 -0.37175292692E+02 -0.56034505602E+02 -0.44830831172E+02  0.14885405685E+03  0.12500343441E+03 0.  0.
          5    1    3    3  502    0  0.36982331204E+02 -0.39986473982E+02 -0.48024876142E+02  0.72767366664E+02  0.47000000000E+01 0. -1.
         -5    1    3    3    0  502 -0.74157623896E+02 -0.16048031620E+02  0.31940449695E+01  0.76086690190E+02  0.47000000000E+01 0. -1.
        -11    1    1    2    0    0  0.44219902573E+01  0.69413736947E+02  0.53240279531E+02  0.87591941635E+02  0.00000000000E+00 0. -1.
         11    1    1    2    0    0  0.32753302435E+02 -0.13379231345E+02 -0.56136458398E+01  0.35823116439E+02  0.00000000000E+00 0.  1.
<mgrwt>
<rscale>  0 0.13432996E+03</rscale>
<asrwt>0</asrwt>
<pdfrwt beam="1">  1        1 0.21158840E-01 0.14194269E+03</pdfrwt>
<pdfrwt beam="2">  1       -1 0.20728716E-01 0.14194269E+03</pdfrwt>
<totfact> 0.43345500E+03</totfact>
</mgrwt>
</event>
<event>
 6    1  0.6095443E-006  0.3823996E+03  0.7546771E-02  0.1066168E+00
          2   -1    0    0  501    0  0.00000000000E+00  0.00000000000E+00  0.15056522540E+04  0.15056522540E+04  0.00000000000E+00 0. -1.
         -2   -1    0    0    0  501 -0.00000000000E+00 -0.00000000000E+00 -0.84344077749E+02  0.84344077749E+02  0.00000000000E+00 0.  1.
          5    1    1    2  502    0  0.12869088111E+03  0.58447785535E+00  0.42016702862E+03  0.43945887912E+03  0.47000000000E+01 0. -1.
         -5    1    1    2    0  502  0.41149814764E+02  0.14734645747E+03  0.38728281670E+02  0.15788051047E+03  0.47000000000E+01 0.  1.
        -11    1    1    2    0    0 -0.15812435865E+03 -0.14768713937E+03  0.95400658314E+03  0.97823482079E+03  0.00000000000E+00 0. -1.
         11    1    1    2    0    0 -0.11716337219E+02 -0.24379595864E+00  0.84062828484E+01  0.14422121398E+02  0.00000000000E+00 0.  1.
<mgrwt>
<rscale>  0 0.34147851E+03</rscale>
<asrwt>0</asrwt>
<pdfrwt beam="1">  1        2 0.23163879E+00 0.38239958E+03</pdfrwt>
<pdfrwt beam="2">  1       -2 0.12976013E-01 0.38239958E+03</pdfrwt>
<totfact> 0.58462034E+02</totfact>
</mgrwt>
</event>
<event>
 7    1  0.6095443E-006  0.1285585E+03  0.7546771E-02  0.1244173E+00
          1   -1    0    0  501    0  0.00000000000E+00  0.00000000000E+00  0.44761443996E+02  0.44761443996E+02  0.00000000000E+00 0. -1.
         -1   -1    0    0    0  501 -0.00000000000E+00 -0.00000000000E+00 -0.31623141764E+03  0.31623141764E+03  0.00000000000E+00 0.  1.
         23    2    1    2    0    0  0.30112985772E+02  0.90580377959E+00 -0.21367663233E+03  0.24936918145E+03  0.12497869043E+03 0.  0.
          5    1    3    3  502    0  0.40433138992E+02  0.22517879172E+01 -0.57988577425E+01  0.41177979900E+02  0.47000000000E+01 0.  1.
         -5    1    3    3    0  502 -0.10320153219E+02 -0.13459841376E+01 -0.20787777459E+03  0.20819120155E+03  0.47000000000E+01 0.  1.
        -11    1    1    2    0    0 -0.79839461734E+01 -0.69635459569E+01  0.24233820366E+02  0.26448297078E+02  0.00000000000E+00 0. -1.
         11    1    1    2    0    0 -0.22129039599E+02  0.60577421773E+01 -0.82027161680E+02  0.85175383106E+02  0.00000000000E+00 0.  1.
<mgrwt>
<rscale>  0 0.11935032E+03</rscale>
<asrwt>0</asrwt>
<pdfrwt beam="1">  1        1 0.68863761E-02 0.12855849E+03</pdfrwt>
<pdfrwt beam="2">  1       -1 0.48650986E-01 0.12855849E+03</pdfrwt>
<totfact> 0.44006282E+03</totfact>
</mgrwt>
</event>
<event>
 7    1  0.6095443E-006  0.1380417E+03  0.7546771E-02  0.1227447E+00
         -2   -1    0    0    0  501 -0.00000000000E+00  0.00000000000E+00  0.41072406612E+02  0.41072406612E+02  0.00000000000E+00 0. -1.
          2   -1    0    0  501    0  0.00000000000E+00 -0.00000000000E+00 -0.49225985376E+03  0.49225985376E+03  0.00000000000E+00 0.  1.
         23    2    1    2    0    0  0.49593318946E+02  0.31172192032E+02 -0.11381380394E+03  0.17891081759E+03  0.12499718335E+03 0.  0.
          5    1    3    3  502    0 -0.58989533419E+01  0.67570369504E+02 -0.77567760902E+02  0.10314746733E+03  0.47000000000E+01 0.  1.
         -5    1    3    3    0  502  0.55492272287E+02 -0.36398177473E+02 -0.36246043036E+02  0.75763350261E+02  0.47000000000E+01 0.  1.
        -11    1    1    2    0    0 -0.13603560700E+02 -0.53568678987E+02 -0.10971109720E+03  0.12284618464E+03  0.00000000000E+00 0. -1.
         11    1    1    2    0    0 -0.35989758245E+02  0.22396486955E+02 -0.22766254601E+03  0.23157525814E+03  0.00000000000E+00 0.  1.
<mgrwt>
<rscale>  0 0.13000598E+03</rscale>
<asrwt>0</asrwt>
<pdfrwt beam="2">  1        2 0.75732286E-01 0.13804166E+03</pdfrwt>
<pdfrwt beam="1">  1       -2 0.63188317E-02 0.13804166E+03</pdfrwt>
<totfact> 0.82774503E+03</totfact>
</mgrwt>
</event>
<event>
 7    1  0.6095443E-006  0.1456777E+03  0.7546771E-02  0.1213044E+00
         -1   -1    0    0    0  501 -0.00000000000E+00  0.00000000000E+00  0.89777292976E+02  0.89777292976E+02  0.00000000000E+00 0.  1.
          1   -1    0    0  501    0  0.00000000000E+00 -0.00000000000E+00 -0.20712689682E+03  0.20712689682E+03  0.00000000000E+00 0. -1.
         23    2    1    2    0    0  0.34182403613E+02 -0.77171380138E+02 -0.45024851485E+02  0.15247702784E+03  0.11873562287E+03 0.  0.
          5    1    3    3  502    0  0.17066953001E+01 -0.10210048714E+03 -0.43904004996E+02  0.11125229857E+03  0.47000000000E+01 0. -1.
         -5    1    3    3    0  502  0.32475708312E+02  0.24929107000E+02 -0.11208464888E+01  0.41224729266E+02  0.47000000000E+01 0.  1.
        -11    1    1    2    0    0 -0.14157900044E+02 -0.54860758531E+00 -0.61892815982E+02  0.63493840442E+02  0.00000000000E+00 0. -1.
         11    1    1    2    0    0 -0.20024503568E+02  0.77719987724E+02 -0.10431936376E+02  0.80933321515E+02  0.00000000000E+00 0.  1.
<mgrwt>
<rscale>  0 0.14021162E+03</rscale>
<asrwt>0</asrwt>
<pdfrwt beam="2">  1        1 0.31865676E-01 0.14567775E+03</pdfrwt>
<pdfrwt beam="1">  1       -1 0.13811892E-01 0.14567775E+03</pdfrwt>
<totfact> 0.49417518E+03</totfact>
</mgrwt>
</event>
<event>
 7    1  0.6095443E-006  0.2223445E+03  0.7546771E-02  0.1135412E+00
          2   -1    0    0  501    0  0.00000000000E+00  0.00000000000E+00  0.95334607946E+02  0.95334607946E+02  0.00000000000E+00 0. -1.
         -2   -1    0    0    0  501 -0.00000000000E+00 -0.00000000000E+00 -0.48000908284E+03  0.48000908284E+03  0.00000000000E+00 0.  1.
         23    2    1    2    0    0 -0.54050684932E+02 -0.17575570335E+03 -0.20813103326E+03  0.30455802802E+03  0.12500208649E+03 0.  0.
          5    1    3    3  502    0 -0.43161377018E+02 -0.19496602362E+03 -0.18556402833E+03  0.27263666930E+03  0.47000000000E+01 0. -1.
         -5    1    3    3    0  502 -0.10889307914E+02  0.19210320273E+02 -0.22567004922E+02  0.31921358727E+02  0.47000000000E+01 0. -1.
        -11    1    1    2    0    0  0.72262033974E+02  0.90872618102E+02 -0.12116977741E+03  0.16781462758E+03  0.00000000000E+00 0.  1.
         11    1    1    2    0    0 -0.18211349042E+02  0.84883085248E+02 -0.55373664233E+02  0.10297103518E+03  0.00000000000E+00 0. -1.
<mgrwt>
<rscale>  0 0.21796102E+03</rscale>
<asrwt>0</asrwt>
<pdfrwt beam="1">  1        2 0.14666863E-01 0.22234447E+03</pdfrwt>
<pdfrwt beam="2">  1       -2 0.73847550E-01 0.22234447E+03</pdfrwt>
<totfact> 0.67798841E+02</totfact>
</mgrwt>
</event>
<event>
 7    1  0.6095443E-006  0.1370169E+03  0.7546771E-02  0.1231028E+00
          1   -1    0    0  501    0  0.00000000000E+00  0.00000000000E+00  0.32758808660E+03  0.32758808660E+03  0.00000000000E+00 0. -1.
         -1   -1    0    0    0  501 -0.00000000000E+00 -0.00000000000E+00 -0.47699926845E+02  0.47699926845E+02  0.00000000000E+00 0.  1.
         23    2    1    2    0    0 -0.16720472222E+02 -0.53589156618E+02  0.10646250709E+03  0.17351628695E+03  0.12498905761E+03 0.  0.
          5    1    3    3  502    0 -0.67964505432E+02 -0.17130655568E+02  0.35937826449E+02  0.78906594963E+02  0.47000000000E+01 0.  1.
         -5    1    3    3    0  502  0.51244033210E+02 -0.36458501049E+02  0.70524680645E+02  0.94609691990E+02  0.47000000000E+01 0.  1.
        -11    1    1    2    0    0 -0.33837665120E+02  0.73968365634E+01  0.57017122207E+02  0.66713214559E+02  0.00000000000E+00 0.  1.
         11    1    1    2    0    0  0.50558137342E+02  0.46192320054E+02  0.11640853046E+03  0.13505851194E+03  0.00000000000E+00 0. -1.
<mgrwt>
<rscale>  0 0.12762176E+03</rscale>
<asrwt>0</asrwt>
<pdfrwt beam="1">  1        1 0.50398166E-01 0.13701692E+03</pdfrwt>
<pdfrwt beam="2">  1       -1 0.73384505E-02 0.13701692E+03</pdfrwt>
<totfact> 0.73372509E+03</totfact>
</mgrwt>
</event>
<event>
 7    1  0.6095443E-006  0.1642694E+03  0.7546771E-02  0.1190997E+00
         -1   -1    0    0    0  501 -0.00000000000E+00  0.00000000000E+00  0.11489680274E+04  0.11489680274E+04  0.00000000000E+00 0.  1.
          1   -1    0    0  501    0  0.00000000000E+00 -0.00000000000E+00 -0.66702138213E+02  0.66702138213E+02  0.00000000000E+00 0. -1.
         23    2    1    2    0    0  0.10643579548E+03  0.55309889220E+01  0.10608946507E+04  0.10735370909E+04  0.12500102148E+03 0.  0.
          5    1    3    3  502    0  0.97220831214E+02 -0.44829686030E+02  0.83602888828E+03  0.84286890013E+03  0.47000000000E+01 0. -1.
         -5    1    3    3    0  502  0.92149642706E+01  0.50360674952E+02  0.22486576237E+03  0.23066819078E+03  0.47000000000E+01 0. -1.
        -11    1    1    2    0    0 -0.10684776134E+03  0.20967785035E+02  0.32135022017E+02  0.11352863847E+03  0.00000000000E+00 0.  1.
         11    1    1    2    0    0  0.41196585719E+00 -0.26498773957E+02 -0.10763783487E+02  0.28604436230E+02  0.00000000000E+00 0. -1.
<mgrwt>
<rscale>  0 0.15797916E+03</rscale>
<asrwt>0</asrwt>
<pdfrwt beam="2">  1        1 0.10261868E-01 0.16426937E+03</pdfrwt>
<pdfrwt beam="1">  1       -1 0.17676430E+00 0.16426937E+03</pdfrwt>
<totfact> 0.15139570E+02</totfact>
</mgrwt>
</event>
