<event>
 7    1  0.6833760E-006  0.1043034E+03  0.7561462E-02  0.1271498E+00
         -3   -1    0    0    0  501 -0.00000000000E+00  0.00000000000E+00  0.56871578845E+02  0.56871578845E+02  0.00000000000E+00 0.  1.
          3   -1    0    0  501    0  0.00000000000E+00 -0.00000000000E+00 -0.28959636038E+03  0.28959636038E+03  0.00000000000E+00 0. -1.
         23    2    1    2    0    0 -0.34325596274E+02 -0.36709826694E+02 -0.66972327613E+02  0.15052821043E+03  0.12509033350E+03 0.  0.
          5    1    3    3  502    0 -0.71993263801E+02  0.10301165208E+02 -0.47975857386E+02  0.87225565801E+02  0.41800000000E+01 0. -1.
         -5    1    3    3    0  502  0.37667667527E+02 -0.47010991901E+02 -0.18996470227E+02  0.63302644633E+02  0.41800000000E+01 0. -1.
        -11    1    1    2    0    0  0.47224397795E+02  0.13996543345E+02 -0.16227921678E+03  0.16958947837E+03  0.00000000000E+00 0. -1.
         11    1    1    2    0    0 -0.12898801522E+02  0.22713283349E+02 -0.34732371383E+01  0.26350250424E+02  0.00000000000E+00 0.  1.
</event>
<event>
 7    1  0.6833760E-006  0.1715653E+03  0.7561462E-02  0.1176225E+00
         -2   -1    0    0    0  501 -0.00000000000E+00  0.00000000000E+00  0.11458949650E+03  0.11458949650E+03  0.00000000000E+00 0.  1.
          2   -1    0    0  501    0  0.00000000000E+00 -0.00000000000E+00 -0.28009048285E+03  0.28009048285E+03  0.00000000000E+00 0. -1.
         23    2    1    2    0    0  0.56173608974E+02  0.12586333829E+03 -0.45537628943E+02  0.19161805885E+03  0.12508697197E+03 0.  0.
          5    1    3    3  502    0  0.66671491257E+02  0.11270636774E+02 -0.34265741102E+02  0.75919222948E+02  0.41800000000E+01 0. -1.
         -5    1    3    3    0  502 -0.10497882283E+02  0.11459270151E+03 -0.11271887841E+02  0.11569883590E+03  0.41800000000E+01 0. -1.
        -11    1    1    2    0    0  0.19109207878E+02 -0.87606416875E+01 -0.32326000406E+02  0.38560095574E+02  0.00000000000E+00 0. -1.
         11    1    1    2    0    0 -0.75282816852E+02 -0.11710269660E+03 -0.87637356997E+02  0.16450182493E+03  0.00000000000E+00 0.  1.
</event>
<event>
 7    1  0.6833760E-006  0.1407600E+03  0.7561462E-02  0.1212310E+00
          1   -1    0    0  501    0  0.00000000000E+00  0.00000000000E+00  0.64807575330E+03  0.64807575330E+03  0.00000000000E+00 0. -1.
         -1   -1    0    0    0  501 -0.00000000000E+00 -0.00000000000E+00 -0.36524224428E+02  0.36524224428E+02  0.00000000000E+00 0.  1.
         23    2    1    2    0    0  0.78534791569E+02 -0.73283306724E+02  0.28646784226E+03  0.33052745137E+03  0.12508563037E+03 0.  0.
          5    1    3    3  502    0  0.57871528971E+02  0.80218413636E+01  0.20615920922E+03  0.21431881801E+03  0.41800000000E+01 0. -1.
         -5    1    3    3    0  502  0.20663262597E+02 -0.81305148088E+02  0.80308633040E+02  0.11620863336E+03  0.41800000000E+01 0. -1.
        -11    1    1    2    0    0 -0.58679935069E+02 -0.43297626849E+01  0.11381672701E+03  0.12812622281E+03  0.00000000000E+00 0.  1.
         11    1    1    2    0    0 -0.19854856500E+02  0.77613069409E+02  0.21126695960E+03  0.22594630355E+03  0.00000000000E+00 0. -1.
</event>
<event>
 7    1  0.6833760E-006  0.1202000E+03  0.7561462E-02  0.1242767E+00
         -2   -1    0    0    0  501 -0.00000000000E+00  0.00000000000E+00  0.21191712694E+03  0.21191712694E+03  0.00000000000E+00 0.  1.
          2   -1    0    0  501    0  0.00000000000E+00 -0.00000000000E+00 -0.79177146689E+02  0.79177146689E+02  0.00000000000E+00 0. -1.
         23    2    1    2    0    0  0.38028495996E+02 -0.48469001153E+02  0.11217368067E+03  0.17896786380E+03  0.12510456050E+03 0.  0.
          5    1    3    3  502    0  0.51158450133E+02 -0.80441547408E+02  0.50046066716E+02  0.10775022396E+03  0.41800000000E+01 0. -1.
         -5    1    3    3    0  502 -0.13129954137E+02  0.31972546255E+02  0.62127613951E+02  0.71217639844E+02  0.41800000000E+01 0. -1.
        -11    1    1    2    0    0  0.16554979830E+02  0.52870006326E+02  0.12226184841E+02  0.56734332831E+02  0.00000000000E+00 0. -1.
         11    1    1    2    0    0 -0.54583475826E+02 -0.44010051722E+01  0.83401147418E+01  0.55392076994E+02  0.00000000000E+00 0.  1.
</event>
<event>
 7    1  0.6833760E-006  0.9366045E+02  0.7561462E-02  0.1294222E+00
          1   -1    0    0  501    0  0.00000000000E+00  0.00000000000E+00  0.37838905224E+03  0.37838905224E+03  0.00000000000E+00 0. -1.
         -1   -1    0    0    0  501 -0.00000000000E+00 -0.00000000000E+00 -0.35398601425E+02  0.35398601425E+02  0.00000000000E+00 0.  1.
         23    2    1    2    0    0 -0.36908676425E+02  0.24713760106E+02  0.19845998078E+03  0.23876246509E+03  0.12509248750E+03 0.  0.
          5    1    3    3  502    0 -0.48656494936E+02 -0.25646882632E+02  0.17178773947E+03  0.18042648619E+03  0.41800000000E+01 0.  1.
         -5    1    3    3    0  502  0.11747818511E+02  0.50360642738E+02  0.26672241311E+02  0.58335978892E+02  0.41800000000E+01 0.  1.
        -11    1    1    2    0    0 -0.16374670200E+02 -0.21326942878E+02  0.74302787409E+01  0.27895830492E+02  0.00000000000E+00 0.  1.
         11    1    1    2    0    0  0.53283346625E+02 -0.33868172280E+01  0.13710019129E+03  0.14712935809E+03  0.00000000000E+00 0. -1.
</event>
<event>
 7    1  0.6833760E-006  0.9815688E+02  0.7561462E-02  0.1284220E+00
         -1   -1    0    0    0  501 -0.00000000000E+00  0.00000000000E+00  0.72525334998E+02  0.72525334998E+02  0.00000000000E+00 0.  1.
          1   -1    0    0  501    0  0.00000000000E+00 -0.00000000000E+00 -0.27000214758E+03  0.27000214758E+03  0.00000000000E+00 0. -1.
         23    2    1    2    0    0 -0.49359568289E+02 -0.79353667161E+01 -0.19916907814E+02  0.13617546912E+03  0.12509091952E+03 0.  0.
          5    1    3    3  502    0 -0.77845808336E+02 -0.33355699484E+02  0.12759173926E+02  0.85748711260E+02  0.41800000000E+01 0. -1.
         -5    1    3    3    0  502  0.28486240047E+02  0.25420332768E+02 -0.32676081741E+02  0.50426757857E+02  0.41800000000E+01 0. -1.
        -11    1    1    2    0    0  0.31705473630E+02 -0.21837864119E+02 -0.16967508382E+02  0.42071673464E+02  0.00000000000E+00 0.  1.
         11    1    1    2    0    0  0.17654094659E+02  0.29773230835E+02 -0.16059239638E+03  0.16428033999E+03  0.00000000000E+00 0. -1.
</event>
<event>
 6    1  0.6833760E-006  0.1120187E+03  0.7561462E-02  0.1256877E+00
         -1   -1    0    0    0  501 -0.00000000000E+00  0.00000000000E+00  0.13607618520E+03  0.13607618520E+03  0.00000000000E+00 0.  1.
          1   -1    0    0  501    0  0.00000000000E+00 -0.00000000000E+00 -0.16672117760E+03  0.16672117760E+03  0.00000000000E+00 0. -1.
          5    1    1    2  502    0  0.28549262452E+02  0.64128719297E+02 -0.40564439249E+02  0.81181889340E+02  0.41800000000E+01 0. -1.
         -5    1    1    2    0  502 -0.31414625655E+02 -0.61638158583E+02  0.80152907556E+02  0.10596274009E+03  0.41800000000E+01 0.  1.
        -11    1    1    2    0    0  0.43578961194E+02 -0.31132765750E+01 -0.58996000628E+02  0.73412168201E+02  0.00000000000E+00 0. -1.
         11    1    1    2    0    0 -0.40713597991E+02  0.62271586071E+00 -0.11237460074E+02  0.42240565164E+02  0.00000000000E+00 0.  1.
</event>
<event>
 7    1  0.6833760E-006  0.7664307E+02  0.7561462E-02  0.1338857E+00
          2   -1    0    0  501    0  0.00000000000E+00  0.00000000000E+00  0.14299140349E+03  0.14299140349E+03  0.00000000000E+00 0. -1.
         -2   -1    0    0    0  501 -0.00000000000E+00 -0.00000000000E+00 -0.16729211824E+03  0.16729211824E+03  0.00000000000E+00 0.  1.
         23    2    1    2    0    0 -0.11386194775E+02 -0.35876329178E+02 -0.11595481557E+03  0.17467233870E+03  0.12509256663E+03 0.  0.
          5    1    3    3  502    0 -0.26106542743E+02 -0.37500244405E+02  0.10676684437E+02  0.47109276104E+02  0.41800000000E+01 0.  1.
         -5    1    3    3    0  502  0.14720347968E+02  0.16239152276E+01 -0.12663150001E+03  0.12756306260E+03  0.41800000000E+01 0.  1.
        -11    1    1    2    0    0 -0.35082445356E+02  0.27992813785E+02  0.18406475156E+02  0.48509524049E+02  0.00000000000E+00 0.  1.
         11    1    1    2    0    0  0.46468640131E+02  0.78835153928E+01  0.73247625671E+02  0.87101658980E+02  0.00000000000E+00 0. -1.
</event>
<event>
 7    1  0.6833760E-006  0.1219903E+03  0.7561462E-02  0.1239849E+00
          4   -1    0    0  501    0  0.00000000000E+00  0.00000000000E+00  0.15355757819E+03  0.15355757819E+03  0.00000000000E+00 0.  1.
         -4   -1    0    0    0  501 -0.00000000000E+00 -0.00000000000E+00 -0.10451196255E+03  0.10451196255E+03  0.00000000000E+00 0. -1.
         23    2    1    2    0    0  0.11478787184E+02 -0.64177033915E+02  0.16287257098E+02  0.14199788811E+03  0.12509065211E+03 0.  0.
          5    1    3    3  502    0 -0.54147321164E+02 -0.12117580867E+02  0.16800078984E+02  0.58124721153E+02  0.41800000000E+01 0. -1.
         -5    1    3    3    0  502  0.65626108348E+02 -0.52059453048E+02 -0.51282188609E+00  0.83873166954E+02  0.41800000000E+01 0. -1.
        -11    1    1    2    0    0 -0.13978578051E+02 -0.17697626805E+02  0.25189307571E+02  0.33809878065E+02  0.00000000000E+00 0.  1.
         11    1    1    2    0    0  0.24997908675E+01  0.81874660720E+02  0.75690509727E+01  0.82261774568E+02  0.00000000000E+00 0. -1.
</event>
<event>
 7    1  0.6833760E-006  0.1945598E+03  0.7561462E-02  0.1154412E+00
          3   -1    0    0  501    0  0.00000000000E+00  0.00000000000E+00  0.54840264546E+02  0.54840264546E+02  0.00000000000E+00 0. -1.
         -3   -1    0    0    0  501 -0.00000000000E+00 -0.00000000000E+00 -0.80925651930E+03  0.80925651930E+03  0.00000000000E+00 0.  1.
         23    2    1    2    0    0  0.12128316160E+03 -0.11978029168E+03 -0.51370408574E+03  0.55551523502E+03  0.12509342538E+03 0.  0.
          5    1    3    3  502    0  0.91242375792E+02 -0.17415848575E+02 -0.33191935206E+03  0.34469756541E+03  0.41800000000E+01 0.  1.
         -5    1    3    3    0  502  0.30040785808E+02 -0.10236444311E+03 -0.18178473368E+03  0.21081766962E+03  0.41800000000E+01 0.  1.
        -11    1    1    2    0    0 -0.71041433568E+02  0.14198442864E+02 -0.63878307584E+02  0.96586330518E+02  0.00000000000E+00 0.  1.
         11    1    1    2    0    0 -0.50241728031E+02  0.10558184882E+03 -0.17683386143E+03  0.21199521830E+03  0.00000000000E+00 0. -1.
</event>
<event>
 7    1  0.6833760E-006  0.1222837E+03  0.7561462E-02  0.1239377E+00
          1   -1    0    0  501    0  0.00000000000E+00  0.00000000000E+00  0.35859479041E+03  0.35859479041E+03  0.00000000000E+00 0. -1.
         -1   -1    0    0    0  501 -0.00000000000E+00 -0.00000000000E+00 -0.47167108705E+02  0.47167108705E+02  0.00000000000E+00 0.  1.
         23    2    1    2    0    0 -0.46244702799E+02 -0.50452922766E+02  0.14171123640E+03  0.20103411690E+03  0.12509425119E+03 0.  0.
          5    1    3    3  502    0  0.39642467882E+02 -0.60871181386E+01  0.18485902102E+02  0.44359657838E+02  0.41800000000E+01 0. -1.
         -5    1    3    3    0  502 -0.85887170681E+02 -0.44365804627E+02  0.12322533430E+03  0.15667445906E+03  0.41800000000E+01 0. -1.
        -11    1    1    2    0    0  0.16002816039E+02  0.69781184876E+02  0.14321633242E+03  0.16011377754E+03  0.00000000000E+00 0. -1.
         11    1    1    2    0    0  0.30241886760E+02 -0.19328262111E+02  0.26500112876E+02  0.44614004679E+02  0.00000000000E+00 0.  1.
</event>
<event>
 6    1  0.6833760E-006  0.1455282E+03  0.7561462E-02  0.1206078E+00
         -1   -1    0    0    0  501 -0.00000000000E+00  0.00000000000E+00  0.60501907797E+02  0.60501907797E+02  0.00000000000E+00 0.  1.
          1   -1    0    0  501    0  0.00000000000E+00 -0.00000000000E+00 -0.69027525121E+03  0.69027525121E+03  0.00000000000E+00 0. -1.
          5    1    1    2  502    0 -0.25230274058E+02 -0.24712155400E+02 -0.47704922108E+02  0.59502011285E+02  0.41800000000E+01 0. -1.
         -5    1    1    2    0  502  0.11810934585E+03  0.35399195837E+02 -0.34958864414E+02  0.12822837144E+03  0.41800000000E+01 0.  1.
        -11    1    1    2    0    0 -0.67407289468E+02  0.37850442850E+02 -0.35158123171E+03  0.35998022333E+03  0.00000000000E+00 0.  1.
         11    1    1    2    0    0 -0.25471782320E+02 -0.48537483287E+02 -0.19552832518E+03  0.20306655295E+03  0.00000000000E+00 0. -1.
</event>
<event>
 7    1  0.6833760E-006  0.8368599E+02  0.7561462E-02  0.1318905E+00
          1   -1    0    0  501    0  0.00000000000E+00  0.00000000000E+00  0.28277359707E+03  0.28277359707E+03  0.00000000000E+00 0. -1.
         -1   -1    0    0    0  501 -0.00000000000E+00 -0.00000000000E+00 -0.45737342010E+02  0.45737342010E+02  0.00000000000E+00 0.  1.
         23    2    1    2    0    0  0.29678745595E+02 -0.43332012927E+01  0.10709538147E+03  0.16738065549E+03  0.12508900242E+03 0.  0.
          5    1    3    3  502    0  0.49254407133E+02  0.10262808060E+02 -0.66924748970E+01  0.50927237030E+02  0.41800000000E+01 0. -1.
         -5    1    3    3    0  502 -0.19575661538E+02 -0.14596009353E+02  0.11378785637E+03  0.11645341846E+03  0.41800000000E+01 0. -1.
        -11    1    1    2    0    0  0.30026620343E+02 -0.81575838551E+01  0.25710332357E+02  0.40362919784E+02  0.00000000000E+00 0.  1.
         11    1    1    2    0    0 -0.59705365938E+02  0.12490785148E+02  0.10423054123E+03  0.12076736380E+03  0.00000000000E+00 0. -1.
</event>
<event>
 6    1  0.6833760E-006  0.1305155E+03  0.7561462E-02  0.1226693E+00
          2   -1    0    0  501    0  0.00000000000E+00  0.00000000000E+00  0.13004615917E+04  0.13004615917E+04  0.00000000000E+00 0. -1.
         -2   -1    0    0    0  501 -0.00000000000E+00 -0.00000000000E+00 -0.23276437252E+02  0.23276437252E+02  0.00000000000E+00 0.  1.
          5    1    1    2  502    0 -0.12326257700E+02  0.54389927806E+02  0.65966038159E+03  0.66202680634E+03  0.41800000000E+01 0. -1.
         -5    1    1    2    0  502 -0.67735908762E+02 -0.56681420502E+02  0.11871008899E+03  0.14802193889E+03  0.41800000000E+01 0.  1.
        -11    1    1    2    0    0  0.31659418512E+02  0.43027773769E+02  0.30970287579E+03  0.31427627872E+03  0.00000000000E+00 0. -1.
         11    1    1    2    0    0  0.48402747950E+02 -0.40736281072E+02  0.18911180804E+03  0.19941300496E+03  0.00000000000E+00 0.  1.
</event>
<event>
 7    1  0.6833760E-006  0.1469422E+03  0.7561462E-02  0.1204281E+00
          3   -1    0    0  501    0  0.00000000000E+00  0.00000000000E+00  0.32906832802E+03  0.32906832802E+03  0.00000000000E+00 0. -1.
         -3   -1    0    0    0  501 -0.00000000000E+00 -0.00000000000E+00 -0.84309339816E+02  0.84309339816E+02  0.00000000000E+00 0.  1.
         23    2    1    2    0    0 -0.11650654862E+03 -0.31288939570E+02  0.86031746886E+02  0.19391148982E+03  0.12508969103E+03 0.  0.
          5    1    3    3  502    0 -0.64594340691E+02 -0.79327500674E+02  0.58337867149E+02  0.11783912914E+03  0.41800000000E+01 0. -1.
         -5    1    3    3    0  502 -0.51912207932E+02  0.48038561104E+02  0.27693879738E+02  0.76072360685E+02  0.41800000000E+01 0. -1.
        -11    1    1    2    0    0  0.38419383709E+02  0.94926738119E+01 -0.18134348750E+01  0.39616264926E+02  0.00000000000E+00 0.  1.
         11    1    1    2    0    0  0.78087164914E+02  0.21796265758E+02  0.16054067619E+03  0.17984991309E+03  0.00000000000E+00 0. -1.
</event>
<event>
 7    1  0.6833760E-006  0.7181289E+02  0.7561462E-02  0.1354035E+00
         -1   -1    0    0    0  501 -0.00000000000E+00  0.00000000000E+00  0.66411850911E+02  0.66411850911E+02  0.00000000000E+00 0.  1.
          1   -1    0    0  501    0  0.00000000000E+00 -0.00000000000E+00 -0.24747782579E+03  0.24747782579E+03  0.00000000000E+00 0. -1.
         23    2    1    2    0    0 -0.65281015520E+02 -0.17678763843E+02 -0.66431459624E+02  0.15695435578E+03  0.12508949313E+03 0.  0.
          5    1    3    3  502    0 -0.36267205595E+02 -0.26298399387E+02  0.31135049081E+02  0.54715442914E+02  0.41800000000E+01 0. -1.
         -5    1    3    3    0  502 -0.29013809925E+02  0.86196355436E+01 -0.97566508705E+02  0.10223891287E+03  0.41800000000E+01 0. -1.
        -11    1    1    2    0    0  0.30701008432E+02  0.12341284697E+02  0.39248717075E+01  0.33320621913E+02  0.00000000000E+00 0.  1.
         11    1    1    2    0    0  0.34580007088E+02  0.53374791462E+01 -0.11855938696E+03  0.12361469901E+03  0.00000000000E+00 0. -1.
</event>
<event>
 7    1  0.6833760E-006  0.1185607E+03  0.7561462E-02  0.1245491E+00
         -3   -1    0    0    0  501 -0.00000000000E+00  0.00000000000E+00  0.40026036153E+02  0.40026036153E+02  0.00000000000E+00 0.  1.
          3   -1    0    0  501    0  0.00000000000E+00 -0.00000000000E+00 -0.46605920822E+03  0.46605920822E+03  0.00000000000E+00 0. -1.
         23    2    1    2    0    0 -0.55099308880E+02 -0.60797915436E+02 -0.21232351745E+03  0.25973008635E+03  0.12508445681E+03 0.  0.
          5    1    3    3  502    0  0.24002983097E+02 -0.23010096959E+02 -0.14580344264E+03  0.14960522734E+03  0.41800000000E+01 0. -1.
         -5    1    3    3    0  502 -0.79102291977E+02 -0.37787818477E+02 -0.66520074802E+02  0.11012485901E+03  0.41800000000E+01 0. -1.
        -11    1    1    2    0    0  0.26388667252E+02  0.78022013796E+02 -0.11028720825E+03  0.13764833708E+03  0.00000000000E+00 0.  1.
         11    1    1    2    0    0  0.28710641628E+02 -0.17224098360E+02 -0.10342244637E+03  0.10870682094E+03  0.00000000000E+00 0. -1.
</event>
<event>
 7    1  0.6833760E-006  0.1189584E+03  0.7561462E-02  0.1244825E+00
          1   -1    0    0  501    0  0.00000000000E+00  0.00000000000E+00  0.68420367781E+03  0.68420367781E+03  0.00000000000E+00 0. -1.
         -1   -1    0    0    0  501 -0.00000000000E+00 -0.00000000000E+00 -0.30097549766E+02  0.30097549766E+02  0.00000000000E+00 0.  1.
         23    2    1    2    0    0  0.26300901494E+01 -0.82382261955E+02  0.46925150035E+03  0.49258510559E+03  0.12509740689E+03 0.  0.
          5    1    3    3  502    0 -0.34605452850E+02 -0.82772013581E+01  0.33690146389E+02  0.49178733138E+02  0.41800000000E+01 0.  1.
         -5    1    3    3    0  502  0.37235543000E+02 -0.74105060597E+02  0.43556135396E+03  0.44340637245E+03  0.41800000000E+01 0.  1.
        -11    1    1    2    0    0  0.36101947165E+02  0.69352305820E+02  0.14442923374E+03  0.16423427313E+03  0.00000000000E+00 0. -1.
         11    1    1    2    0    0 -0.38732037314E+02  0.13029956135E+02  0.40425393956E+02  0.57481848856E+02  0.00000000000E+00 0.  1.
</event>
<event>
 6    1  0.6833760E-006  0.1266858E+03  0.7561462E-02  0.1232458E+00
         -4   -1    0    0    0  501 -0.00000000000E+00  0.00000000000E+00  0.52398994194E+02  0.52398994194E+02  0.00000000000E+00 0.  1.
          4   -1    0    0  501    0  0.00000000000E+00 -0.00000000000E+00 -0.45228311199E+03  0.45228311199E+03  0.00000000000E+00 0. -1.
          5    1    1    2  502    0 -0.58658341436E+02  0.78106669869E+02 -0.17135568860E+03  0.19728582644E+03  0.41800000000E+01 0. -1.
         -5    1    1    2    0  502 -0.60883557619E+01 -0.33971687519E+02  0.12871524043E+02  0.37071446694E+02  0.41800000000E+01 0.  1.
        -11    1    1    2    0    0 -0.78151967259E+01  0.21573046716E+02 -0.59228914043E+02  0.63518012431E+02  0.00000000000E+00 0.  1.
         11    1    1    2    0    0  0.72561893923E+02 -0.65708029066E+02 -0.18217103919E+03  0.20680682062E+03  0.00000000000E+00 0. -1.
</event>
<event>
 7    1  0.6833760E-006  0.1203293E+03  0.7561462E-02  0.1242555E+00
         -2   -1    0    0    0  501 -0.00000000000E+00  0.00000000000E+00  0.36535821048E+02  0.36535821048E+02  0.00000000000E+00 0. -1.
          2   -1    0    0  501    0  0.00000000000E+00 -0.00000000000E+00 -0.43503092367E+03  0.43503092367E+03  0.00000000000E+00 0.  1.
         23    2    1    2    0    0 -0.32442272243E+02 -0.55395292892E+02 -0.21960590933E+03  0.26076949949E+03  0.12511129825E+03 0.  0.
          5    1    3    3  502    0  0.43961579401E+02 -0.41315145218E+02 -0.12002225964E+03  0.13439634257E+03  0.41800000000E+01 0.  1.
         -5    1    3    3    0  502 -0.76403851644E+02 -0.14080147674E+02 -0.99583649686E+02  0.12637315692E+03  0.41800000000E+01 0.  1.
        -11    1    1    2    0    0  0.38623553947E+02 -0.73641005265E+01 -0.11276045072E+03  0.11941912804E+03  0.00000000000E+00 0. -1.
         11    1    1    2    0    0 -0.61812817044E+01  0.62759393418E+02 -0.66128742579E+02  0.91378117188E+02  0.00000000000E+00 0.  1.
</event>
<event>
 7    1  0.6833760E-006  0.1054939E+03  0.7561462E-02  0.1269149E+00
         -3   -1    0    0    0  501 -0.00000000000E+00  0.00000000000E+00  0.35780718616E+03  0.35780718616E+03  0.00000000000E+00 0.  1.
          3   -1    0    0  501    0  0.00000000000E+00 -0.00000000000E+00 -0.44497369380E+02  0.44497369380E+02  0.00000000000E+00 0. -1.
         23    2    1    2    0    0 -0.45813925147E+02 -0.33944993566E+02  0.21159243044E+03  0.25233014333E+03  0.12509183143E+03 0.  0.
          5    1    3    3  502    0 -0.17715499481E+02  0.29083538133E+02  0.16601618389E+03  0.16952444315E+03  0.41800000000E+01 0. -1.
         -5    1    3    3    0  502 -0.28098425667E+02 -0.63028531699E+02  0.45576246546E+02  0.82805700180E+02  0.41800000000E+01 0. -1.
        -11    1    1    2    0    0  0.62402516038E+02 -0.75480201563E+01  0.75207852658E+02  0.98016670611E+02  0.00000000000E+00 0.  1.
         11    1    1    2    0    0 -0.16588590891E+02  0.41493013722E+02  0.26509533679E+02  0.51957741592E+02  0.00000000000E+00 0. -1.
</event>
<event>
 7    1  0.6833760E-006  0.1900864E+03  0.7561462E-02  0.1158383E+00
         -3   -1    0    0    0  501 -0.00000000000E+00  0.00000000000E+00  0.10452313385E+03  0.10452313385E+03  0.00000000000E+00 0.  1.
          3   -1    0    0  501    0  0.00000000000E+00 -0.00000000000E+00 -0.51088427035E+03  0.51088427035E+03  0.00000000000E+00 0. -1.
         23    2    1    2    0    0  0.70620764612E+02 -0.16463536961E+03 -0.82021041017E+02  0.23338344958E+03  0.12509310950E+03 0.  0.
          5    1    3    3  502    0  0.81395829342E+02 -0.11737309907E+03 -0.58703542191E+01  0.14301628885E+03  0.41800000000E+01 0. -1.
         -5    1    3    3    0  502 -0.10775064730E+02 -0.47262270547E+02 -0.76150686798E+02  0.90367160722E+02  0.41800000000E+01 0. -1.
        -11    1    1    2    0    0 -0.67787868437E+02  0.84016690517E+02 -0.25005298524E+03  0.27236096420E+03  0.00000000000E+00 0. -1.
         11    1    1    2    0    0 -0.28328961753E+01  0.80618679098E+02 -0.74287110244E+02  0.10966299042E+03  0.00000000000E+00 0.  1.
</event>
<event>
 7    1  0.6833760E-006  0.2329065E+03  0.7561462E-02  0.1124611E+00
          1   -1    0    0  501    0  0.00000000000E+00  0.00000000000E+00  0.43933836207E+02  0.43933836207E+02  0.00000000000E+00 0. -1.
         -1   -1    0    0    0  501 -0.00000000000E+00 -0.00000000000E+00 -0.14893531787E+04  0.14893531787E+04  0.00000000000E+00 0.  1.
         23    2    1    2    0    0 -0.20736024378E+03  0.18836898818E+02 -0.10472852452E+04  0.10750845272E+04  0.12508899408E+03 0.  0.
          5    1    3    3  502    0 -0.54240553547E+01 -0.33449797944E+02 -0.15935074971E+03  0.16296761394E+03  0.41800000000E+01 0.  1.
         -5    1    3    3    0  502 -0.20193618843E+03  0.52286696762E+02 -0.88793449545E+03  0.91211691326E+03  0.41800000000E+01 0.  1.
        -11    1    1    2    0    0  0.11899540611E+03  0.29100091650E+02 -0.25942972633E+03  0.28689807408E+03  0.00000000000E+00 0.  1.
         11    1    1    2    0    0  0.88364837668E+02 -0.47936990468E+02 -0.13870437102E+03  0.17130441363E+03  0.00000000000E+00 0. -1.
</event>
<event>
 7    1  0.6833760E-006  0.1577226E+03  0.7561462E-02  0.1191292E+00
         -4   -1    0    0    0  501 -0.00000000000E+00  0.00000000000E+00  0.30508302034E+02  0.30508302034E+02  0.00000000000E+00 0.  1.
          4   -1    0    0  501    0  0.00000000000E+00 -0.00000000000E+00 -0.89297536605E+03  0.89297536605E+03  0.00000000000E+00 0. -1.
         23    2    1    2    0    0  0.56876756933E+02 -0.10914240107E+03 -0.44721580040E+03  0.48041295392E+03  0.12509038723E+03 0.  0.
          5    1    3    3  502    0 -0.21848401669E+02 -0.90578229751E+02 -0.21091456467E+03  0.23061698626E+03  0.41800000000E+01 0. -1.
         -5    1    3    3    0  502  0.78725158602E+02 -0.18564171318E+02 -0.23630123573E+03  0.24979596767E+03  0.41800000000E+01 0. -1.
        -11    1    1    2    0    0  0.94202163478E+01  0.54390337513E+02 -0.81589806184E+02  0.98508607563E+02  0.00000000000E+00 0.  1.
         11    1    1    2    0    0 -0.66296973281E+02  0.54752063555E+02 -0.33366145743E+03  0.34456210660E+03  0.00000000000E+00 0. -1.
</event>
<event>
 7    1  0.6833760E-006  0.2097769E+03  0.7561462E-02  0.1141743E+00
         -1   -1    0    0    0  501 -0.00000000000E+00  0.00000000000E+00  0.85800578439E+03  0.85800578439E+03  0.00000000000E+00 0.  1.
          1   -1    0    0  501    0  0.00000000000E+00 -0.00000000000E+00 -0.53563922713E+02  0.53563922713E+02  0.00000000000E+00 0. -1.
         23    2    1    2    0    0  0.39150036929E+02 -0.17834415411E+03  0.32514981840E+03  0.39076921618E+03  0.11678532963E+03 0.  0.
          5    1    3    3  502    0  0.80396875207E+02 -0.10959839835E+03  0.19175542949E+03  0.23508101498E+03  0.41800000000E+01 0. -1.
         -5    1    3    3    0  502 -0.41246838279E+02 -0.68745755755E+02  0.13339438891E+03  0.15568820120E+03  0.41800000000E+01 0.  1.
        -11    1    1    2    0    0 -0.28035541492E+02  0.18706757055E+03  0.45400008338E+03  0.49182958761E+03  0.00000000000E+00 0.  1.
         11    1    1    2    0    0 -0.11114495437E+02 -0.87234164366E+01  0.25291959899E+02  0.28970903311E+02  0.00000000000E+00 0. -1.
</event>
<event>
 7    1  0.6833760E-006  0.1220991E+03  0.7561462E-02  0.1239674E+00
          1   -1    0    0  501    0  0.00000000000E+00  0.00000000000E+00  0.16613710672E+03  0.16613710672E+03  0.00000000000E+00 0. -1.
         -1   -1    0    0    0  501 -0.00000000000E+00 -0.00000000000E+00 -0.15534391068E+03  0.15534391068E+03  0.00000000000E+00 0.  1.
         23    2    1    2    0    0  0.52740774980E+02  0.27666896762E+02 -0.96820729238E+02  0.16902284821E+03  0.12508966018E+03 0.  0.
          5    1    3    3  502    0  0.77893100670E+02  0.59171193920E+02 -0.65430428554E+02  0.11775898566E+03  0.41800000000E+01 0. -1.
         -5    1    3    3    0  502 -0.25152325690E+02 -0.31504297158E+02 -0.31390300684E+02  0.51263862555E+02  0.41800000000E+01 0. -1.
        -11    1    1    2    0    0  0.20837256565E+02  0.99875159843E+01  0.11885305862E+02  0.25984653781E+02  0.00000000000E+00 0.  1.
         11    1    1    2    0    0 -0.73578031545E+02 -0.37654412746E+02  0.95728619411E+02  0.12647351541E+03  0.00000000000E+00 0. -1.
</event>
<event>
 7    1  0.6833760E-006  0.9073625E+02  0.7561462E-02  0.1301078E+00
         -1   -1    0    0    0  501 -0.00000000000E+00  0.00000000000E+00  0.56474167227E+02  0.56474167227E+02  0.00000000000E+00 0.  1.
          1   -1    0    0  501    0  0.00000000000E+00 -0.00000000000E+00 -0.34759145822E+03  0.34759145822E+03  0.00000000000E+00 0. -1.
         23    2    1    2    0    0 -0.10327749497E+02 -0.64545063928E+02 -0.73286779461E+02  0.15903760790E+03  0.12509708628E+03 0.  0.
          5    1    3    3  502    0  0.13570588603E+02  0.17438089194E+02 -0.69948810209E+02  0.73474868353E+02  0.41800000000E+01 0. -1.
         -5    1    3    3    0  502 -0.23898338100E+02 -0.81983153122E+02 -0.33379692514E+01  0.85562739545E+02  0.41800000000E+01 0. -1.
        -11    1    1    2    0    0  0.21554067363E+02  0.28492944623E+02 -0.20018636507E+03  0.20334946882E+03  0.00000000000E+00 0. -1.
         11    1    1    2    0    0 -0.11226317867E+02  0.36052119305E+02 -0.17644146466E+02  0.41678548724E+02  0.00000000000E+00 0.  1.
</event>
<event>
 7    1  0.6833760E-006  0.1492638E+03  0.7561462E-02  0.1201381E+00
         -1   -1    0    0    0  501 -0.00000000000E+00  0.00000000000E+00  0.48498015975E+03  0.48498015975E+03  0.00000000000E+00 0.  1.
          1   -1    0    0  501    0  0.00000000000E+00 -0.00000000000E+00 -0.55928465514E+02  0.55928465514E+02  0.00000000000E+00 0. -1.
         23    2    1    2    0    0 -0.59165758265E+02  0.10732752705E+03  0.26182805612E+03  0.31499430922E+03  0.12509076246E+03 0.  0.
          5    1    3    3  502    0  0.20091867641E+02  0.36165965248E+02  0.16772304314E+03  0.17280090216E+03  0.41800000000E+01 0.  1.
         -5    1    3    3    0  502 -0.79257625906E+02  0.71161561800E+02  0.94105012984E+02  0.14219340706E+03  0.41800000000E+01 0.  1.
        -11    1    1    2    0    0  0.81575919720E+02 -0.93184226989E+02  0.14901656112E+03  0.19376239658E+03  0.00000000000E+00 0.  1.
         11    1    1    2    0    0 -0.22410161455E+02 -0.14143300060E+02  0.18207076989E+02  0.32151919468E+02  0.00000000000E+00 0. -1.
</event>
<event>
 7    1  0.6833760E-006  0.1538374E+03  0.7561462E-02  0.1195835E+00
          4   -1    0    0  501    0  0.00000000000E+00  0.00000000000E+00  0.60148946066E+02  0.60148946066E+02  0.00000000000E+00 0.  1.
         -4   -1    0    0    0  501 -0.00000000000E+00 -0.00000000000E+00 -0.50042585054E+03  0.50042585054E+03  0.00000000000E+00 0. -1.
         23    2    1    2    0    0  0.10546008555E+03 -0.83872630797E+02 -0.23761985190E+03  0.30044594139E+03  0.12509245317E+03 0.  0.
          5    1    3    3  502    0  0.12504077216E+03 -0.52670293462E+02 -0.13547818056E+03  0.19178416077E+03  0.41800000000E+01 0. -1.
         -5    1    3    3    0  502 -0.19580686607E+02 -0.31202337335E+02 -0.10214167134E+03  0.10866178062E+03  0.41800000000E+01 0. -1.
        -11    1    1    2    0    0 -0.56704731165E+02  0.48552091325E+02 -0.35895690779E+02  0.82832558363E+02  0.00000000000E+00 0.  1.
         11    1    1    2    0    0 -0.48755354384E+02  0.35320539472E+02 -0.16676136179E+03  0.17729629685E+03  0.00000000000E+00 0. -1.
</event>
<event>
 7    1  0.6833760E-006  0.1119395E+03  0.7561462E-02  0.1257020E+00
          1   -1    0    0  501    0  0.00000000000E+00  0.00000000000E+00  0.41076644466E+03  0.41076644466E+03  0.00000000000E+00 0. -1.
         -1   -1    0    0    0  501 -0.00000000000E+00 -0.00000000000E+00 -0.32654215463E+02  0.32654215463E+02  0.00000000000E+00 0.  1.
         23    2    1    2    0    0 -0.24512985211E+02 -0.34727149361E+02  0.20647058067E+03  0.24511918156E+03  0.12508577513E+03 0.  0.
          5    1    3    3  502    0 -0.51089393137E+02 -0.68669511021E+02  0.16060439023E+03  0.18203535480E+03  0.41800000000E+01 0.  1.
         -5    1    3    3    0  502  0.26576407926E+02  0.33942361660E+02  0.45866190431E+02  0.63083826754E+02  0.41800000000E+01 0.  1.
        -11    1    1    2    0    0  0.74965802758E+01 -0.28463507713E+02  0.83399042324E+02  0.88440772541E+02  0.00000000000E+00 0. -1.
         11    1    1    2    0    0  0.17016404935E+02  0.63190657074E+02  0.88242606211E+02  0.10986070603E+03  0.00000000000E+00 0.  1.
</event>
<event>
 7    1  0.6833760E-006  0.2168423E+03  0.7561462E-02  0.1136259E+00
          1   -1    0    0  501    0  0.00000000000E+00  0.00000000000E+00  0.10253818791E+03  0.10253818791E+03  0.00000000000E+00 0. -1.
         -1   -1    0    0    0  501 -0.00000000000E+00 -0.00000000000E+00 -0.57404618012E+03  0.57404618012E+03  0.00000000000E+00 0.  1.
         23    2    1    2    0    0 -0.11976267173E+03  0.15748086078E+03 -0.34623781151E+03  0.41793642999E+03  0.12508764264E+03 0.  0.
          5    1    3    3  502    0 -0.43327040544E+02 -0.14098511432E+02 -0.58053408600E+02  0.73916649795E+02  0.41800000000E+01 0.  1.
         -5    1    3    3    0  502 -0.76435631184E+02  0.17157937221E+03 -0.28818440291E+03  0.34401978019E+03  0.41800000000E+01 0.  1.
        -11    1    1    2    0    0  0.68547308873E+02 -0.65717620644E+02 -0.12054233454E+03  0.15345355530E+03  0.00000000000E+00 0.  1.
         11    1    1    2    0    0  0.51215362855E+02 -0.91763240138E+02 -0.47278461584E+01  0.10519438275E+03  0.00000000000E+00 0. -1.
</event>
<event>
 7    1  0.6833760E-006  0.1001030E+03  0.7561462E-02  0.1280080E+00
         -1   -1    0    0    0  501 -0.00000000000E+00  0.00000000000E+00  0.30488299278E+02  0.30488299278E+02  0.00000000000E+00 0.  1.
          1   -1    0    0  501    0  0.00000000000E+00 -0.00000000000E+00 -0.72689463974E+03  0.72689463974E+03  0.00000000000E+00 0. -1.
         23    2    1    2    0    0 -0.82733582638E+02  0.61066317828E+01 -0.22657390594E+03  0.27177190701E+03  0.12506837305E+03 0.  0.
          5    1    3    3  502    0 -0.29308262700E+02  0.11304590321E+02  0.66789371159E+01  0.32385932529E+02  0.41800000000E+01 0. -1.
         -5    1    3    3    0  502 -0.53425319938E+02 -0.51979585381E+01 -0.23325284306E+03  0.23938597448E+03  0.41800000000E+01 0. -1.
        -11    1    1    2    0    0  0.72501892572E+02  0.29016652074E+02 -0.39074578277E+03  0.39847303206E+03  0.00000000000E+00 0. -1.
         11    1    1    2    0    0  0.10231690067E+02 -0.35123283857E+02 -0.79086651746E+02  0.87137999948E+02  0.00000000000E+00 0.  1.
</event>
<event>
 7    1  0.6833760E-006  0.1660169E+03  0.7561462E-02  0.1182066E+00
         -1   -1    0    0    0  501 -0.00000000000E+00  0.00000000000E+00  0.70854886526E+02  0.70854886526E+02  0.00000000000E+00 0.  1.
          1   -1    0    0  501    0  0.00000000000E+00 -0.00000000000E+00 -0.48096541274E+03  0.48096541274E+03  0.00000000000E+00 0. -1.
         23    2    1    2    0    0  0.10205964530E+03  0.95942425923E+02 -0.14973090964E+03  0.24018144528E+03  0.12508661424E+03 0.  0.
          5    1    3    3  502    0  0.10817464033E+03  0.36822230444E+02 -0.13840852870E+03  0.17953278999E+03  0.41800000000E+01 0.  1.
         -5    1    3    3    0  502 -0.61149950315E+01  0.59120195478E+02 -0.11322380940E+02  0.60648655284E+02  0.41800000000E+01 0.  1.
        -11    1    1    2    0    0 -0.10910258641E+03 -0.66367310418E+02 -0.24773415479E+03  0.27871168921E+03  0.00000000000E+00 0. -1.
         11    1    1    2    0    0  0.70429411090E+01 -0.29575115505E+02 -0.12645461787E+02  0.32927164779E+02  0.00000000000E+00 0.  1.
</event>
<event>
 7    1  0.6833760E-006  0.1155719E+03  0.7561462E-02  0.1250586E+00
         -2   -1    0    0    0  501 -0.00000000000E+00  0.00000000000E+00  0.19663863477E+03  0.19663863477E+03  0.00000000000E+00 0.  1.
          2   -1    0    0  501    0  0.00000000000E+00 -0.00000000000E+00 -0.71547266007E+02  0.71547266007E+02  0.00000000000E+00 0. -1.
         23    2    1    2    0    0  0.27881007275E+02 -0.32307940815E+02  0.87669911543E+02  0.15860485866E+03  0.12509330196E+03 0.  0.
          5    1    3    3  502    0  0.59363864079E+02 -0.62638434958E+02  0.70266624970E+02  0.11136656984E+03  0.41800000000E+01 0. -1.
         -5    1    3    3    0  502 -0.31482856804E+02  0.30330494143E+02  0.17403286573E+02  0.47238288824E+02  0.41800000000E+01 0. -1.
        -11    1    1    2    0    0  0.31845507660E+02  0.25337133832E+02  0.42767357586E+01  0.40919398550E+02  0.00000000000E+00 0. -1.
         11    1    1    2    0    0 -0.59726514936E+02  0.69708069833E+01  0.33144721461E+02  0.68661643565E+02  0.00000000000E+00 0.  1.
</event>
<event>
 7    1  0.6833760E-006  0.8640821E+02  0.7561462E-02  0.1311790E+00
         -1   -1    0    0    0  501 -0.00000000000E+00  0.00000000000E+00  0.59556902011E+02  0.59556902011E+02  0.00000000000E+00 0.  1.
          1   -1    0    0  501    0  0.00000000000E+00 -0.00000000000E+00 -0.20478701964E+03  0.20478701964E+03  0.00000000000E+00 0. -1.
         23    2    1    2    0    0 -0.14259500383E+02  0.66270721445E+01 -0.11445400559E+03  0.17027170910E+03  0.12508190952E+03 0.  0.
          5    1    3    3  502    0  0.42352963126E+02 -0.21113437612E+02 -0.91409845835E+02  0.10301836268E+03  0.41800000000E+01 0.  1.
         -5    1    3    3    0  502 -0.56612463510E+02  0.27740509756E+02 -0.23044159754E+02  0.67253346422E+02  0.41800000000E+01 0.  1.
        -11    1    1    2    0    0 -0.13045622975E+02  0.20070752039E+02  0.19543449183E+02  0.30902585202E+02  0.00000000000E+00 0.  1.
         11    1    1    2    0    0  0.27305123358E+02 -0.26697824183E+02 -0.50319561225E+02  0.63169627351E+02  0.00000000000E+00 0. -1.
</event>
<event>
 7    1  0.6833760E-006  0.1212119E+03  0.7561462E-02  0.1241111E+00
          3   -1    0    0  501    0  0.00000000000E+00  0.00000000000E+00  0.23435328206E+03  0.23435328206E+03  0.00000000000E+00 0. -1.
         -3   -1    0    0    0  501 -0.00000000000E+00 -0.00000000000E+00 -0.95797530785E+02  0.95797530785E+02  0.00000000000E+00 0.  1.
         23    2    1    2    0    0 -0.54614929144E+02 -0.86023478125E+02  0.63591729636E+02  0.17342117814E+03  0.12509263638E+03 0.  0.
          5    1    3    3  502    0 -0.27436791293E+02 -0.70688911744E+02  0.99819728248E+02  0.12542388252E+03  0.41800000000E+01 0.  1.
         -5    1    3    3    0  502 -0.27178137852E+02 -0.15334566381E+02 -0.36227998612E+02  0.47997295618E+02  0.41800000000E+01 0.  1.
        -11    1    1    2    0    0 -0.16950612458E+02 -0.63885571833E+01  0.45955960710E+00  0.18120378600E+02  0.00000000000E+00 0.  1.
         11    1    1    2    0    0  0.71565541602E+02  0.92412035308E+02  0.74504462035E+02  0.13860925610E+03  0.00000000000E+00 0. -1.
</event>
<event>
 7    1  0.6833760E-006  0.1256841E+03  0.7561462E-02  0.1234004E+00
         -1   -1    0    0    0  501 -0.00000000000E+00  0.00000000000E+00  0.40472616005E+02  0.40472616005E+02  0.00000000000E+00 0.  1.
          1   -1    0    0  501    0  0.00000000000E+00 -0.00000000000E+00 -0.45261611653E+03  0.45261611653E+03  0.00000000000E+00 0. -1.
         23    2    1    2    0    0  0.60342969317E+02  0.49328560195E+02 -0.18712696325E+03  0.23819895399E+03  0.12509060921E+03 0.  0.
          5    1    3    3  502    0  0.67196955954E+02 -0.14172819743E+02 -0.44692774095E+02  0.82043989209E+02  0.41800000000E+01 0.  1.
         -5    1    3    3    0  502 -0.68539866368E+01  0.63501379938E+02 -0.14243418915E+03  0.15615496478E+03  0.41800000000E+01 0.  1.
        -11    1    1    2    0    0 -0.83566848408E+02 -0.45076660275E+02 -0.19319140433E+03  0.21526319277E+03  0.00000000000E+00 0. -1.
         11    1    1    2    0    0  0.23223879091E+02 -0.42518999199E+01 -0.31825132941E+02  0.39626585768E+02  0.00000000000E+00 0.  1.
</event>
<event>
 7    1  0.6833760E-006  0.8109994E+02  0.7561462E-02  0.1325959E+00
          1   -1    0    0  501    0  0.00000000000E+00  0.00000000000E+00  0.74076959725E+02  0.74076959725E+02  0.00000000000E+00 0. -1.
         -1   -1    0    0    0  501 -0.00000000000E+00 -0.00000000000E+00 -0.18718870223E+03  0.18718870223E+03  0.00000000000E+00 0.  1.
         23    2    1    2    0    0  0.30117675009E+02 -0.14695994864E+02 -0.97757367491E+02  0.16225522132E+03  0.12508879779E+03 0.  0.
          5    1    3    3  502    0  0.73314867881E+02  0.53625022337E+01 -0.30408249788E+02  0.79661536125E+02  0.41800000000E+01 0. -1.
         -5    1    3    3    0  502 -0.43197192872E+02 -0.20058497098E+02 -0.67349117703E+02  0.82593685190E+02  0.41800000000E+01 0. -1.
        -11    1    1    2    0    0 -0.18988473075E+02 -0.36177660162E+01 -0.52600153753E+02  0.56039508523E+02  0.00000000000E+00 0.  1.
         11    1    1    2    0    0 -0.11129201934E+02  0.18313760881E+02  0.37245778738E+02  0.42970932118E+02  0.00000000000E+00 0. -1.
</event>
<event>
 7    1  0.6833760E-006  0.5823953E+02  0.7561462E-02  0.1405372E+00
         -1   -1    0    0    0  501 -0.00000000000E+00  0.00000000000E+00  0.36109700411E+02  0.36109700411E+02  0.00000000000E+00 0.  1.
          1   -1    0    0  501    0  0.00000000000E+00 -0.00000000000E+00 -0.39785718052E+03  0.39785718052E+03  0.00000000000E+00 0. -1.
         23    2    1    2    0    0 -0.38879855746E+02  0.26947147959E+01 -0.14713138989E+03  0.19701363628E+03  0.12509125596E+03 0.  0.
          5    1    3    3  502    0  0.77606518395E+01  0.87187118299E+00  0.20831069228E+02  0.22636115424E+02  0.41800000000E+01 0.  1.
         -5    1    3    3    0  502 -0.46640507586E+02  0.18228436129E+01 -0.16796245912E+03  0.17437752086E+03  0.41800000000E+01 0.  1.
        -11    1    1    2    0    0  0.52628299527E+01 -0.21571375204E+02 -0.36608636737E+01  0.22503855895E+02  0.00000000000E+00 0.  1.
         11    1    1    2    0    0  0.33617025794E+02  0.18876660408E+02 -0.21095522654E+03  0.21444938875E+03  0.00000000000E+00 0. -1.
</event>
<event>
 7    1  0.6833760E-006  0.1597800E+03  0.7561462E-02  0.1188945E+00
         -2   -1    0    0    0  501 -0.00000000000E+00  0.00000000000E+00  0.71189630073E+02  0.71189630073E+02  0.00000000000E+00 0.  1.
          2   -1    0    0  501    0  0.00000000000E+00 -0.00000000000E+00 -0.51458541178E+03  0.51458541178E+03  0.00000000000E+00 0. -1.
         23    2    1    2    0    0 -0.12316160129E+03  0.46844820443E+02 -0.10256379263E+03  0.20864004633E+03  0.12509244636E+03 0.  0.
          5    1    3    3  502    0 -0.11222192249E+03 -0.48443483336E+01 -0.25748983558E+02  0.11531569777E+03  0.41800000000E+01 0. -1.
         -5    1    3    3    0  502 -0.10939678809E+02  0.51689168777E+02 -0.76814809075E+02  0.93324348562E+02  0.41800000000E+01 0. -1.
        -11    1    1    2    0    0  0.41190368323E+02  0.22369312980E+02 -0.16147299972E+03  0.16813852100E+03  0.00000000000E+00 0. -1.
         11    1    1    2    0    0  0.81971232972E+02 -0.69214133423E+02 -0.17935898936E+03  0.20899647452E+03  0.00000000000E+00 0.  1.
</event>
<event>
 7    1  0.6833760E-006  0.9860481E+02  0.7561462E-02  0.1283257E+00
         -2   -1    0    0    0  501 -0.00000000000E+00  0.00000000000E+00  0.21187075617E+02  0.21187075617E+02  0.00000000000E+00 0.  1.
          2   -1    0    0  501    0  0.00000000000E+00 -0.00000000000E+00 -0.74589327512E+03  0.74589327512E+03  0.00000000000E+00 0. -1.
         23    2    1    2    0    0  0.61175917966E+02  0.99547624152E+01 -0.34783522340E+03  0.37480358665E+03  0.12508715240E+03 0.  0.
          5    1    3    3  502    0  0.13859108157E+02  0.35960226453E+02 -0.30016363479E+03  0.30265639397E+03  0.41800000000E+01 0. -1.
         -5    1    3    3    0  502  0.47316809809E+02 -0.26005464037E+02 -0.47671588616E+02  0.72147192679E+02  0.41800000000E+01 0. -1.
        -11    1    1    2    0    0 -0.17274440542E+02  0.36495650499E+02 -0.94534967871E+02  0.10279688201E+03  0.00000000000E+00 0.  1.
         11    1    1    2    0    0 -0.43901477424E+02 -0.46450412914E+02 -0.28233600823E+03  0.28947988207E+03  0.00000000000E+00 0. -1.
</event>
<event>
 7    1  0.1265861E-005  0.2986222E+03  0.7561462E-02  0.1085931E+00
         -1   -1    0    0    0  501 -0.00000000000E+00  0.00000000000E+00  0.17074977360E+03  0.17074977360E+03  0.00000000000E+00 0.  1.
          1   -1    0    0  501    0  0.00000000000E+00 -0.00000000000E+00 -0.64148611872E+03  0.64148611872E+03  0.00000000000E+00 0. -1.
         23    2    1    2    0    0 -0.20946795926E+03 -0.18842128661E+03 -0.74297612112E+02  0.31709186123E+03  0.12509079140E+03 0.  0.
          5    1    3    3  502    0 -0.28897505813E+02  0.13867045834E+02 -0.26334996888E+02  0.41693707720E+02  0.41800000000E+01 0.  1.
         -5    1    3    3    0  502 -0.18057045344E+03 -0.20228833244E+03 -0.47962615224E+02  0.27539815351E+03  0.41800000000E+01 0.  1.
        -11    1    1    2    0    0  0.76379243111E+02  0.19778413261E+02 -0.77468486809E+02  0.11057278534E+03  0.00000000000E+00 0.  1.
         11    1    1    2    0    0  0.13308871615E+03  0.16864287335E+03 -0.31897024620E+03  0.38457124575E+03  0.00000000000E+00 0. -1.
</event>
<event>
 7    1  0.6833760E-006  0.1063030E+03  0.7561462E-02  0.1267573E+00
          1   -1    0    0  501    0  0.00000000000E+00  0.00000000000E+00  0.37546451803E+02  0.37546451803E+02  0.00000000000E+00 0. -1.
         -1   -1    0    0    0  501 -0.00000000000E+00 -0.00000000000E+00 -0.34426208342E+03  0.34426208342E+03  0.00000000000E+00 0.  1.
         23    2    1    2    0    0  0.13800981182E+02  0.35848541346E+02 -0.20277557341E+03  0.24133100117E+03  0.12508850449E+03 0.  0.
          5    1    3    3  502    0  0.31771245331E+02 -0.40755976700E+02 -0.87283133721E+02  0.10151984781E+03  0.41800000000E+01 0. -1.
         -5    1    3    3    0  502 -0.17970264149E+02  0.76604518046E+02 -0.11549243969E+03  0.13981115336E+03  0.41800000000E+01 0. -1.
        -11    1    1    2    0    0  0.10024011685E+02 -0.52145475272E+02 -0.97317916930E+02  0.11086211417E+03  0.00000000000E+00 0. -1.
         11    1    1    2    0    0 -0.23824992867E+02  0.16296933925E+02 -0.66221412831E+01  0.29615419897E+02  0.00000000000E+00 0.  1.
</event>
<event>
 7    1  0.6833760E-006  0.1679581E+03  0.7561462E-02  0.1179994E+00
         -2   -1    0    0    0  501 -0.00000000000E+00  0.00000000000E+00  0.87485429415E+03  0.87485429415E+03  0.00000000000E+00 0.  1.
          2   -1    0    0  501    0  0.00000000000E+00 -0.00000000000E+00 -0.38894329438E+02  0.38894329438E+02  0.00000000000E+00 0. -1.
         23    2    1    2    0    0 -0.12259757857E+03 -0.84600471884E+02  0.44014909185E+03  0.48121266674E+03  0.12508797485E+03 0.  0.
          5    1    3    3  502    0 -0.64221404810E+02 -0.10208555152E+03  0.20152550017E+03  0.23489539861E+03  0.41800000000E+01 0.  1.
         -5    1    3    3    0  502 -0.58376173761E+02  0.17485079640E+02  0.23862359168E+03  0.24631726813E+03  0.41800000000E+01 0.  1.
        -11    1    1    2    0    0  0.31284040505E+02  0.44569545297E+02  0.25023105661E+03  0.25608732348E+03  0.00000000000E+00 0.  1.
         11    1    1    2    0    0  0.91313538066E+02  0.40030926586E+02  0.14557981625E+03  0.17644863337E+03  0.00000000000E+00 0. -1.
</event>
<event>
 7    1  0.6833760E-006  0.1174960E+03  0.7561462E-02  0.1247286E+00
          1   -1    0    0  501    0  0.00000000000E+00  0.00000000000E+00  0.16143500119E+03  0.16143500119E+03  0.00000000000E+00 0. -1.
         -1   -1    0    0    0  501 -0.00000000000E+00 -0.00000000000E+00 -0.17571920666E+03  0.17571920666E+03  0.00000000000E+00 0.  1.
         23    2    1    2    0    0 -0.35433935335E+02  0.77377602645E+02 -0.10461994777E+03  0.18395722452E+03  0.12510823241E+03 0.  0.
          5    1    3    3  502    0 -0.26995342434E+02  0.97292921012E+02 -0.28912504112E+02  0.10510978207E+03  0.41800000000E+01 0. -1.
         -5    1    3    3    0  502 -0.84385929013E+01 -0.19915318367E+02 -0.75707443660E+02  0.78847442453E+02  0.41800000000E+01 0. -1.
        -11    1    1    2    0    0  0.27121092782E+02  0.62792269177E+01 -0.25030249858E+01  0.27950804970E+02  0.00000000000E+00 0.  1.
         11    1    1    2    0    0  0.83128425526E+01 -0.83656829563E+02  0.92838767285E+02  0.12524617836E+03  0.00000000000E+00 0. -1.
</event>
<event>
 7    1  0.6833760E-006  0.8621744E+02  0.7561462E-02  0.1312279E+00
          1   -1    0    0  501    0  0.00000000000E+00  0.00000000000E+00  0.50329324317E+03  0.50329324317E+03  0.00000000000E+00 0. -1.
         -1   -1    0    0    0  501 -0.00000000000E+00 -0.00000000000E+00 -0.24808586660E+02  0.24808586660E+02  0.00000000000E+00 0.  1.
         23    2    1    2    0    0  0.49696939630E+01  0.60711870310E+02  0.25836126341E+03  0.29344243102E+03  0.12508912359E+03 0.  0.
          5    1    3    3  502    0 -0.31172944705E+02  0.30899962643E+02  0.23823403116E+03  0.24227976840E+03  0.41800000000E+01 0. -1.
         -5    1    3    3    0  502  0.36142638668E+02  0.29811907668E+02  0.20127232247E+02  0.51162662622E+02  0.41800000000E+01 0. -1.
        -11    1    1    2    0    0 -0.29524429080E+02 -0.33507517705E+02  0.12099729565E+03  0.12897593268E+03  0.00000000000E+00 0.  1.
         11    1    1    2    0    0  0.24554735117E+02 -0.27204352605E+02  0.99126097451E+02  0.10568346613E+03  0.00000000000E+00 0. -1.
</event>
<event>
 7    1  0.6833760E-006  0.8515133E+02  0.7561462E-02  0.1315037E+00
         -1   -1    0    0    0  501 -0.00000000000E+00  0.00000000000E+00  0.79353088399E+02  0.79353088399E+02  0.00000000000E+00 0.  1.
          1   -1    0    0  501    0  0.00000000000E+00 -0.00000000000E+00 -0.17346598346E+03  0.17346598346E+03  0.00000000000E+00 0. -1.
         23    2    1    2    0    0 -0.40226046440E+02 -0.20912104656E+02 -0.46946745817E+02  0.14109103829E+03  0.12508890122E+03 0.  0.
          5    1    3    3  502    0  0.21318956244E+02  0.17943537096E+02 -0.60681550125E+02  0.66904344735E+02  0.41800000000E+01 0. -1.
         -5    1    3    3    0  502 -0.61545002684E+02 -0.38855641752E+02  0.13734804308E+02  0.74186693555E+02  0.41800000000E+01 0. -1.
        -11    1    1    2    0    0  0.50215450721E+02  0.50402877124E+01 -0.67360283438E+02  0.84168900290E+02  0.00000000000E+00 0. -1.
         11    1    1    2    0    0 -0.99894042805E+01  0.15871816944E+02  0.20194134197E+02  0.27559133276E+02  0.00000000000E+00 0.  1.
</event>
<event>
 7    1  0.6833760E-006  0.1316260E+03  0.7561462E-02  0.1225063E+00
          2   -1    0    0  501    0  0.00000000000E+00  0.00000000000E+00  0.40277045680E+03  0.40277045680E+03  0.00000000000E+00 0.  1.
         -2   -1    0    0    0  501 -0.00000000000E+00 -0.00000000000E+00 -0.56156423692E+02  0.56156423692E+02  0.00000000000E+00 0. -1.
         23    2    1    2    0    0 -0.98517949309E+02 -0.22345655933E+02  0.21551296943E+03  0.26888464619E+03  0.12509195933E+03 0.  0.
          5    1    3    3  502    0 -0.12783113895E+03 -0.87342702930E+01  0.17251822794E+03  0.21493510400E+03  0.41800000000E+01 0.  1.
         -5    1    3    3    0  502  0.29313189640E+02 -0.13611385640E+02  0.42994741494E+02  0.53949542185E+02  0.41800000000E+01 0.  1.
        -11    1    1    2    0    0  0.86799427832E+02  0.25241641883E+02  0.14547473228E+03  0.17127223619E+03  0.00000000000E+00 0.  1.
         11    1    1    2    0    0  0.11718521477E+02 -0.28959859502E+01 -0.14373668601E+02  0.18769998116E+02  0.00000000000E+00 0. -1.
</event>
<event>
 7    1  0.6833760E-006  0.1519591E+03  0.7561462E-02  0.1198086E+00
          2   -1    0    0  501    0  0.00000000000E+00  0.00000000000E+00  0.97709412639E+03  0.97709412639E+03  0.00000000000E+00 0. -1.
         -2   -1    0    0    0  501 -0.00000000000E+00 -0.00000000000E+00 -0.25407599758E+02  0.25407599758E+02  0.00000000000E+00 0.  1.
         23    2    1    2    0    0  0.51674911003E+02  0.10185014942E+03  0.48671473608E+03  0.51534592448E+03  0.12508572340E+03 0.  0.
          5    1    3    3  502    0 -0.91894984941E+01  0.99266385545E+02  0.37482843370E+03  0.38788154028E+03  0.41800000000E+01 0.  1.
         -5    1    3    3    0  502  0.60864409497E+02  0.25837638794E+01  0.11188630238E+03  0.12746438420E+03  0.41800000000E+01 0.  1.
        -11    1    1    2    0    0 -0.14575972207E+02 -0.10484902260E+03  0.37826769496E+03  0.39280049078E+03  0.00000000000E+00 0. -1.
         11    1    1    2    0    0 -0.37098938796E+02  0.29988731808E+01  0.86704095604E+02  0.94355310897E+02  0.00000000000E+00 0.  1.
</event>
<event>
 7    1  0.6833760E-006  0.2554341E+03  0.7561462E-02  0.1109918E+00
         -1   -1    0    0    0  501 -0.00000000000E+00  0.00000000000E+00  0.32796046404E+02  0.32796046404E+02  0.00000000000E+00 0.  1.
          1   -1    0    0  501    0  0.00000000000E+00 -0.00000000000E+00 -0.20225992702E+04  0.20225992702E+04  0.00000000000E+00 0. -1.
         23    2    1    2    0    0 -0.20021917687E+03 -0.11966979254E+03 -0.10145006067E+04  0.10484583093E+04  0.12507904461E+03 0.  0.
          5    1    3    3  502    0 -0.67334381265E+02  0.20151312073E+02 -0.32006687952E+03  0.32771981027E+03  0.41800000000E+01 0. -1.
         -5    1    3    3    0  502 -0.13288479561E+03 -0.13982110461E+03 -0.69443372718E+03  0.72073849907E+03  0.41800000000E+01 0. -1.
        -11    1    1    2    0    0  0.60643272783E+02 -0.43573503391E+01 -0.17929552837E+03  0.18932374265E+03  0.00000000000E+00 0.  1.
         11    1    1    2    0    0  0.13957590409E+03  0.12402714288E+03 -0.79600708869E+03  0.81761326458E+03  0.00000000000E+00 0. -1.
</event>
<event>
 7    1  0.6833760E-006  0.1721779E+03  0.7561462E-02  0.1175596E+00
         -2   -1    0    0    0  501 -0.00000000000E+00  0.00000000000E+00  0.11124078729E+03  0.11124078729E+03  0.00000000000E+00 0.  1.
          2   -1    0    0  501    0  0.00000000000E+00 -0.00000000000E+00 -0.37025700701E+03  0.37025700701E+03  0.00000000000E+00 0. -1.
         23    2    1    2    0    0 -0.14566597764E+03 -0.12889099457E+02 -0.29870122588E+02  0.19475541402E+03  0.12511091535E+03 0.  0.
          5    1    3    3  502    0 -0.15717684790E+03  0.48001269916E+01 -0.50233768776E+02  0.16513178574E+03  0.41800000000E+01 0.  1.
         -5    1    3    3    0  502  0.11510870262E+02 -0.17689226448E+02  0.20363646189E+02  0.29623628282E+02  0.41800000000E+01 0.  1.
        -11    1    1    2    0    0  0.47968239958E+02 -0.32364890864E+02 -0.44502159418E+02  0.72999180804E+02  0.00000000000E+00 0.  1.
         11    1    1    2    0    0  0.97697737684E+02  0.45253990321E+02 -0.18464393772E+03  0.21374319948E+03  0.00000000000E+00 0. -1.
</event>
<event>
 6    1  0.6833760E-006  0.1863151E+03  0.7561462E-02  0.1161828E+00
         -1   -1    0    0    0  501 -0.00000000000E+00  0.00000000000E+00  0.22458078200E+03  0.22458078200E+03  0.00000000000E+00 0.  1.
          1   -1    0    0  501    0  0.00000000000E+00 -0.00000000000E+00 -0.28809228799E+03  0.28809228799E+03  0.00000000000E+00 0. -1.
          5    1    1    2  502    0  0.19228324333E+02  0.46627126752E+02  0.49339775944E+02  0.70680289304E+02  0.41800000000E+01 0. -1.
         -5    1    1    2    0  502 -0.15506158502E+03 -0.36261436722E+02  0.88820776549E+02  0.18238856787E+03  0.41800000000E+01 0.  1.
        -11    1    1    2    0    0  0.12559827058E+03 -0.39643150063E+02 -0.17244475926E+03  0.21698778748E+03  0.00000000000E+00 0. -1.
         11    1    1    2    0    0  0.10234990110E+02  0.29277460032E+02 -0.29227299222E+02  0.42616425335E+02  0.00000000000E+00 0.  1.
</event>
<event>
 7    1  0.6833760E-006  0.2170556E+03  0.7561462E-02  0.1136097E+00
          3   -1    0    0  501    0  0.00000000000E+00  0.00000000000E+00  0.82731960043E+02  0.82731960043E+02  0.00000000000E+00 0. -1.
         -3   -1    0    0    0  501 -0.00000000000E+00 -0.00000000000E+00 -0.67820674584E+03  0.67820674584E+03  0.00000000000E+00 0.  1.
         23    2    1    2    0    0 -0.20362911356E+03  0.44103351846E+02 -0.36824834876E+03  0.44120951513E+03  0.12509623633E+03 0.  0.
          5    1    3    3  502    0 -0.42798554791E+02 -0.63775331311E+01 -0.19369674571E+03  0.19851521584E+03  0.41800000000E+01 0. -1.
         -5    1    3    3    0  502 -0.16083055877E+03  0.50480884977E+02 -0.17455160305E+03  0.24269429930E+03  0.41800000000E+01 0. -1.
        -11    1    1    2    0    0  0.99416933821E+02 -0.60717318458E+02 -0.14469431988E+03  0.18575996796E+03  0.00000000000E+00 0.  1.
         11    1    1    2    0    0  0.10421217974E+03  0.16613966612E+02 -0.82532117154E+02  0.13396922279E+03  0.00000000000E+00 0. -1.
</event>
<event>
 7    1  0.6833760E-006  0.6172081E+02  0.7561462E-02  0.1390749E+00
          1   -1    0    0  501    0  0.00000000000E+00  0.00000000000E+00  0.43414459146E+02  0.43414459146E+02  0.00000000000E+00 0. -1.
         -1   -1    0    0    0  501 -0.00000000000E+00 -0.00000000000E+00 -0.27658151118E+03  0.27658151118E+03  0.00000000000E+00 0.  1.
         23    2    1    2    0    0 -0.35930015950E+02  0.95009896841E+01 -0.20942131415E+03  0.24675037994E+03  0.12508888171E+03 0.  0.
          5    1    3    3  502    0  0.94274525830E+01  0.23681858151E+02 -0.19529646732E+03  0.19699718225E+03  0.41800000000E+01 0.  1.
         -5    1    3    3    0  502 -0.45357468533E+02 -0.14180868467E+02 -0.14124846832E+02  0.49753197688E+02  0.41800000000E+01 0.  1.
        -11    1    1    2    0    0  0.23873087369E+02  0.10872186592E+02 -0.37577166358E+02  0.45827635475E+02  0.00000000000E+00 0.  1.
         11    1    1    2    0    0  0.12056928581E+02 -0.20373176276E+02  0.13831428468E+02  0.27417954917E+02  0.00000000000E+00 0. -1.
</event>
<event>
 7    1  0.6833760E-006  0.1423292E+03  0.7561462E-02  0.1210229E+00
          2   -1    0    0  501    0  0.00000000000E+00  0.00000000000E+00  0.49315561256E+03  0.49315561256E+03  0.00000000000E+00 0. -1.
         -2   -1    0    0    0  501 -0.00000000000E+00 -0.00000000000E+00 -0.51224183875E+02  0.51224183875E+02  0.00000000000E+00 0.  1.
         23    2    1    2    0    0  0.28555878374E+01  0.11464501696E+03  0.23055283729E+03  0.28627844526E+03  0.12509637540E+03 0.  0.
          5    1    3    3  502    0 -0.42060126355E+02  0.85171023090E+01  0.11591787051E+03  0.12367708100E+03  0.41800000000E+01 0.  1.
         -5    1    3    3    0  502  0.44915714193E+02  0.10612791465E+03  0.11463496679E+03  0.16260136426E+03  0.41800000000E+01 0.  1.
        -11    1    1    2    0    0  0.20268847248E+02 -0.18855298588E+02  0.12187669710E+03  0.12498110957E+03  0.00000000000E+00 0. -1.
         11    1    1    2    0    0 -0.23124435085E+02 -0.95789718371E+02  0.89501894291E+02  0.13312024161E+03  0.00000000000E+00 0.  1.
</event>
<event>
 7    1  0.6833760E-006  0.1090064E+03  0.7561462E-02  0.1262421E+00
         -1   -1    0    0    0  501 -0.00000000000E+00  0.00000000000E+00  0.46475455699E+02  0.46475455699E+02  0.00000000000E+00 0.  1.
          1   -1    0    0  501    0  0.00000000000E+00 -0.00000000000E+00 -0.33273729811E+03  0.33273729811E+03  0.00000000000E+00 0. -1.
         23    2    1    2    0    0  0.45601676528E+02  0.10770191799E+02 -0.10086963088E+03  0.16737500755E+03  0.12507677956E+03 0.  0.
          5    1    3    3  502    0 -0.38849992764E+02  0.63198638374E+01 -0.56984427166E+01  0.39990089599E+02  0.41800000000E+01 0. -1.
         -5    1    3    3    0  502  0.84451669293E+02  0.44503279615E+01 -0.95171188167E+02  0.12738491795E+03  0.41800000000E+01 0. -1.
        -11    1    1    2    0    0 -0.87917047123E+01  0.34390676341E+02 -0.11557977674E+03  0.12090780571E+03  0.00000000000E+00 0. -1.
         11    1    1    2    0    0 -0.36809971816E+02 -0.45160868140E+02 -0.69812434788E+02  0.90929940544E+02  0.00000000000E+00 0.  1.
</event>
<event>
 7    1  0.6833760E-006  0.1383918E+03  0.7561462E-02  0.1215509E+00
          1   -1    0    0  501    0  0.00000000000E+00  0.00000000000E+00  0.87417721459E+02  0.87417721459E+02  0.00000000000E+00 0. -1.
         -1   -1    0    0    0  501 -0.00000000000E+00 -0.00000000000E+00 -0.26460145459E+03  0.26460145459E+03  0.00000000000E+00 0.  1.
         23    2    1    2    0    0 -0.96032711269E+02  0.27319166300E+02 -0.13690054555E+03  0.21061256434E+03  0.12508906589E+03 0.  0.
          5    1    3    3  502    0 -0.19636439655E+02 -0.39160116015E+02 -0.50345615495E+01  0.44293607424E+02  0.41800000000E+01 0.  1.
         -5    1    3    3    0  502 -0.76396271614E+02  0.66479282316E+02 -0.13186598400E+03  0.16631895692E+03  0.41800000000E+01 0.  1.
        -11    1    1    2    0    0  0.67612760941E+02 -0.58372461521E+02 -0.43176623160E+02  0.99212148921E+02  0.00000000000E+00 0.  1.
         11    1    1    2    0    0  0.28419950328E+02  0.31053295220E+02  0.28934355741E+01  0.42194462790E+02  0.00000000000E+00 0. -1.
</event>
<event>
 7    1  0.6833760E-006  0.2453502E+03  0.7561462E-02  0.1116279E+00
         -2   -1    0    0    0  501 -0.00000000000E+00  0.00000000000E+00  0.26106265279E+03  0.26106265279E+03  0.00000000000E+00 0.  1.
          2   -1    0    0  501    0  0.00000000000E+00 -0.00000000000E+00 -0.25293723162E+03  0.25293723162E+03  0.00000000000E+00 0. -1.
         23    2    1    2    0    0  0.20780514478E+03 -0.94755646923E+02  0.50060781050E+02  0.26517085605E+03  0.12509152760E+03 0.  0.
          5    1    3    3  502    0 -0.66791496987E+01  0.15573060546E+02 -0.41100407051E+01  0.17930312046E+02  0.41800000000E+01 0. -1.
         -5    1    3    3    0  502  0.21448429448E+03 -0.11032870747E+03  0.54170821755E+02  0.24724054400E+03  0.41800000000E+01 0. -1.
        -11    1    1    2    0    0 -0.10645651734E+03  0.26127318678E+02  0.20358495801E+02  0.11149033688E+03  0.00000000000E+00 0.  1.
         11    1    1    2    0    0 -0.10134862744E+03  0.68628328245E+02 -0.62293855680E+02  0.13733869148E+03  0.00000000000E+00 0. -1.
</event>
<event>
 7    1  0.6833760E-006  0.1167427E+03  0.7561462E-02  0.1248569E+00
          2   -1    0    0  501    0  0.00000000000E+00  0.00000000000E+00  0.39907980614E+03  0.39907980614E+03  0.00000000000E+00 0. -1.
         -2   -1    0    0    0  501 -0.00000000000E+00 -0.00000000000E+00 -0.40307765939E+02  0.40307765939E+02  0.00000000000E+00 0.  1.
         23    2    1    2    0    0 -0.47407264179E+01  0.52867096861E+02  0.12818523844E+03  0.18680456253E+03  0.12508830805E+03 0.  0.
          5    1    3    3  502    0 -0.61188662074E+02  0.37021095598E+02  0.96023124742E+02  0.11980203158E+03  0.41800000000E+01 0. -1.
         -5    1    3    3    0  502  0.56447935656E+02  0.15846001263E+02  0.32162113697E+02  0.67002530947E+02  0.41800000000E+01 0. -1.
        -11    1    1    2    0    0 -0.41322647054E+02 -0.33089700726E+02  0.11573576293E+03  0.12726844178E+03  0.00000000000E+00 0.  1.
         11    1    1    2    0    0  0.46063373472E+02 -0.19777396135E+02  0.11485103884E+03  0.12531456777E+03  0.00000000000E+00 0. -1.
</event>
<event>
 7    1  0.6833760E-006  0.2580345E+03  0.7561462E-02  0.1108330E+00
         -4   -1    0    0    0  501 -0.00000000000E+00  0.00000000000E+00  0.40920833590E+03  0.40920833590E+03  0.00000000000E+00 0. -1.
          4   -1    0    0  501    0  0.00000000000E+00 -0.00000000000E+00 -0.18243137434E+03  0.18243137434E+03  0.00000000000E+00 0.  1.
         23    2    1    2    0    0 -0.25176576162E+02 -0.24157182383E+03  0.50761809338E+02  0.27787658122E+03  0.12509127487E+03 0.  0.
          5    1    3    3  502    0 -0.64540326298E+02 -0.18388219254E+03  0.66880473236E+02  0.20607907354E+03  0.41800000000E+01 0. -1.
         -5    1    3    3    0  502  0.39363750136E+02 -0.57689631284E+02 -0.16118663898E+02  0.71797507675E+02  0.41800000000E+01 0. -1.
        -11    1    1    2    0    0  0.34271689808E+02  0.57898944184E+02  0.14101191707E+02  0.68743582009E+02  0.00000000000E+00 0.  1.
         11    1    1    2    0    0 -0.90951136466E+01  0.18367287964E+03  0.16191396052E+03  0.24501954701E+03  0.00000000000E+00 0. -1.
</event>
<event>
 7    1  0.6833760E-006  0.1038734E+03  0.7561462E-02  0.1272355E+00
         -1   -1    0    0    0  501 -0.00000000000E+00  0.00000000000E+00  0.24821173430E+03  0.24821173430E+03  0.00000000000E+00 0.  1.
          1   -1    0    0  501    0  0.00000000000E+00 -0.00000000000E+00 -0.58094043049E+02  0.58094043049E+02  0.00000000000E+00 0. -1.
         23    2    1    2    0    0 -0.13472057437E+02  0.36736506552E+02  0.15315481486E+03  0.20158366871E+03  0.12509400838E+03 0.  0.
          5    1    3    3  502    0 -0.16374614203E+02  0.82879975757E+02  0.95891451957E+02  0.12786657628E+03  0.41800000000E+01 0. -1.
         -5    1    3    3    0  502  0.29025567661E+01 -0.46143469206E+02  0.57263362899E+02  0.73717092432E+02  0.41800000000E+01 0. -1.
        -11    1    1    2    0    0 -0.24561419152E+02 -0.10498619196E+01  0.45650443002E+02  0.51849093214E+02  0.00000000000E+00 0.  1.
         11    1    1    2    0    0  0.38033476589E+02 -0.35686644632E+02 -0.86875666039E+01  0.52873015424E+02  0.00000000000E+00 0. -1.
</event>
<event>
 7    1  0.6833760E-006  0.1189518E+03  0.7561462E-02  0.1244836E+00
          3   -1    0    0  501    0  0.00000000000E+00  0.00000000000E+00  0.96354266781E+03  0.96354266781E+03  0.00000000000E+00 0. -1.
         -3   -1    0    0    0  501 -0.00000000000E+00 -0.00000000000E+00 -0.21767905597E+02  0.21767905597E+02  0.00000000000E+00 0.  1.
         23    2    1    2    0    0 -0.76546059480E+02  0.54119549045E+02  0.40921261142E+03  0.43805303936E+03  0.12508908480E+03 0.  0.
          5    1    3    3  502    0 -0.75919541474E+02  0.65185105267E+02  0.16133753379E+03  0.18989509456E+03  0.41800000000E+01 0. -1.
         -5    1    3    3    0  502 -0.62651800587E+00 -0.11065556222E+02  0.24787507763E+03  0.24815794480E+03  0.41800000000E+01 0. -1.
        -11    1    1    2    0    0 -0.92765379595E+01  0.13684017536E+02  0.64278244076E+02  0.66370167650E+02  0.00000000000E+00 0.  1.
         11    1    1    2    0    0  0.85822597439E+02 -0.67803566581E+02  0.46828390671E+03  0.48088736640E+03  0.00000000000E+00 0. -1.
</event>
<event>
 7    1  0.6833760E-006  0.1098903E+03  0.7561462E-02  0.1260773E+00
         -2   -1    0    0    0  501 -0.00000000000E+00  0.00000000000E+00  0.34334520584E+02  0.34334520584E+02  0.00000000000E+00 0.  1.
          2   -1    0    0  501    0  0.00000000000E+00 -0.00000000000E+00 -0.40626085651E+03  0.40626085651E+03  0.00000000000E+00 0. -1.
         23    2    1    2    0    0  0.35670261482E+02 -0.37091338037E+01 -0.15435175663E+03  0.20188491253E+03  0.12508768086E+03 0.  0.
          5    1    3    3  502    0  0.82119853017E+02 -0.77269276947E+01 -0.10853240512E+03  0.13638229735E+03  0.41800000000E+01 0.  1.
         -5    1    3    3    0  502 -0.46449591535E+02  0.40177938910E+01 -0.45819351511E+02  0.65502615172E+02  0.41800000000E+01 0.  1.
        -11    1    1    2    0    0 -0.62839081127E+02 -0.78574078908E+00 -0.10122538034E+03  0.11914673781E+03  0.00000000000E+00 0.  1.
         11    1    1    2    0    0  0.27168819645E+02  0.44948745928E+01 -0.11634919895E+03  0.11956372675E+03  0.00000000000E+00 0. -1.
</event>
<event>
 7    1  0.6833760E-006  0.9016281E+02  0.7561462E-02  0.1302458E+00
         -2   -1    0    0    0  501 -0.00000000000E+00  0.00000000000E+00  0.12264026814E+03  0.12264026814E+03  0.00000000000E+00 0.  1.
          2   -1    0    0  501    0  0.00000000000E+00 -0.00000000000E+00 -0.11077796035E+03  0.11077796035E+03  0.00000000000E+00 0. -1.
         23    2    1    2    0    0 -0.15541051592E+02  0.14004228343E+02  0.43801296247E+02  0.13420032246E+03  0.12511406915E+03 0.  0.
          5    1    3    3  502    0  0.40146300570E+02 -0.21396461755E+02  0.50076459039E+02  0.67783907935E+02  0.41800000000E+01 0.  1.
         -5    1    3    3    0  502 -0.55687352161E+02  0.35400690098E+02 -0.62751627914E+01  0.66416414524E+02  0.41800000000E+01 0.  1.
        -11    1    1    2    0    0 -0.24736657667E+02 -0.13629743098E+02 -0.48131118789E+02  0.55805705132E+02  0.00000000000E+00 0. -1.
         11    1    1    2    0    0  0.40277709259E+02 -0.37448524501E+00  0.16192130335E+02  0.43412200901E+02  0.00000000000E+00 0.  1.
</event>
<event>
 7    1  0.6833760E-006  0.8995382E+02  0.7561462E-02  0.1302964E+00
         -3   -1    0    0    0  501 -0.00000000000E+00  0.00000000000E+00  0.11333683936E+04  0.11333683936E+04  0.00000000000E+00 0.  1.
          3   -1    0    0  501    0  0.00000000000E+00 -0.00000000000E+00 -0.12636951044E+02  0.12636951044E+02  0.00000000000E+00 0. -1.
         23    2    1    2    0    0 -0.33352529789E+01 -0.56093436150E+01  0.89543798714E+03  0.90415682715E+03  0.12509112931E+03 0.  0.
          5    1    3    3  502    0 -0.53833827893E+02 -0.72736984178E+00  0.21002836752E+03  0.21685939605E+03  0.41800000000E+01 0.  1.
         -5    1    3    3    0  502  0.50498574914E+02 -0.48819737733E+01  0.68540961961E+03  0.68729743110E+03  0.41800000000E+01 0.  1.
        -11    1    1    2    0    0 -0.34787018720E+02 -0.56677294679E+01  0.17077681679E+03  0.17437597593E+03  0.00000000000E+00 0.  1.
         11    1    1    2    0    0  0.38122271699E+02  0.11277073083E+02  0.54516638611E+02  0.67472541543E+02  0.00000000000E+00 0. -1.
</event>
<event>
 7    1  0.6833760E-006  0.2353016E+03  0.7561462E-02  0.1122963E+00
          2   -1    0    0  501    0  0.00000000000E+00  0.00000000000E+00  0.16753502611E+04  0.16753502611E+04  0.00000000000E+00 0.  1.
         -2   -1    0    0    0  501 -0.00000000000E+00 -0.00000000000E+00 -0.35521852351E+02  0.35521852351E+02  0.00000000000E+00 0. -1.
         23    2    1    2    0    0 -0.17300117264E+03 -0.13048886092E+03  0.76659696338E+03  0.80639507562E+03  0.12508143409E+03 0.  0.
          5    1    3    3  502    0 -0.39650300343E+02  0.22479106237E+02  0.17768674492E+03  0.18348707926E+03  0.41800000000E+01 0. -1.
         -5    1    3    3    0  502 -0.13335087230E+03 -0.15296796716E+03  0.58891021846E+03  0.62290799635E+03  0.41800000000E+01 0. -1.
        -11    1    1    2    0    0  0.10236424535E+03  0.47416140483E+02  0.59577466095E+03  0.60636142335E+03  0.00000000000E+00 0.  1.
         11    1    1    2    0    0  0.70636927285E+02  0.83072720440E+02  0.27745678447E+03  0.29811561453E+03  0.00000000000E+00 0. -1.
</event>
<event>
 6    1  0.6833760E-006  0.4638144E+02  0.7561462E-02  0.1465897E+00
         -2   -1    0    0    0  501 -0.00000000000E+00  0.00000000000E+00  0.16876685026E+03  0.16876685026E+03  0.00000000000E+00 0.  1.
          2   -1    0    0  501    0  0.00000000000E+00 -0.00000000000E+00 -0.15127161057E+03  0.15127161057E+03  0.00000000000E+00 0. -1.
          5    1    1    2  502    0 -0.34449252197E+02  0.36254359962E+01 -0.85203431186E+02  0.92070580800E+02  0.41800000000E+01 0. -1.
         -5    1    1    2    0  502 -0.75734781561E+01  0.87099237613E+01  0.15672032383E+03  0.15720035828E+03  0.41800000000E+01 0.  1.
        -11    1    1    2    0    0  0.33674264234E+02 -0.41923167867E+01 -0.37928907652E+02  0.50893355435E+02  0.00000000000E+00 0. -1.
         11    1    1    2    0    0  0.83484661195E+01 -0.81430429708E+01 -0.16092745296E+02  0.19874166311E+02  0.00000000000E+00 0.  1.
</event>
<event>
 7    1  0.6833760E-006  0.8940034E+02  0.7561462E-02  0.1304310E+00
         -1   -1    0    0    0  501 -0.00000000000E+00  0.00000000000E+00  0.28892339563E+03  0.28892339563E+03  0.00000000000E+00 0.  1.
          1   -1    0    0  501    0  0.00000000000E+00 -0.00000000000E+00 -0.45666135873E+02  0.45666135873E+02  0.00000000000E+00 0. -1.
         23    2    1    2    0    0  0.29048998624E+02 -0.14743595581E+02  0.16349422787E+03  0.20841993705E+03  0.12508912695E+03 0.  0.
          5    1    3    3  502    0  0.17155898844E+02  0.55151750524E+02  0.80864680531E+02  0.99461597656E+02  0.41800000000E+01 0.  1.
         -5    1    3    3    0  502  0.11893099780E+02 -0.69895346105E+02  0.82629547343E+02  0.10895833939E+03  0.41800000000E+01 0.  1.
        -11    1    1    2    0    0 -0.11197677299E+02 -0.12824392021E+02 -0.16954845892E+02  0.24027480243E+02  0.00000000000E+00 0. -1.
         11    1    1    2    0    0 -0.17851321325E+02  0.27567987602E+02  0.96717877773E+02  0.10214211421E+03  0.00000000000E+00 0.  1.
</event>
<event>
 7    1  0.6833760E-006  0.1093463E+03  0.7561462E-02  0.1261785E+00
          1   -1    0    0  501    0  0.00000000000E+00  0.00000000000E+00  0.47259267129E+03  0.47259267129E+03  0.00000000000E+00 0.  1.
         -1   -1    0    0    0  501 -0.00000000000E+00 -0.00000000000E+00 -0.27519976863E+02  0.27519976863E+02  0.00000000000E+00 0. -1.
         23    2    1    2    0    0 -0.87961227782E+01  0.21505307468E+02  0.19818033184E+03  0.23550640465E+03  0.12509185697E+03 0.  0.
          5    1    3    3  502    0 -0.47629902654E+02 -0.34462565926E+02  0.94921749435E+02  0.11173131608E+03  0.41800000000E+01 0.  1.
         -5    1    3    3    0  502  0.38833779876E+02  0.55967873395E+02  0.10325858240E+03  0.12377508857E+03  0.41800000000E+01 0.  1.
        -11    1    1    2    0    0  0.29512019154E+02 -0.48926677504E+02  0.18721993945E+03  0.19574494827E+03  0.00000000000E+00 0.  1.
         11    1    1    2    0    0 -0.20715896376E+02  0.27421370035E+02  0.59672423143E+02  0.68861295232E+02  0.00000000000E+00 0. -1.
</event>
<event>
 7    1  0.6833760E-006  0.1033223E+03  0.7561462E-02  0.1273461E+00
         -2   -1    0    0    0  501 -0.00000000000E+00  0.00000000000E+00  0.47066037149E+03  0.47066037149E+03  0.00000000000E+00 0.  1.
          2   -1    0    0  501    0  0.00000000000E+00 -0.00000000000E+00 -0.41492402245E+02  0.41492402245E+02  0.00000000000E+00 0. -1.
         23    2    1    2    0    0 -0.50115326483E+02  0.33716125643E+02  0.34893770869E+03  0.37557066754E+03  0.12508988245E+03 0.  0.
          5    1    3    3  502    0  0.12767742604E+02  0.36506901857E+02  0.27772045972E+03  0.28043162318E+03  0.41800000000E+01 0.  1.
         -5    1    3    3    0  502 -0.62883069087E+02 -0.27907762141E+01  0.71217248971E+02  0.95139044355E+02  0.41800000000E+01 0.  1.
        -11    1    1    2    0    0  0.17312268709E+02  0.29062602881E+02  0.48096916909E+02  0.58801895804E+02  0.00000000000E+00 0.  1.
         11    1    1    2    0    0  0.32803057774E+02 -0.62778728524E+02  0.32133343641E+02  0.77780210388E+02  0.00000000000E+00 0. -1.
</event>
<event>
 7    1  0.6833760E-006  0.2121275E+03  0.7561462E-02  0.1139892E+00
         -2   -1    0    0    0  501 -0.00000000000E+00  0.00000000000E+00  0.32753286945E+02  0.32753286945E+02  0.00000000000E+00 0.  1.
          2   -1    0    0  501    0  0.00000000000E+00 -0.00000000000E+00 -0.15081042054E+04  0.15081042054E+04  0.00000000000E+00 0. -1.
         23    2    1    2    0    0  0.16840605849E+03 -0.98909280211E+02 -0.69495672896E+03  0.73263829870E+03  0.12510146019E+03 0.  0.
          5    1    3    3  502    0  0.14841393028E+03 -0.24797392490E+02 -0.52399568652E+03  0.54518855204E+03  0.41800000000E+01 0. -1.
         -5    1    3    3    0  502  0.19992128211E+02 -0.74111887721E+02 -0.17096104244E+03  0.18744974666E+03  0.41800000000E+01 0. -1.
        -11    1    1    2    0    0 -0.70438865729E+02  0.55595638457E+02 -0.50144586589E+03  0.50941188172E+03  0.00000000000E+00 0.  1.
         11    1    1    2    0    0 -0.97967192760E+02  0.43313641754E+02 -0.27894832358E+03  0.29880731191E+03  0.00000000000E+00 0. -1.
</event>
<event>
 7    1  0.6833760E-006  0.1168998E+03  0.7561462E-02  0.1248301E+00
          4   -1    0    0  501    0  0.00000000000E+00  0.00000000000E+00  0.17387053675E+03  0.17387053675E+03  0.00000000000E+00 0. -1.
         -4   -1    0    0    0  501 -0.00000000000E+00 -0.00000000000E+00 -0.10293166905E+03  0.10293166905E+03  0.00000000000E+00 0.  1.
         23    2    1    2    0    0  0.54654044745E+02  0.19449758771E+02 -0.11476422194E+02  0.13836469951E+03  0.12509086330E+03 0.  0.
          5    1    3    3  502    0 -0.32191621861E+02  0.14454792928E+02  0.25513400034E+02  0.43745257319E+02  0.41800000000E+01 0.  1.
         -5    1    3    3    0  502  0.86845666606E+02  0.49949658428E+01 -0.36989822227E+02  0.94619442190E+02  0.41800000000E+01 0.  1.
        -11    1    1    2    0    0 -0.42020697731E+02 -0.57423008760E+02  0.50607364140E+02  0.87316930077E+02  0.00000000000E+00 0.  1.
         11    1    1    2    0    0 -0.12633347014E+02  0.37973249989E+02  0.31807925754E+02  0.51120576213E+02  0.00000000000E+00 0. -1.
</event>
<event>
 7    1  0.6833760E-006  0.1276452E+03  0.7561462E-02  0.1230992E+00
         -1   -1    0    0    0  501 -0.00000000000E+00  0.00000000000E+00  0.65745727551E+02  0.65745727551E+02  0.00000000000E+00 0.  1.
          1   -1    0    0  501    0  0.00000000000E+00 -0.00000000000E+00 -0.62462611331E+03  0.62462611331E+03  0.00000000000E+00 0. -1.
         23    2    1    2    0    0 -0.26135495620E+02 -0.11641770080E+03 -0.83874299422E+02  0.19214114385E+03  0.12508867201E+03 0.  0.
          5    1    3    3  502    0 -0.35002527794E+02 -0.93359017929E+02 -0.11494920606E+03  0.15222311111E+03  0.41800000000E+01 0. -1.
         -5    1    3    3    0  502  0.88670321748E+01 -0.23058682867E+02  0.31074906640E+02  0.39918032740E+02  0.41800000000E+01 0. -1.
        -11    1    1    2    0    0 -0.14082583109E+02  0.56851107920E+02 -0.95891687360E+02  0.11236362100E+03  0.00000000000E+00 0.  1.
         11    1    1    2    0    0  0.40218078728E+02  0.59566592877E+02 -0.37911439898E+03  0.38586707602E+03  0.00000000000E+00 0. -1.
</event>
<event>
 7    1  0.6833760E-006  0.1721292E+03  0.7561462E-02  0.1175645E+00
          1   -1    0    0  501    0  0.00000000000E+00  0.00000000000E+00  0.21438021890E+03  0.21438021890E+03  0.00000000000E+00 0. -1.
         -1   -1    0    0    0  501 -0.00000000000E+00 -0.00000000000E+00 -0.15780302597E+03  0.15780302597E+03  0.00000000000E+00 0.  1.
         23    2    1    2    0    0 -0.99727005118E+02  0.10592364953E+03  0.11021772046E+01  0.19186800432E+03  0.12508725438E+03 0.  0.
          5    1    3    3  502    0  0.19079943687E+02  0.55891340811E+01  0.27387999802E+02  0.34100697999E+02  0.41800000000E+01 0. -1.
         -5    1    3    3    0  502 -0.11880694880E+03  0.10033451545E+03 -0.26285822598E+02  0.15776730632E+03  0.41800000000E+01 0. -1.
        -11    1    1    2    0    0 -0.51214257343E+01 -0.48629661657E+02  0.32310097334E+02  0.58609004292E+02  0.00000000000E+00 0. -1.
         11    1    1    2    0    0  0.10484843085E+03 -0.57293987870E+02  0.23164918393E+02  0.12170623625E+03  0.00000000000E+00 0.  1.
</event>
<event>
 6    1  0.6833760E-006  0.1301616E+03  0.7561462E-02  0.1227216E+00
          1   -1    0    0  501    0  0.00000000000E+00  0.00000000000E+00  0.46514397423E+03  0.46514397423E+03  0.00000000000E+00 0. -1.
         -1   -1    0    0    0  501 -0.00000000000E+00 -0.00000000000E+00 -0.50933785059E+02  0.50933785059E+02  0.00000000000E+00 0.  1.
          5    1    1    2  502    0 -0.10703714592E+03 -0.25793590334E+02  0.23668664138E+03  0.26107527366E+03  0.41800000000E+01 0. -1.
         -5    1    1    2    0  502  0.99983860544E+01  0.15219348298E+02 -0.13005486036E+02  0.22764256047E+02  0.41800000000E+01 0.  1.
        -11    1    1    2    0    0  0.11312105267E+03  0.17917955456E+01  0.15111824613E+03  0.18877581255E+03  0.00000000000E+00 0.  1.
         11    1    1    2    0    0 -0.16082292801E+02  0.87824464897E+01  0.39410787688E+02  0.43462417032E+02  0.00000000000E+00 0. -1.
</event>
<event>
 7    1  0.6833760E-006  0.5283102E+02  0.7561462E-02  0.1430644E+00
         -4   -1    0    0    0  501 -0.00000000000E+00  0.00000000000E+00  0.94033370004E+03  0.94033370004E+03  0.00000000000E+00 0.  1.
          4   -1    0    0  501    0  0.00000000000E+00 -0.00000000000E+00 -0.16710299648E+02  0.16710299648E+02  0.00000000000E+00 0. -1.
         23    2    1    2    0    0 -0.26809746260E+02  0.85216144047E+01  0.84286243188E+03  0.85166478189E+03  0.11884629243E+03 0.  0.
          5    1    3    3  502    0 -0.33438997260E+02  0.22526964877E+01  0.60904540745E+02  0.69642491789E+02  0.41800000000E+01 0. -1.
         -5    1    3    3    0  502  0.66292510001E+01  0.62689179170E+01  0.78195789114E+03  0.78202229010E+03  0.41800000000E+01 0.  1.
        -11    1    1    2    0    0 -0.44178786610E+01 -0.25791263516E+02  0.56392804269E+02  0.62167960389E+02  0.00000000000E+00 0. -1.
         11    1    1    2    0    0  0.31227624921E+02  0.17269649112E+02  0.24368164242E+02  0.43211257412E+02  0.00000000000E+00 0.  1.
</event>
<event>
 7    1  0.6833760E-006  0.1432453E+03  0.7561462E-02  0.1209028E+00
          2   -1    0    0  501    0  0.00000000000E+00  0.00000000000E+00  0.51379618754E+03  0.51379618754E+03  0.00000000000E+00 0. -1.
         -2   -1    0    0    0  501 -0.00000000000E+00 -0.00000000000E+00 -0.56368497993E+02  0.56368497993E+02  0.00000000000E+00 0.  1.
         23    2    1    2    0    0  0.51014449040E+02 -0.98393285723E+02  0.12893765215E+03  0.21108745572E+03  0.12509709482E+03 0.  0.
          5    1    3    3  502    0  0.67378631550E+02 -0.30503108732E+02  0.11935366081E+03  0.14047451150E+03  0.41800000000E+01 0.  1.
         -5    1    3    3    0  502 -0.16364182510E+02 -0.67890176991E+02  0.95839913352E+01  0.70612944217E+02  0.41800000000E+01 0.  1.
        -11    1    1    2    0    0  0.25591278610E+02  0.17263717260E+02  0.10240101974E+03  0.10695287896E+03  0.00000000000E+00 0. -1.
         11    1    1    2    0    0 -0.76605727650E+02  0.81129568462E+02  0.22608901766E+03  0.25212435085E+03  0.00000000000E+00 0.  1.
</event>
<event>
 7    1  0.6833760E-006  0.2299881E+03  0.7561462E-02  0.1126648E+00
          2   -1    0    0  501    0  0.00000000000E+00  0.00000000000E+00  0.97348997873E+02  0.97348997873E+02  0.00000000000E+00 0. -1.
         -2   -1    0    0    0  501 -0.00000000000E+00 -0.00000000000E+00 -0.63095716644E+03  0.63095716644E+03  0.00000000000E+00 0.  1.
         23    2    1    2    0    0  0.14462657581E+00  0.22198007600E+03 -0.30292031018E+03  0.39582915724E+03  0.12507930423E+03 0.  0.
          5    1    3    3  502    0 -0.35911909709E+02  0.69933211411E+02 -0.36141164027E+02  0.86625489635E+02  0.41800000000E+01 0.  1.
         -5    1    3    3    0  502  0.36056536285E+02  0.15204686459E+03 -0.26677914615E+03  0.30920366761E+03  0.41800000000E+01 0.  1.
        -11    1    1    2    0    0  0.15394162210E+02 -0.16951910957E+03 -0.11772456446E+03  0.20696082193E+03  0.00000000000E+00 0.  1.
         11    1    1    2    0    0 -0.15538788786E+02 -0.52460966432E+02 -0.11296329393E+03  0.12551618513E+03  0.00000000000E+00 0. -1.
</event>
<event>
 7    1  0.6833760E-006  0.9677627E+02  0.7561462E-02  0.1287225E+00
          1   -1    0    0  501    0  0.00000000000E+00  0.00000000000E+00  0.23110722344E+02  0.23110722344E+02  0.00000000000E+00 0. -1.
         -1   -1    0    0    0  501 -0.00000000000E+00 -0.00000000000E+00 -0.62029416523E+03  0.62029416523E+03  0.00000000000E+00 0.  1.
         23    2    1    2    0    0 -0.23037865368E+02 -0.31804367560E+02 -0.41123944527E+03  0.43163177690E+03  0.12508336598E+03 0.  0.
          5    1    3    3  502    0  0.25057706299E+02 -0.38395267662E+02 -0.53467952470E+02  0.70557632933E+02  0.41800000000E+01 0.  1.
         -5    1    3    3    0  502 -0.48095571667E+02  0.65909001027E+01 -0.35777149280E+03  0.36107414397E+03  0.41800000000E+01 0.  1.
        -11    1    1    2    0    0  0.10505980133E+02 -0.32044151316E+02 -0.87458222971E+02  0.93734433467E+02  0.00000000000E+00 0.  1.
         11    1    1    2    0    0  0.12531885235E+02  0.63848518876E+02 -0.98485774645E+02  0.11803867721E+03  0.00000000000E+00 0. -1.
</event>
<event>
 7    1  0.6833760E-006  0.1611480E+03  0.7561462E-02  0.1187407E+00
          3   -1    0    0  501    0  0.00000000000E+00  0.00000000000E+00  0.39317717649E+03  0.39317717649E+03  0.00000000000E+00 0. -1.
         -3   -1    0    0    0  501 -0.00000000000E+00 -0.00000000000E+00 -0.92342943777E+02  0.92342943777E+02  0.00000000000E+00 0.  1.
         23    2    1    2    0    0  0.19118873902E+02  0.15537941468E+03  0.12423821661E+03  0.23577604175E+03  0.12508762350E+03 0.  0.
          5    1    3    3  502    0  0.16361116401E+02  0.10973101312E+03  0.86025586447E+01  0.11135554672E+03  0.41800000000E+01 0.  1.
         -5    1    3    3    0  502  0.27577575012E+01  0.45648401562E+02  0.11563565796E+03  0.12442049503E+03  0.41800000000E+01 0.  1.
        -11    1    1    2    0    0  0.18068697043E+02 -0.35462899478E+02  0.86483388184E+02  0.95202266171E+02  0.00000000000E+00 0.  1.
         11    1    1    2    0    0 -0.37187570945E+02 -0.11991651520E+03  0.90112627918E+02  0.15454181234E+03  0.00000000000E+00 0. -1.
</event>
<event>
 6    1  0.6833760E-006  0.4043722E+03  0.7561462E-02  0.1042276E+00
         -2   -1    0    0    0  501 -0.00000000000E+00  0.00000000000E+00  0.46505271204E+03  0.46505271204E+03  0.00000000000E+00 0.  1.
          2   -1    0    0  501    0  0.00000000000E+00 -0.00000000000E+00 -0.63768631782E+03  0.63768631782E+03  0.00000000000E+00 0. -1.
          5    1    1    2  502    0  0.28032529616E+03 -0.39554349056E+02 -0.30444803457E+02  0.28476512542E+03  0.41800000000E+01 0. -1.
         -5    1    1    2    0  502 -0.68827283658E+02  0.21146563271E+03  0.24148389318E+03  0.32830907976E+03  0.41800000000E+01 0.  1.
        -11    1    1    2    0    0  0.13869779242E+02 -0.39352859402E+02 -0.67896845200E+02  0.79693160983E+02  0.00000000000E+00 0.  1.
         11    1    1    2    0    0 -0.22536779175E+03 -0.13255842425E+03 -0.31577585030E+03  0.40997166369E+03  0.00000000000E+00 0. -1.
</event>
<event>
 7    1  0.6833760E-006  0.1006603E+03  0.7561462E-02  0.1278914E+00
         -1   -1    0    0    0  501 -0.00000000000E+00  0.00000000000E+00  0.31939328350E+02  0.31939328350E+02  0.00000000000E+00 0.  1.
          1   -1    0    0  501    0  0.00000000000E+00 -0.00000000000E+00 -0.45724884139E+03  0.45724884139E+03  0.00000000000E+00 0. -1.
         23    2    1    2    0    0 -0.41401378975E+02  0.26111097235E+02 -0.23831227878E+03  0.27355863116E+03  0.12508284808E+03 0.  0.
          5    1    3    3  502    0 -0.50352514642E+02 -0.18332608633E+02 -0.32587125354E+02  0.62855814440E+02  0.41800000000E+01 0. -1.
         -5    1    3    3    0  502  0.89511356668E+01  0.44443705868E+02 -0.20572515343E+03  0.21070281672E+03  0.41800000000E+01 0. -1.
        -11    1    1    2    0    0  0.59616598677E+02  0.11074082526E+02 -0.14240575292E+03  0.15477781691E+03  0.00000000000E+00 0. -1.
         11    1    1    2    0    0 -0.18215219702E+02 -0.37185179760E+02 -0.44591481333E+02  0.60851721669E+02  0.00000000000E+00 0.  1.
</event>
<event>
 7    1  0.6833760E-006  0.1416329E+03  0.7561462E-02  0.1211149E+00
          3   -1    0    0  501    0  0.00000000000E+00  0.00000000000E+00  0.63558803830E+02  0.63558803830E+02  0.00000000000E+00 0. -1.
         -3   -1    0    0    0  501 -0.00000000000E+00 -0.00000000000E+00 -0.47581651646E+03  0.47581651646E+03  0.00000000000E+00 0.  1.
         23    2    1    2    0    0 -0.46818127467E+02  0.11225580884E+03 -0.31138012587E+03  0.35692803445E+03  0.12508691102E+03 0.  0.
          5    1    3    3  502    0  0.17363359700E+02  0.43805061004E+02 -0.21041522108E+02  0.51774392147E+02  0.41800000000E+01 0. -1.
         -5    1    3    3    0  502 -0.64181487167E+02  0.68450747841E+02 -0.29033860376E+03  0.30515364230E+03  0.41800000000E+01 0. -1.
        -11    1    1    2    0    0 -0.17016033355E+02 -0.59349679778E+01  0.57307160134E+01  0.18910588094E+02  0.00000000000E+00 0. -1.
         11    1    1    2    0    0  0.63834160822E+02 -0.10632084087E+03 -0.10660830278E+03  0.16353669775E+03  0.00000000000E+00 0.  1.
</event>
<event>
 7    1  0.6833760E-006  0.1326507E+03  0.7561462E-02  0.1223575E+00
         -2   -1    0    0    0  501 -0.00000000000E+00  0.00000000000E+00  0.10030384304E+03  0.10030384304E+03  0.00000000000E+00 0.  1.
          2   -1    0    0  501    0  0.00000000000E+00 -0.00000000000E+00 -0.31716984080E+03  0.31716984080E+03  0.00000000000E+00 0. -1.
         23    2    1    2    0    0  0.91598119614E+02 -0.74626506449E+02 -0.24940599357E+02  0.17386516966E+03  0.12509089792E+03 0.  0.
          5    1    3    3  502    0  0.34844691221E+02 -0.60144465927E+02  0.44719128937E+02  0.82757369344E+02  0.41800000000E+01 0. -1.
         -5    1    3    3    0  502  0.56753428393E+02 -0.14482040522E+02 -0.69659728294E+02  0.91107800314E+02  0.41800000000E+01 0. -1.
        -11    1    1    2    0    0 -0.18546553968E+01  0.41103817765E+02 -0.17720048751E+02  0.44799148532E+02  0.00000000000E+00 0.  1.
         11    1    1    2    0    0 -0.89743464217E+02  0.33522688684E+02 -0.17420534965E+03  0.19880936566E+03  0.00000000000E+00 0. -1.
</event>
<event>
 7    1  0.6833760E-006  0.1126563E+03  0.7561462E-02  0.1255728E+00
          2   -1    0    0  501    0  0.00000000000E+00  0.00000000000E+00  0.23729411745E+03  0.23729411745E+03  0.00000000000E+00 0. -1.
         -2   -1    0    0    0  501 -0.00000000000E+00 -0.00000000000E+00 -0.23916411748E+03  0.23916411748E+03  0.00000000000E+00 0.  1.
         23    2    1    2    0    0  0.10519017582E+02 -0.27957015162E+02 -0.21023662445E+03  0.24474247662E+03  0.12168482721E+03 0.  0.
          5    1    3    3  502    0 -0.27406843767E+02  0.38469307579E+02 -0.97810448236E+02  0.10869856896E+03  0.41800000000E+01 0. -1.
         -5    1    3    3    0  502  0.37925861349E+02 -0.66426322741E+02 -0.11242617622E+03  0.13604390766E+03  0.41800000000E+01 0.  1.
        -11    1    1    2    0    0  0.43305888342E+02  0.90581072613E+01  0.95568456931E+02  0.10531276861E+03  0.00000000000E+00 0.  1.
         11    1    1    2    0    0 -0.53824905923E+02  0.18898907901E+02  0.11279816749E+03  0.12640298971E+03  0.00000000000E+00 0. -1.
</event>
<event>
 7    1  0.6833760E-006  0.8245773E+02  0.7561462E-02  0.1322218E+00
         -1   -1    0    0    0  501 -0.00000000000E+00  0.00000000000E+00  0.40130749623E+02  0.40130749623E+02  0.00000000000E+00 0.  1.
          1   -1    0    0  501    0  0.00000000000E+00 -0.00000000000E+00 -0.32561383668E+03  0.32561383668E+03  0.00000000000E+00 0. -1.
         23    2    1    2    0    0  0.90366469842E+01 -0.35231679223E+02 -0.16953692444E+03  0.21380736657E+03  0.12509152267E+03 0.  0.
          5    1    3    3  502    0 -0.26034811815E+02 -0.20668346292E+02 -0.17227738894E+03  0.17550488057E+03  0.41800000000E+01 0.  1.
         -5    1    3    3    0  502  0.35071458799E+02 -0.14563332931E+02  0.27404644986E+01  0.38302486003E+02  0.41800000000E+01 0.  1.
        -11    1    1    2    0    0 -0.19534724004E+02  0.61708030315E+02 -0.10049192035E+03  0.11953289298E+03  0.00000000000E+00 0. -1.
         11    1    1    2    0    0  0.10498077020E+02 -0.26476351093E+02 -0.15454242266E+02  0.32404326753E+02  0.00000000000E+00 0.  1.
</event>
<event>
 7    1  0.6833760E-006  0.9199594E+02  0.7561462E-02  0.1298089E+00
         -1   -1    0    0    0  501 -0.00000000000E+00  0.00000000000E+00  0.31038325454E+02  0.31038325454E+02  0.00000000000E+00 0.  1.
          1   -1    0    0  501    0  0.00000000000E+00 -0.00000000000E+00 -0.43343856544E+03  0.43343856544E+03  0.00000000000E+00 0. -1.
         23    2    1    2    0    0 -0.10854301733E+02  0.31034379102E+02 -0.18296545934E+03  0.22406429145E+03  0.12508996298E+03 0.  0.
          5    1    3    3  502    0  0.31573418523E+02 -0.80427448842E+01 -0.71336884644E+00  0.32856472690E+02  0.41800000000E+01 0.  1.
         -5    1    3    3    0  502 -0.42427720256E+02  0.39077123986E+02 -0.18225209049E+03  0.19120781876E+03  0.41800000000E+01 0.  1.
        -11    1    1    2    0    0  0.17018867202E+01  0.30777631374E+02 -0.11163109430E+03  0.11580872258E+03  0.00000000000E+00 0. -1.
         11    1    1    2    0    0  0.91524150125E+01 -0.61812010476E+02 -0.10780368635E+03  0.12460387686E+03  0.00000000000E+00 0.  1.
</event>
<event>
 7    1  0.6833760E-006  0.9695242E+02  0.7561462E-02  0.1286838E+00
         -1   -1    0    0    0  501 -0.00000000000E+00  0.00000000000E+00  0.17890667609E+03  0.17890667609E+03  0.00000000000E+00 0.  1.
          1   -1    0    0  501    0  0.00000000000E+00 -0.00000000000E+00 -0.75706017772E+02  0.75706017772E+02  0.00000000000E+00 0. -1.
         23    2    1    2    0    0 -0.21879606174E+02  0.59947830178E+01  0.97820675009E+02  0.16040698918E+03  0.12508742195E+03 0.  0.
          5    1    3    3  502    0  0.47670044111E+02 -0.19425365670E+02  0.29010649842E+02  0.59235699888E+02  0.41800000000E+01 0.  1.
         -5    1    3    3    0  502 -0.69549650285E+02  0.25420148688E+02  0.68810025167E+02  0.10117128929E+03  0.41800000000E+01 0.  1.
        -11    1    1    2    0    0 -0.10772459140E+02  0.22377388755E+02  0.34171618673E+02  0.42243258944E+02  0.00000000000E+00 0.  1.
         11    1    1    2    0    0  0.32652065314E+02 -0.28372171773E+02 -0.28791635361E+02  0.51962445739E+02  0.00000000000E+00 0. -1.
</event>
<event>
 7    1  0.6833760E-006  0.1061125E+03  0.7561462E-02  0.1267943E+00
          2   -1    0    0  501    0  0.00000000000E+00  0.00000000000E+00  0.22225418891E+03  0.22225418891E+03  0.00000000000E+00 0. -1.
         -2   -1    0    0    0  501 -0.00000000000E+00 -0.00000000000E+00 -0.10512660874E+03  0.10512660874E+03  0.00000000000E+00 0.  1.
         23    2    1    2    0    0  0.65553168436E+02  0.79493337732E+02  0.30459175701E+02  0.16489273064E+03  0.12508174366E+03 0.  0.
          5    1    3    3  502    0  0.61921517112E+02  0.51933592274E+02 -0.39094442020E+02  0.89873355811E+02  0.41800000000E+01 0.  1.
         -5    1    3    3    0  502  0.36316513237E+01  0.27559745458E+02  0.69553617721E+02  0.75019374825E+02  0.41800000000E+01 0.  1.
        -11    1    1    2    0    0 -0.14517441591E+02 -0.21438528047E+02 -0.18605664052E+02  0.31883182557E+02  0.00000000000E+00 0.  1.
         11    1    1    2    0    0 -0.51035726845E+02 -0.58054809685E+02  0.10527406852E+03  0.13060488446E+03  0.00000000000E+00 0. -1.
</event>
<event>
 7    1  0.6833760E-006  0.1080101E+03  0.7561462E-02  0.1264300E+00
          1   -1    0    0  501    0  0.00000000000E+00  0.00000000000E+00  0.60838171001E+02  0.60838171001E+02  0.00000000000E+00 0. -1.
         -1   -1    0    0    0  501 -0.00000000000E+00 -0.00000000000E+00 -0.22746141744E+03  0.22746141744E+03  0.00000000000E+00 0.  1.
         23    2    1    2    0    0  0.19031896408E+02 -0.31707357892E+02 -0.12733897608E+03  0.18229229356E+03  0.12509075041E+03 0.  0.
          5    1    3    3  502    0 -0.31601602212E+02 -0.59028457828E+02 -0.94571669655E+02  0.11594952866E+03  0.41800000000E+01 0. -1.
         -5    1    3    3    0  502  0.50633498620E+02  0.27321099936E+02 -0.32767306428E+02  0.66342764901E+02  0.41800000000E+01 0. -1.
        -11    1    1    2    0    0 -0.18005373228E+02 -0.27043254229E+02  0.44039520545E+01  0.32786061948E+02  0.00000000000E+00 0.  1.
         11    1    1    2    0    0 -0.10265231803E+01  0.58750612121E+02 -0.43688222414E+02  0.73221232932E+02  0.00000000000E+00 0. -1.
</event>
<event>
 7    1  0.6833760E-006  0.1545260E+03  0.7561462E-02  0.1195019E+00
          4   -1    0    0  501    0  0.00000000000E+00  0.00000000000E+00  0.59764935750E+02  0.59764935750E+02  0.00000000000E+00 0. -1.
         -4   -1    0    0    0  501 -0.00000000000E+00 -0.00000000000E+00 -0.52828559728E+03  0.52828559728E+03  0.00000000000E+00 0.  1.
         23    2    1    2    0    0 -0.92465702682E+02 -0.11343244792E+03 -0.23837779284E+03  0.30641239728E+03  0.12509100156E+03 0.  0.
          5    1    3    3  502    0  0.32785742056E+01 -0.35364061148E+02  0.23142560247E+01  0.35835653345E+02  0.41800000000E+01 0. -1.
         -5    1    3    3    0  502 -0.95744276888E+02 -0.78068386775E+02 -0.24069204886E+03  0.27057674393E+03  0.41800000000E+01 0. -1.
        -11    1    1    2    0    0  0.16199159557E+02  0.42681764545E+02 -0.12778500516E+03  0.13569507485E+03  0.00000000000E+00 0.  1.
         11    1    1    2    0    0  0.76266543125E+02  0.70750683378E+02 -0.10235786353E+03  0.14594306090E+03  0.00000000000E+00 0. -1.
</event>
<event>
 7    1  0.6833760E-006  0.1568183E+03  0.7561462E-02  0.1192336E+00
          3   -1    0    0  501    0  0.00000000000E+00  0.00000000000E+00  0.17626522145E+03  0.17626522145E+03  0.00000000000E+00 0. -1.
         -3   -1    0    0    0  501 -0.00000000000E+00 -0.00000000000E+00 -0.24610604658E+03  0.24610604658E+03  0.00000000000E+00 0.  1.
         23    2    1    2    0    0  0.55837164071E+02  0.12165641445E+03 -0.15413325735E+03  0.23942387807E+03  0.12509460540E+03 0.  0.
          5    1    3    3  502    0  0.52874517322E+02  0.14530806824E+03 -0.11250363084E+03  0.19127124360E+03  0.41800000000E+01 0.  1.
         -5    1    3    3    0  502  0.29626467491E+01 -0.23651653788E+02 -0.41629626518E+02  0.48152634473E+02  0.41800000000E+01 0.  1.
        -11    1    1    2    0    0 -0.85957110057E+01 -0.35147133979E+02 -0.18410499050E+02  0.40597459895E+02  0.00000000000E+00 0.  1.
         11    1    1    2    0    0 -0.47241453065E+02 -0.86509280468E+02  0.10270293128E+03  0.14234993006E+03  0.00000000000E+00 0. -1.
</event>
<event>
 7    1  0.6833760E-006  0.9511536E+02  0.7561462E-02  0.1290916E+00
          1   -1    0    0  501    0  0.00000000000E+00  0.00000000000E+00  0.57589965454E+03  0.57589965454E+03  0.00000000000E+00 0.  1.
         -1   -1    0    0    0  501 -0.00000000000E+00 -0.00000000000E+00 -0.45082141266E+02  0.45082141266E+02  0.00000000000E+00 0. -1.
         23    2    1    2    0    0  0.35752094733E+02 -0.42058314662E+02  0.81199881929E+02  0.15901910928E+03  0.12508613904E+03 0.  0.
          5    1    3    3  502    0  0.46217128889E+02 -0.54679548420E+02  0.10661216287E+03  0.12848930574E+03  0.41800000000E+01 0.  1.
         -5    1    3    3    0  502 -0.10465034156E+02  0.12621233758E+02 -0.25412280939E+02  0.30529803537E+02  0.41800000000E+01 0.  1.
        -11    1    1    2    0    0  0.28332012654E+02  0.14631951442E+02  0.85941657413E+02  0.91666599276E+02  0.00000000000E+00 0. -1.
         11    1    1    2    0    0 -0.64084107387E+02  0.27426363220E+02  0.36367597394E+03  0.37029608726E+03  0.00000000000E+00 0.  1.
</event>
<event>
 7    1  0.6833760E-006  0.1045737E+03  0.7561462E-02  0.1270962E+00
         -1   -1    0    0    0  501 -0.00000000000E+00  0.00000000000E+00  0.41001216511E+02  0.41001216511E+02  0.00000000000E+00 0.  1.
          1   -1    0    0  501    0  0.00000000000E+00 -0.00000000000E+00 -0.45016019223E+03  0.45016019223E+03  0.00000000000E+00 0. -1.
         23    2    1    2    0    0 -0.45210142876E+02  0.22071266494E+00 -0.10418714848E+03  0.16895774105E+03  0.12509096938E+03 0.  0.
          5    1    3    3  502    0 -0.12006792347E+02 -0.48463037597E+02 -0.10671820103E+01  0.50114272947E+02  0.41800000000E+01 0. -1.
         -5    1    3    3    0  502 -0.33203350529E+02  0.48683750262E+02 -0.10311996647E+03  0.11884346810E+03  0.41800000000E+01 0. -1.
        -11    1    1    2    0    0 -0.24129042765E+01  0.38508876181E+02 -0.16345973510E+03  0.16795189982E+03  0.00000000000E+00 0. -1.
         11    1    1    2    0    0  0.47623047153E+02 -0.38729588846E+02 -0.14151209213E+03  0.15425176787E+03  0.00000000000E+00 0.  1.
</event>
<event>
 7    1  0.6833760E-006  0.1770894E+03  0.7561462E-02  0.1170650E+00
         -1   -1    0    0    0  501 -0.00000000000E+00  0.00000000000E+00  0.68651272921E+03  0.68651272921E+03  0.00000000000E+00 0.  1.
          1   -1    0    0  501    0  0.00000000000E+00 -0.00000000000E+00 -0.76360480683E+02  0.76360480683E+02  0.00000000000E+00 0. -1.
         23    2    1    2    0    0  0.16244662721E+03 -0.12385690995E+02  0.51421729176E+03  0.55372331780E+03  0.12509107685E+03 0.  0.
          5    1    3    3  502    0  0.14632701454E+03  0.21370572801E+02  0.48195303277E+03  0.50414729471E+03  0.41800000000E+01 0.  1.
         -5    1    3    3    0  502  0.16119612671E+02 -0.33756263796E+02  0.32264258986E+02  0.49576023096E+02  0.41800000000E+01 0.  1.
        -11    1    1    2    0    0 -0.13357321886E+03  0.26944523197E+02  0.10877724642E+03  0.17435682225E+03  0.00000000000E+00 0.  1.
         11    1    1    2    0    0 -0.28873408347E+02 -0.14558832203E+02 -0.12842289657E+02  0.34793069832E+02  0.00000000000E+00 0. -1.
</event>
<event>
 7    1  0.6833760E-006  0.6911681E+02  0.7561462E-02  0.1363122E+00
          1   -1    0    0  501    0  0.00000000000E+00  0.00000000000E+00  0.75211696775E+02  0.75211696775E+02  0.00000000000E+00 0. -1.
         -1   -1    0    0    0  501 -0.00000000000E+00 -0.00000000000E+00 -0.17501636639E+03  0.17501636639E+03  0.00000000000E+00 0.  1.
         23    2    1    2    0    0  0.24073890409E+02 -0.24685784902E+02 -0.58691802448E+02  0.14240324528E+03  0.12508004004E+03 0.  0.
          5    1    3    3  502    0  0.89739572411E+01 -0.25077062178E+02 -0.97177828426E+02  0.10084836981E+03  0.41800000000E+01 0. -1.
         -5    1    3    3    0  502  0.15099933168E+02  0.39127727627E+00  0.38486025978E+02  0.41554875468E+02  0.41800000000E+01 0. -1.
        -11    1    1    2    0    0  0.24961216875E+02  0.37380798101E+02 -0.41894410368E+01  0.45143524793E+02  0.00000000000E+00 0. -1.
         11    1    1    2    0    0 -0.49035107284E+02 -0.12695013199E+02 -0.36923426129E+02  0.62681293091E+02  0.00000000000E+00 0.  1.
</event>
<event>
 7    1  0.6833760E-006  0.7915322E+02  0.7561462E-02  0.1331472E+00
         -1   -1    0    0    0  501 -0.00000000000E+00  0.00000000000E+00  0.47451289034E+02  0.47451289034E+02  0.00000000000E+00 0.  1.
          1   -1    0    0  501    0  0.00000000000E+00 -0.00000000000E+00 -0.39260983828E+03  0.39260983828E+03  0.00000000000E+00 0. -1.
         23    2    1    2    0    0 -0.14105917245E+02  0.35313571974E+02 -0.49173468398E+02  0.12920399132E+03  0.11326789533E+03 0.  0.
          5    1    3    3  502    0 -0.35808762745E+02  0.60193072508E+01 -0.75606795842E+02  0.83978327719E+02  0.41800000000E+01 0. -1.
         -5    1    3    3    0  502  0.21702845500E+02  0.29294264723E+02  0.26433327444E+02  0.45225663602E+02  0.41800000000E+01 0.  1.
        -11    1    1    2    0    0  0.24730132164E+02  0.18069935055E+02 -0.18180556483E+03  0.18436747380E+03  0.00000000000E+00 0. -1.
         11    1    1    2    0    0 -0.10624214920E+02 -0.53383507029E+02 -0.11417951602E+03  0.12648966220E+03  0.00000000000E+00 0.  1.
</event>
<event>
 6    1  0.6833760E-006  0.1917210E+03  0.7561462E-02  0.1156918E+00
         -2   -1    0    0    0  501 -0.00000000000E+00  0.00000000000E+00  0.37883727938E+03  0.37883727938E+03  0.00000000000E+00 0.  1.
          2   -1    0    0  501    0  0.00000000000E+00 -0.00000000000E+00 -0.37777702683E+03  0.37777702683E+03  0.00000000000E+00 0. -1.
          5    1    1    2  502    0 -0.50908154890E+02 -0.12126556691E+01 -0.54056921098E+02  0.74382349295E+02  0.41800000000E+01 0. -1.
         -5    1    1    2    0  502  0.16067748618E+03 -0.68262548469E+02  0.32539957181E+03  0.36929579449E+03  0.41800000000E+01 0.  1.
        -11    1    1    2    0    0 -0.12556669197E+03  0.64469577874E+02 -0.24227404417E+03  0.28039264092E+03  0.00000000000E+00 0. -1.
         11    1    1    2    0    0  0.15797360672E+02  0.50056262646E+01 -0.28008353996E+02  0.32543521507E+02  0.00000000000E+00 0.  1.
</event>
<event>
 7    1  0.6833760E-006  0.1293310E+03  0.7561462E-02  0.1228452E+00
         -2   -1    0    0    0  501 -0.00000000000E+00  0.00000000000E+00  0.35185872872E+02  0.35185872872E+02  0.00000000000E+00 0. -1.
          2   -1    0    0  501    0  0.00000000000E+00 -0.00000000000E+00 -0.96606340950E+03  0.96606340950E+03  0.00000000000E+00 0.  1.
         23    2    1    2    0    0  0.12235968183E+03 -0.14891369545E+02 -0.26305004229E+03  0.31628571926E+03  0.12509071444E+03 0.  0.
          5    1    3    3  502    0  0.66214435714E+02 -0.27138207329E+02 -0.32608528116E+02  0.78750379681E+02  0.41800000000E+01 0. -1.
         -5    1    3    3    0  502  0.56145246113E+02  0.12246837784E+02 -0.23044151417E+03  0.23753533958E+03  0.41800000000E+01 0. -1.
        -11    1    1    2    0    0 -0.11588679829E+03  0.31197233904E+01 -0.65845706337E+03  0.66858446512E+03  0.00000000000E+00 0.  1.
         11    1    1    2    0    0 -0.64728835390E+01  0.11771646155E+02 -0.93704309698E+01  0.16379097993E+02  0.00000000000E+00 0. -1.
</event>
<event>
 7    1  0.6833760E-006  0.1749789E+03  0.7561462E-02  0.1172753E+00
         -2   -1    0    0    0  501 -0.00000000000E+00  0.00000000000E+00  0.26201999170E+02  0.26201999170E+02  0.00000000000E+00 0. -1.
          2   -1    0    0  501    0  0.00000000000E+00 -0.00000000000E+00 -0.14586647815E+04  0.14586647815E+04  0.00000000000E+00 0.  1.
         23    2    1    2    0    0 -0.13976708467E+03 -0.74165735793E+02 -0.61028667084E+03  0.64275341062E+03  0.12508689751E+03 0.  0.
          5    1    3    3  502    0 -0.63130548448E+02 -0.17064727442E+01 -0.42352944837E+03  0.42823246518E+03  0.41800000000E+01 0. -1.
         -5    1    3    3    0  502 -0.76636536227E+02 -0.72459263049E+02 -0.18675722247E+03  0.21452094544E+03  0.41800000000E+01 0. -1.
        -11    1    1    2    0    0  0.59894200758E+02  0.81237434142E+02 -0.50232309323E+03  0.51236249470E+03  0.00000000000E+00 0.  1.
         11    1    1    2    0    0  0.79872883917E+02 -0.70716983488E+01 -0.31985301828E+03  0.32975087537E+03  0.00000000000E+00 0. -1.
</event>
<event>
 7    1  0.6833760E-006  0.8356711E+02  0.7561462E-02  0.1319223E+00
         -2   -1    0    0    0  501 -0.00000000000E+00  0.00000000000E+00  0.50456947625E+02  0.50456947625E+02  0.00000000000E+00 0.  1.
          2   -1    0    0  501    0  0.00000000000E+00 -0.00000000000E+00 -0.32744304627E+03  0.32744304627E+03  0.00000000000E+00 0. -1.
         23    2    1    2    0    0  0.28567262360E+02  0.69490204050E+01 -0.79836052856E+02  0.15128044308E+03  0.12509036637E+03 0.  0.
          5    1    3    3  502    0  0.48737399608E+02 -0.28450273765E+02  0.52691996929E+01  0.56832992736E+02  0.41800000000E+01 0.  1.
         -5    1    3    3    0  502 -0.20170137248E+02  0.35399294170E+02 -0.85105252549E+02  0.94447450340E+02  0.41800000000E+01 0.  1.
        -11    1    1    2    0    0 -0.15939221890E+02 -0.35202314563E+02 -0.19125032904E+03  0.19511522263E+03  0.00000000000E+00 0. -1.
         11    1    1    2    0    0 -0.12628040470E+02  0.28253294158E+02 -0.58997167525E+01  0.31504328189E+02  0.00000000000E+00 0.  1.
</event>
<event>
 7    1  0.6833760E-006  0.1110911E+03  0.7561462E-02  0.1258563E+00
          2   -1    0    0  501    0  0.00000000000E+00  0.00000000000E+00  0.58052899057E+03  0.58052899057E+03  0.00000000000E+00 0.  1.
         -2   -1    0    0    0  501 -0.00000000000E+00 -0.00000000000E+00 -0.23644100427E+02  0.23644100427E+02  0.00000000000E+00 0. -1.
         23    2    1    2    0    0 -0.38793247273E+02 -0.27340570882E+01  0.37953752547E+03  0.40150737325E+03  0.12508815465E+03 0.  0.
          5    1    3    3  502    0  0.78544148037E+01 -0.54234686307E+02  0.23128345518E+03  0.23772379366E+03  0.41800000000E+01 0.  1.
         -5    1    3    3    0  502 -0.46647662077E+02  0.51500629219E+02  0.14825407029E+03  0.16378357960E+03  0.41800000000E+01 0.  1.
        -11    1    1    2    0    0 -0.19732747709E+02 -0.25814972003E+02  0.68740451786E+02  0.76033175808E+02  0.00000000000E+00 0.  1.
         11    1    1    2    0    0  0.58525994983E+02  0.28549029091E+02  0.10860691289E+03  0.12663254194E+03  0.00000000000E+00 0. -1.
</event>
<event>
 7    1  0.6833760E-006  0.1016916E+03  0.7561462E-02  0.1276778E+00
         -2   -1    0    0    0  501 -0.00000000000E+00  0.00000000000E+00  0.28073171840E+03  0.28073171840E+03  0.00000000000E+00 0.  1.
          2   -1    0    0  501    0  0.00000000000E+00 -0.00000000000E+00 -0.61297598799E+02  0.61297598799E+02  0.00000000000E+00 0. -1.
         23    2    1    2    0    0  0.31971952656E+02  0.17059194055E+02  0.21026014265E+03  0.24732472915E+03  0.12508785795E+03 0.  0.
          5    1    3    3  502    0  0.19328081813E+02  0.67101435810E+02  0.75345516363E+02  0.10281340706E+03  0.41800000000E+01 0. -1.
         -5    1    3    3    0  502  0.12643870843E+02 -0.50042241755E+02  0.13491462628E+03  0.14451132210E+03  0.41800000000E+01 0. -1.
        -11    1    1    2    0    0 -0.29138501230E+02 -0.44972980855E+02  0.28442649632E+02  0.60667994684E+02  0.00000000000E+00 0.  1.
         11    1    1    2    0    0 -0.28334514257E+01  0.27913786800E+02 -0.19268672680E+02  0.34036593357E+02  0.00000000000E+00 0. -1.
</event>
<event>
 7    1  0.6833760E-006  0.2090524E+03  0.7561462E-02  0.1142319E+00
          2   -1    0    0  501    0  0.00000000000E+00  0.00000000000E+00  0.67229057001E+03  0.67229057001E+03  0.00000000000E+00 0. -1.
         -2   -1    0    0    0  501 -0.00000000000E+00 -0.00000000000E+00 -0.91060593870E+02  0.91060593870E+02  0.00000000000E+00 0.  1.
         23    2    1    2    0    0  0.86394784264E+02 -0.17856884264E+03  0.14471299678E+03  0.27557210052E+03  0.12508893172E+03 0.  0.
          5    1    3    3  502    0  0.61294549952E+02 -0.91963964291E+02  0.14857967408E+03  0.18522360684E+03  0.41800000000E+01 0.  1.
         -5    1    3    3    0  502  0.25100234312E+02 -0.86604878346E+02 -0.38666773050E+01  0.90348493674E+02  0.41800000000E+01 0.  1.
        -11    1    1    2    0    0 -0.18181749988E+02  0.13518232807E+03  0.25902099362E+03  0.29274000921E+03  0.00000000000E+00 0.  1.
         11    1    1    2    0    0 -0.68213034277E+02  0.43386514571E+02  0.17749598574E+03  0.19503905416E+03  0.00000000000E+00 0. -1.
</event>
<event>
 7    1  0.6833760E-006  0.1115780E+03  0.7561462E-02  0.1257675E+00
         -1   -1    0    0    0  501 -0.00000000000E+00  0.00000000000E+00  0.11676342897E+03  0.11676342897E+03  0.00000000000E+00 0.  1.
          1   -1    0    0  501    0  0.00000000000E+00 -0.00000000000E+00 -0.19416424049E+03  0.19416424049E+03  0.00000000000E+00 0. -1.
         23    2    1    2    0    0 -0.53307914576E+02 -0.41738257120E+02  0.39525694089E+02  0.14763015897E+03  0.12509423440E+03 0.  0.
          5    1    3    3  502    0 -0.76974047735E+02 -0.70697279377E+02  0.29881123399E+02  0.10878172306E+03  0.41800000000E+01 0.  1.
         -5    1    3    3    0  502  0.23666133159E+02  0.28959022257E+02  0.96445706897E+01  0.38848435909E+02  0.41800000000E+01 0.  1.
        -11    1    1    2    0    0  0.14068313125E+02 -0.90632838160E+01  0.11098718015E+02  0.20080888657E+02  0.00000000000E+00 0.  1.
         11    1    1    2    0    0  0.39239601451E+02  0.50801540936E+02 -0.12802522363E+03  0.14321662183E+03  0.00000000000E+00 0. -1.
</event>
<event>
 7    1  0.6833760E-006  0.8377161E+02  0.7561462E-02  0.1318677E+00
          1   -1    0    0  501    0  0.00000000000E+00  0.00000000000E+00  0.43978219164E+02  0.43978219164E+02  0.00000000000E+00 0.  1.
         -1   -1    0    0    0  501 -0.00000000000E+00 -0.00000000000E+00 -0.31832584634E+03  0.31832584634E+03  0.00000000000E+00 0. -1.
         23    2    1    2    0    0  0.16029133721E+02 -0.34955124979E+02 -0.19807902503E+03  0.23740571101E+03  0.12508947827E+03 0.  0.
          5    1    3    3  502    0  0.55165196360E+02  0.87930315066E+01 -0.40294740644E+02  0.69004744881E+02  0.41800000000E+01 0. -1.
         -5    1    3    3    0  502 -0.39136062639E+02 -0.43748156485E+02 -0.15778428438E+03  0.16840096613E+03  0.41800000000E+01 0. -1.
        -11    1    1    2    0    0 -0.27149264866E+02  0.18634052803E+02 -0.93224257936E+02  0.98868967701E+02  0.00000000000E+00 0. -1.
         11    1    1    2    0    0  0.11120131145E+02  0.16321072176E+02  0.16955655787E+02  0.26029386793E+02  0.00000000000E+00 0.  1.
</event>
<event>
 7    1  0.6833760E-006  0.9636456E+02  0.7561462E-02  0.1288132E+00
         -2   -1    0    0    0  501 -0.00000000000E+00  0.00000000000E+00  0.35076061237E+03  0.35076061237E+03  0.00000000000E+00 0.  1.
          2   -1    0    0  501    0  0.00000000000E+00 -0.00000000000E+00 -0.34710701480E+02  0.34710701480E+02  0.00000000000E+00 0. -1.
         23    2    1    2    0    0  0.27666434021E+01 -0.11371489970E+02  0.21031309938E+03  0.24498164886E+03  0.12508974142E+03 0.  0.
          5    1    3    3  502    0  0.18998513868E+02  0.41712378525E+02  0.26906688944E+02  0.53313303793E+02  0.41800000000E+01 0.  1.
         -5    1    3    3    0  502 -0.16231870466E+02 -0.53083868494E+02  0.18340641043E+03  0.19166834507E+03  0.41800000000E+01 0.  1.
        -11    1    1    2    0    0 -0.43511555038E+02  0.22241433589E+02  0.69066859382E+02  0.84605956380E+02  0.00000000000E+00 0.  1.
         11    1    1    2    0    0  0.40744911636E+02 -0.10869943620E+02  0.36669952129E+02  0.55883708607E+02  0.00000000000E+00 0. -1.
</event>
<event>
 7    1  0.6833760E-006  0.2171588E+03  0.7561462E-02  0.1136019E+00
         -4   -1    0    0    0  501 -0.00000000000E+00  0.00000000000E+00  0.25152540249E+03  0.25152540249E+03  0.00000000000E+00 0.  1.
          4   -1    0    0  501    0  0.00000000000E+00 -0.00000000000E+00 -0.32238049595E+03  0.32238049595E+03  0.00000000000E+00 0. -1.
         23    2    1    2    0    0 -0.14440823597E+03 -0.14901218181E+03  0.12887879319E+03  0.27443422242E+03  0.12508409233E+03 0.  0.
          5    1    3    3  502    0  0.17923052058E+01 -0.76400563293E+01  0.58523081361E+02  0.59194647314E+02  0.41800000000E+01 0.  1.
         -5    1    3    3    0  502 -0.14620054117E+03 -0.14137212548E+03  0.70355711833E+02  0.21523957510E+03  0.41800000000E+01 0.  1.
        -11    1    1    2    0    0  0.76998885793E+02  0.25166279167E+02 -0.87619889671E+02  0.11932902030E+03  0.00000000000E+00 0.  1.
         11    1    1    2    0    0  0.67409350172E+02  0.12384590265E+03 -0.11211399698E+03  0.18014265572E+03  0.00000000000E+00 0. -1.
</event>
<event>
 7    1  0.6833760E-006  0.1231125E+03  0.7561462E-02  0.1238049E+00
          2   -1    0    0  501    0  0.00000000000E+00  0.00000000000E+00  0.15312935933E+04  0.15312935933E+04  0.00000000000E+00 0. -1.
         -2   -1    0    0    0  501 -0.00000000000E+00 -0.00000000000E+00 -0.10193785738E+02  0.10193785738E+02  0.00000000000E+00 0.  1.
         23    2    1    2    0    0 -0.25508285066E+02 -0.54459348168E+02  0.90009387295E+03  0.91072964316E+03  0.12507201767E+03 0.  0.
          5    1    3    3  502    0  0.25264924013E+02 -0.76172174257E+02  0.62249937153E+03  0.62766508304E+03  0.41800000000E+01 0.  1.
         -5    1    3    3    0  502 -0.50773209079E+02  0.21712826089E+02  0.27759450142E+03  0.28306456012E+03  0.41800000000E+01 0.  1.
        -11    1    1    2    0    0 -0.23186755459E+02  0.57191241030E+02  0.34575294537E+03  0.35121725884E+03  0.00000000000E+00 0.  1.
         11    1    1    2    0    0  0.48695040526E+02 -0.27318928623E+01  0.27525298922E+03  0.27954047701E+03  0.00000000000E+00 0. -1.
</event>
<event>
 7    1  0.6833760E-006  0.9479806E+02  0.7561462E-02  0.1291632E+00
          2   -1    0    0  501    0  0.00000000000E+00  0.00000000000E+00  0.85080997631E+03  0.85080997631E+03  0.00000000000E+00 0. -1.
         -2   -1    0    0    0  501 -0.00000000000E+00 -0.00000000000E+00 -0.17425268560E+02  0.17425268560E+02  0.00000000000E+00 0.  1.
         23    2    1    2    0    0  0.24646181449E+02  0.48083067363E+02  0.49627677005E+03  0.51464283040E+03  0.12508874757E+03 0.  0.
          5    1    3    3  502    0  0.76990348746E+01 -0.31604733144E+02  0.42978160445E+02  0.54062269379E+02  0.41800000000E+01 0.  1.
         -5    1    3    3    0  502  0.16947146574E+02  0.79687800507E+02  0.45329860960E+03  0.46058056102E+03  0.41800000000E+01 0.  1.
        -11    1    1    2    0    0  0.16206199290E+02 -0.83344321137E+01  0.85548948759E+01  0.20131812646E+02  0.00000000000E+00 0.  1.
         11    1    1    2    0    0 -0.40852380739E+02 -0.39748635249E+02  0.32855304282E+03  0.33346060182E+03  0.00000000000E+00 0. -1.
</event>
<event>
 7    1  0.6833760E-006  0.1149355E+03  0.7561462E-02  0.1251694E+00
         -2   -1    0    0    0  501 -0.00000000000E+00  0.00000000000E+00  0.19366421463E+02  0.19366421463E+02  0.00000000000E+00 0. -1.
          2   -1    0    0  501    0  0.00000000000E+00 -0.00000000000E+00 -0.80349415104E+03  0.80349415104E+03  0.00000000000E+00 0.  1.
         23    2    1    2    0    0  0.31082631487E+02  0.29941749121E+02 -0.29408369874E+03  0.32248162369E+03  0.12508612007E+03 0.  0.
          5    1    3    3  502    0  0.21403499979E+02 -0.46609039968E+02 -0.82545261525E+02  0.97271295963E+02  0.41800000000E+01 0. -1.
         -5    1    3    3    0  502  0.96791315078E+01  0.76550789090E+02 -0.21153843721E+03  0.22521032773E+03  0.41800000000E+01 0. -1.
        -11    1    1    2    0    0 -0.63654861061E+02 -0.15535616252E+02 -0.31125532921E+03  0.31807731241E+03  0.00000000000E+00 0. -1.
         11    1    1    2    0    0  0.32572229574E+02 -0.14406132869E+02 -0.17878870163E+03  0.18230163640E+03  0.00000000000E+00 0.  1.
</event>
<event>
 7    1  0.6833760E-006  0.9013558E+02  0.7561462E-02  0.1302524E+00
          1   -1    0    0  501    0  0.00000000000E+00  0.00000000000E+00  0.71704389259E+02  0.71704389259E+02  0.00000000000E+00 0. -1.
         -1   -1    0    0    0  501 -0.00000000000E+00 -0.00000000000E+00 -0.23227585249E+03  0.23227585249E+03  0.00000000000E+00 0.  1.
         23    2    1    2    0    0  0.33046279506E+02 -0.57804148588E+02 -0.98587863942E+02  0.17262897689E+03  0.12509124894E+03 0.  0.
          5    1    3    3  502    0  0.59895833177E+02 -0.22043733720E+02 -0.10913289108E+03  0.12649465342E+03  0.41800000000E+01 0.  1.
         -5    1    3    3    0  502 -0.26849553671E+02 -0.35760414868E+02  0.10545027143E+02  0.46134323462E+02  0.41800000000E+01 0.  1.
        -11    1    1    2    0    0 -0.33887944834E+02  0.35500060036E+02 -0.85716098166E+02  0.98771942131E+02  0.00000000000E+00 0.  1.
         11    1    1    2    0    0  0.84166532759E+00  0.22304088552E+02  0.23732498877E+02  0.32579322731E+02  0.00000000000E+00 0. -1.
</event>
<event>
 7    1  0.6833760E-006  0.1125164E+03  0.7561462E-02  0.1255980E+00
          1   -1    0    0  501    0  0.00000000000E+00  0.00000000000E+00  0.17216627857E+03  0.17216627857E+03  0.00000000000E+00 0. -1.
         -1   -1    0    0    0  501 -0.00000000000E+00 -0.00000000000E+00 -0.11453310232E+03  0.11453310232E+03  0.00000000000E+00 0.  1.
         23    2    1    2    0    0 -0.92477277630E+02  0.71868558506E+01  0.28029645264E+02  0.15200922489E+03  0.11712149958E+03 0.  0.
          5    1    3    3  502    0 -0.53382673131E+02 -0.39264287595E+02 -0.25335302645E+02  0.71068586809E+02  0.41800000000E+01 0. -1.
         -5    1    3    3    0  502 -0.39094604499E+02  0.46451143446E+02  0.53364947909E+02  0.80940638085E+02  0.41800000000E+01 0.  1.
        -11    1    1    2    0    0  0.77720207965E+02 -0.17634159822E+02 -0.19769073334E+02  0.82110965037E+02  0.00000000000E+00 0.  1.
         11    1    1    2    0    0  0.14757069665E+02  0.10447303971E+02  0.49372604313E+02  0.52579190960E+02  0.00000000000E+00 0. -1.
</event>
<event>
 7    1  0.6833760E-006  0.7329051E+02  0.7561462E-02  0.1349248E+00
          1   -1    0    0  501    0  0.00000000000E+00  0.00000000000E+00  0.27092524960E+02  0.27092524960E+02  0.00000000000E+00 0. -1.
         -1   -1    0    0    0  501 -0.00000000000E+00 -0.00000000000E+00 -0.10842925594E+04  0.10842925594E+04  0.00000000000E+00 0.  1.
         23    2    1    2    0    0  0.34145392611E+02  0.10308278055E+02 -0.97620241060E+03  0.98398780844E+03  0.11827380208E+03 0.  0.
          5    1    3    3  502    0 -0.17819225400E+02  0.37342702567E+01 -0.24367786491E+02  0.30703924614E+02  0.41800000000E+01 0. -1.
         -5    1    3    3    0  502  0.51964618011E+02  0.65740077980E+01 -0.95183462411E+03  0.95328388383E+03  0.41800000000E+01 0.  1.
        -11    1    1    2    0    0  0.12199148143E+02 -0.24092268303E+02 -0.73708873181E+02  0.78500029255E+02  0.00000000000E+00 0.  1.
         11    1    1    2    0    0 -0.46344540754E+02  0.13783990248E+02 -0.72887506499E+01  0.48897246660E+02  0.00000000000E+00 0. -1.
</event>
<event>
 7    1  0.6833760E-006  0.1140089E+03  0.7561462E-02  0.1253321E+00
         -2   -1    0    0    0  501 -0.00000000000E+00  0.00000000000E+00  0.11229745864E+03  0.11229745864E+03  0.00000000000E+00 0.  1.
          2   -1    0    0  501    0  0.00000000000E+00 -0.00000000000E+00 -0.13732199769E+03  0.13732199769E+03  0.00000000000E+00 0. -1.
         23    2    1    2    0    0 -0.79896176395E+01  0.36376554359E+02  0.33163073550E+02  0.13466564846E+03  0.12509180521E+03 0.  0.
          5    1    3    3  502    0 -0.41140481245E+02  0.70282857736E+02  0.11455450408E+02  0.82346335879E+02  0.41800000000E+01 0. -1.
         -5    1    3    3    0  502  0.33150863605E+02 -0.33906303378E+02  0.21707623143E+02  0.52319312582E+02  0.41800000000E+01 0. -1.
        -11    1    1    2    0    0  0.25411629399E+02  0.24650572381E+02 -0.24950918844E+02  0.43312238208E+02  0.00000000000E+00 0. -1.
         11    1    1    2    0    0 -0.17422011759E+02 -0.61027126740E+02 -0.33236693755E+02  0.71641569662E+02  0.00000000000E+00 0.  1.
</event>
<event>
 7    1  0.6833760E-006  0.1110400E+03  0.7561462E-02  0.1258656E+00
          1   -1    0    0  501    0  0.00000000000E+00  0.00000000000E+00  0.27086320842E+03  0.27086320842E+03  0.00000000000E+00 0. -1.
         -1   -1    0    0    0  501 -0.00000000000E+00 -0.00000000000E+00 -0.82181627206E+02  0.82181627206E+02  0.00000000000E+00 0.  1.
         23    2    1    2    0    0 -0.60977667772E+02 -0.69114661594E+02  0.54071426504E+02  0.16446538148E+03  0.12502011889E+03 0.  0.
          5    1    3    3  502    0 -0.56445261635E+02 -0.45293582358E+02 -0.28811272929E+02  0.78007294605E+02  0.41800000000E+01 0.  1.
         -5    1    3    3    0  502 -0.45324061366E+01 -0.23821079236E+02  0.82882699433E+02  0.86458086878E+02  0.41800000000E+01 0.  1.
        -11    1    1    2    0    0 -0.20655228933E+02  0.51867031204E+01  0.37549690326E+01  0.21624989340E+02  0.00000000000E+00 0.  1.
         11    1    1    2    0    0  0.81632896704E+02  0.63927958474E+02  0.13085518568E+03  0.16695446480E+03  0.00000000000E+00 0. -1.
</event>
<event>
 7    1  0.6833760E-006  0.5911338E+02  0.7561462E-02  0.1401591E+00
         -3   -1    0    0    0  501 -0.00000000000E+00  0.00000000000E+00  0.22502889930E+03  0.22502889930E+03  0.00000000000E+00 0.  1.
          3   -1    0    0  501    0  0.00000000000E+00 -0.00000000000E+00 -0.64322882126E+02  0.64322882126E+02  0.00000000000E+00 0. -1.
         23    2    1    2    0    0  0.27530605208E+02  0.35453926357E+02  0.10580677146E+03  0.16991759141E+03  0.12514791195E+03 0.  0.
          5    1    3    3  502    0  0.91205319143E+01  0.36322114794E+02 -0.20026318120E+02  0.42673246220E+02  0.41800000000E+01 0. -1.
         -5    1    3    3    0  502  0.18410073293E+02 -0.86818843630E+00  0.12583308958E+03  0.12724434519E+03  0.41800000000E+01 0. -1.
        -11    1    1    2    0    0 -0.18183751170E+01 -0.35884036091E+02  0.77356010271E+02  0.85293158338E+02  0.00000000000E+00 0.  1.
         11    1    1    2    0    0 -0.25712230091E+02  0.43010973347E+00 -0.22456764548E+02  0.34141031686E+02  0.00000000000E+00 0. -1.
</event>
<event>
 7    1  0.6833760E-006  0.1063275E+03  0.7561462E-02  0.1267526E+00
          4   -1    0    0  501    0  0.00000000000E+00  0.00000000000E+00  0.30773589062E+02  0.30773589062E+02  0.00000000000E+00 0. -1.
         -4   -1    0    0    0  501 -0.00000000000E+00 -0.00000000000E+00 -0.39659743342E+03  0.39659743342E+03  0.00000000000E+00 0.  1.
         23    2    1    2    0    0  0.30271475896E+01 -0.16762678358E+02 -0.24027805778E+03  0.27142536822E+03  0.12509210389E+03 0.  0.
          5    1    3    3  502    0 -0.28580867944E+02  0.46461828222E+02 -0.90460830354E+02  0.10571755636E+03  0.41800000000E+01 0. -1.
         -5    1    3    3    0  502  0.31608015533E+02 -0.63224506580E+02 -0.14981722743E+03  0.16570781187E+03  0.41800000000E+01 0. -1.
        -11    1    1    2    0    0 -0.19482499087E+02  0.48015416538E+02 -0.47562440521E+02  0.70336574727E+02  0.00000000000E+00 0. -1.
         11    1    1    2    0    0  0.16455351498E+02 -0.31252738179E+02 -0.77983346049E+02  0.85609079527E+02  0.00000000000E+00 0.  1.
</event>
<event>
 6    1  0.6833760E-006  0.1722488E+03  0.7561462E-02  0.1175523E+00
         -1   -1    0    0    0  501 -0.00000000000E+00  0.00000000000E+00  0.13524319778E+03  0.13524319778E+03  0.00000000000E+00 0.  1.
          1   -1    0    0  501    0  0.00000000000E+00 -0.00000000000E+00 -0.31477628873E+03  0.31477628873E+03  0.00000000000E+00 0. -1.
          5    1    1    2  502    0  0.66129693823E+02 -0.13688155061E+03 -0.67250625526E+02  0.16628233321E+03  0.41800000000E+01 0. -1.
         -5    1    1    2    0  502  0.16386913879E+02  0.90922809935E+02  0.19754186498E+02  0.94568433408E+02  0.41800000000E+01 0.  1.
        -11    1    1    2    0    0 -0.50517320315E+02  0.94531763695E+01 -0.32045114750E+01  0.51493990805E+02  0.00000000000E+00 0.  1.
         11    1    1    2    0    0 -0.31999287387E+02  0.36505564305E+02 -0.12883214045E+03  0.13767472909E+03  0.00000000000E+00 0. -1.
</event>
<event>
 7    1  0.6833760E-006  0.1037190E+03  0.7561462E-02  0.1272664E+00
         -1   -1    0    0    0  501 -0.00000000000E+00  0.00000000000E+00  0.48804636398E+03  0.48804636398E+03  0.00000000000E+00 0.  1.
          1   -1    0    0  501    0  0.00000000000E+00 -0.00000000000E+00 -0.25125176783E+02  0.25125176783E+02  0.00000000000E+00 0. -1.
         23    2    1    2    0    0  0.46335817465E+01  0.81408475460E+00  0.31378681386E+03  0.33782888285E+03  0.12507620366E+03 0.  0.
          5    1    3    3  502    0  0.62041726735E+02 -0.10467495199E+02  0.12288594652E+03  0.13812013816E+03  0.41800000000E+01 0. -1.
         -5    1    3    3    0  502 -0.57408144988E+02  0.11281579953E+02  0.19090086733E+03  0.19970874469E+03  0.41800000000E+01 0. -1.
        -11    1    1    2    0    0 -0.38572105552E+02 -0.23253753802E+02  0.11011517004E+03  0.11897014359E+03  0.00000000000E+00 0.  1.
         11    1    1    2    0    0  0.33938523805E+02  0.22439669047E+02  0.39019203299E+02  0.56372514323E+02  0.00000000000E+00 0. -1.
</event>
<event>
 7    1  0.6833760E-006  0.9751066E+02  0.7561462E-02  0.1285619E+00
         -2   -1    0    0    0  501 -0.00000000000E+00  0.00000000000E+00  0.11717343139E+03  0.11717343139E+03  0.00000000000E+00 0. -1.
          2   -1    0    0  501    0  0.00000000000E+00 -0.00000000000E+00 -0.10076801683E+03  0.10076801683E+03  0.00000000000E+00 0.  1.
         23    2    1    2    0    0 -0.30177743946E+01 -0.21259639153E+02  0.23923743953E+02  0.12914995076E+03  0.12508511117E+03 0.  0.
          5    1    3    3  502    0  0.39476410787E+02 -0.56673653502E+02  0.25258589342E+02  0.73659749833E+02  0.41800000000E+01 0.  1.
         -5    1    3    3    0  502 -0.42494185182E+02  0.35414014349E+02 -0.13348453893E+01  0.55490200926E+02  0.41800000000E+01 0.  1.
        -11    1    1    2    0    0  0.24442992650E+02  0.36593703415E+02  0.22021662190E+02  0.49208867341E+02  0.00000000000E+00 0.  1.
         11    1    1    2    0    0 -0.21425218256E+02 -0.15334064262E+02 -0.29539991586E+02  0.39582630117E+02  0.00000000000E+00 0. -1.
</event>
<event>
 7    1  0.6833760E-006  0.8358735E+02  0.7561462E-02  0.1319169E+00
         -1   -1    0    0    0  501 -0.00000000000E+00  0.00000000000E+00  0.11248736104E+04  0.11248736104E+04  0.00000000000E+00 0.  1.
          1   -1    0    0  501    0  0.00000000000E+00 -0.00000000000E+00 -0.11391552929E+02  0.11391552929E+02  0.00000000000E+00 0. -1.
         23    2    1    2    0    0  0.25337286807E+02 -0.36551725946E+01  0.74349447730E+03  0.75437818760E+03  0.12508826387E+03 0.  0.
          5    1    3    3  502    0  0.34581500444E+02  0.24768453023E+02  0.84515617052E+02  0.94708597096E+02  0.41800000000E+01 0.  1.
         -5    1    3    3    0  502 -0.92442136365E+01 -0.28423625617E+02  0.65897886025E+03  0.65966959050E+03  0.41800000000E+01 0.  1.
        -11    1    1    2    0    0 -0.38807865861E+02  0.39855254692E+02  0.20234781663E+03  0.20985502299E+03  0.00000000000E+00 0. -1.
         11    1    1    2    0    0  0.13470579054E+02 -0.36200082098E+02  0.16763976352E+03  0.17203195273E+03  0.00000000000E+00 0.  1.
</event>
<event>
 7    1  0.6833760E-006  0.6725244E+02  0.7561462E-02  0.1369694E+00
          1   -1    0    0  501    0  0.00000000000E+00  0.00000000000E+00  0.17874032563E+03  0.17874032563E+03  0.00000000000E+00 0. -1.
         -1   -1    0    0    0  501 -0.00000000000E+00 -0.00000000000E+00 -0.84818074128E+02  0.84818074128E+02  0.00000000000E+00 0.  1.
         23    2    1    2    0    0  0.11526041160E+02  0.36567142187E+02  0.77940450265E+00  0.13083395951E+03  0.12508761720E+03 0.  0.
          5    1    3    3  502    0 -0.42461212757E+01  0.34286774057E+02  0.60001295680E+02  0.69363104778E+02  0.41800000000E+01 0.  1.
         -5    1    3    3    0  502  0.15772162436E+02  0.22803681303E+01 -0.59221891178E+02  0.61470854731E+02  0.41800000000E+01 0.  1.
        -11    1    1    2    0    0 -0.41077538870E+02 -0.34433367694E+02  0.26502931821E+02  0.59794869391E+02  0.00000000000E+00 0.  1.
         11    1    1    2    0    0  0.29551497710E+02 -0.21337744930E+01  0.66639915179E+02  0.72929570858E+02  0.00000000000E+00 0. -1.
</event>
<event>
 7    1  0.6833760E-006  0.1188820E+03  0.7561462E-02  0.1244953E+00
         -1   -1    0    0    0  501 -0.00000000000E+00  0.00000000000E+00  0.29878682292E+02  0.29878682292E+02  0.00000000000E+00 0.  1.
          1   -1    0    0  501    0  0.00000000000E+00 -0.00000000000E+00 -0.82623133921E+03  0.82623133921E+03  0.00000000000E+00 0. -1.
         23    2    1    2    0    0  0.44035801417E+02 -0.90000007028E+02 -0.28420766750E+03  0.32628388654E+03  0.12509205923E+03 0.  0.
          5    1    3    3  502    0 -0.52271334559E+01 -0.14640255040E+02 -0.20694537824E+03  0.20757052288E+03  0.41800000000E+01 0.  1.
         -5    1    3    3    0  502  0.49262934873E+02 -0.75359751988E+02 -0.77262289255E+02  0.11871336367E+03  0.41800000000E+01 0.  1.
        -11    1    1    2    0    0 -0.49262313852E+02  0.86467387879E+01 -0.26204525738E+03  0.26677567088E+03  0.00000000000E+00 0. -1.
         11    1    1    2    0    0  0.52265124352E+01  0.81353268240E+02 -0.25009973205E+03  0.26305046408E+03  0.00000000000E+00 0.  1.
</event>
<event>
 7    1  0.6833760E-006  0.8118113E+02  0.7561462E-02  0.1325733E+00
          1   -1    0    0  501    0  0.00000000000E+00  0.00000000000E+00  0.78727455305E+03  0.78727455305E+03  0.00000000000E+00 0. -1.
         -1   -1    0    0    0  501 -0.00000000000E+00 -0.00000000000E+00 -0.19087335710E+02  0.19087335710E+02  0.00000000000E+00 0.  1.
         23    2    1    2    0    0  0.52406956666E+02  0.22334614447E+02  0.41950433376E+03  0.44144865261E+03  0.12509077800E+03 0.  0.
          5    1    3    3  502    0  0.33539344262E+02  0.11553056925E+00  0.16936079007E+02  0.37804816266E+02  0.41800000000E+01 0.  1.
         -5    1    3    3    0  502  0.18867612405E+02  0.22219083878E+02  0.40256825475E+03  0.40364383635E+03  0.41800000000E+01 0.  1.
        -11    1    1    2    0    0 -0.12759188870E+02  0.30499000101E+02  0.19277410108E+03  0.19558844535E+03  0.00000000000E+00 0. -1.
         11    1    1    2    0    0 -0.39647767797E+02 -0.52833614548E+02  0.15590878250E+03  0.16932479080E+03  0.00000000000E+00 0.  1.
</event>
<event>
 7    1  0.6833760E-006  0.1161217E+03  0.7561462E-02  0.1249636E+00
          4   -1    0    0  501    0  0.00000000000E+00  0.00000000000E+00  0.16021472556E+03  0.16021472556E+03  0.00000000000E+00 0. -1.
         -4   -1    0    0    0  501 -0.00000000000E+00 -0.00000000000E+00 -0.12544190036E+03  0.12544190036E+03  0.00000000000E+00 0.  1.
         23    2    1    2    0    0 -0.63198544556E+02 -0.93771338295E+01 -0.47211284277E+02  0.14652699439E+03  0.12312297937E+03 0.  0.
          5    1    3    3  502    0 -0.38680701565E+02  0.51416145781E+02 -0.48738004973E+02  0.80825010048E+02  0.41800000000E+01 0. -1.
         -5    1    3    3    0  502 -0.24517842991E+02 -0.60793279610E+02  0.15267206959E+01  0.65701984344E+02  0.41800000000E+01 0.  1.
        -11    1    1    2    0    0  0.53005426252E+02  0.42174843680E+02  0.79860866216E+02  0.10471891235E+03  0.00000000000E+00 0. -1.
         11    1    1    2    0    0  0.10193118304E+02 -0.32797709850E+02  0.21232432634E+01  0.34410719175E+02  0.00000000000E+00 0.  1.
</event>
<event>
 7    1  0.6833760E-006  0.1783585E+03  0.7561462E-02  0.1169401E+00
          2   -1    0    0  501    0  0.00000000000E+00  0.00000000000E+00  0.30633010993E+03  0.30633010993E+03  0.00000000000E+00 0. -1.
         -2   -1    0    0    0  501 -0.00000000000E+00 -0.00000000000E+00 -0.12035628230E+03  0.12035628230E+03  0.00000000000E+00 0.  1.
         23    2    1    2    0    0  0.58337712111E+02 -0.14441301660E+03  0.73161717467E+02  0.21274193417E+03  0.12509230846E+03 0.  0.
          5    1    3    3  502    0  0.14292716652E+02 -0.12695907626E+03  0.28578259557E+01  0.12786136384E+03  0.41800000000E+01 0. -1.
         -5    1    3    3    0  502  0.44044995459E+02 -0.17453940340E+02  0.70303891512E+02  0.84880570333E+02  0.41800000000E+01 0. -1.
        -11    1    1    2    0    0  0.23356469131E+02  0.57415698800E+02  0.45856486527E+02  0.77103206649E+02  0.00000000000E+00 0.  1.
         11    1    1    2    0    0 -0.81694181242E+02  0.86997317796E+02  0.66955623639E+02  0.13684125142E+03  0.00000000000E+00 0. -1.
</event>
<event>
 7    1  0.6833760E-006  0.7819269E+02  0.7561462E-02  0.1334260E+00
          1   -1    0    0  501    0  0.00000000000E+00  0.00000000000E+00  0.52214142179E+03  0.52214142179E+03  0.00000000000E+00 0. -1.
         -1   -1    0    0    0  501 -0.00000000000E+00 -0.00000000000E+00 -0.32099955302E+02  0.32099955302E+02  0.00000000000E+00 0.  1.
         23    2    1    2    0    0 -0.47606830874E+02 -0.51264443915E+02  0.25496033689E+03  0.29248898999E+03  0.12510228746E+03 0.  0.
          5    1    3    3  502    0  0.74043214181E+01 -0.19882363518E+02  0.21794137788E+03  0.21901152697E+03  0.41800000000E+01 0.  1.
         -5    1    3    3    0  502 -0.55011152292E+02 -0.31382080397E+02  0.37018959010E+02  0.73477463026E+02  0.41800000000E+01 0.  1.
        -11    1    1    2    0    0  0.22884832936E+02  0.34574274197E+02  0.22712858338E+03  0.23088198155E+03  0.00000000000E+00 0. -1.
         11    1    1    2    0    0  0.24721997938E+02  0.16690169719E+02  0.79525462189E+01  0.30870405547E+02  0.00000000000E+00 0.  1.
</event>
<event>
 7    1  0.1103191E-005  0.2687146E+03  0.7561462E-02  0.1102018E+00
         -1   -1    0    0    0  501 -0.00000000000E+00  0.00000000000E+00  0.10276441197E+03  0.10276441197E+03  0.00000000000E+00 0.  1.
          1   -1    0    0  501    0  0.00000000000E+00 -0.00000000000E+00 -0.87124870277E+03  0.87124870277E+03  0.00000000000E+00 0. -1.
         23    2    1    2    0    0  0.22208752710E+03  0.12108612935E+03 -0.20231671232E+03  0.34722344124E+03  0.12508935064E+03 0.  0.
          5    1    3    3  502    0  0.13853836145E+03  0.46336804423E+01 -0.10470460469E+03  0.17376672648E+03  0.41800000000E+01 0. -1.
         -5    1    3    3    0  502  0.83549165649E+02  0.11645244891E+03 -0.97612107634E+02  0.17345671476E+03  0.41800000000E+01 0. -1.
        -11    1    1    2    0    0 -0.13081174118E+03 -0.90642215213E+02 -0.44150809312E+03  0.46931558582E+03  0.00000000000E+00 0. -1.
         11    1    1    2    0    0 -0.91275785919E+02 -0.30443914140E+02 -0.12465948536E+03  0.15747408769E+03  0.00000000000E+00 0.  1.
</event>
<event>
 7    1  0.6833760E-006  0.2109821E+03  0.7561462E-02  0.1140791E+00
         -1   -1    0    0    0  501 -0.00000000000E+00  0.00000000000E+00  0.56556582698E+02  0.56556582698E+02  0.00000000000E+00 0.  1.
          1   -1    0    0  501    0  0.00000000000E+00 -0.00000000000E+00 -0.10372034421E+04  0.10372034421E+04  0.00000000000E+00 0. -1.
         23    2    1    2    0    0  0.18824888756E+03 -0.91900102709E+02 -0.37752219298E+03  0.44950387030E+03  0.12508977045E+03 0.  0.
          5    1    3    3  502    0  0.26585818174E+02 -0.21338685567E+02 -0.18580582310E+03  0.18895349038E+03  0.41800000000E+01 0. -1.
         -5    1    3    3    0  502  0.16166306938E+03 -0.70561417142E+02 -0.19171636988E+03  0.26055037991E+03  0.41800000000E+01 0. -1.
        -11    1    1    2    0    0 -0.14947626539E+03  0.60384843227E+02 -0.54112568764E+03  0.56462951838E+03  0.00000000000E+00 0.  1.
         11    1    1    2    0    0 -0.38772622172E+02  0.31515259482E+02 -0.61998978782E+02  0.79626636123E+02  0.00000000000E+00 0. -1.
</event>
<event>
 7    1  0.6833760E-006  0.8072244E+02  0.7561462E-02  0.1327014E+00
          1   -1    0    0  501    0  0.00000000000E+00  0.00000000000E+00  0.12061807398E+02  0.12061807398E+02  0.00000000000E+00 0. -1.
         -1   -1    0    0    0  501 -0.00000000000E+00 -0.00000000000E+00 -0.12465537930E+04  0.12465537930E+04  0.00000000000E+00 0.  1.
         23    2    1    2    0    0  0.10778301697E+02 -0.65092350271E+00 -0.95202253809E+03  0.96027058868E+03  0.12512431799E+03 0.  0.
          5    1    3    3  502    0  0.38070652373E+02 -0.41702877338E+00 -0.90448713630E+03  0.90529774142E+03  0.41800000000E+01 0.  1.
         -5    1    3    3    0  502 -0.27292350676E+02 -0.23389472933E+00 -0.47535401792E+02  0.54972847259E+02  0.41800000000E+01 0.  1.
        -11    1    1    2    0    0 -0.52476595924E+02  0.83255100512E+01 -0.17194648283E+03  0.17996860891E+03  0.00000000000E+00 0.  1.
         11    1    1    2    0    0  0.41698294227E+02 -0.76745865484E+01 -0.11052296470E+03  0.11837640283E+03  0.00000000000E+00 0. -1.
</event>
<event>
 7    1  0.6833760E-006  0.1137980E+03  0.7561462E-02  0.1253694E+00
          1   -1    0    0  501    0  0.00000000000E+00  0.00000000000E+00  0.51786747098E+02  0.51786747098E+02  0.00000000000E+00 0. -1.
         -1   -1    0    0    0  501 -0.00000000000E+00 -0.00000000000E+00 -0.33994072816E+03  0.33994072816E+03  0.00000000000E+00 0.  1.
         23    2    1    2    0    0  0.42159910383E+02  0.28601335754E+02 -0.24801284519E+03  0.28240635989E+03  0.12508991278E+03 0.  0.
          5    1    3    3  502    0  0.21940269227E+02 -0.49162752460E+02 -0.11296535822E+03  0.12520781206E+03  0.41800000000E+01 0. -1.
         -5    1    3    3    0  502  0.20219641156E+02  0.77764088214E+02 -0.13504748696E+03  0.15719854783E+03  0.41800000000E+01 0. -1.
        -11    1    1    2    0    0  0.15459083590E+02 -0.31876420992E+02  0.53587088523E+01  0.35830228038E+02  0.00000000000E+00 0. -1.
         11    1    1    2    0    0 -0.57618993973E+02  0.32750852381E+01 -0.45499844725E+02  0.73490887325E+02  0.00000000000E+00 0.  1.
</event>
<event>
 7    1  0.6833760E-006  0.1669837E+03  0.7561462E-02  0.1181030E+00
         -2   -1    0    0    0  501 -0.00000000000E+00  0.00000000000E+00  0.19969825579E+02  0.19969825579E+02  0.00000000000E+00 0.  1.
          2   -1    0    0  501    0  0.00000000000E+00 -0.00000000000E+00 -0.14709120746E+04  0.14709120746E+04  0.00000000000E+00 0. -1.
         23    2    1    2    0    0  0.12732689282E+03  0.24682095541E+02 -0.65652229046E+03  0.68080163353E+03  0.12509197762E+03 0.  0.
          5    1    3    3  502    0  0.62957602100E+02 -0.47277793369E+02 -0.21974967107E+03  0.23346571427E+03  0.41800000000E+01 0.  1.
         -5    1    3    3    0  502  0.64369290724E+02  0.71959888911E+02 -0.43677261940E+03  0.44733591925E+03  0.41800000000E+01 0.  1.
        -11    1    1    2    0    0 -0.45290326784E+02  0.34830871655E+02 -0.27885940714E+03  0.28465237092E+03  0.00000000000E+00 0.  1.
         11    1    1    2    0    0 -0.82036566039E+02 -0.59512967196E+02 -0.51556055138E+03  0.52542789569E+03  0.00000000000E+00 0. -1.
</event>
<event>
 7    1  0.6833760E-006  0.7601438E+02  0.7561462E-02  0.1340758E+00
         -1   -1    0    0    0  501 -0.00000000000E+00  0.00000000000E+00  0.58553850802E+02  0.58553850802E+02  0.00000000000E+00 0.  1.
          1   -1    0    0  501    0  0.00000000000E+00 -0.00000000000E+00 -0.19590245645E+03  0.19590245645E+03  0.00000000000E+00 0. -1.
         23    2    1    2    0    0  0.19629704459E+02 -0.32822401052E+01 -0.78748223102E+02  0.14914519675E+03  0.12508760400E+03 0.  0.
          5    1    3    3  502    0  0.61779603852E+02 -0.12351889268E+02 -0.46464523288E+01  0.63311535598E+02  0.41800000000E+01 0. -1.
         -5    1    3    3    0  502 -0.42149899392E+02  0.90696491630E+01 -0.74101770773E+02  0.85833661150E+02  0.41800000000E+01 0. -1.
        -11    1    1    2    0    0  0.70520660040E+00 -0.16903698030E+02  0.17290879745E+02  0.24191048877E+02  0.00000000000E+00 0.  1.
         11    1    1    2    0    0 -0.20334911060E+02  0.20185938135E+02 -0.75891262295E+02  0.81120061630E+02  0.00000000000E+00 0. -1.
</event>
<event>
 7    1  0.6833760E-006  0.5901890E+02  0.7561462E-02  0.1401996E+00
         -2   -1    0    0    0  501 -0.00000000000E+00  0.00000000000E+00  0.42582079440E+02  0.42582079440E+02  0.00000000000E+00 0.  1.
          2   -1    0    0  501    0  0.00000000000E+00 -0.00000000000E+00 -0.27758069417E+03  0.27758069417E+03  0.00000000000E+00 0. -1.
         23    2    1    2    0    0 -0.92774450049E+01  0.42894548056E+01 -0.13250876425E+03  0.18251309844E+03  0.12509191858E+03 0.  0.
          5    1    3    3  502    0  0.21721610747E+02 -0.13333094596E+00 -0.14635782376E+03  0.14802003623E+03  0.41800000000E+01 0.  1.
         -5    1    3    3    0  502 -0.30999055752E+02  0.44227857516E+01  0.13849059512E+02  0.34493062211E+02  0.41800000000E+01 0.  1.
        -11    1    1    2    0    0  0.17922864986E+02  0.26697759242E+02 -0.20923875083E+01  0.32223865742E+02  0.00000000000E+00 0.  1.
         11    1    1    2    0    0 -0.86454199813E+01 -0.30987214047E+02 -0.10039746298E+03  0.10542580943E+03  0.00000000000E+00 0. -1.
</event>
<event>
 7    1  0.6833760E-006  0.7888422E+02  0.7561462E-02  0.1332248E+00
         -1   -1    0    0    0  501 -0.00000000000E+00  0.00000000000E+00  0.26393722851E+03  0.26393722851E+03  0.00000000000E+00 0.  1.
          1   -1    0    0  501    0  0.00000000000E+00 -0.00000000000E+00 -0.53352391623E+02  0.53352391623E+02  0.00000000000E+00 0. -1.
         23    2    1    2    0    0  0.47195732873E+02  0.12223299154E+02  0.12347039976E+03  0.18239927141E+03  0.12509080043E+03 0.  0.
          5    1    3    3  502    0 -0.96527823010E+01 -0.30202242308E+02  0.10387876666E+03  0.10869048813E+03  0.41800000000E+01 0.  1.
         -5    1    3    3    0  502  0.56848515174E+02  0.42425541462E+02  0.19591633091E+02  0.73708783282E+02  0.41800000000E+01 0.  1.
        -11    1    1    2    0    0 -0.19676571531E+02  0.73013170802E+01  0.97384304828E+02  0.99620176296E+02  0.00000000000E+00 0.  1.
         11    1    1    2    0    0 -0.27519161341E+02 -0.19524616234E+02 -0.10269867700E+02  0.35270172421E+02  0.00000000000E+00 0. -1.
</event>
<event>
 7    1  0.6833760E-006  0.1357483E+03  0.7561462E-02  0.1219167E+00
          1   -1    0    0  501    0  0.00000000000E+00  0.00000000000E+00  0.51735097932E+02  0.51735097932E+02  0.00000000000E+00 0. -1.
         -1   -1    0    0    0  501 -0.00000000000E+00 -0.00000000000E+00 -0.52573463319E+03  0.52573463319E+03  0.00000000000E+00 0.  1.
         23    2    1    2    0    0  0.37308321220E+02  0.85866821945E+02 -0.39554635361E+03  0.42528683702E+03  0.12508778496E+03 0.  0.
          5    1    3    3  502    0  0.23511733280E+02  0.11775924530E+03 -0.28381237050E+03  0.30819957090E+03  0.41800000000E+01 0.  1.
         -5    1    3    3    0  502  0.13796587940E+02 -0.31892423353E+02 -0.11173398311E+03  0.11708726613E+03  0.41800000000E+01 0.  1.
        -11    1    1    2    0    0  0.40046236235E+01  0.10637195455E+02  0.98243470914E+01  0.15023472744E+02  0.00000000000E+00 0. -1.
         11    1    1    2    0    0 -0.41312944843E+02 -0.96504017400E+02 -0.88277528735E+02  0.13715942135E+03  0.00000000000E+00 0.  1.
</event>
<event>
 7    1  0.6833760E-006  0.7562243E+02  0.7561462E-02  0.1341954E+00
          1   -1    0    0  501    0  0.00000000000E+00  0.00000000000E+00  0.39752539485E+03  0.39752539485E+03  0.00000000000E+00 0. -1.
         -1   -1    0    0    0  501 -0.00000000000E+00 -0.00000000000E+00 -0.37252002818E+02  0.37252002818E+02  0.00000000000E+00 0.  1.
         23    2    1    2    0    0  0.23457602535E+02 -0.66619970285E+01  0.11309946433E+03  0.17039342196E+03  0.12509111917E+03 0.  0.
          5    1    3    3  502    0  0.10225637553E+02  0.22619956850E+02 -0.20783891830E+02  0.32644581033E+02  0.41800000000E+01 0.  1.
         -5    1    3    3    0  502  0.13231964982E+02 -0.29281953878E+02  0.13388335616E+03  0.13774884093E+03  0.41800000000E+01 0.  1.
        -11    1    1    2    0    0 -0.21740994493E+02 -0.40770164603E+02  0.12968049200E+03  0.13766592595E+03  0.00000000000E+00 0.  1.
         11    1    1    2    0    0 -0.17166080418E+01  0.47432161632E+02  0.11749343571E+03  0.12671804976E+03  0.00000000000E+00 0. -1.
</event>
<event>
 6    1  0.6833760E-006  0.1036814E+03  0.7561462E-02  0.1272739E+00
         -2   -1    0    0    0  501 -0.00000000000E+00  0.00000000000E+00  0.76387746459E+02  0.76387746459E+02  0.00000000000E+00 0.  1.
          2   -1    0    0  501    0  0.00000000000E+00 -0.00000000000E+00 -0.37620000670E+03  0.37620000670E+03  0.00000000000E+00 0. -1.
          5    1    1    2  502    0 -0.31913188856E+02  0.22640451792E+02 -0.19124719932E+03  0.19525369478E+03  0.41800000000E+01 0. -1.
         -5    1    1    2    0  502 -0.43845350855E+02 -0.24111183799E+02  0.42481564652E+02  0.65771724251E+02  0.41800000000E+01 0.  1.
        -11    1    1    2    0    0 -0.41811200036E+01 -0.31172800210E+02 -0.38855850723E+02  0.49990022733E+02  0.00000000000E+00 0. -1.
         11    1    1    2    0    0  0.79939659714E+02  0.32643532217E+02 -0.11219077486E+03  0.14157231140E+03  0.00000000000E+00 0.  1.
</event>
<event>
 7    1  0.6833760E-006  0.1388602E+03  0.7561462E-02  0.1214871E+00
          2   -1    0    0  501    0  0.00000000000E+00  0.00000000000E+00  0.29881636771E+03  0.29881636771E+03  0.00000000000E+00 0. -1.
         -2   -1    0    0    0  501 -0.00000000000E+00 -0.00000000000E+00 -0.71822777946E+02  0.71822777946E+02  0.00000000000E+00 0.  1.
         23    2    1    2    0    0 -0.64447743835E+02  0.58694501941E+02  0.64953623537E+02  0.16572707899E+03  0.12509170738E+03 0.  0.
          5    1    3    3  502    0  0.15496658439E+02 -0.29360991609E+02  0.14061190099E+02  0.36296056508E+02  0.41800000000E+01 0.  1.
         -5    1    3    3    0  502 -0.79944402274E+02  0.88055493550E+02  0.50892433438E+02  0.12943102248E+03  0.41800000000E+01 0.  1.
        -11    1    1    2    0    0 -0.22787056149E+02 -0.17764670076E+02  0.32949355689E+02  0.43823435182E+02  0.00000000000E+00 0. -1.
         11    1    1    2    0    0  0.87234799984E+02 -0.40929831865E+02  0.12909061054E+03  0.16108863149E+03  0.00000000000E+00 0.  1.
</event>
<event>
 7    1  0.6833760E-006  0.7444244E+02  0.7561462E-02  0.1345606E+00
         -3   -1    0    0    0  501 -0.00000000000E+00  0.00000000000E+00  0.68588408065E+03  0.68588408065E+03  0.00000000000E+00 0.  1.
          3   -1    0    0  501    0  0.00000000000E+00 -0.00000000000E+00 -0.28201575281E+02  0.28201575281E+02  0.00000000000E+00 0. -1.
         23    2    1    2    0    0  0.12616360475E+02 -0.17429150546E+02  0.56855464575E+03  0.58255067643E+03  0.12509179659E+03 0.  0.
          5    1    3    3  502    0  0.12582517252E+02 -0.56510678286E+02  0.13160882027E+03  0.14384064263E+03  0.41800000000E+01 0.  1.
         -5    1    3    3    0  502  0.33843222863E-01  0.39081527741E+02  0.43694582548E+03  0.43871003380E+03  0.41800000000E+01 0.  1.
        -11    1    1    2    0    0 -0.59343774453E+01 -0.16197865403E+02  0.95171157642E+02  0.96721956794E+02  0.00000000000E+00 0.  1.
         11    1    1    2    0    0 -0.66819830297E+01  0.33627015949E+02 -0.60432980173E+01  0.34813022703E+02  0.00000000000E+00 0. -1.
</event>
<event>
 7    1  0.6833760E-006  0.1014526E+03  0.7561462E-02  0.1277271E+00
          2   -1    0    0  501    0  0.00000000000E+00  0.00000000000E+00  0.51110153691E+03  0.51110153691E+03  0.00000000000E+00 0. -1.
         -2   -1    0    0    0  501 -0.00000000000E+00 -0.00000000000E+00 -0.24730428523E+02  0.24730428523E+02  0.00000000000E+00 0.  1.
         23    2    1    2    0    0  0.13824035211E+02  0.20888116809E+02  0.24133974409E+03  0.27298452301E+03  0.12509300680E+03 0.  0.
          5    1    3    3  502    0  0.45347933879E+02  0.51418905033E+02  0.78614601666E+02  0.10439380679E+03  0.41800000000E+01 0.  1.
         -5    1    3    3    0  502 -0.31523898668E+02 -0.30530788223E+02  0.16272514243E+03  0.16859071622E+03  0.41800000000E+01 0.  1.
        -11    1    1    2    0    0 -0.24100062024E+02  0.29851461546E+02  0.64577798346E+02  0.75114677562E+02  0.00000000000E+00 0.  1.
         11    1    1    2    0    0  0.10276026813E+02 -0.50739578356E+02  0.18045356595E+03  0.18773276486E+03  0.00000000000E+00 0. -1.
</event>
<event>
 6    1  0.6833760E-006  0.1100250E+03  0.7561462E-02  0.1260524E+00
          2   -1    0    0  501    0  0.00000000000E+00  0.00000000000E+00  0.28762714350E+03  0.28762714350E+03  0.00000000000E+00 0. -1.
         -2   -1    0    0    0  501 -0.00000000000E+00 -0.00000000000E+00 -0.58642285711E+02  0.58642285711E+02  0.00000000000E+00 0.  1.
          5    1    1    2  502    0  0.31755042672E+02 -0.73786953914E+02  0.39277833609E+01  0.80534447195E+02  0.41800000000E+01 0. -1.
         -5    1    1    2    0  502 -0.23455602077E+01  0.41273440459E+02  0.60722744825E+02  0.73578004044E+02  0.41800000000E+01 0.  1.
        -11    1    1    2    0    0 -0.27022676139E+02  0.62441297919E+02  0.12856118074E+03  0.14545486552E+03  0.00000000000E+00 0.  1.
         11    1    1    2    0    0 -0.23868063245E+01 -0.29927784465E+02  0.35773148863E+02  0.46702112447E+02  0.00000000000E+00 0. -1.
</event>
<event>
 7    1  0.6833760E-006  0.1182775E+03  0.7561462E-02  0.1245966E+00
          4   -1    0    0  501    0  0.00000000000E+00  0.00000000000E+00  0.44523614653E+02  0.44523614653E+02  0.00000000000E+00 0. -1.
         -4   -1    0    0    0  501 -0.00000000000E+00 -0.00000000000E+00 -0.38287926363E+03  0.38287926363E+03  0.00000000000E+00 0.  1.
         23    2    1    2    0    0 -0.67720304786E+02  0.27423072712E+01 -0.22757432692E+03  0.26838469509E+03  0.12508681128E+03 0.  0.
          5    1    3    3  502    0  0.11029455248E+02  0.48712557540E+02 -0.66908178564E+02  0.83598677644E+02  0.41800000000E+01 0. -1.
         -5    1    3    3    0  502 -0.78749760034E+02 -0.45970250269E+02 -0.16066614835E+03  0.18478601744E+03  0.41800000000E+01 0. -1.
        -11    1    1    2    0    0 -0.84791147634E+01 -0.15716215335E+02 -0.68754303500E+02  0.71035547872E+02  0.00000000000E+00 0.  1.
         11    1    1    2    0    0  0.76199419549E+02  0.12973908064E+02 -0.42027018561E+02  0.87982635328E+02  0.00000000000E+00 0. -1.
</event>
<event>
 7    1  0.6833760E-006  0.1461870E+03  0.7561462E-02  0.1205238E+00
          1   -1    0    0  501    0  0.00000000000E+00  0.00000000000E+00  0.16605004706E+04  0.16605004706E+04  0.00000000000E+00 0. -1.
         -1   -1    0    0    0  501 -0.00000000000E+00 -0.00000000000E+00 -0.13767822226E+02  0.13767822226E+02  0.00000000000E+00 0.  1.
         23    2    1    2    0    0  0.89849668657E+02 -0.54288533334E+02  0.84211618284E+03  0.85780273843E+03  0.12508263206E+03 0.  0.
          5    1    3    3  502    0  0.57966718985E+02  0.28713052428E+02  0.22001774185E+03  0.22936839149E+03  0.41800000000E+01 0. -1.
         -5    1    3    3    0  502  0.31882949673E+02 -0.83001585761E+02  0.62209844099E+03  0.62843434693E+03  0.41800000000E+01 0. -1.
        -11    1    1    2    0    0  0.92847143973E+01 -0.14963821410E+02  0.94775827706E+02  0.96398025861E+02  0.00000000000E+00 0.  1.
         11    1    1    2    0    0 -0.99134383055E+02  0.69252354744E+02  0.70984063779E+03  0.72006752850E+03  0.00000000000E+00 0. -1.
</event>
<event>
 7    1  0.6833760E-006  0.1742195E+03  0.7561462E-02  0.1173518E+00
          2   -1    0    0  501    0  0.00000000000E+00  0.00000000000E+00  0.58438515903E+03  0.58438515903E+03  0.00000000000E+00 0. -1.
         -2   -1    0    0    0  501 -0.00000000000E+00 -0.00000000000E+00 -0.74277995833E+02  0.74277995833E+02  0.00000000000E+00 0.  1.
         23    2    1    2    0    0  0.29504864083E+02 -0.15176019364E+03  0.12874579306E+03  0.23690453891E+03  0.12508632198E+03 0.  0.
          5    1    3    3  502    0 -0.11906518387E+02 -0.13527042018E+03  0.47101133234E+02  0.14379096254E+03  0.41800000000E+01 0.  1.
         -5    1    3    3    0  502  0.41411382470E+02 -0.16489773462E+02  0.81644659824E+02  0.93113576372E+02  0.41800000000E+01 0.  1.
        -11    1    1    2    0    0 -0.49785632354E+02  0.12230891818E+03  0.22090243265E+03  0.25736348888E+03  0.00000000000E+00 0. -1.
         11    1    1    2    0    0  0.20280768271E+02  0.29451275465E+02  0.16045893749E+03  0.16439512708E+03  0.00000000000E+00 0.  1.
</event>
<event>
 7    1  0.6833760E-006  0.1101829E+03  0.7561462E-02  0.1260232E+00
          1   -1    0    0  501    0  0.00000000000E+00  0.00000000000E+00  0.15329233633E+03  0.15329233633E+03  0.00000000000E+00 0. -1.
         -1   -1    0    0    0  501 -0.00000000000E+00 -0.00000000000E+00 -0.13126677207E+03  0.13126677207E+03  0.00000000000E+00 0.  1.
         23    2    1    2    0    0  0.88774459608E+02  0.55384656409E+01 -0.53235262608E+01  0.15358261354E+03  0.12509076692E+03 0.  0.
          5    1    3    3  502    0  0.65543727976E+02  0.39245143490E+02  0.44855692823E+02  0.88688596466E+02  0.41800000000E+01 0.  1.
         -5    1    3    3    0  502  0.23230731632E+02 -0.33706677849E+02 -0.50179219084E+02  0.64894017071E+02  0.41800000000E+01 0.  1.
        -11    1    1    2    0    0 -0.48288697475E+02 -0.28591326765E+02  0.53513524381E+02  0.77543275413E+02  0.00000000000E+00 0. -1.
         11    1    1    2    0    0 -0.40485762132E+02  0.23052861124E+02 -0.26164433862E+02  0.53433219450E+02  0.00000000000E+00 0.  1.
</event>
<event>
 7    1  0.6833760E-006  0.1893216E+03  0.7561462E-02  0.1159075E+00
         -2   -1    0    0    0  501 -0.00000000000E+00  0.00000000000E+00  0.16511217906E+03  0.16511217906E+03  0.00000000000E+00 0.  1.
          2   -1    0    0  501    0  0.00000000000E+00 -0.00000000000E+00 -0.26408570287E+03  0.26408570287E+03  0.00000000000E+00 0. -1.
         23    2    1    2    0    0  0.14751212586E+02  0.17317568940E+03 -0.12125971968E+02  0.21447967324E+03  0.12508826230E+03 0.  0.
          5    1    3    3  502    0 -0.52221795142E+01 -0.42226006477E+01  0.29987061888E+02  0.31012865005E+02  0.41800000000E+01 0.  1.
         -5    1    3    3    0  502  0.19973392100E+02  0.17739829005E+03 -0.42113033856E+02  0.18346680824E+03  0.41800000000E+01 0.  1.
        -11    1    1    2    0    0  0.11724189201E+02 -0.16358687489E+03 -0.56862104840E+02  0.17358404654E+03  0.00000000000E+00 0.  1.
         11    1    1    2    0    0 -0.26475401787E+02 -0.95888145152E+01 -0.29985447003E+02  0.41134162147E+02  0.00000000000E+00 0. -1.
</event>
<event>
 7    1  0.6833760E-006  0.9992784E+02  0.7561462E-02  0.1280448E+00
         -2   -1    0    0    0  501 -0.00000000000E+00  0.00000000000E+00  0.77794717608E+02  0.77794717608E+02  0.00000000000E+00 0.  1.
          2   -1    0    0  501    0  0.00000000000E+00 -0.00000000000E+00 -0.28663938146E+03  0.28663938146E+03  0.00000000000E+00 0. -1.
         23    2    1    2    0    0 -0.70857990333E+02 -0.11994731155E+01 -0.22964733791E+02  0.14557639307E+03  0.12507123447E+03 0.  0.
          5    1    3    3  502    0  0.22241224186E+02  0.99467069101E+00  0.30593628525E+02  0.38067097728E+02  0.41800000000E+01 0.  1.
         -5    1    3    3    0  502 -0.93099214519E+02 -0.21941438065E+01 -0.53558362316E+02  0.10750929534E+03  0.41800000000E+01 0.  1.
        -11    1    1    2    0    0  0.20239427006E+02 -0.20593058402E+02 -0.44158829046E+01  0.29209732654E+02  0.00000000000E+00 0.  1.
         11    1    1    2    0    0  0.50618563327E+02  0.21792531517E+02 -0.18146404716E+03  0.18964797335E+03  0.00000000000E+00 0. -1.
</event>
<event>
 7    1  0.6833760E-006  0.1879578E+03  0.7561462E-02  0.1160316E+00
          2   -1    0    0  501    0  0.00000000000E+00  0.00000000000E+00  0.95091818722E+03  0.95091818722E+03  0.00000000000E+00 0. -1.
         -2   -1    0    0    0  501 -0.00000000000E+00 -0.00000000000E+00 -0.45865011355E+02  0.45865011355E+02  0.00000000000E+00 0.  1.
         23    2    1    2    0    0  0.13157724949E+03 -0.10265191666E+03  0.60815818412E+03  0.64292602938E+03  0.12509002263E+03 0.  0.
          5    1    3    3  502    0  0.72822303343E+02 -0.10296105421E+03  0.25087679564E+03  0.28082148341E+03  0.41800000000E+01 0.  1.
         -5    1    3    3    0  502  0.58754946149E+02  0.30913755856E+00  0.35728138847E+03  0.36210454597E+03  0.41800000000E+01 0.  1.
        -11    1    1    2    0    0 -0.54240516728E+02  0.99626551509E+02  0.19903708097E+03  0.22909221511E+03  0.00000000000E+00 0.  1.
         11    1    1    2    0    0 -0.77336732763E+02  0.30253651473E+01  0.97857910778E+02  0.12476495410E+03  0.00000000000E+00 0. -1.
</event>
<event>
 7    1  0.6833760E-006  0.1114344E+03  0.7561462E-02  0.1257936E+00
         -2   -1    0    0    0  501 -0.00000000000E+00  0.00000000000E+00  0.14845588626E+02  0.14845588626E+02  0.00000000000E+00 0.  1.
          2   -1    0    0  501    0  0.00000000000E+00 -0.00000000000E+00 -0.11931039578E+04  0.11931039578E+04  0.00000000000E+00 0. -1.
         23    2    1    2    0    0  0.22656267608E+02  0.68161911786E+02 -0.55194425671E+03  0.57048164585E+03  0.12508993985E+03 0.  0.
          5    1    3    3  502    0 -0.14275492351E+01  0.78104162468E+02 -0.16464868563E+03  0.18228812405E+03  0.41800000000E+01 0.  1.
         -5    1    3    3    0  502  0.24083816843E+02 -0.99422506819E+01 -0.38729557108E+03  0.38819352179E+03  0.41800000000E+01 0.  1.
        -11    1    1    2    0    0  0.35848467876E+02 -0.38681877912E+02 -0.30791750408E+03  0.31240132786E+03  0.00000000000E+00 0.  1.
         11    1    1    2    0    0 -0.58504735484E+02 -0.29480033874E+02 -0.31839660834E+03  0.32506657268E+03  0.00000000000E+00 0. -1.
</event>
<event>
 7    1  0.6833760E-006  0.1097152E+03  0.7561462E-02  0.1261098E+00
         -2   -1    0    0    0  501 -0.00000000000E+00  0.00000000000E+00  0.15035525467E+02  0.15035525467E+02  0.00000000000E+00 0.  1.
          2   -1    0    0  501    0  0.00000000000E+00 -0.00000000000E+00 -0.82961460878E+03  0.82961460878E+03  0.00000000000E+00 0. -1.
         23    2    1    2    0    0 -0.11695886364E+02  0.21059171805E+02 -0.45749066086E+03  0.47490011403E+03  0.12510847717E+03 0.  0.
          5    1    3    3  502    0 -0.29176516522E+02  0.69516798388E+02 -0.28501767186E+03  0.29484979235E+03  0.41800000000E+01 0.  1.
         -5    1    3    3    0  502  0.17480630158E+02 -0.48457626584E+02 -0.17247298900E+03  0.18005032168E+03  0.41800000000E+01 0.  1.
        -11    1    1    2    0    0 -0.33427229533E+02  0.12832986019E+02 -0.19123851897E+03  0.19456165177E+03  0.00000000000E+00 0. -1.
         11    1    1    2    0    0  0.45123115897E+02 -0.33892157823E+02 -0.16584990348E+03  0.17518836844E+03  0.00000000000E+00 0.  1.
</event>
<event>
 7    1  0.6833760E-006  0.1324476E+03  0.7561462E-02  0.1223869E+00
          2   -1    0    0  501    0  0.00000000000E+00  0.00000000000E+00  0.62570694395E+03  0.62570694395E+03  0.00000000000E+00 0. -1.
         -2   -1    0    0    0  501 -0.00000000000E+00 -0.00000000000E+00 -0.55805239107E+02  0.55805239107E+02  0.00000000000E+00 0.  1.
         23    2    1    2    0    0 -0.11554412485E+03 -0.29494277935E+02  0.13233081407E+03  0.21769493602E+03  0.12513705926E+03 0.  0.
          5    1    3    3  502    0 -0.11614300421E+03 -0.20101227270E+02  0.39629877931E+02  0.12442369706E+03  0.41800000000E+01 0. -1.
         -5    1    3    3    0  502  0.59887936019E+00 -0.93930506652E+01  0.92700936136E+02  0.93271238963E+02  0.41800000000E+01 0. -1.
        -11    1    1    2    0    0  0.11709437188E+03  0.41738459894E+02  0.43326496976E+03  0.45074574316E+03  0.00000000000E+00 0.  1.
         11    1    1    2    0    0 -0.15502470283E+01 -0.12244181959E+02  0.43059210181E+01  0.13071503874E+02  0.00000000000E+00 0. -1.
</event>
<event>
 7    1  0.6833760E-006  0.2444886E+03  0.7561462E-02  0.1116838E+00
          1   -1    0    0  501    0  0.00000000000E+00  0.00000000000E+00  0.19487791376E+03  0.19487791376E+03  0.00000000000E+00 0. -1.
         -1   -1    0    0    0  501 -0.00000000000E+00 -0.00000000000E+00 -0.35252342385E+03  0.35252342385E+03  0.00000000000E+00 0.  1.
         23    2    1    2    0    0 -0.22080715511E+03 -0.73185051310E+02 -0.13465998285E+03  0.29646944933E+03  0.12509585095E+03 0.  0.
          5    1    3    3  502    0 -0.31700144368E+02 -0.58068085709E+02 -0.46593211938E+01  0.66452866039E+02  0.41800000000E+01 0.  1.
         -5    1    3    3    0  502 -0.18910701074E+03 -0.15116965601E+02 -0.13000066166E+03  0.23001658329E+03  0.41800000000E+01 0.  1.
        -11    1    1    2    0    0  0.14626754071E+03  0.54448250034E+02  0.28184819282E+02  0.15859757071E+03  0.00000000000E+00 0. -1.
         11    1    1    2    0    0  0.74539614396E+02  0.18736801277E+02 -0.51170346525E+02  0.92334317564E+02  0.00000000000E+00 0.  1.
</event>
<event>
 7    1  0.6833760E-006  0.6156310E+02  0.7561462E-02  0.1391387E+00
         -1   -1    0    0    0  501 -0.00000000000E+00  0.00000000000E+00  0.11094333203E+03  0.11094333203E+03  0.00000000000E+00 0.  1.
          1   -1    0    0  501    0  0.00000000000E+00 -0.00000000000E+00 -0.11214249299E+03  0.11214249299E+03  0.00000000000E+00 0. -1.
         23    2    1    2    0    0  0.14520928955E+02 -0.34387871375E+01  0.25463044695E+02  0.12852415879E+03  0.12508960833E+03 0.  0.
          5    1    3    3  502    0  0.24444998057E-01 -0.24384752684E+02  0.71546518326E+02  0.75703325195E+02  0.41800000000E+01 0. -1.
         -5    1    3    3    0  502  0.14496483957E+02  0.20945965546E+02 -0.46083473631E+02  0.52820833595E+02  0.41800000000E+01 0. -1.
        -11    1    1    2    0    0  0.28736332530E+02 -0.27777419525E+01  0.16404576614E+02  0.33205463278E+02  0.00000000000E+00 0.  1.
         11    1    1    2    0    0 -0.43257261485E+02  0.62165290901E+01 -0.43066782269E+02  0.61356202947E+02  0.00000000000E+00 0. -1.
</event>
<event>
 7    1  0.8182018E-006  0.1865489E+03  0.7561462E-02  0.1161611E+00
         -1   -1    0    0    0  501 -0.00000000000E+00  0.00000000000E+00  0.26843051888E+03  0.26843051888E+03  0.00000000000E+00 0.  1.
          1   -1    0    0  501    0  0.00000000000E+00 -0.00000000000E+00 -0.15344156304E+03  0.15344156304E+03  0.00000000000E+00 0. -1.
         23    2    1    2    0    0 -0.13879557500E+03 -0.89278424765E+02  0.10913641315E+03  0.23407951142E+03  0.12509041619E+03 0.  0.
          5    1    3    3  502    0 -0.39799796755E+02 -0.98433579045E+02  0.43162995807E+02  0.11468962426E+03  0.41800000000E+01 0. -1.
         -5    1    3    3    0  502 -0.98995778247E+02  0.91551542802E+01  0.65973417341E+02  0.11938988716E+03  0.41800000000E+01 0. -1.
        -11    1    1    2    0    0  0.56434775387E+02  0.52703533552E+02 -0.39690881126E+02  0.86821151607E+02  0.00000000000E+00 0.  1.
         11    1    1    2    0    0  0.82360799615E+02  0.36574891214E+02  0.45543423811E+02  0.10097141889E+03  0.00000000000E+00 0. -1.
</event>
<event>
 7    1  0.6833760E-006  0.1392042E+03  0.7561462E-02  0.1214404E+00
          3   -1    0    0  501    0  0.00000000000E+00  0.00000000000E+00  0.60821324170E+02  0.60821324170E+02  0.00000000000E+00 0. -1.
         -3   -1    0    0    0  501 -0.00000000000E+00 -0.00000000000E+00 -0.36598995119E+03  0.36598995119E+03  0.00000000000E+00 0.  1.
         23    2    1    2    0    0 -0.90322377325E+02 -0.58601432452E+02 -0.14502588311E+03  0.21970613138E+03  0.12508404241E+03 0.  0.
          5    1    3    3  502    0  0.14654107984E+02  0.21614228154E+02 -0.51143941504E+02  0.57576843366E+02  0.41800000000E+01 0. -1.
         -5    1    3    3    0  502 -0.10497648531E+03 -0.80215660607E+02 -0.93881941602E+02  0.16212928802E+03  0.41800000000E+01 0. -1.
        -11    1    1    2    0    0  0.37077250486E+02  0.55109017720E+02 -0.12958308465E+03  0.14561422378E+03  0.00000000000E+00 0.  1.
         11    1    1    2    0    0  0.53245126839E+02  0.34924147321E+01 -0.30559659259E+02  0.61490920198E+02  0.00000000000E+00 0. -1.
</event>
<event>
 7    1  0.6833760E-006  0.9012290E+02  0.7561462E-02  0.1302554E+00
         -2   -1    0    0    0  501 -0.00000000000E+00  0.00000000000E+00  0.21566606646E+02  0.21566606646E+02  0.00000000000E+00 0. -1.
          2   -1    0    0  501    0  0.00000000000E+00 -0.00000000000E+00 -0.48674267599E+03  0.48674267599E+03  0.00000000000E+00 0.  1.
         23    2    1    2    0    0  0.16050539035E+02  0.67688055600E+01 -0.23490288058E+03  0.26670261373E+03  0.12508990500E+03 0.  0.
          5    1    3    3  502    0  0.29129820183E+02 -0.45134056470E+02 -0.47726568327E+02  0.71978657959E+02  0.41800000000E+01 0. -1.
         -5    1    3    3    0  502 -0.13079281149E+02  0.51902862030E+02 -0.18717631225E+03  0.19472395577E+03  0.41800000000E+01 0. -1.
        -11    1    1    2    0    0 -0.11958070963E+02 -0.38689310304E+02 -0.11480062466E+03  0.12173348601E+03  0.00000000000E+00 0. -1.
         11    1    1    2    0    0 -0.40924680711E+01  0.31920504744E+02 -0.11547256410E+03  0.11987318290E+03  0.00000000000E+00 0.  1.
</event>
<event>
 7    1  0.6833760E-006  0.1102224E+03  0.7561462E-02  0.1260159E+00
         -2   -1    0    0    0  501 -0.00000000000E+00  0.00000000000E+00  0.47198373093E+02  0.47198373093E+02  0.00000000000E+00 0.  1.
          2   -1    0    0  501    0  0.00000000000E+00 -0.00000000000E+00 -0.29857241150E+03  0.29857241150E+03  0.00000000000E+00 0. -1.
         23    2    1    2    0    0 -0.28098103421E+02 -0.42263120766E+02 -0.14645396468E+03  0.19917878116E+03  0.12509096011E+03 0.  0.
          5    1    3    3  502    0  0.32798756209E+02 -0.62455804695E+02 -0.78876458006E+02  0.10590304045E+03  0.41800000000E+01 0.  1.
         -5    1    3    3    0  502 -0.60896859629E+02  0.20192683929E+02 -0.67577506673E+02  0.93275740711E+02  0.41800000000E+01 0.  1.
        -11    1    1    2    0    0  0.42380973561E+02  0.16290781292E+01 -0.11846612535E+02  0.44035701926E+02  0.00000000000E+00 0.  1.
         11    1    1    2    0    0 -0.14282870140E+02  0.40634042637E+02 -0.93073461194E+02  0.10255630151E+03  0.00000000000E+00 0. -1.
</event>
<event>
 7    1  0.6833760E-006  0.1137314E+03  0.7561462E-02  0.1253812E+00
         -2   -1    0    0    0  501 -0.00000000000E+00  0.00000000000E+00  0.44836767559E+02  0.44836767559E+02  0.00000000000E+00 0.  1.
          2   -1    0    0  501    0  0.00000000000E+00 -0.00000000000E+00 -0.49860928143E+03  0.49860928143E+03  0.00000000000E+00 0. -1.
         23    2    1    2    0    0  0.32199879210E+02  0.65627240437E+02 -0.11851282719E+03  0.18721581267E+03  0.12514273209E+03 0.  0.
          5    1    3    3  502    0  0.53035986529E+02  0.88406057481E+01 -0.11436312276E+03  0.12644116586E+03  0.41800000000E+01 0. -1.
         -5    1    3    3    0  502 -0.20836107320E+02  0.56786634689E+02 -0.41497044324E+01  0.60774646806E+02  0.41800000000E+01 0. -1.
        -11    1    1    2    0    0  0.29598117485E+02 -0.16026679135E+02 -0.50793688241E+02  0.60933584893E+02  0.00000000000E+00 0.  1.
         11    1    1    2    0    0 -0.61797996695E+02 -0.49600561302E+02 -0.28446599843E+03  0.29529665142E+03  0.00000000000E+00 0. -1.
</event>
<event>
 7    1  0.6833760E-006  0.1258729E+03  0.7561462E-02  0.1233711E+00
          2   -1    0    0  501    0  0.00000000000E+00  0.00000000000E+00  0.47428907390E+03  0.47428907390E+03  0.00000000000E+00 0. -1.
         -2   -1    0    0    0  501 -0.00000000000E+00 -0.00000000000E+00 -0.42860777334E+02  0.42860777334E+02  0.00000000000E+00 0.  1.
         23    2    1    2    0    0 -0.46628435748E+02 -0.55802669961E+02  0.13221597984E+03  0.19600192966E+03  0.12509013595E+03 0.  0.
          5    1    3    3  502    0 -0.77517388316E+02 -0.73969172366E+02  0.86522835346E+02  0.13778264545E+03  0.41800000000E+01 0. -1.
         -5    1    3    3    0  502  0.30888952568E+02  0.18166502405E+02  0.45693144492E+02  0.58219284210E+02  0.41800000000E+01 0. -1.
        -11    1    1    2    0    0  0.45334690955E+02 -0.67841564458E+01  0.71051616265E+02  0.84555255050E+02  0.00000000000E+00 0.  1.
         11    1    1    2    0    0  0.12937447929E+01  0.62586826407E+02  0.22816070047E+03  0.23659266652E+03  0.00000000000E+00 0. -1.
</event>
<event>
 7    1  0.6833760E-006  0.1455670E+03  0.7561462E-02  0.1206029E+00
          2   -1    0    0  501    0  0.00000000000E+00  0.00000000000E+00  0.68266933652E+03  0.68266933652E+03  0.00000000000E+00 0. -1.
         -2   -1    0    0    0  501 -0.00000000000E+00 -0.00000000000E+00 -0.47104972666E+02  0.47104972666E+02  0.00000000000E+00 0.  1.
         23    2    1    2    0    0  0.99215937770E+02  0.40733127830E+02  0.14538583562E+03  0.21974409056E+03  0.12508970431E+03 0.  0.
          5    1    3    3  502    0  0.97300201612E+01 -0.32746699160E+02  0.79090265589E+02  0.86254055609E+02  0.41800000000E+01 0.  1.
         -5    1    3    3    0  502  0.89485917609E+02  0.73479826990E+02  0.66295570034E+02  0.13349003495E+03  0.41800000000E+01 0.  1.
        -11    1    1    2    0    0 -0.21997950962E+02  0.29278604496E+02  0.12116106012E+03  0.12657467763E+03  0.00000000000E+00 0. -1.
         11    1    1    2    0    0 -0.77217986807E+02 -0.70011732326E+02  0.36901746812E+03  0.38345554100E+03  0.00000000000E+00 0.  1.
</event>
<event>
 7    1  0.6833760E-006  0.1292152E+03  0.7561462E-02  0.1228625E+00
         -1   -1    0    0    0  501 -0.00000000000E+00  0.00000000000E+00  0.67794019626E+03  0.67794019626E+03  0.00000000000E+00 0.  1.
          1   -1    0    0  501    0  0.00000000000E+00 -0.00000000000E+00 -0.33969489845E+02  0.33969489845E+02  0.00000000000E+00 0. -1.
         23    2    1    2    0    0  0.41832789469E+02 -0.58355272074E+02  0.53071272276E+03  0.54995251567E+03  0.12504581297E+03 0.  0.
          5    1    3    3  502    0  0.17917069655E+02  0.38968353756E+02  0.18710276636E+03  0.19200122802E+03  0.41800000000E+01 0. -1.
         -5    1    3    3    0  502  0.23915719814E+02 -0.97323625830E+02  0.34360995639E+03  0.35795128765E+03  0.41800000000E+01 0. -1.
        -11    1    1    2    0    0  0.12684446213E+02 -0.17502174382E+02  0.14564572855E+02  0.26064306365E+02  0.00000000000E+00 0. -1.
         11    1    1    2    0    0 -0.54517235683E+02  0.75857446457E+02  0.98693410803E+02  0.13589286407E+03  0.00000000000E+00 0.  1.
</event>
<event>
 7    1  0.6833760E-006  0.9608644E+02  0.7561462E-02  0.1288748E+00
          1   -1    0    0  501    0  0.00000000000E+00  0.00000000000E+00  0.24603596185E+03  0.24603596185E+03  0.00000000000E+00 0. -1.
         -1   -1    0    0    0  501 -0.00000000000E+00 -0.00000000000E+00 -0.64182787061E+02  0.64182787061E+02  0.00000000000E+00 0.  1.
         23    2    1    2    0    0 -0.48262522082E+02  0.82831567329E+01  0.15161062509E+03  0.20255854042E+03  0.12508516672E+03 0.  0.
          5    1    3    3  502    0 -0.73376249946E+02 -0.20463713299E+02  0.43478557417E+02  0.87810562993E+02  0.41800000000E+01 0. -1.
         -5    1    3    3    0  502  0.25113727864E+02  0.28746870032E+02  0.10813206767E+03  0.11474797743E+03  0.41800000000E+01 0. -1.
        -11    1    1    2    0    0  0.60438450771E+02 -0.16672249059E+02 -0.11173616809E+02  0.63683749362E+02  0.00000000000E+00 0.  1.
         11    1    1    2    0    0 -0.12175928689E+02  0.83890923261E+01  0.41416166504E+02  0.43976459127E+02  0.00000000000E+00 0. -1.
</event>
<event>
 6    1  0.6833760E-006  0.1166078E+03  0.7561462E-02  0.1248800E+00
          2   -1    0    0  501    0  0.00000000000E+00  0.00000000000E+00  0.12351571560E+03  0.12351571560E+03  0.00000000000E+00 0. -1.
         -2   -1    0    0    0  501 -0.00000000000E+00 -0.00000000000E+00 -0.12922382073E+03  0.12922382073E+03  0.00000000000E+00 0.  1.
          5    1    1    2  502    0  0.35783022325E+02  0.72217284919E+02  0.26425108180E+02  0.84920666920E+02  0.41800000000E+01 0. -1.
         -5    1    1    2    0  502 -0.28124471724E+00 -0.63180720084E+02 -0.29723029780E+02  0.69948648223E+02  0.41800000000E+01 0.  1.
        -11    1    1    2    0    0 -0.94972132772E+01 -0.44339325879E+02  0.18891686883E+02  0.49122995763E+02  0.00000000000E+00 0.  1.
         11    1    1    2    0    0 -0.26004564331E+02  0.35302761044E+02 -0.21301870407E+02  0.48747225421E+02  0.00000000000E+00 0. -1.
</event>
<event>
 7    1  0.6833760E-006  0.1543577E+03  0.7561462E-02  0.1195218E+00
          2   -1    0    0  501    0  0.00000000000E+00  0.00000000000E+00  0.27725474876E+02  0.27725474876E+02  0.00000000000E+00 0. -1.
         -2   -1    0    0    0  501 -0.00000000000E+00 -0.00000000000E+00 -0.89839922635E+03  0.89839922635E+03  0.00000000000E+00 0.  1.
         23    2    1    2    0    0  0.16104521998E+02  0.10587478958E+03 -0.54054745346E+03  0.56507329238E+03  0.12508976627E+03 0.  0.
          5    1    3    3  502    0 -0.46052450164E+02  0.79012529451E+01 -0.12158584312E+03  0.13032209180E+03  0.41800000000E+01 0.  1.
         -5    1    3    3    0  502  0.62156972161E+02  0.97973536635E+02 -0.41896161034E+03  0.43475120058E+03  0.41800000000E+01 0.  1.
        -11    1    1    2    0    0 -0.46514534353E+02 -0.13476991057E+02 -0.12416458376E+03  0.13327443512E+03  0.00000000000E+00 0.  1.
         11    1    1    2    0    0  0.30410012355E+02 -0.92397798523E+02 -0.20596171425E+03  0.22777697373E+03  0.00000000000E+00 0. -1.
</event>
<event>
 7    1  0.6833760E-006  0.3683886E+03  0.7561462E-02  0.1055311E+00
          2   -1    0    0  501    0  0.00000000000E+00  0.00000000000E+00  0.26472383066E+03  0.26472383066E+03  0.00000000000E+00 0. -1.
         -2   -1    0    0    0  501 -0.00000000000E+00 -0.00000000000E+00 -0.65521172191E+03  0.65521172191E+03  0.00000000000E+00 0.  1.
         23    2    1    2    0    0  0.38549517623E+02 -0.36430212909E+03 -0.38050675449E+03  0.54280362547E+03  0.12509308150E+03 0.  0.
          5    1    3    3  502    0  0.29102286777E+02 -0.20285482312E+03 -0.29667013625E+03  0.36059348927E+03  0.41800000000E+01 0.  1.
         -5    1    3    3    0  502  0.94472308452E+01 -0.16144730597E+03 -0.83836618237E+02  0.18221013620E+03  0.41800000000E+01 0.  1.
        -11    1    1    2    0    0 -0.39119743073E+02  0.13085253016E+03 -0.38622835325E+02  0.14193118881E+03  0.00000000000E+00 0.  1.
         11    1    1    2    0    0  0.57022545050E+00  0.23344959893E+03  0.28641698565E+02  0.23520073829E+03  0.00000000000E+00 0. -1.
</event>
<event>
 7    1  0.6833760E-006  0.1168631E+03  0.7561462E-02  0.1248363E+00
         -1   -1    0    0    0  501 -0.00000000000E+00  0.00000000000E+00  0.56065258064E+03  0.56065258064E+03  0.00000000000E+00 0.  1.
          1   -1    0    0  501    0  0.00000000000E+00 -0.00000000000E+00 -0.33184457214E+02  0.33184457214E+02  0.00000000000E+00 0. -1.
         23    2    1    2    0    0 -0.35163718592E+02 -0.33135132209E+02  0.43696309830E+03  0.45707360869E+03  0.12508041571E+03 0.  0.
          5    1    3    3  502    0  0.20962079249E+02  0.37761011622E+02  0.15278099873E+03  0.15882319963E+03  0.41800000000E+01 0.  1.
         -5    1    3    3    0  502 -0.56125797841E+02 -0.70896143831E+02  0.28418209957E+03  0.29825040907E+03  0.41800000000E+01 0.  1.
        -11    1    1    2    0    0 -0.26880314016E+02 -0.44924373895E+01  0.11755563591E+02  0.29680406847E+02  0.00000000000E+00 0. -1.
         11    1    1    2    0    0  0.62044032607E+02  0.37627569599E+02  0.78749461531E+02  0.10708302231E+03  0.00000000000E+00 0.  1.
</event>
<event>
 7    1  0.6833760E-006  0.1312647E+03  0.7561462E-02  0.1225591E+00
          1   -1    0    0  501    0  0.00000000000E+00  0.00000000000E+00  0.11891124633E+03  0.11891124633E+03  0.00000000000E+00 0. -1.
         -1   -1    0    0    0  501 -0.00000000000E+00 -0.00000000000E+00 -0.24451963918E+03  0.24451963918E+03  0.00000000000E+00 0.  1.
         23    2    1    2    0    0 -0.49789547592E+02  0.97228882785E+02 -0.14252707258E+03  0.22034243047E+03  0.12768854901E+03 0.  0.
          5    1    3    3  502    0 -0.17961757785E+01  0.58447507765E+02 -0.14707686414E+03  0.15833007856E+03  0.41800000000E+01 0. -1.
         -5    1    3    3    0  502 -0.47993371814E+02  0.38781375020E+02  0.45497915530E+01  0.62012351912E+02  0.41800000000E+01 0.  1.
        -11    1    1    2    0    0 -0.60472434936E+01  0.15293273314E+02  0.28167271944E+01  0.16684942751E+02  0.00000000000E+00 0.  1.
         11    1    1    2    0    0  0.55836791086E+02 -0.11252215610E+03  0.14101952538E+02  0.12640351228E+03  0.00000000000E+00 0. -1.
</event>
<event>
 7    1  0.6833760E-006  0.7686367E+02  0.7561462E-02  0.1338195E+00
         -2   -1    0    0    0  501 -0.00000000000E+00  0.00000000000E+00  0.17613371622E+02  0.17613371622E+02  0.00000000000E+00 0.  1.
          2   -1    0    0  501    0  0.00000000000E+00 -0.00000000000E+00 -0.64344170803E+03  0.64344170803E+03  0.00000000000E+00 0. -1.
         23    2    1    2    0    0 -0.97217732644E+01  0.24029359558E+02 -0.37238953463E+03  0.39369233092E+03  0.12509101859E+03 0.  0.
          5    1    3    3  502    0  0.15455295299E+02  0.38140900881E+02 -0.35939058015E+03  0.36176325957E+03  0.41800000000E+01 0.  1.
         -5    1    3    3    0  502 -0.25177068564E+02 -0.14111541324E+02 -0.12998954473E+02  0.31929071352E+02  0.41800000000E+01 0.  1.
        -11    1    1    2    0    0  0.44022483479E+02 -0.59421933636E+01 -0.16335984993E+03  0.16929184647E+03  0.00000000000E+00 0.  1.
         11    1    1    2    0    0 -0.34300710214E+02 -0.18087166194E+02 -0.90078951852E+02  0.98070902254E+02  0.00000000000E+00 0. -1.
</event>
<event>
 7    1  0.6833760E-006  0.8618339E+02  0.7561462E-02  0.1312367E+00
         -2   -1    0    0    0  501 -0.00000000000E+00  0.00000000000E+00  0.27334918206E+03  0.27334918206E+03  0.00000000000E+00 0.  1.
          2   -1    0    0  501    0  0.00000000000E+00 -0.00000000000E+00 -0.70197684523E+02  0.70197684523E+02  0.00000000000E+00 0. -1.
         23    2    1    2    0    0  0.52993786182E+02 -0.18977951133E+02  0.19292174131E+03  0.23671473416E+03  0.12508622264E+03 0.  0.
          5    1    3    3  502    0  0.38113916875E+02 -0.44810064026E+02  0.19763365448E+03  0.20624535457E+03  0.41800000000E+01 0. -1.
         -5    1    3    3    0  502  0.14879869307E+02  0.25832112893E+02 -0.47119131683E+01  0.30469379594E+02  0.41800000000E+01 0. -1.
        -11    1    1    2    0    0  0.36593508234E+01  0.25951225344E+02 -0.27828879751E+02  0.38226999536E+02  0.00000000000E+00 0. -1.
         11    1    1    2    0    0 -0.56653137005E+02 -0.69732742115E+01  0.38058635971E+02  0.68605132882E+02  0.00000000000E+00 0.  1.
</event>
<event>
 7    1  0.6833760E-006  0.1755502E+03  0.7561462E-02  0.1172180E+00
          2   -1    0    0  501    0  0.00000000000E+00  0.00000000000E+00  0.10260097544E+04  0.10260097544E+04  0.00000000000E+00 0. -1.
         -2   -1    0    0    0  501 -0.00000000000E+00 -0.00000000000E+00 -0.38254990679E+02  0.38254990679E+02  0.00000000000E+00 0.  1.
         23    2    1    2    0    0 -0.13972054437E+03  0.73941385730E+02  0.37503132361E+03  0.42577562825E+03  0.12508889989E+03 0.  0.
          5    1    3    3  502    0 -0.81741798898E+02 -0.12910897662E+02  0.24686729644E+03  0.26040227998E+03  0.41800000000E+01 0.  1.
         -5    1    3    3    0  502 -0.57978745474E+02  0.86852283392E+02  0.12816402717E+03  0.16537334827E+03  0.41800000000E+01 0.  1.
        -11    1    1    2    0    0  0.64371972144E+02 -0.58142458116E+02  0.45237777867E+03  0.46061909521E+03  0.00000000000E+00 0. -1.
         11    1    1    2    0    0  0.75348572229E+02 -0.15798927615E+02  0.16034566143E+03  0.17787002162E+03  0.00000000000E+00 0.  1.
</event>
<event>
 7    1  0.6833760E-006  0.1784569E+03  0.7561462E-02  0.1169305E+00
          2   -1    0    0  501    0  0.00000000000E+00  0.00000000000E+00  0.61694855949E+03  0.61694855949E+03  0.00000000000E+00 0. -1.
         -2   -1    0    0    0  501 -0.00000000000E+00 -0.00000000000E+00 -0.64734942271E+02  0.64734942271E+02  0.00000000000E+00 0.  1.
         23    2    1    2    0    0 -0.41631692967E+01 -0.16505317645E+03  0.24476511148E+03  0.32065135482E+03  0.12508976185E+03 0.  0.
          5    1    3    3  502    0 -0.30271413781E+02 -0.13118679119E+03  0.24277560479E+03  0.27763969341E+03  0.41800000000E+01 0. -1.
         -5    1    3    3    0  502  0.26108244484E+02 -0.33866385255E+02  0.19895066839E+01  0.43011661409E+02  0.41800000000E+01 0. -1.
        -11    1    1    2    0    0 -0.28325733942E+02  0.12238391325E+03  0.15552452220E+03  0.19992010012E+03  0.00000000000E+00 0.  1.
         11    1    1    2    0    0  0.32488903239E+02  0.42669263199E+02  0.15192398354E+03  0.16111204682E+03  0.00000000000E+00 0. -1.
</event>
<event>
 7    1  0.6833760E-006  0.1048480E+03  0.7561462E-02  0.1270419E+00
          2   -1    0    0  501    0  0.00000000000E+00  0.00000000000E+00  0.12596528456E+03  0.12596528456E+03  0.00000000000E+00 0. -1.
         -2   -1    0    0    0  501 -0.00000000000E+00 -0.00000000000E+00 -0.22888291186E+03  0.22888291186E+03  0.00000000000E+00 0.  1.
         23    2    1    2    0    0 -0.43404966734E+02  0.43267832197E+02 -0.17572337635E+03  0.22423591410E+03  0.12508774415E+03 0.  0.
          5    1    3    3  502    0  0.38113466865E+02  0.24175004662E+02 -0.10570033740E+03  0.11500913413E+03  0.41800000000E+01 0.  1.
         -5    1    3    3    0  502 -0.81518433598E+02  0.19092827535E+02 -0.70023038953E+02  0.10922677998E+03  0.41800000000E+01 0.  1.
        -11    1    1    2    0    0  0.34948120734E+02 -0.55549437913E+02  0.87699428987E+02  0.10953675657E+03  0.00000000000E+00 0. -1.
         11    1    1    2    0    0  0.84568459999E+01  0.12281605716E+02 -0.14893679946E+02  0.21075525748E+02  0.00000000000E+00 0.  1.
</event>
<event>
 7    1  0.6833760E-006  0.1052734E+03  0.7561462E-02  0.1269582E+00
          1   -1    0    0  501    0  0.00000000000E+00  0.00000000000E+00  0.10813497499E+03  0.10813497499E+03  0.00000000000E+00 0. -1.
         -1   -1    0    0    0  501 -0.00000000000E+00 -0.00000000000E+00 -0.11605986727E+03  0.11605986727E+03  0.00000000000E+00 0.  1.
         23    2    1    2    0    0  0.14214271031E+02  0.23977992009E+02 -0.17175609514E+02  0.12930516727E+03  0.12509130712E+03 0.  0.
          5    1    3    3  502    0  0.16017958352E+00  0.73370609128E+02  0.40041710846E+01  0.73598761725E+02  0.41800000000E+01 0. -1.
         -5    1    3    3    0  502  0.14054091447E+02 -0.49392617119E+02 -0.21179780598E+02  0.55706405543E+02  0.41800000000E+01 0. -1.
        -11    1    1    2    0    0  0.10280762131E+02  0.27046455998E+02 -0.15830472329E+02  0.32981945155E+02  0.00000000000E+00 0.  1.
         11    1    1    2    0    0 -0.24495033162E+02 -0.51024448007E+02  0.25081189556E+02  0.61907729837E+02  0.00000000000E+00 0. -1.
</event>
<event>
 7    1  0.6833760E-006  0.9177712E+02  0.7561462E-02  0.1298604E+00
          1   -1    0    0  501    0  0.00000000000E+00  0.00000000000E+00  0.28882278005E+03  0.28882278005E+03  0.00000000000E+00 0. -1.
         -1   -1    0    0    0  501 -0.00000000000E+00 -0.00000000000E+00 -0.44372849289E+02  0.44372849289E+02  0.00000000000E+00 0.  1.
         23    2    1    2    0    0 -0.16990241192E+02 -0.25651693405E+02  0.13862457184E+03  0.18924336869E+03  0.12509837331E+03 0.  0.
          5    1    3    3  502    0  0.27018444934E+02 -0.64442330082E+02  0.76601794633E+02  0.10376954088E+03  0.41800000000E+01 0.  1.
         -5    1    3    3    0  502 -0.44008686126E+02  0.38790636677E+02  0.62022777205E+02  0.85473827811E+02  0.41800000000E+01 0.  1.
        -11    1    1    2    0    0 -0.14513039930E+02  0.66193384012E+00 -0.12384438620E+02  0.19090332746E+02  0.00000000000E+00 0.  1.
         11    1    1    2    0    0  0.31503281123E+02  0.24989759565E+02  0.11820979755E+03  0.12486192791E+03  0.00000000000E+00 0. -1.
</event>
<event>
 7    1  0.6833760E-006  0.1014049E+03  0.7561462E-02  0.1277369E+00
          2   -1    0    0  501    0  0.00000000000E+00  0.00000000000E+00  0.71038846507E+02  0.71038846507E+02  0.00000000000E+00 0. -1.
         -2   -1    0    0    0  501 -0.00000000000E+00 -0.00000000000E+00 -0.26061878555E+03  0.26061878555E+03  0.00000000000E+00 0.  1.
         23    2    1    2    0    0 -0.17434290246E+02 -0.75415505910E+02 -0.12404094792E+03  0.19241934899E+03  0.12509035172E+03 0.  0.
          5    1    3    3  502    0  0.19108144387E+02 -0.74652251441E+01 -0.11233758491E+03  0.11427185196E+03  0.41800000000E+01 0.  1.
         -5    1    3    3    0  502 -0.36542434633E+02 -0.67950280765E+02 -0.11703363017E+02  0.78147497023E+02  0.41800000000E+01 0.  1.
        -11    1    1    2    0    0  0.44535202328E+02  0.38887106127E+02 -0.72145820848E+02  0.93277064358E+02  0.00000000000E+00 0.  1.
         11    1    1    2    0    0 -0.27100912082E+02  0.36528399783E+02  0.66068297297E+01  0.45961218711E+02  0.00000000000E+00 0. -1.
</event>
<event>
 7    1  0.6833760E-006  0.1262422E+03  0.7561462E-02  0.1233141E+00
         -2   -1    0    0    0  501 -0.00000000000E+00  0.00000000000E+00  0.76907786168E+02  0.76907786168E+02  0.00000000000E+00 0.  1.
          2   -1    0    0  501    0  0.00000000000E+00 -0.00000000000E+00 -0.36459638710E+03  0.36459638710E+03  0.00000000000E+00 0. -1.
         23    2    1    2    0    0  0.37726085137E+01  0.59721749925E+02 -0.23322425777E+02  0.14061199334E+03  0.12508747794E+03 0.  0.
          5    1    3    3  502    0  0.59169893693E+02  0.49732969331E+02 -0.31511072313E+02  0.83575502610E+02  0.41800000000E+01 0.  1.
         -5    1    3    3    0  502 -0.55397285179E+02  0.99887805938E+01  0.81886465359E+01  0.57036490732E+02  0.41800000000E+01 0.  1.
        -11    1    1    2    0    0  0.29507612067E+02  0.17665482759E+02 -0.17393940244E+03  0.17730675163E+03  0.00000000000E+00 0. -1.
         11    1    1    2    0    0 -0.33280220581E+02 -0.77387232685E+02 -0.90426772714E+02  0.12358542830E+03  0.00000000000E+00 0.  1.
</event>
<event>
 7    1  0.6833760E-006  0.1907918E+03  0.7561462E-02  0.1157749E+00
         -2   -1    0    0    0  501 -0.00000000000E+00  0.00000000000E+00  0.18384865979E+03  0.18384865979E+03  0.00000000000E+00 0.  1.
          2   -1    0    0  501    0  0.00000000000E+00 -0.00000000000E+00 -0.19870637038E+03  0.19870637038E+03  0.00000000000E+00 0. -1.
         23    2    1    2    0    0  0.15643080338E+03 -0.11270216807E+02  0.34328638161E+00  0.20061116144E+03  0.12508839361E+03 0.  0.
          5    1    3    3  502    0 -0.19594330291E+02  0.11041535367E+02  0.32408696308E+01  0.23104738015E+02  0.41800000000E+01 0. -1.
         -5    1    3    3    0  502  0.17602513367E+03 -0.22311752175E+02 -0.28975832492E+01  0.17750642342E+03  0.41800000000E+01 0. -1.
        -11    1    1    2    0    0 -0.63139044818E+02 -0.40029107298E+02 -0.35589302174E+01  0.74843399147E+02  0.00000000000E+00 0.  1.
         11    1    1    2    0    0 -0.93291758558E+02  0.51299324105E+02 -0.11642066753E+02  0.10710046959E+03  0.00000000000E+00 0. -1.
</event>
<event>
 7    1  0.6833760E-006  0.9900522E+02  0.7561462E-02  0.1282402E+00
          2   -1    0    0  501    0  0.00000000000E+00  0.00000000000E+00  0.11685623460E+02  0.11685623460E+02  0.00000000000E+00 0. -1.
         -2   -1    0    0    0  501 -0.00000000000E+00 -0.00000000000E+00 -0.12356144922E+04  0.12356144922E+04  0.00000000000E+00 0.  1.
         23    2    1    2    0    0  0.21500805879E+02  0.34807148136E+01 -0.86918542616E+03  0.87841065910E+03  0.12509029116E+03 0.  0.
          5    1    3    3  502    0  0.50914709417E+02  0.35255999372E+02 -0.72883662526E+03  0.73147494274E+03  0.41800000000E+01 0. -1.
         -5    1    3    3    0  502 -0.29413903538E+02 -0.31775284559E+02 -0.14034880090E+03  0.14693571637E+03  0.41800000000E+01 0. -1.
        -11    1    1    2    0    0 -0.56628528473E+02 -0.73302330878E+01 -0.28545265159E+03  0.29110777876E+03  0.00000000000E+00 0.  1.
         11    1    1    2    0    0  0.35127722594E+02  0.38495182742E+01 -0.69290790993E+02  0.77781677804E+02  0.00000000000E+00 0. -1.
</event>
<event>
 7    1  0.6833760E-006  0.1004258E+03  0.7561462E-02  0.1279403E+00
          1   -1    0    0  501    0  0.00000000000E+00  0.00000000000E+00  0.16412582416E+03  0.16412582416E+03  0.00000000000E+00 0. -1.
         -1   -1    0    0    0  501 -0.00000000000E+00 -0.00000000000E+00 -0.12891930251E+03  0.12891930251E+03  0.00000000000E+00 0.  1.
         23    2    1    2    0    0 -0.22265369335E+02  0.50216166917E+02 -0.60918459714E+02  0.14959365362E+03  0.12509913021E+03 0.  0.
          5    1    3    3  502    0 -0.48845375835E+02  0.13790954049E+02  0.21716421448E+02  0.55363675046E+02  0.41800000000E+01 0.  1.
         -5    1    3    3    0  502  0.26580006500E+02  0.36425212868E+02 -0.82634881162E+02  0.94229978577E+02  0.41800000000E+01 0.  1.
        -11    1    1    2    0    0  0.56173518512E+02 -0.21300637193E+02  0.41802073309E+02  0.73188760475E+02  0.00000000000E+00 0.  1.
         11    1    1    2    0    0 -0.33908149177E+02 -0.28915529724E+02  0.54322908053E+02  0.70262712581E+02  0.00000000000E+00 0. -1.
</event>
<event>
 7    1  0.6833760E-006  0.1071485E+03  0.7561462E-02  0.1265943E+00
         -1   -1    0    0    0  501 -0.00000000000E+00  0.00000000000E+00  0.27267782754E+02  0.27267782754E+02  0.00000000000E+00 0.  1.
          1   -1    0    0  501    0  0.00000000000E+00 -0.00000000000E+00 -0.52605876617E+03  0.52605876617E+03  0.00000000000E+00 0. -1.
         23    2    1    2    0    0 -0.10799533278E+02 -0.12251377813E+02 -0.17048948281E+03  0.21208660650E+03  0.12508932301E+03 0.  0.
          5    1    3    3  502    0  0.28919201044E+02 -0.57323983423E+02 -0.71228671936E+02  0.95986224899E+02  0.41800000000E+01 0. -1.
         -5    1    3    3    0  502 -0.39718734322E+02  0.45072605610E+02 -0.99260810870E+02  0.11610038160E+03  0.41800000000E+01 0. -1.
        -11    1    1    2    0    0  0.36486026626E+02  0.38476510912E+02 -0.14729805660E+03  0.15655155543E+03  0.00000000000E+00 0.  1.
         11    1    1    2    0    0 -0.25686493348E+02 -0.26225133099E+02 -0.18100344402E+03  0.18468838700E+03  0.00000000000E+00 0. -1.
</event>
<event>
 7    1  0.6833760E-006  0.1392794E+03  0.7561462E-02  0.1214302E+00
         -1   -1    0    0    0  501 -0.00000000000E+00  0.00000000000E+00  0.11764942861E+02  0.11764942861E+02  0.00000000000E+00 0.  1.
          1   -1    0    0  501    0  0.00000000000E+00 -0.00000000000E+00 -0.19666635688E+04  0.19666635688E+04  0.00000000000E+00 0. -1.
         23    2    1    2    0    0 -0.69086770359E+02  0.73774400608E+02 -0.14117529863E+04  0.14208832897E+04  0.12508870694E+03 0.  0.
          5    1    3    3  502    0  0.53471853361E+01  0.84412405578E+02 -0.67495075813E+03  0.68024263679E+03  0.41800000000E+01 0.  1.
         -5    1    3    3    0  502 -0.74433955695E+02 -0.10638004970E+02 -0.73680222819E+03  0.74064065293E+03  0.41800000000E+01 0.  1.
        -11    1    1    2    0    0  0.33588926562E+02 -0.75906166784E+02 -0.45476685757E+03  0.46228006326E+03  0.00000000000E+00 0.  1.
         11    1    1    2    0    0  0.35497843797E+02  0.21317661759E+01 -0.88378782015E+02  0.95265158646E+02  0.00000000000E+00 0. -1.
</event>
<event>
 7    1  0.6833760E-006  0.2050141E+03  0.7561462E-02  0.1145576E+00
         -2   -1    0    0    0  501 -0.00000000000E+00  0.00000000000E+00  0.22820758199E+02  0.22820758199E+02  0.00000000000E+00 0. -1.
          2   -1    0    0  501    0  0.00000000000E+00 -0.00000000000E+00 -0.21206340200E+04  0.21206340200E+04  0.00000000000E+00 0.  1.
         23    2    1    2    0    0  0.11150620728E+03 -0.15157213369E+03 -0.12482799670E+04  0.12685659804E+04  0.12509606192E+03 0.  0.
          5    1    3    3  502    0 -0.84968596903E+01 -0.80927565829E+02 -0.59834797978E+03  0.60387022185E+03  0.41800000000E+01 0. -1.
         -5    1    3    3    0  502  0.12000306697E+03 -0.70644567859E+02 -0.64993198719E+03  0.66469575854E+03  0.41800000000E+01 0. -1.
        -11    1    1    2    0    0 -0.72584316311E+02  0.11392450971E+03 -0.74515702286E+03  0.75730196461E+03  0.00000000000E+00 0.  1.
         11    1    1    2    0    0 -0.38921890973E+02  0.37647623976E+02 -0.10437627192E+03  0.11758683314E+03  0.00000000000E+00 0. -1.
</event>
<event>
 7    1  0.6833760E-006  0.1014066E+03  0.7561462E-02  0.1277366E+00
         -2   -1    0    0    0  501 -0.00000000000E+00  0.00000000000E+00  0.57087570390E+03  0.57087570390E+03  0.00000000000E+00 0.  1.
          2   -1    0    0  501    0  0.00000000000E+00 -0.00000000000E+00 -0.28483534517E+02  0.28483534517E+02  0.00000000000E+00 0. -1.
         23    2    1    2    0    0  0.34791801401E+02 -0.51038054507E+02  0.41242502327E+03  0.43538352713E+03  0.12509621667E+03 0.  0.
          5    1    3    3  502    0  0.57543480495E+02  0.20013406423E+02  0.13684114380E+03  0.14984912286E+03  0.41800000000E+01 0. -1.
         -5    1    3    3    0  502 -0.22751679093E+02 -0.71051460930E+02  0.27558387947E+03  0.28553440428E+03  0.41800000000E+01 0. -1.
        -11    1    1    2    0    0 -0.15336087462E+02  0.43558413688E+02  0.13487518439E+03  0.14256172820E+03  0.00000000000E+00 0.  1.
         11    1    1    2    0    0 -0.19455713939E+02  0.74796408190E+01 -0.49080382843E+01  0.21413983082E+02  0.00000000000E+00 0. -1.
</event>
<event>
 7    1  0.6833760E-006  0.1099190E+03  0.7561462E-02  0.1260720E+00
         -2   -1    0    0    0  501 -0.00000000000E+00  0.00000000000E+00  0.30628747326E+02  0.30628747326E+02  0.00000000000E+00 0.  1.
          2   -1    0    0  501    0  0.00000000000E+00 -0.00000000000E+00 -0.68975087762E+03  0.68975087762E+03  0.00000000000E+00 0. -1.
         23    2    1    2    0    0  0.90904666159E+02 -0.23992389545E+02 -0.42092832690E+03  0.44902793869E+03  0.12492453823E+03 0.  0.
          5    1    3    3  502    0  0.36533988739E+02  0.83634808219E+01 -0.19183941289E+02  0.42310473266E+02  0.41800000000E+01 0.  1.
         -5    1    3    3    0  502  0.54370677420E+02 -0.32355870366E+02 -0.40174438561E+03  0.40671746542E+03  0.41800000000E+01 0.  1.
        -11    1    1    2    0    0 -0.10272476144E+03  0.27586422501E+02 -0.23592134299E+03  0.25879000637E+03  0.00000000000E+00 0. -1.
         11    1    1    2    0    0  0.11820095281E+02 -0.35940329567E+01 -0.22724604085E+01  0.12561679890E+02  0.00000000000E+00 0.  1.
</event>
<event>
 7    1  0.6833760E-006  0.6637105E+02  0.7561462E-02  0.1372887E+00
          2   -1    0    0  501    0  0.00000000000E+00  0.00000000000E+00  0.19687936825E+02  0.19687936825E+02  0.00000000000E+00 0.  1.
         -2   -1    0    0    0  501 -0.00000000000E+00 -0.00000000000E+00 -0.46225397135E+03  0.46225397135E+03  0.00000000000E+00 0. -1.
         23    2    1    2    0    0  0.31363863447E+02  0.41610128440E+02 -0.30775631282E+03  0.33627047747E+03  0.12509512868E+03 0.  0.
          5    1    3    3  502    0  0.45780363245E+02  0.14824223614E+02 -0.30081460495E+02  0.56903127595E+02  0.41800000000E+01 0.  1.
         -5    1    3    3    0  502 -0.14416499798E+02  0.26785904826E+02 -0.27767485232E+03  0.27936734987E+03  0.41800000000E+01 0.  1.
        -11    1    1    2    0    0 -0.62744214574E+01 -0.18827047826E+02 -0.66799340250E+02  0.69684847365E+02  0.00000000000E+00 0.  1.
         11    1    1    2    0    0 -0.25089441990E+02 -0.22783080614E+02 -0.68010381458E+02  0.75986583340E+02  0.00000000000E+00 0. -1.
</event>
<event>
 7    1  0.6833760E-006  0.1157805E+03  0.7561462E-02  0.1250225E+00
          2   -1    0    0  501    0  0.00000000000E+00  0.00000000000E+00  0.34667472527E+02  0.34667472527E+02  0.00000000000E+00 0. -1.
         -2   -1    0    0    0  501 -0.00000000000E+00 -0.00000000000E+00 -0.47518478186E+03  0.47518478186E+03  0.00000000000E+00 0.  1.
         23    2    1    2    0    0  0.60160247099E+02 -0.40887669300E+00 -0.31161252474E+03  0.34113019924E+03  0.12509206507E+03 0.  0.
          5    1    3    3  502    0 -0.20781548810E+02 -0.33010539264E+02 -0.40910687450E+02  0.56680907024E+02  0.41800000000E+01 0.  1.
         -5    1    3    3    0  502  0.80941795909E+02  0.32601662571E+02 -0.27070183729E+03  0.28444929221E+03  0.41800000000E+01 0.  1.
        -11    1    1    2    0    0 -0.82544403500E+02  0.15106955248E+01 -0.11742240622E+03  0.14354052470E+03  0.00000000000E+00 0.  1.
         11    1    1    2    0    0  0.22384156401E+02 -0.11018188318E+01 -0.11482378375E+02  0.25181530447E+02  0.00000000000E+00 0. -1.
</event>
<event>
 7    1  0.6833760E-006  0.1747487E+03  0.7561462E-02  0.1172984E+00
          1   -1    0    0  501    0  0.00000000000E+00  0.00000000000E+00  0.12045052293E+03  0.12045052293E+03  0.00000000000E+00 0. -1.
         -1   -1    0    0    0  501 -0.00000000000E+00 -0.00000000000E+00 -0.70239299687E+03  0.70239299687E+03  0.00000000000E+00 0.  1.
         23    2    1    2    0    0 -0.12973519243E+02 -0.14920049223E+03 -0.61930495559E+03  0.64931932095E+03  0.12509138042E+03 0.  0.
          5    1    3    3  502    0  0.36332499854E+02 -0.19139250735E+02 -0.59087294691E+02  0.72077335260E+02  0.41800000000E+01 0. -1.
         -5    1    3    3    0  502 -0.49306019097E+02 -0.13006124149E+03 -0.56021766090E+03  0.57724198568E+03  0.41800000000E+01 0. -1.
        -11    1    1    2    0    0 -0.24783852411E+02  0.11652169828E+03  0.31666414416E+02  0.12326519100E+03  0.00000000000E+00 0. -1.
         11    1    1    2    0    0  0.37757371655E+02  0.32678793942E+02  0.56960672347E+01  0.50259007847E+02  0.00000000000E+00 0.  1.
</event>
<event>
 7    1  0.6833760E-006  0.1005892E+03  0.7561462E-02  0.1279062E+00
          2   -1    0    0  501    0  0.00000000000E+00  0.00000000000E+00  0.43918287076E+02  0.43918287076E+02  0.00000000000E+00 0. -1.
         -2   -1    0    0    0  501 -0.00000000000E+00 -0.00000000000E+00 -0.44634932129E+03  0.44634932129E+03  0.00000000000E+00 0.  1.
         23    2    1    2    0    0 -0.47966224178E+02  0.33910570688E+02 -0.33852415620E+03  0.36564525299E+03  0.12508861355E+03 0.  0.
          5    1    3    3  502    0  0.22009682093E+02  0.23264163127E+02 -0.17201452070E+02  0.36592482085E+02  0.41800000000E+01 0.  1.
         -5    1    3    3    0  502 -0.69975906271E+02  0.10646407561E+02 -0.32132270413E+03  0.32905277091E+03  0.41800000000E+01 0.  1.
        -11    1    1    2    0    0  0.61028018168E+02 -0.48821657306E+02 -0.26922846024E+02  0.82660830274E+02  0.00000000000E+00 0.  1.
         11    1    1    2    0    0 -0.13061793991E+02  0.14911086617E+02 -0.36984031991E+02  0.41961525100E+02  0.00000000000E+00 0. -1.
</event>
<event>
 7    1  0.6833760E-006  0.1611817E+03  0.7561462E-02  0.1187369E+00
         -2   -1    0    0    0  501 -0.00000000000E+00  0.00000000000E+00  0.24524354154E+03  0.24524354154E+03  0.00000000000E+00 0.  1.
          2   -1    0    0  501    0  0.00000000000E+00 -0.00000000000E+00 -0.15957689985E+03  0.15957689985E+03  0.00000000000E+00 0. -1.
         23    2    1    2    0    0  0.10505308287E+03  0.10803016515E+03  0.11281117350E+03  0.22603647432E+03  0.12513776430E+03 0.  0.
          5    1    3    3  502    0  0.37294274134E+02  0.83539656238E+02  0.12278814592E+03  0.15318008430E+03  0.41800000000E+01 0.  1.
         -5    1    3    3    0  502  0.67758808737E+02  0.24490508911E+02 -0.99769724206E+01  0.72856390020E+02  0.41800000000E+01 0.  1.
        -11    1    1    2    0    0 -0.10022089854E+02 -0.41282792747E+02 -0.44318938022E+02  0.61391200749E+02  0.00000000000E+00 0. -1.
         11    1    1    2    0    0 -0.95030993017E+02 -0.66747372402E+02  0.17174406215E+02  0.11739276632E+03  0.00000000000E+00 0.  1.
</event>
<event>
 7    1  0.6833760E-006  0.1199811E+03  0.7561462E-02  0.1243128E+00
         -2   -1    0    0    0  501 -0.00000000000E+00  0.00000000000E+00  0.28090513564E+02  0.28090513564E+02  0.00000000000E+00 0.  1.
          2   -1    0    0  501    0  0.00000000000E+00 -0.00000000000E+00 -0.68589325295E+03  0.68589325295E+03  0.00000000000E+00 0. -1.
         23    2    1    2    0    0  0.49352477465E+02 -0.65267317218E+02 -0.30346376826E+03  0.33828010029E+03  0.12509067859E+03 0.  0.
          5    1    3    3  502    0  0.74462778319E+02 -0.34065252466E+02 -0.27981598093E+03  0.29158121058E+03  0.41800000000E+01 0.  1.
         -5    1    3    3    0  502 -0.25110300854E+02 -0.31202064752E+02 -0.23647787334E+02  0.46698889703E+02  0.41800000000E+01 0.  1.
        -11    1    1    2    0    0 -0.98099591276E+01  0.76078368382E+02 -0.16473798119E+03  0.18172164395E+03  0.00000000000E+00 0.  1.
         11    1    1    2    0    0 -0.39542518338E+02 -0.10811051164E+02 -0.18960098994E+03  0.19398202228E+03  0.00000000000E+00 0. -1.
</event>
<event>
 7    1  0.6833760E-006  0.1343164E+03  0.7561462E-02  0.1221188E+00
          2   -1    0    0  501    0  0.00000000000E+00  0.00000000000E+00  0.12908224364E+03  0.12908224364E+03  0.00000000000E+00 0. -1.
         -2   -1    0    0    0  501 -0.00000000000E+00 -0.00000000000E+00 -0.19783169715E+03  0.19783169715E+03  0.00000000000E+00 0.  1.
         23    2    1    2    0    0  0.21220033029E+02  0.92685292776E+02 -0.10695055720E+03  0.19006836663E+03  0.12508680590E+03 0.  0.
          5    1    3    3  502    0  0.72178658974E+02  0.51526756497E+02 -0.43855404986E+02  0.99022898325E+02  0.41800000000E+01 0. -1.
         -5    1    3    3    0  502 -0.50958625945E+02  0.41158536279E+02 -0.63095152212E+02  0.91045468308E+02  0.41800000000E+01 0. -1.
        -11    1    1    2    0    0  0.18375479166E+02 -0.60370269928E+02 -0.13078869917E+02  0.64445981752E+02  0.00000000000E+00 0.  1.
         11    1    1    2    0    0 -0.39595512195E+02 -0.32315022848E+02  0.51279973606E+02  0.72399592406E+02  0.00000000000E+00 0. -1.
</event>
<event>
 7    1  0.6833760E-006  0.9247946E+02  0.7561462E-02  0.1296956E+00
         -2   -1    0    0    0  501 -0.00000000000E+00  0.00000000000E+00  0.27396516783E+02  0.27396516783E+02  0.00000000000E+00 0.  1.
          2   -1    0    0  501    0  0.00000000000E+00 -0.00000000000E+00 -0.54618314978E+03  0.54618314978E+03  0.00000000000E+00 0. -1.
         23    2    1    2    0    0  0.24676716076E+02 -0.42601433809E+01 -0.16891886057E+03  0.21168191171E+03  0.12509420910E+03 0.  0.
          5    1    3    3  502    0 -0.10173847185E+02  0.36816375342E+02 -0.45888433433E+01  0.38697319585E+02  0.41800000000E+01 0.  1.
         -5    1    3    3    0  502  0.34850563261E+02 -0.41076518723E+02 -0.16433001722E+03  0.17298459212E+03  0.41800000000E+01 0.  1.
        -11    1    1    2    0    0 -0.48513971965E+02  0.30301904057E+02 -0.21184049675E+03  0.21942699680E+03  0.00000000000E+00 0.  1.
         11    1    1    2    0    0  0.23837255890E+02 -0.26041760676E+02 -0.13802727569E+03  0.14247075806E+03  0.00000000000E+00 0. -1.
</event>
<event>
 7    1  0.6833760E-006  0.1359587E+03  0.7561462E-02  0.1218873E+00
         -1   -1    0    0    0  501 -0.00000000000E+00  0.00000000000E+00  0.29521192955E+03  0.29521192955E+03  0.00000000000E+00 0.  1.
          1   -1    0    0  501    0  0.00000000000E+00 -0.00000000000E+00 -0.98882196693E+02  0.98882196693E+02  0.00000000000E+00 0. -1.
         23    2    1    2    0    0  0.11457830507E+03  0.16250185456E+02  0.17774815926E+03  0.24623967936E+03  0.12508922835E+03 0.  0.
          5    1    3    3  502    0  0.36471432080E+02  0.30777018569E+02  0.15682448709E+03  0.16397799359E+03  0.41800000000E+01 0. -1.
         -5    1    3    3    0  502  0.78106872992E+02 -0.14526833113E+02  0.20923672172E+02  0.82261685772E+02  0.41800000000E+01 0. -1.
        -11    1    1    2    0    0 -0.19502449023E+02  0.32277708173E+02  0.16304633931E+02  0.41085728063E+02  0.00000000000E+00 0.  1.
         11    1    1    2    0    0 -0.95075856049E+02 -0.48527893629E+02  0.22769396608E+01  0.10676871882E+03  0.00000000000E+00 0. -1.
</event>
<event>
 7    1  0.6833760E-006  0.9217177E+02  0.7561462E-02  0.1297676E+00
         -1   -1    0    0    0  501 -0.00000000000E+00  0.00000000000E+00  0.25042400707E+03  0.25042400707E+03  0.00000000000E+00 0.  1.
          1   -1    0    0  501    0  0.00000000000E+00 -0.00000000000E+00 -0.78390616651E+02  0.78390616651E+02  0.00000000000E+00 0. -1.
         23    2    1    2    0    0  0.58584474750E+02 -0.48538337660E+02  0.14523944698E+03  0.20622689037E+03  0.12508765905E+03 0.  0.
          5    1    3    3  502    0  0.65293991243E+02 -0.25718950183E+02  0.12617872229E+02  0.71424455129E+02  0.41800000000E+01 0. -1.
         -5    1    3    3    0  502 -0.67095164926E+01 -0.22819387476E+02  0.13262157475E+03  0.13480243524E+03  0.41800000000E+01 0. -1.
        -11    1    1    2    0    0 -0.14064419544E+02 -0.93320261539E+01  0.44383898397E+02  0.47484998117E+02  0.00000000000E+00 0.  1.
         11    1    1    2    0    0 -0.44520055206E+02  0.57870363814E+02 -0.17589954965E+02  0.75102735231E+02  0.00000000000E+00 0. -1.
</event>
<event>
 7    1  0.6980568E-006  0.2549770E+03  0.7561462E-02  0.1110199E+00
         -1   -1    0    0    0  501 -0.00000000000E+00  0.00000000000E+00  0.11822186064E+03  0.11822186064E+03  0.00000000000E+00 0.  1.
          1   -1    0    0  501    0  0.00000000000E+00 -0.00000000000E+00 -0.61064032087E+03  0.61064032087E+03  0.00000000000E+00 0. -1.
         23    2    1    2    0    0 -0.37794766192E+02 -0.23069119247E+03 -0.15136756336E+03  0.30529834107E+03  0.12509223472E+03 0.  0.
          5    1    3    3  502    0  0.30265549948E+02 -0.14350537513E+02 -0.40799205838E+02  0.52952705668E+02  0.41800000000E+01 0.  1.
         -5    1    3    3    0  502 -0.68060316139E+02 -0.21634065496E+03 -0.11056835752E+03  0.25234563540E+03  0.41800000000E+01 0.  1.
        -11    1    1    2    0    0 -0.27303892077E+02  0.95361422018E+02 -0.16102895259E+03  0.18912859885E+03  0.00000000000E+00 0. -1.
         11    1    1    2    0    0  0.65098658268E+02  0.13532977045E+03 -0.18002194428E+03  0.23443524159E+03  0.00000000000E+00 0.  1.
</event>
<event>
 7    1  0.6833760E-006  0.1532388E+03  0.7561462E-02  0.1196549E+00
         -2   -1    0    0    0  501 -0.00000000000E+00  0.00000000000E+00  0.36780499531E+02  0.36780499531E+02  0.00000000000E+00 0.  1.
          2   -1    0    0  501    0  0.00000000000E+00 -0.00000000000E+00 -0.78231378042E+03  0.78231378042E+03  0.00000000000E+00 0. -1.
         23    2    1    2    0    0 -0.10344005342E+03 -0.64195184447E+02 -0.27931656181E+03  0.32937116786E+03  0.12508700235E+03 0.  0.
          5    1    3    3  502    0  0.92097633278E+01 -0.46842914680E+02 -0.33761735663E+02  0.58620863106E+02  0.41800000000E+01 0. -1.
         -5    1    3    3    0  502 -0.11264981674E+03 -0.17352269767E+02 -0.24555482615E+03  0.27075030475E+03  0.41800000000E+01 0. -1.
        -11    1    1    2    0    0 -0.10699304881E+02  0.18867068181E+02 -0.33437001570E+02  0.39855670371E+02  0.00000000000E+00 0. -1.
         11    1    1    2    0    0  0.11413935830E+03  0.45328116266E+02 -0.43277971750E+03  0.44986744172E+03  0.00000000000E+00 0.  1.
</event>
<event>
 7    1  0.6833760E-006  0.8720682E+02  0.7561462E-02  0.1309760E+00
         -3   -1    0    0    0  501 -0.00000000000E+00  0.00000000000E+00  0.12126028208E+03  0.12126028208E+03  0.00000000000E+00 0.  1.
          3   -1    0    0  501    0  0.00000000000E+00 -0.00000000000E+00 -0.21904252942E+03  0.21904252942E+03  0.00000000000E+00 0. -1.
         23    2    1    2    0    0 -0.30750021967E+02  0.12847451082E+02  0.70739147925E+02  0.14751980037E+03  0.12508974220E+03 0.  0.
          5    1    3    3  502    0  0.42670724868E+02  0.31768528061E+02  0.32776477503E+02  0.62624276550E+02  0.41800000000E+01 0.  1.
         -5    1    3    3    0  502 -0.73420746834E+02 -0.18921076979E+02  0.37962670422E+02  0.84895523824E+02  0.41800000000E+01 0.  1.
        -11    1    1    2    0    0  0.21036604969E+02 -0.22929106674E+02 -0.17472225740E+03  0.17747154677E+03  0.00000000000E+00 0. -1.
         11    1    1    2    0    0  0.97134169978E+01  0.10081655592E+02  0.62008621355E+01  0.15311464348E+02  0.00000000000E+00 0.  1.
</event>
<event>
 7    1  0.6833760E-006  0.1029644E+03  0.7561462E-02  0.1274183E+00
          2   -1    0    0  501    0  0.00000000000E+00  0.00000000000E+00  0.24990319398E+02  0.24990319398E+02  0.00000000000E+00 0.  1.
         -2   -1    0    0    0  501 -0.00000000000E+00 -0.00000000000E+00 -0.55920818242E+03  0.55920818242E+03  0.00000000000E+00 0. -1.
         23    2    1    2    0    0  0.32005714706E+02  0.30831677018E+02 -0.33233473568E+03  0.35786736384E+03  0.12509082891E+03 0.  0.
          5    1    3    3  502    0 -0.23755870910E+02  0.47818991492E+02 -0.65016709268E+02  0.84235635179E+02  0.41800000000E+01 0. -1.
         -5    1    3    3    0  502  0.55761585616E+02 -0.16987314473E+02 -0.26731802641E+03  0.27363172866E+03  0.41800000000E+01 0. -1.
        -11    1    1    2    0    0 -0.42150218109E+02 -0.54078878388E+02 -0.18074668635E+03  0.19331458972E+03  0.00000000000E+00 0. -1.
         11    1    1    2    0    0  0.10144503403E+02  0.23247201370E+02 -0.21136440989E+02  0.33016548253E+02  0.00000000000E+00 0.  1.
</event>
<event>
 7    1  0.6833760E-006  0.1165524E+03  0.7561462E-02  0.1248895E+00
         -2   -1    0    0    0  501 -0.00000000000E+00  0.00000000000E+00  0.23137315048E+02  0.23137315048E+02  0.00000000000E+00 0. -1.
          2   -1    0    0  501    0  0.00000000000E+00 -0.00000000000E+00 -0.89643763162E+03  0.89643763162E+03  0.00000000000E+00 0.  1.
         23    2    1    2    0    0 -0.45751936714E+02 -0.81960294271E+02 -0.43573312276E+03  0.46296168030E+03  0.12513765862E+03 0.  0.
          5    1    3    3  502    0 -0.28825410765E+02 -0.13371162590E+02 -0.35144315407E+03  0.35290148092E+03  0.41800000000E+01 0.  1.
         -5    1    3    3    0  502 -0.16926525949E+02 -0.68589131680E+02 -0.84289968692E+02  0.11006019938E+03  0.41800000000E+01 0.  1.
        -11    1    1    2    0    0  0.31404197377E+02 -0.13188114942E+02 -0.10318620778E+03  0.10866252097E+03  0.00000000000E+00 0.  1.
         11    1    1    2    0    0  0.14347739337E+02  0.95148409213E+02 -0.33438098603E+03  0.34795074539E+03  0.00000000000E+00 0. -1.
</event>
<event>
 7    1  0.6833760E-006  0.1086757E+03  0.7561462E-02  0.1263042E+00
          2   -1    0    0  501    0  0.00000000000E+00  0.00000000000E+00  0.87722726942E+03  0.87722726942E+03  0.00000000000E+00 0. -1.
         -2   -1    0    0    0  501 -0.00000000000E+00 -0.00000000000E+00 -0.15087362008E+02  0.15087362008E+02  0.00000000000E+00 0.  1.
         23    2    1    2    0    0  0.23348682523E+02  0.10225872448E+02  0.39463722328E+03  0.41477416867E+03  0.12509733633E+03 0.  0.
          5    1    3    3  502    0  0.53562220571E+02 -0.36145827477E+02  0.28023291969E+03  0.28761674846E+03  0.41800000000E+01 0.  1.
         -5    1    3    3    0  502 -0.30213538047E+02  0.46371699926E+02  0.11440430359E+03  0.12715742021E+03  0.41800000000E+01 0.  1.
        -11    1    1    2    0    0  0.36070429331E+02 -0.10869335520E+02  0.20001713490E+03  0.20353395928E+03  0.00000000000E+00 0. -1.
         11    1    1    2    0    0 -0.59419111854E+02  0.64346307178E+00  0.26748554923E+03  0.27400650347E+03  0.00000000000E+00 0.  1.
</event>
<event>
 7    1  0.6833760E-006  0.8136172E+02  0.7561462E-02  0.1325231E+00
         -2   -1    0    0    0  501 -0.00000000000E+00  0.00000000000E+00  0.69657750927E+02  0.69657750927E+02  0.00000000000E+00 0. -1.
          2   -1    0    0  501    0  0.00000000000E+00 -0.00000000000E+00 -0.18386327191E+03  0.18386327191E+03  0.00000000000E+00 0.  1.
         23    2    1    2    0    0  0.16253904384E+01 -0.26740591433E+02 -0.41665100019E+02  0.13454065376E+03  0.12508999093E+03 0.  0.
          5    1    3    3  502    0 -0.51216432818E+02  0.15045030881E+02 -0.40326149338E+02  0.67030938120E+02  0.41800000000E+01 0. -1.
         -5    1    3    3    0  502  0.52841823256E+02 -0.41785622314E+02 -0.13389506810E+01  0.67509715642E+02  0.41800000000E+01 0. -1.
        -11    1    1    2    0    0 -0.15942467475E+02  0.20740195222E+02  0.14945517037E+02  0.30127835079E+02  0.00000000000E+00 0. -1.
         11    1    1    2    0    0  0.14317077037E+02  0.60003962109E+01 -0.87485938002E+02  0.88852533997E+02  0.00000000000E+00 0.  1.
</event>
<event>
 7    1  0.6833760E-006  0.1206723E+03  0.7561462E-02  0.1241992E+00
         -4   -1    0    0    0  501 -0.00000000000E+00  0.00000000000E+00  0.76101672677E+02  0.76101672677E+02  0.00000000000E+00 0. -1.
          4   -1    0    0  501    0  0.00000000000E+00 -0.00000000000E+00 -0.20864066438E+03  0.20864066438E+03  0.00000000000E+00 0.  1.
         23    2    1    2    0    0 -0.10350117739E+02 -0.59533021779E+02 -0.65981487595E+02  0.15379131675E+03  0.12508759644E+03 0.  0.
          5    1    3    3  502    0  0.50783472810E+02 -0.58392248862E+02 -0.40166946587E+02  0.87289586068E+02  0.41800000000E+01 0.  1.
         -5    1    3    3    0  502 -0.61133590549E+02 -0.11407729174E+01 -0.25814541007E+02  0.66501730682E+02  0.41800000000E+01 0.  1.
        -11    1    1    2    0    0 -0.30060676227E+02 -0.64934389180E+00 -0.47125628732E+02  0.55900722590E+02  0.00000000000E+00 0.  1.
         11    1    1    2    0    0  0.40410793965E+02  0.60182365671E+02 -0.19431875376E+02  0.75050297716E+02  0.00000000000E+00 0. -1.
</event>
<event>
 7    1  0.6833760E-006  0.1081119E+03  0.7561462E-02  0.1264107E+00
          4   -1    0    0  501    0  0.00000000000E+00  0.00000000000E+00  0.18344539558E+03  0.18344539558E+03  0.00000000000E+00 0. -1.
         -4   -1    0    0    0  501 -0.00000000000E+00 -0.00000000000E+00 -0.73629676427E+02  0.73629676427E+02  0.00000000000E+00 0.  1.
         23    2    1    2    0    0  0.19392193725E+02 -0.35271775344E+02  0.76881291004E+02  0.15224073164E+03  0.12508537945E+03 0.  0.
          5    1    3    3  502    0  0.15528542157E+02  0.45571521758E+02  0.41935409725E+02  0.63983983978E+02  0.41800000000E+01 0.  1.
         -5    1    3    3    0  502  0.38636515681E+01 -0.80843297102E+02  0.34945881278E+02  0.88256747663E+02  0.41800000000E+01 0.  1.
        -11    1    1    2    0    0 -0.46679265185E+02  0.36924106259E+02  0.45334071305E+02  0.74816585343E+02  0.00000000000E+00 0. -1.
         11    1    1    2    0    0  0.27287071460E+02 -0.16523309148E+01 -0.12399643155E+02  0.30017755024E+02  0.00000000000E+00 0.  1.
</event>
<event>
 7    1  0.1468030E-005  0.3046677E+03  0.7561462E-02  0.1082930E+00
          1   -1    0    0  501    0  0.00000000000E+00  0.00000000000E+00  0.26961861120E+03  0.26961861120E+03  0.00000000000E+00 0. -1.
         -1   -1    0    0    0  501 -0.00000000000E+00 -0.00000000000E+00 -0.53429686076E+03  0.53429686076E+03  0.00000000000E+00 0.  1.
         23    2    1    2    0    0 -0.12053172311E+03  0.27383275149E+03 -0.35277776019E+03  0.47917794704E+03  0.12508830791E+03 0.  0.
          5    1    3    3  502    0 -0.59315443500E+02  0.19979829202E+03 -0.31085416867E+03  0.37427992988E+03  0.41800000000E+01 0. -1.
         -5    1    3    3    0  502 -0.61216279605E+02  0.74034459468E+02 -0.41923591527E+02  0.10489801716E+03  0.41800000000E+01 0. -1.
        -11    1    1    2    0    0  0.35566825221E+02 -0.15252507801E+03  0.81340796697E+02  0.17648009430E+03  0.00000000000E+00 0. -1.
         11    1    1    2    0    0  0.84964897884E+02 -0.12130767348E+03  0.67587139353E+01  0.14825743061E+03  0.00000000000E+00 0.  1.
</event>
<event>
 7    1  0.6833760E-006  0.1828693E+03  0.7561462E-02  0.1165055E+00
          3   -1    0    0  501    0  0.00000000000E+00  0.00000000000E+00  0.93085355436E+03  0.93085355436E+03  0.00000000000E+00 0. -1.
         -3   -1    0    0    0  501 -0.00000000000E+00 -0.00000000000E+00 -0.42562005900E+02  0.42562005900E+02  0.00000000000E+00 0.  1.
         23    2    1    2    0    0 -0.14930165623E+03 -0.45567163912E+02  0.32265233339E+03  0.37962810516E+03  0.12508244885E+03 0.  0.
          5    1    3    3  502    0 -0.83290157782E+02  0.37141703491E+02  0.18147264899E+03  0.20314170240E+03  0.41800000000E+01 0. -1.
         -5    1    3    3    0  502 -0.66011498451E+02 -0.82708867403E+02  0.14117968439E+03  0.17648640276E+03  0.41800000000E+01 0. -1.
        -11    1    1    2    0    0  0.76198892043E+02  0.56183845373E+02  0.41937115852E+03  0.42992448666E+03  0.00000000000E+00 0. -1.
         11    1    1    2    0    0  0.73102764189E+02 -0.10616681461E+02  0.14626805655E+03  0.16386296844E+03  0.00000000000E+00 0.  1.
</event>
<event>
 7    1  0.6833760E-006  0.1479233E+03  0.7561462E-02  0.1203048E+00
         -1   -1    0    0    0  501 -0.00000000000E+00  0.00000000000E+00  0.11101099638E+03  0.11101099638E+03  0.00000000000E+00 0.  1.
          1   -1    0    0  501    0  0.00000000000E+00 -0.00000000000E+00 -0.29176674697E+03  0.29176674697E+03  0.00000000000E+00 0. -1.
         23    2    1    2    0    0  0.97957451579E+02 -0.92294330003E+02 -0.39931185168E+02  0.18803225864E+03  0.12509086725E+03 0.  0.
          5    1    3    3  502    0  0.51463956734E+02 -0.11316117068E+02  0.39003672706E+02  0.65691340622E+02  0.41800000000E+01 0. -1.
         -5    1    3    3    0  502  0.46493494845E+02 -0.80978212935E+02 -0.78934857874E+02  0.12234091801E+03  0.41800000000E+01 0. -1.
        -11    1    1    2    0    0 -0.23740830553E+02 -0.77293522069E+01  0.22317610975E+01  0.25066923993E+02  0.00000000000E+00 0.  1.
         11    1    1    2    0    0 -0.74216621025E+02  0.10002368221E+03 -0.14305632652E+03  0.18967856072E+03  0.00000000000E+00 0. -1.
</event>
<event>
 7    1  0.6833760E-006  0.1732424E+03  0.7561462E-02  0.1174508E+00
         -2   -1    0    0    0  501 -0.00000000000E+00  0.00000000000E+00  0.90119988237E+02  0.90119988237E+02  0.00000000000E+00 0.  1.
          2   -1    0    0  501    0  0.00000000000E+00 -0.00000000000E+00 -0.34858600560E+03  0.34858600560E+03  0.00000000000E+00 0. -1.
         23    2    1    2    0    0  0.64902590168E+02 -0.92207612562E+02 -0.10123377776E+03  0.18851309582E+03  0.11213527327E+03 0.  0.
          5    1    3    3  502    0  0.30134440795E+02 -0.11083762369E+03 -0.54465344760E+02  0.12718887344E+03  0.41800000000E+01 0. -1.
         -5    1    3    3    0  502  0.34768149373E+02  0.18630011125E+02 -0.46768432996E+02  0.61324222378E+02  0.41800000000E+01 0.  1.
        -11    1    1    2    0    0 -0.56338824204E+02  0.13602752986E+03 -0.10172472641E+03  0.17895662032E+03  0.00000000000E+00 0.  1.
         11    1    1    2    0    0 -0.85637659641E+01 -0.43819917298E+02 -0.55507513203E+02  0.71236277707E+02  0.00000000000E+00 0. -1.
</event>
<event>
 7    1  0.6833760E-006  0.1397900E+03  0.7561462E-02  0.1213612E+00
         -2   -1    0    0    0  501 -0.00000000000E+00  0.00000000000E+00  0.12668939556E+03  0.12668939556E+03  0.00000000000E+00 0.  1.
          2   -1    0    0  501    0  0.00000000000E+00 -0.00000000000E+00 -0.20968714793E+03  0.20968714793E+03  0.00000000000E+00 0. -1.
         23    2    1    2    0    0  0.17501284300E+02  0.11259019389E+03 -0.19090509744E+01  0.16921553693E+03  0.12508959490E+03 0.  0.
          5    1    3    3  502    0  0.44393340727E+02  0.12257588737E+03 -0.24183365845E+02  0.13265716886E+03  0.41800000000E+01 0.  1.
         -5    1    3    3    0  502 -0.26892056427E+02 -0.99856934839E+01  0.22274314871E+02  0.36558368074E+02  0.41800000000E+01 0.  1.
        -11    1    1    2    0    0 -0.15219941300E+02 -0.11589463045E+02 -0.61298709702E+02  0.64214438236E+02  0.00000000000E+00 0. -1.
         11    1    1    2    0    0 -0.22813429995E+01 -0.10100073084E+03 -0.19789991700E+02  0.10294656832E+03  0.00000000000E+00 0.  1.
</event>
<event>
 7    1  0.6833760E-006  0.1458469E+03  0.7561462E-02  0.1205671E+00
          2   -1    0    0  501    0  0.00000000000E+00  0.00000000000E+00  0.15578147651E+03  0.15578147651E+03  0.00000000000E+00 0. -1.
         -2   -1    0    0    0  501 -0.00000000000E+00 -0.00000000000E+00 -0.16261145579E+03  0.16261145579E+03  0.00000000000E+00 0.  1.
         23    2    1    2    0    0  0.98506099721E+02 -0.58097916336E+02 -0.22303366865E+02  0.17094997538E+03  0.12509050461E+03 0.  0.
          5    1    3    3  502    0  0.81031127132E+02 -0.87062860447E+02  0.15538467093E+02  0.12002042157E+03  0.41800000000E+01 0. -1.
         -5    1    3    3    0  502  0.17474972589E+02  0.28964944110E+02 -0.37841833958E+02  0.50929553813E+02  0.41800000000E+01 0. -1.
        -11    1    1    2    0    0 -0.18499975521E+02 -0.19684603118E+02 -0.16138321397E+02  0.31467095699E+02  0.00000000000E+00 0.  1.
         11    1    1    2    0    0 -0.80006124200E+02  0.77782519454E+02  0.31611708985E+02  0.11597586123E+03  0.00000000000E+00 0. -1.
</event>
<event>
 7    1  0.6833760E-006  0.2749541E+03  0.7561462E-02  0.1098477E+00
         -2   -1    0    0    0  501 -0.00000000000E+00  0.00000000000E+00  0.13250846244E+03  0.13250846244E+03  0.00000000000E+00 0.  1.
          2   -1    0    0  501    0  0.00000000000E+00 -0.00000000000E+00 -0.59809147397E+03  0.59809147397E+03  0.00000000000E+00 0. -1.
         23    2    1    2    0    0  0.90545291764E+02  0.24264882256E+03 -0.25054194169E+03  0.38144383723E+03  0.12510489785E+03 0.  0.
          5    1    3    3  502    0  0.92156271294E+02  0.25292477381E+03 -0.25356551427E+03  0.36983328943E+03  0.41800000000E+01 0. -1.
         -5    1    3    3    0  502 -0.16109795300E+01 -0.10275951249E+02  0.30235725795E+01  0.11610547802E+02  0.41800000000E+01 0. -1.
        -11    1    1    2    0    0 -0.66457497726E+02 -0.75429345588E+02 -0.11527450609E+03  0.15295227012E+03  0.00000000000E+00 0. -1.
         11    1    1    2    0    0 -0.24087794038E+02 -0.16721947697E+03 -0.99766563750E+02  0.19620382907E+03  0.00000000000E+00 0.  1.
</event>
<event>
 7    1  0.6833760E-006  0.1248232E+03  0.7561462E-02  0.1235346E+00
          3   -1    0    0  501    0  0.00000000000E+00  0.00000000000E+00  0.32141084672E+02  0.32141084672E+02  0.00000000000E+00 0. -1.
         -3   -1    0    0    0  501 -0.00000000000E+00 -0.00000000000E+00 -0.61155870099E+03  0.61155870099E+03  0.00000000000E+00 0.  1.
         23    2    1    2    0    0  0.73649813880E+02 -0.41327364803E+02 -0.37835408967E+03  0.40734432568E+03  0.12508131885E+03 0.  0.
          5    1    3    3  502    0 -0.21515681831E+02 -0.49776442532E+02 -0.11639115814E+03  0.12847175911E+03  0.41800000000E+01 0. -1.
         -5    1    3    3    0  502  0.95165495710E+02  0.84490777288E+01 -0.26196293153E+03  0.27887256657E+03  0.41800000000E+01 0. -1.
        -11    1    1    2    0    0 -0.18587688468E+02 -0.12679025779E+02 -0.12851435968E+03  0.13046915536E+03  0.00000000000E+00 0.  1.
         11    1    1    2    0    0 -0.55062125412E+02  0.54006390582E+02 -0.72549166973E+02  0.10588630462E+03  0.00000000000E+00 0. -1.
</event>
<event>
 7    1  0.6833760E-006  0.6688301E+02  0.7561462E-02  0.1371025E+00
         -2   -1    0    0    0  501 -0.00000000000E+00  0.00000000000E+00  0.47097069001E+02  0.47097069001E+02  0.00000000000E+00 0. -1.
          2   -1    0    0  501    0  0.00000000000E+00 -0.00000000000E+00 -0.24855072172E+03  0.24855072172E+03  0.00000000000E+00 0.  1.
         23    2    1    2    0    0  0.13166897618E+01 -0.36300597529E+01 -0.11069393191E+03  0.16707314189E+03  0.12508148214E+03 0.  0.
          5    1    3    3  502    0  0.21726725339E+02  0.36658715933E+02 -0.11382139652E+03  0.12160877745E+03  0.41800000000E+01 0. -1.
         -5    1    3    3    0  502 -0.20410035578E+02 -0.40288775686E+02  0.31274646129E+01  0.45464364435E+02  0.41800000000E+01 0. -1.
        -11    1    1    2    0    0  0.16568841549E+02 -0.13083745328E+02 -0.10015367068E+03  0.10235462204E+03  0.00000000000E+00 0.  1.
         11    1    1    2    0    0 -0.17885531311E+02  0.16713805081E+02  0.93939498748E+01  0.26220026789E+02  0.00000000000E+00 0. -1.
</event>
<event>
 7    1  0.6833760E-006  0.1811346E+03  0.7561462E-02  0.1166709E+00
         -2   -1    0    0    0  501 -0.00000000000E+00  0.00000000000E+00  0.38207755486E+02  0.38207755486E+02  0.00000000000E+00 0.  1.
          2   -1    0    0  501    0  0.00000000000E+00 -0.00000000000E+00 -0.96240075564E+03  0.96240075564E+03  0.00000000000E+00 0. -1.
         23    2    1    2    0    0 -0.96381379518E+02  0.12475996422E+03 -0.49398487922E+03  0.53340865203E+03  0.12509720291E+03 0.  0.
          5    1    3    3  502    0 -0.87296213379E+02  0.39878466422E+02 -0.37370608813E+03  0.38585571611E+03  0.41800000000E+01 0. -1.
         -5    1    3    3    0  502 -0.90851661389E+01  0.84881497794E+02 -0.12027879109E+03  0.14755293592E+03  0.41800000000E+01 0. -1.
        -11    1    1    2    0    0  0.62178684707E+02 -0.13187738571E+03 -0.36838859543E+03  0.39619186127E+03  0.00000000000E+00 0. -1.
         11    1    1    2    0    0  0.34202694811E+02  0.71174214957E+01 -0.61819525504E+02  0.71007997822E+02  0.00000000000E+00 0.  1.
</event>
<event>
 7    1  0.6833760E-006  0.9229679E+02  0.7561462E-02  0.1297383E+00
          2   -1    0    0  501    0  0.00000000000E+00  0.00000000000E+00  0.47458083835E+03  0.47458083835E+03  0.00000000000E+00 0. -1.
         -2   -1    0    0    0  501 -0.00000000000E+00 -0.00000000000E+00 -0.43287776842E+02  0.43287776842E+02  0.00000000000E+00 0.  1.
         23    2    1    2    0    0 -0.32056916469E+02  0.57542827764E+02  0.11346781763E+03  0.18127448926E+03  0.12508665755E+03 0.  0.
          5    1    3    3  502    0 -0.27273159573E+02  0.11013204207E+02  0.12855976851E+03  0.13194772594E+03  0.41800000000E+01 0. -1.
         -5    1    3    3    0  502 -0.47837568960E+01  0.46529623557E+02 -0.15091950883E+02  0.49326763322E+02  0.41800000000E+01 0. -1.
        -11    1    1    2    0    0  0.63835973576E+01 -0.76023337567E+02  0.18624249667E+03  0.20126243001E+03  0.00000000000E+00 0.  1.
         11    1    1    2    0    0  0.25673319111E+02  0.18480509803E+02  0.13158274721E+03  0.13533169592E+03  0.00000000000E+00 0. -1.
</event>
<event>
 7    1  0.6833760E-006  0.1116868E+03  0.7561462E-02  0.1257478E+00
          1   -1    0    0  501    0  0.00000000000E+00  0.00000000000E+00  0.50170459783E+02  0.50170459783E+02  0.00000000000E+00 0. -1.
         -1   -1    0    0    0  501 -0.00000000000E+00 -0.00000000000E+00 -0.33539121403E+03  0.33539121403E+03  0.00000000000E+00 0.  1.
         23    2    1    2    0    0  0.48721920147E+02  0.59454814780E+02 -0.13961685373E+03  0.20261178737E+03  0.12509984026E+03 0.  0.
          5    1    3    3  502    0  0.79164249012E+02  0.32264860529E+02 -0.39205927863E+02  0.94141259425E+02  0.41800000000E+01 0. -1.
         -5    1    3    3    0  502 -0.30442328865E+02  0.27189954251E+02 -0.10041092587E+03  0.10847052795E+03  0.41800000000E+01 0. -1.
        -11    1    1    2    0    0  0.12559910851E+02 -0.20805013233E+02 -0.85271548058E+02  0.88666999748E+02  0.00000000000E+00 0.  1.
         11    1    1    2    0    0 -0.61281830999E+02 -0.38649801546E+02 -0.60332352452E+02  0.94282886689E+02  0.00000000000E+00 0. -1.
</event>
<event>
 7    1  0.6833760E-006  0.7646856E+02  0.7561462E-02  0.1339383E+00
         -3   -1    0    0    0  501 -0.00000000000E+00  0.00000000000E+00  0.15981845175E+03  0.15981845175E+03  0.00000000000E+00 0.  1.
          3   -1    0    0  501    0  0.00000000000E+00 -0.00000000000E+00 -0.70759707253E+02  0.70759707253E+02  0.00000000000E+00 0. -1.
         23    2    1    2    0    0 -0.46551892610E+02  0.32005241263E+02  0.71561360733E+02  0.15479004921E+03  0.12509003481E+03 0.  0.
          5    1    3    3  502    0 -0.26079484567E+02 -0.21328262258E+02 -0.25245258166E+02  0.42306379497E+02  0.41800000000E+01 0. -1.
         -5    1    3    3    0  502 -0.20472408043E+02  0.53333503522E+02  0.96806618899E+02  0.11248366971E+03  0.41800000000E+01 0. -1.
        -11    1    1    2    0    0  0.44709638156E+02 -0.19010633559E+02 -0.59207595799E+01  0.48942939494E+02  0.00000000000E+00 0. -1.
         11    1    1    2    0    0  0.18422544543E+01 -0.12994607705E+02  0.23418143343E+02  0.26845170302E+02  0.00000000000E+00 0.  1.
</event>
<event>
 7    1  0.6833760E-006  0.8529903E+02  0.7561462E-02  0.1314652E+00
          1   -1    0    0  501    0  0.00000000000E+00  0.00000000000E+00  0.22969975101E+02  0.22969975101E+02  0.00000000000E+00 0. -1.
         -1   -1    0    0    0  501 -0.00000000000E+00 -0.00000000000E+00 -0.62748210495E+03  0.62748210495E+03  0.00000000000E+00 0.  1.
         23    2    1    2    0    0  0.19346904080E+02  0.29576322700E+02 -0.46399455066E+03  0.48185869918E+03  0.12509117221E+03 0.  0.
          5    1    3    3  502    0  0.17760576510E+02 -0.40820325774E+02 -0.30033405489E+03  0.30364412394E+03  0.41800000000E+01 0. -1.
         -5    1    3    3    0  502  0.15863275698E+01  0.70396648474E+02 -0.16366049577E+03  0.17821457524E+03  0.41800000000E+01 0. -1.
        -11    1    1    2    0    0 -0.32350908834E+02 -0.26892822390E+02 -0.14764629788E+03  0.15352274905E+03  0.00000000000E+00 0.  1.
         11    1    1    2    0    0  0.13004004755E+02 -0.26835003102E+01  0.71287186879E+01  0.15070631828E+02  0.00000000000E+00 0. -1.
</event>
<event>
 7    1  0.6833760E-006  0.9656976E+02  0.7561462E-02  0.1287679E+00
         -1   -1    0    0    0  501 -0.00000000000E+00  0.00000000000E+00  0.56615264747E+03  0.56615264747E+03  0.00000000000E+00 0.  1.
          1   -1    0    0  501    0  0.00000000000E+00 -0.00000000000E+00 -0.29463937350E+02  0.29463937350E+02  0.00000000000E+00 0. -1.
         23    2    1    2    0    0  0.50916745356E+02  0.24335236679E+02  0.39136110913E+03  0.41472333055E+03  0.12508878631E+03 0.  0.
          5    1    3    3  502    0  0.72949406310E+02  0.45302514317E+02  0.36260757545E+03  0.37266024722E+03  0.41800000000E+01 0. -1.
         -5    1    3    3    0  502 -0.22032660954E+02 -0.20967277638E+02  0.28753533684E+02  0.42063083334E+02  0.41800000000E+01 0. -1.
        -11    1    1    2    0    0 -0.65968442764E+01  0.15518210876E+02 -0.62772746958E+01  0.17992704099E+02  0.00000000000E+00 0. -1.
         11    1    1    2    0    0 -0.44319901080E+02 -0.39853447555E+02  0.15160487569E+03  0.16290055017E+03  0.00000000000E+00 0.  1.
</event>
<event>
 7    1  0.6833760E-006  0.2504140E+03  0.7561462E-02  0.1113043E+00
         -1   -1    0    0    0  501 -0.00000000000E+00  0.00000000000E+00  0.95175457223E+02  0.95175457223E+02  0.00000000000E+00 0.  1.
          1   -1    0    0  501    0  0.00000000000E+00 -0.00000000000E+00 -0.12032758392E+04  0.12032758392E+04  0.00000000000E+00 0. -1.
         23    2    1    2    0    0 -0.25003474799E+03  0.60115471820E+01 -0.17924654700E+03  0.33216031873E+03  0.12509052252E+03 0.  0.
          5    1    3    3  502    0 -0.20245745387E+03  0.10103557410E+02 -0.72813517289E+02  0.21543069234E+03  0.41800000000E+01 0. -1.
         -5    1    3    3    0  502 -0.47577294117E+02 -0.40920102282E+01 -0.10643302972E+03  0.11672962639E+03  0.41800000000E+01 0. -1.
        -11    1    1    2    0    0  0.14764279285E+03 -0.15504211478E+01 -0.37474548563E+03  0.40278403281E+03  0.00000000000E+00 0.  1.
         11    1    1    2    0    0  0.10239195514E+03 -0.44611260342E+01 -0.55410834937E+03  0.56350694492E+03  0.00000000000E+00 0. -1.
</event>
<event>
 7    1  0.6833760E-006  0.1199628E+03  0.7561462E-02  0.1243159E+00
          1   -1    0    0  501    0  0.00000000000E+00  0.00000000000E+00  0.67534893575E+02  0.67534893575E+02  0.00000000000E+00 0. -1.
         -1   -1    0    0    0  501 -0.00000000000E+00 -0.00000000000E+00 -0.26937337185E+03  0.26937337185E+03  0.00000000000E+00 0.  1.
         23    2    1    2    0    0 -0.46718221030E+02  0.62633699150E+02 -0.12823446888E+03  0.19544151655E+03  0.12509090669E+03 0.  0.
          5    1    3    3  502    0 -0.95299806590E+01 -0.33093466003E+02 -0.51263725906E+01  0.35067793193E+02  0.41800000000E+01 0.  1.
         -5    1    3    3    0  502 -0.37188240371E+02  0.95727165153E+02 -0.12310809629E+03  0.16037372336E+03  0.41800000000E+01 0.  1.
        -11    1    1    2    0    0  0.49715160039E+01 -0.60444305323E+02 -0.46450033105E+01  0.60826031212E+02  0.00000000000E+00 0. -1.
         11    1    1    2    0    0  0.41746705026E+02 -0.21893938271E+01 -0.68959006085E+02  0.80640717668E+02  0.00000000000E+00 0.  1.
</event>
<event>
 6    1  0.6833760E-006  0.1218163E+03  0.7561462E-02  0.1240131E+00
         -2   -1    0    0    0  501 -0.00000000000E+00  0.00000000000E+00  0.60830999689E+02  0.60830999689E+02  0.00000000000E+00 0.  1.
          2   -1    0    0  501    0  0.00000000000E+00 -0.00000000000E+00 -0.28710098773E+03  0.28710098773E+03  0.00000000000E+00 0. -1.
          5    1    1    2  502    0  0.10322765072E+03 -0.26183510017E+02 -0.11474870270E+03  0.15660862441E+03  0.41800000000E+01 0. -1.
         -5    1    1    2    0  502 -0.84608657489E+02  0.13767421917E+02 -0.22836879918E+02  0.88809697178E+02  0.41800000000E+01 0.  1.
        -11    1    1    2    0    0  0.12059771760E+02  0.16332993585E+02 -0.39526250646E+02  0.44435675583E+02  0.00000000000E+00 0.  1.
         11    1    1    2    0    0 -0.30678764989E+02 -0.39169054855E+01 -0.49158154777E+02  0.58077990246E+02  0.00000000000E+00 0. -1.
</event>
<event>
 7    1  0.6833760E-006  0.1703050E+03  0.7561462E-02  0.1177530E+00
         -1   -1    0    0    0  501 -0.00000000000E+00  0.00000000000E+00  0.78256031349E+03  0.78256031349E+03  0.00000000000E+00 0.  1.
          1   -1    0    0  501    0  0.00000000000E+00 -0.00000000000E+00 -0.50018764666E+02  0.50018764666E+02  0.00000000000E+00 0. -1.
         23    2    1    2    0    0  0.32885862193E+02  0.15966284127E+03  0.43613555135E+03  0.48211476680E+03  0.12508687543E+03 0.  0.
          5    1    3    3  502    0  0.12437412527E+02  0.15541431952E+03  0.43343775468E+03  0.46064526430E+03  0.41800000000E+01 0. -1.
         -5    1    3    3    0  502  0.20448449667E+02  0.42485217578E+01  0.26977966702E+01  0.21469502504E+02  0.41800000000E+01 0. -1.
        -11    1    1    2    0    0 -0.20118855364E+02 -0.72082937786E+02  0.22382086060E+03  0.23600105064E+03  0.00000000000E+00 0.  1.
         11    1    1    2    0    0 -0.12767006830E+02 -0.87579903489E+02  0.72585136874E+02  0.11446326071E+03  0.00000000000E+00 0. -1.
</event>
<event>
 7    1  0.6833760E-006  0.1308299E+03  0.7561462E-02  0.1226229E+00
         -1   -1    0    0    0  501 -0.00000000000E+00  0.00000000000E+00  0.37312968420E+03  0.37312968420E+03  0.00000000000E+00 0.  1.
          1   -1    0    0  501    0  0.00000000000E+00 -0.00000000000E+00 -0.50903897493E+02  0.50903897493E+02  0.00000000000E+00 0. -1.
         23    2    1    2    0    0  0.34077094631E+02 -0.72503384563E+02  0.21925732690E+03  0.26483661512E+03  0.12508664259E+03 0.  0.
          5    1    3    3  502    0  0.77077712522E+02 -0.69430274559E+02  0.17047089783E+03  0.19959793637E+03  0.41800000000E+01 0. -1.
         -5    1    3    3    0  502 -0.43000617891E+02 -0.30731100037E+01  0.48786429068E+02  0.65238678752E+02  0.41800000000E+01 0. -1.
        -11    1    1    2    0    0 -0.61339148739E+02  0.48374750343E+02  0.92989035770E+02  0.12144780118E+03  0.00000000000E+00 0.  1.
         11    1    1    2    0    0  0.27262054108E+02  0.24128634220E+02  0.99794240303E+01  0.37749165388E+02  0.00000000000E+00 0. -1.
</event>
<event>
 6    1  0.6833760E-006  0.1675441E+03  0.7561462E-02  0.1180433E+00
          3   -1    0    0  501    0  0.00000000000E+00  0.00000000000E+00  0.49942223522E+02  0.49942223522E+02  0.00000000000E+00 0. -1.
         -3   -1    0    0    0  501 -0.00000000000E+00 -0.00000000000E+00 -0.76534299600E+03  0.76534299600E+03  0.00000000000E+00 0.  1.
          5    1    1    2  502    0  0.34033909222E+02 -0.37799072163E+02 -0.54435268257E+02  0.74617341574E+02  0.41800000000E+01 0. -1.
         -5    1    1    2    0  502  0.11029016537E+03  0.44796065725E+02 -0.46569385163E+03  0.48068580583E+03  0.41800000000E+01 0.  1.
        -11    1    1    2    0    0 -0.68580003350E+02  0.36403149258E+02 -0.12826256320E+03  0.14993228890E+03  0.00000000000E+00 0.  1.
         11    1    1    2    0    0 -0.75744071245E+02 -0.43400142820E+02 -0.67009089393E+02  0.11004978322E+03  0.00000000000E+00 0. -1.
</event>
<event>
 7    1  0.6833760E-006  0.1182350E+03  0.7561462E-02  0.1246037E+00
          2   -1    0    0  501    0  0.00000000000E+00  0.00000000000E+00  0.15527108348E+03  0.15527108348E+03  0.00000000000E+00 0. -1.
         -2   -1    0    0    0  501 -0.00000000000E+00 -0.00000000000E+00 -0.12035378588E+03  0.12035378588E+03  0.00000000000E+00 0.  1.
         23    2    1    2    0    0 -0.76985309032E+02 -0.34580538013E+02  0.13855602235E+02  0.15155392050E+03  0.12511619276E+03 0.  0.
          5    1    3    3  502    0 -0.80539067818E+02  0.38009629488E+00  0.54747465952E+02  0.97475347378E+02  0.41800000000E+01 0. -1.
         -5    1    3    3    0  502  0.35537587863E+01 -0.34960634307E+02 -0.40891863718E+02  0.54078573123E+02  0.41800000000E+01 0. -1.
        -11    1    1    2    0    0  0.10949782856E+01 -0.24334159608E+02 -0.42299408932E+01  0.24723323022E+02  0.00000000000E+00 0.  1.
         11    1    1    2    0    0  0.75890330746E+02  0.58914697621E+02  0.25291636258E+02  0.99347625845E+02  0.00000000000E+00 0. -1.
</event>
<event>
 7    1  0.6833760E-006  0.2073868E+03  0.7561462E-02  0.1143652E+00
          4   -1    0    0  501    0  0.00000000000E+00  0.00000000000E+00  0.23306687619E+03  0.23306687619E+03  0.00000000000E+00 0. -1.
         -4   -1    0    0    0  501 -0.00000000000E+00 -0.00000000000E+00 -0.19822582605E+03  0.19822582605E+03  0.00000000000E+00 0.  1.
         23    2    1    2    0    0  0.15504184780E+03 -0.19297313151E+02  0.47230852963E+02  0.20564174138E+03  0.12508961373E+03 0.  0.
          5    1    3    3  502    0  0.47834792550E+02 -0.60230330730E+02 -0.94097593623E+01  0.77600747995E+02  0.41800000000E+01 0. -1.
         -5    1    3    3    0  502  0.10720705525E+03  0.40933017579E+02  0.56640612326E+02  0.12804099339E+03  0.41800000000E+01 0. -1.
        -11    1    1    2    0    0 -0.16906036838E+03  0.60369034712E+02 -0.22976942896E+02  0.18098002214E+03  0.00000000000E+00 0.  1.
         11    1    1    2    0    0  0.14018520581E+02 -0.41071721560E+02  0.10587140073E+02  0.44670938720E+02  0.00000000000E+00 0. -1.
</event>
<event>
 7    1  0.8050243E-006  0.1500153E+03  0.7561462E-02  0.1200454E+00
          1   -1    0    0  501    0  0.00000000000E+00  0.00000000000E+00  0.17003340050E+03  0.17003340050E+03  0.00000000000E+00 0. -1.
         -1   -1    0    0    0  501 -0.00000000000E+00 -0.00000000000E+00 -0.16446408571E+03  0.16446408571E+03  0.00000000000E+00 0.  1.
         23    2    1    2    0    0  0.35374671522E+02 -0.11333610057E+03 -0.41538913989E+02  0.17739577621E+03  0.12508933193E+03 0.  0.
          5    1    3    3  502    0 -0.46288914729E+02 -0.31074738078E+02 -0.20292189771E+02  0.59477292634E+02  0.41800000000E+01 0. -1.
         -5    1    3    3    0  502  0.81663586251E+02 -0.82261362490E+02 -0.21246724218E+02  0.11791848357E+03  0.41800000000E+01 0. -1.
        -11    1    1    2    0    0  0.93057928454E+01  0.48552436892E+02 -0.20338559875E+02  0.53456467583E+02  0.00000000000E+00 0.  1.
         11    1    1    2    0    0 -0.44680464368E+02  0.64783663676E+02  0.67446788661E+02  0.10364524242E+03  0.00000000000E+00 0. -1.
</event>
<event>
 7    1  0.6833760E-006  0.1002438E+03  0.7561462E-02  0.1279784E+00
          2   -1    0    0  501    0  0.00000000000E+00  0.00000000000E+00  0.14963885970E+02  0.14963885970E+02  0.00000000000E+00 0. -1.
         -2   -1    0    0    0  501 -0.00000000000E+00 -0.00000000000E+00 -0.10887395169E+04  0.10887395169E+04  0.00000000000E+00 0.  1.
         23    2    1    2    0    0  0.35952032917E+02 -0.49898101510E+02 -0.72004425177E+03  0.73341285971E+03  0.12509328148E+03 0.  0.
          5    1    3    3  502    0  0.44619519594E+01  0.30373322359E+02 -0.42151164321E+03  0.42264877320E+03  0.41800000000E+01 0. -1.
         -5    1    3    3    0  502  0.31490080958E+02 -0.80271423869E+02 -0.29853260857E+03  0.31076408651E+03  0.41800000000E+01 0. -1.
        -11    1    1    2    0    0 -0.15586067412E+02 -0.10925500337E+02 -0.11799938601E+02  0.22394879012E+02  0.00000000000E+00 0. -1.
         11    1    1    2    0    0 -0.20365965505E+02  0.60823601847E+02 -0.34193144059E+03  0.34789566418E+03  0.00000000000E+00 0.  1.
</event>
<event>
 7    1  0.6833760E-006  0.9627760E+02  0.7561462E-02  0.1288324E+00
         -2   -1    0    0    0  501 -0.00000000000E+00  0.00000000000E+00  0.33897189967E+03  0.33897189967E+03  0.00000000000E+00 0.  1.
          2   -1    0    0  501    0  0.00000000000E+00 -0.00000000000E+00 -0.54421426725E+02  0.54421426725E+02  0.00000000000E+00 0. -1.
         23    2    1    2    0    0 -0.58216553232E+02 -0.69397917228E+00  0.24046242125E+03  0.27733354023E+03  0.12530789212E+03 0.  0.
          5    1    3    3  502    0 -0.72587486826E+02 -0.44108033256E+02  0.19489570620E+03  0.21264117789E+03  0.41800000000E+01 0.  1.
         -5    1    3    3    0  502  0.14370933594E+02  0.43414054083E+02  0.45566715054E+02  0.64692362340E+02  0.41800000000E+01 0.  1.
        -11    1    1    2    0    0  0.38492663400E+02 -0.91261107554E+01  0.71000999762E+02  0.81277998255E+02  0.00000000000E+00 0.  1.
         11    1    1    2    0    0  0.19723889833E+02  0.98200899277E+01 -0.26912948068E+02  0.34781787907E+02  0.00000000000E+00 0. -1.
</event>
<event>
 7    1  0.6833760E-006  0.1596389E+03  0.7561462E-02  0.1189105E+00
          1   -1    0    0  501    0  0.00000000000E+00  0.00000000000E+00  0.25359504940E+03  0.25359504940E+03  0.00000000000E+00 0. -1.
         -1   -1    0    0    0  501 -0.00000000000E+00 -0.00000000000E+00 -0.14088779130E+03  0.14088779130E+03  0.00000000000E+00 0.  1.
         23    2    1    2    0    0  0.97699282751E+02 -0.73824801841E+02 -0.39724269150E+02  0.17950341055E+03  0.12509278805E+03 0.  0.
          5    1    3    3  502    0 -0.26171522051E+02 -0.34242316502E+02  0.54961430888E+00  0.43304264014E+02  0.41800000000E+01 0.  1.
         -5    1    3    3    0  502  0.12387080480E+03 -0.39582485339E+02 -0.40273883459E+02  0.13619914653E+03  0.41800000000E+01 0.  1.
        -11    1    1    2    0    0  0.12799846794E+02  0.17948812396E+02  0.48665162771E+02  0.53425593229E+02  0.00000000000E+00 0. -1.
         11    1    1    2    0    0 -0.11049912955E+03  0.55875989445E+02  0.10376636448E+03  0.16155383692E+03  0.00000000000E+00 0.  1.
</event>
<event>
 7    1  0.6833760E-006  0.2606041E+03  0.7561462E-02  0.1106781E+00
         -1   -1    0    0    0  501 -0.00000000000E+00  0.00000000000E+00  0.28916632199E+03  0.28916632199E+03  0.00000000000E+00 0.  1.
          1   -1    0    0  501    0  0.00000000000E+00 -0.00000000000E+00 -0.25286387158E+03  0.25286387158E+03  0.00000000000E+00 0. -1.
         23    2    1    2    0    0 -0.22770500760E+03 -0.79382278278E+02  0.74680305208E+02  0.28166597718E+03  0.12492981279E+03 0.  0.
          5    1    3    3  502    0 -0.23159899882E+03 -0.96113979823E+02  0.79943096804E+02  0.26321923276E+03  0.41800000000E+01 0. -1.
         -5    1    3    3    0  502  0.38939912143E+01  0.16731701545E+02 -0.52627915958E+01  0.18446744416E+02  0.41800000000E+01 0. -1.
        -11    1    1    2    0    0  0.10142210766E+03  0.75431867796E+02  0.57673448256E+01  0.12652933599E+03  0.00000000000E+00 0. -1.
         11    1    1    2    0    0  0.12628289994E+03  0.39504104819E+01 -0.44145199621E+02  0.13383488040E+03  0.00000000000E+00 0.  1.
</event>
<event>
 7    1  0.6833760E-006  0.1306701E+03  0.7561462E-02  0.1226465E+00
          1   -1    0    0  501    0  0.00000000000E+00  0.00000000000E+00  0.16186308817E+03  0.16186308817E+03  0.00000000000E+00 0. -1.
         -1   -1    0    0    0  501 -0.00000000000E+00 -0.00000000000E+00 -0.19261666327E+03  0.19261666327E+03  0.00000000000E+00 0.  1.
         23    2    1    2    0    0 -0.36254302627E+00  0.11271611098E+03 -0.98797167566E+02  0.19523367709E+03  0.12510098017E+03 0.  0.
          5    1    3    3  502    0  0.44846095049E+02  0.29581486636E+02  0.57080905873E+01  0.54187556606E+02  0.41800000000E+01 0. -1.
         -5    1    3    3    0  502 -0.45208638075E+02  0.83134624348E+02 -0.10450525815E+03  0.14104612049E+03  0.41800000000E+01 0. -1.
        -11    1    1    2    0    0  0.10054914790E+01 -0.46707684874E+02  0.79535562180E+02  0.92241663529E+02  0.00000000000E+00 0. -1.
         11    1    1    2    0    0 -0.64294845276E+00 -0.66008426111E+02 -0.11491969716E+02  0.67004410812E+02  0.00000000000E+00 0.  1.
</event>
<event>
 7    1  0.6833760E-006  0.1163120E+03  0.7561462E-02  0.1249308E+00
          2   -1    0    0  501    0  0.00000000000E+00  0.00000000000E+00  0.80060418992E+03  0.80060418992E+03  0.00000000000E+00 0. -1.
         -2   -1    0    0    0  501 -0.00000000000E+00 -0.00000000000E+00 -0.20142664819E+02  0.20142664819E+02  0.00000000000E+00 0.  1.
         23    2    1    2    0    0 -0.11348522247E+02  0.56115129142E+02  0.32158987256E+03  0.34978228748E+03  0.12509958363E+03 0.  0.
          5    1    3    3  502    0 -0.46967201049E+02  0.73130847588E+02  0.27570386053E+03  0.28910920074E+03  0.41800000000E+01 0.  1.
         -5    1    3    3    0  502  0.35618678802E+02 -0.17015718446E+02  0.45886012032E+02  0.60673086735E+02  0.41800000000E+01 0.  1.
        -11    1    1    2    0    0  0.97725842303E+00 -0.79931777624E+02  0.33620538189E+03  0.34557792598E+03  0.00000000000E+00 0. -1.
         11    1    1    2    0    0  0.10371263824E+02  0.23816648482E+02  0.12266627064E+03  0.12538664128E+03  0.00000000000E+00 0.  1.
</event>
<event>
 7    1  0.6833760E-006  0.1089649E+03  0.7561462E-02  0.1262499E+00
          2   -1    0    0  501    0  0.00000000000E+00  0.00000000000E+00  0.54476408050E+02  0.54476408050E+02  0.00000000000E+00 0. -1.
         -2   -1    0    0    0  501 -0.00000000000E+00 -0.00000000000E+00 -0.26470079657E+03  0.26470079657E+03  0.00000000000E+00 0.  1.
         23    2    1    2    0    0 -0.23909998939E+02 -0.18826448639E+02 -0.16553505624E+03  0.20970491329E+03  0.12509265604E+03 0.  0.
          5    1    3    3  502    0 -0.23489634578E+02  0.51658348586E+02 -0.88412811555E+02  0.10514107455E+03  0.41800000000E+01 0. -1.
         -5    1    3    3    0  502 -0.42036436079E+00 -0.70484797226E+02 -0.77122244681E+02  0.10456383873E+03  0.41800000000E+01 0. -1.
        -11    1    1    2    0    0 -0.29372224501E+02 -0.84450757981E+01  0.58698452537E+01  0.31120764141E+02  0.00000000000E+00 0. -1.
         11    1    1    2    0    0  0.53282223440E+02  0.27271524438E+02 -0.50559177532E+02  0.78351527187E+02  0.00000000000E+00 0.  1.
</event>
<event>
 7    1  0.6833760E-006  0.1018421E+03  0.7561462E-02  0.1276469E+00
         -2   -1    0    0    0  501 -0.00000000000E+00  0.00000000000E+00  0.45884108764E+02  0.45884108764E+02  0.00000000000E+00 0.  1.
          2   -1    0    0  501    0  0.00000000000E+00 -0.00000000000E+00 -0.26810025224E+03  0.26810025224E+03  0.00000000000E+00 0. -1.
         23    2    1    2    0    0  0.64306905959E+01 -0.42975237192E+01 -0.85045632809E+02  0.15146060859E+03  0.12509090216E+03 0.  0.
          5    1    3    3  502    0  0.78927435727E+01 -0.60369685600E+02 -0.17346311231E+02  0.63444158548E+02  0.41800000000E+01 0.  1.
         -5    1    3    3    0  502 -0.14620529767E+01  0.56072161880E+02 -0.67699321577E+02  0.88016450047E+02  0.41800000000E+01 0.  1.
        -11    1    1    2    0    0 -0.23315993832E+02  0.40348781470E+02 -0.63228146537E+02  0.78545898995E+02  0.00000000000E+00 0.  1.
         11    1    1    2    0    0  0.16885303236E+02 -0.36051257751E+02 -0.73942364129E+02  0.83977853412E+02  0.00000000000E+00 0. -1.
</event>
<event>
 7    1  0.6833760E-006  0.1047885E+03  0.7561462E-02  0.1270537E+00
          1   -1    0    0  501    0  0.00000000000E+00  0.00000000000E+00  0.39860536282E+03  0.39860536282E+03  0.00000000000E+00 0. -1.
         -1   -1    0    0    0  501 -0.00000000000E+00 -0.00000000000E+00 -0.64065150119E+02  0.64065150119E+02  0.00000000000E+00 0.  1.
         23    2    1    2    0    0  0.10406183661E+03 -0.75929930897E+00  0.10123519319E+03  0.19163810668E+03  0.12508859748E+03 0.  0.
          5    1    3    3  502    0  0.76637108697E+02  0.11000018776E+01  0.13041845560E+03  0.15133044107E+03  0.41800000000E+01 0. -1.
         -5    1    3    3    0  502  0.27424727908E+02 -0.18593011865E+01 -0.29183262415E+02  0.40307665610E+02  0.41800000000E+01 0. -1.
        -11    1    1    2    0    0 -0.69406069267E+02 -0.61453360052E+01  0.53660843142E+02  0.87945742890E+02  0.00000000000E+00 0.  1.
         11    1    1    2    0    0 -0.34655767338E+02  0.69046353141E+01  0.17964417637E+03  0.18308666337E+03  0.00000000000E+00 0. -1.
</event>
<event>
 7    1  0.6833760E-006  0.2992733E+02  0.7561462E-02  0.1598893E+00
         -3   -1    0    0    0  501 -0.00000000000E+00  0.00000000000E+00  0.35655979916E+03  0.35655979916E+03  0.00000000000E+00 0.  1.
          3   -1    0    0  501    0  0.00000000000E+00 -0.00000000000E+00 -0.27539031861E+02  0.27539031861E+02  0.00000000000E+00 0. -1.
         23    2    1    2    0    0  0.29923932466E+00 -0.26255170341E+02  0.32028425553E+03  0.34484660591E+03  0.12509098191E+03 0.  0.
          5    1    3    3  502    0 -0.33069256861E-01  0.17071931391E+00  0.31796199213E+03  0.31798951410E+03  0.41800000000E+01 0. -1.
         -5    1    3    3    0  502  0.33230858152E+00 -0.26425889654E+02  0.23222633944E+01  0.26857091806E+02  0.41800000000E+01 0. -1.
        -11    1    1    2    0    0  0.56901847336E+01  0.16645012432E+02  0.17591247307E+02  0.24877432002E+02  0.00000000000E+00 0.  1.
         11    1    1    2    0    0 -0.59894240583E+01  0.96101579083E+01 -0.88547355344E+01  0.14374793110E+02  0.00000000000E+00 0. -1.
</event>
<event>
 7    1  0.6833760E-006  0.1551888E+03  0.7561462E-02  0.1194238E+00
         -2   -1    0    0    0  501 -0.00000000000E+00  0.00000000000E+00  0.11219377229E+03  0.11219377229E+03  0.00000000000E+00 0. -1.
          2   -1    0    0  501    0  0.00000000000E+00 -0.00000000000E+00 -0.26938314844E+03  0.26938314844E+03  0.00000000000E+00 0.  1.
         23    2    1    2    0    0  0.12915987292E+03 -0.48536202245E+02 -0.10076861652E+03  0.21175418461E+03  0.12508990736E+03 0.  0.
          5    1    3    3  502    0  0.27516288164E+02  0.30771130170E+02 -0.66343133919E+02  0.78248912992E+02  0.41800000000E+01 0. -1.
         -5    1    3    3    0  502  0.10164358476E+03 -0.79307332415E+02 -0.34425482604E+02  0.13350527162E+03  0.41800000000E+01 0. -1.
        -11    1    1    2    0    0 -0.60950597725E+02  0.10658046123E+02  0.15416268655E+02  0.63767002826E+02  0.00000000000E+00 0.  1.
         11    1    1    2    0    0 -0.68209275196E+02  0.37878156122E+02 -0.71837028279E+02  0.10605573330E+03  0.00000000000E+00 0. -1.
</event>
<event>
 7    1  0.6833760E-006  0.1678481E+03  0.7561462E-02  0.1180111E+00
         -1   -1    0    0    0  501 -0.00000000000E+00  0.00000000000E+00  0.29090836246E+03  0.29090836246E+03  0.00000000000E+00 0.  1.
          1   -1    0    0  501    0  0.00000000000E+00 -0.00000000000E+00 -0.12301072873E+03  0.12301072873E+03  0.00000000000E+00 0. -1.
         23    2    1    2    0    0 -0.13881693650E+03  0.10939819479E+01  0.16346879190E+03  0.24827492756E+03  0.12508818919E+03 0.  0.
          5    1    3    3  502    0 -0.16190509581E+03 -0.68193703029E+01  0.14172366595E+03  0.21532030501E+03  0.41800000000E+01 0.  1.
         -5    1    3    3    0  502  0.23088159315E+02  0.79133522508E+01  0.21745125946E+02  0.32954622541E+02  0.41800000000E+01 0.  1.
        -11    1    1    2    0    0  0.40633069054E+02 -0.25093820541E+02 -0.32794839988E+02  0.57933130935E+02  0.00000000000E+00 0. -1.
         11    1    1    2    0    0  0.98183867441E+02  0.23999838593E+02  0.37223681821E+02  0.10771103271E+03  0.00000000000E+00 0.  1.
</event>
<event>
 7    1  0.6833760E-006  0.9744528E+02  0.7561462E-02  0.1285762E+00
         -2   -1    0    0    0  501 -0.00000000000E+00  0.00000000000E+00  0.18013394758E+02  0.18013394758E+02  0.00000000000E+00 0.  1.
          2   -1    0    0  501    0  0.00000000000E+00 -0.00000000000E+00 -0.88533729904E+03  0.88533729904E+03  0.00000000000E+00 0. -1.
         23    2    1    2    0    0 -0.47650435422E+01 -0.62235241276E+02 -0.58740695249E+03  0.60381712869E+03  0.12510901713E+03 0.  0.
          5    1    3    3  502    0 -0.27062353908E+02 -0.72372562480E+02 -0.56526092197E+03  0.57053268189E+03  0.41800000000E+01 0.  1.
         -5    1    3    3    0  502  0.22297310366E+02  0.10137321205E+02 -0.22146030516E+02  0.33284446794E+02  0.41800000000E+01 0.  1.
        -11    1    1    2    0    0 -0.26330600006E+02  0.39821246713E+01 -0.26174766292E+02  0.37340008088E+02  0.00000000000E+00 0.  1.
         11    1    1    2    0    0  0.31095643548E+02  0.58253116604E+02 -0.25374218550E+03  0.26219355703E+03  0.00000000000E+00 0. -1.
</event>
<event>
 7    1  0.6833760E-006  0.1100653E+03  0.7561462E-02  0.1260449E+00
          2   -1    0    0  501    0  0.00000000000E+00  0.00000000000E+00  0.36236757739E+03  0.36236757739E+03  0.00000000000E+00 0. -1.
         -2   -1    0    0    0  501 -0.00000000000E+00 -0.00000000000E+00 -0.52249838736E+02  0.52249838736E+02  0.00000000000E+00 0.  1.
         23    2    1    2    0    0 -0.48913221601E+02  0.41655703317E+02  0.87069548869E+02  0.16538817707E+03  0.12507774345E+03 0.  0.
          5    1    3    3  502    0 -0.64750511879E+02 -0.67175951086E+01  0.93401744351E+02  0.11392591066E+03  0.41800000000E+01 0. -1.
         -5    1    3    3    0  502  0.15837290278E+02  0.48373298426E+02 -0.63321954820E+01  0.51462266405E+02  0.41800000000E+01 0. -1.
        -11    1    1    2    0    0  0.39916323261E+02  0.17792374872E+02  0.52022905974E+02  0.67943095398E+02  0.00000000000E+00 0.  1.
         11    1    1    2    0    0  0.89968983396E+01 -0.59448078189E+02  0.17102528381E+03  0.18128614366E+03  0.00000000000E+00 0. -1.
</event>
<event>
 7    1  0.6833760E-006  0.1195065E+03  0.7561462E-02  0.1243913E+00
         -2   -1    0    0    0  501 -0.00000000000E+00  0.00000000000E+00  0.62690913756E+02  0.62690913756E+02  0.00000000000E+00 0.  1.
          2   -1    0    0  501    0  0.00000000000E+00 -0.00000000000E+00 -0.38519937093E+03  0.38519937093E+03  0.00000000000E+00 0. -1.
         23    2    1    2    0    0 -0.97709310142E+02  0.32855298832E+02 -0.11437297833E+03  0.19838182594E+03  0.12509033033E+03 0.  0.
          5    1    3    3  502    0 -0.98770344623E+02  0.35309694779E+01 -0.13118842149E+03  0.16430436103E+03  0.41800000000E+01 0. -1.
         -5    1    3    3    0  502  0.10610344809E+01  0.29324329355E+02  0.16815443156E+02  0.34077464911E+02  0.41800000000E+01 0. -1.
        -11    1    1    2    0    0  0.60021545553E+02  0.64769096797E+00 -0.18411625464E+03  0.19365381653E+03  0.00000000000E+00 0. -1.
         11    1    1    2    0    0  0.37687764589E+02 -0.33502989800E+02 -0.24019224206E+02  0.55854642213E+02  0.00000000000E+00 0.  1.
</event>
<event>
 7    1  0.6833760E-006  0.9258215E+02  0.7561462E-02  0.1296716E+00
          2   -1    0    0  501    0  0.00000000000E+00  0.00000000000E+00  0.48967280593E+03  0.48967280593E+03  0.00000000000E+00 0. -1.
         -2   -1    0    0    0  501 -0.00000000000E+00 -0.00000000000E+00 -0.25495357622E+02  0.25495357622E+02  0.00000000000E+00 0.  1.
         23    2    1    2    0    0  0.10241453909E+02 -0.23112444362E+01  0.19134523310E+03  0.22884395831E+03  0.12508529008E+03 0.  0.
          5    1    3    3  502    0 -0.49434634152E+02 -0.11023156521E+02  0.14196127695E+03  0.15078385055E+03  0.41800000000E+01 0.  1.
         -5    1    3    3    0  502  0.59676088061E+02  0.87119120843E+01  0.49383956157E+02  0.78060107764E+02  0.41800000000E+01 0.  1.
        -11    1    1    2    0    0 -0.35234082410E+02  0.22462713562E+02  0.22413277505E+03  0.22799455019E+03  0.00000000000E+00 0. -1.
         11    1    1    2    0    0  0.24992628501E+02 -0.20151469126E+02  0.48699440153E+02  0.58329655053E+02  0.00000000000E+00 0.  1.
</event>
<event>
 7    1  0.6833760E-006  0.9045271E+02  0.7561462E-02  0.1301759E+00
          3   -1    0    0  501    0  0.00000000000E+00  0.00000000000E+00  0.44475754443E+02  0.44475754443E+02  0.00000000000E+00 0. -1.
         -3   -1    0    0    0  501 -0.00000000000E+00 -0.00000000000E+00 -0.30281903598E+03  0.30281903598E+03  0.00000000000E+00 0.  1.
         23    2    1    2    0    0  0.18826398389E+02  0.35965704625E+02 -0.14772518839E+03  0.19778214666E+03  0.12508829309E+03 0.  0.
          5    1    3    3  502    0  0.25311637357E+02  0.57321461834E+02 -0.16946449188E+02  0.65046779418E+02  0.41800000000E+01 0.  1.
         -5    1    3    3    0  502 -0.64852389681E+01 -0.21355757209E+02 -0.13077873920E+03  0.13273536725E+03  0.41800000000E+01 0.  1.
        -11    1    1    2    0    0 -0.42832503318E+02  0.96002664017E+01 -0.74973258944E+02  0.86877948941E+02  0.00000000000E+00 0.  1.
         11    1    1    2    0    0  0.24006104929E+02 -0.45565971027E+02 -0.35644834198E+02  0.62634694814E+02  0.00000000000E+00 0. -1.
</event>
<event>
 7    1  0.6833760E-006  0.8656033E+02  0.7561462E-02  0.1311402E+00
         -1   -1    0    0    0  501 -0.00000000000E+00  0.00000000000E+00  0.89171627985E+02  0.89171627985E+02  0.00000000000E+00 0.  1.
          1   -1    0    0  501    0  0.00000000000E+00 -0.00000000000E+00 -0.18309743954E+03  0.18309743954E+03  0.00000000000E+00 0. -1.
         23    2    1    2    0    0  0.22024276707E+02  0.36009212352E+02  0.53203539490E+00  0.13202098678E+03  0.12509007055E+03 0.  0.
          5    1    3    3  502    0 -0.25842287250E+02  0.78113213488E+01  0.50350059991E+02  0.57283867647E+02  0.41800000000E+01 0.  1.
         -5    1    3    3    0  502  0.47866563958E+02  0.28197891003E+02 -0.49818024596E+02  0.74737119136E+02  0.41800000000E+01 0.  1.
        -11    1    1    2    0    0  0.14818794103E+02  0.18868446268E+02  0.11462844337E+01  0.24019344105E+02  0.00000000000E+00 0.  1.
         11    1    1    2    0    0 -0.36843070810E+02 -0.54877658620E+02 -0.95604131382E+02  0.11622873663E+03  0.00000000000E+00 0. -1.
</event>
<event>
 7    1  0.6833760E-006  0.1063474E+03  0.7561462E-02  0.1267487E+00
         -1   -1    0    0    0  501 -0.00000000000E+00  0.00000000000E+00  0.62238875795E+02  0.62238875795E+02  0.00000000000E+00 0.  1.
          1   -1    0    0  501    0  0.00000000000E+00 -0.00000000000E+00 -0.20832130556E+03  0.20832130556E+03  0.00000000000E+00 0. -1.
         23    2    1    2    0    0  0.45054323067E+02  0.26566243901E+02 -0.68747475297E+02  0.13996713276E+03  0.11013140130E+03 0.  0.
          5    1    3    3  502    0  0.27207665351E+02  0.68582493823E+02 -0.29323653070E+02  0.79505751629E+02  0.41800000000E+01 0. -1.
         -5    1    3    3    0  502  0.17846657716E+02 -0.42016249922E+02 -0.39423822228E+02  0.60461381130E+02  0.41800000000E+01 0.  1.
        -11    1    1    2    0    0 -0.58719466994E+02 -0.42109483871E+02 -0.28720122202E+02  0.77756220685E+02  0.00000000000E+00 0.  1.
         11    1    1    2    0    0  0.13665143927E+02  0.15543239970E+02 -0.48614832269E+02  0.52836827913E+02  0.00000000000E+00 0. -1.
</event>
<event>
 7    1  0.6833760E-006  0.1719401E+03  0.7561462E-02  0.1175840E+00
         -2   -1    0    0    0  501 -0.00000000000E+00  0.00000000000E+00  0.19674768130E+02  0.19674768130E+02  0.00000000000E+00 0.  1.
          2   -1    0    0  501    0  0.00000000000E+00 -0.00000000000E+00 -0.17277965807E+04  0.17277965807E+04  0.00000000000E+00 0. -1.
         23    2    1    2    0    0  0.11888727495E+03  0.88890266555E+02 -0.82232915586E+03  0.84493016045E+03  0.12508425892E+03 0.  0.
          5    1    3    3  502    0  0.35754770884E+02 -0.14786041773E+02 -0.40659518516E+03  0.40845336045E+03  0.41800000000E+01 0.  1.
         -5    1    3    3    0  502  0.83132504070E+02  0.10367630833E+03 -0.41573397070E+03  0.43647680000E+03  0.41800000000E+01 0.  1.
        -11    1    1    2    0    0 -0.15806811584E+01 -0.47630341784E+02 -0.20315079890E+03  0.20866574972E+03  0.00000000000E+00 0. -1.
         11    1    1    2    0    0 -0.11730659380E+03 -0.41259924770E+02 -0.68264185777E+03  0.69387543862E+03  0.00000000000E+00 0.  1.
</event>
<event>
 7    1  0.6833760E-006  0.1071944E+03  0.7561462E-02  0.1265855E+00
         -1   -1    0    0    0  501 -0.00000000000E+00  0.00000000000E+00  0.10955064570E+03  0.10955064570E+03  0.00000000000E+00 0.  1.
          1   -1    0    0  501    0  0.00000000000E+00 -0.00000000000E+00 -0.21370874018E+03  0.21370874018E+03  0.00000000000E+00 0. -1.
         23    2    1    2    0    0  0.54355782955E+02 -0.19041534373E+02  0.38308862866E+02  0.14294050331E+03  0.12508911759E+03 0.  0.
          5    1    3    3  502    0 -0.35557974972E+02 -0.77562551350E+00  0.36417922222E+02  0.51075518969E+02  0.41800000000E+01 0.  1.
         -5    1    3    3    0  502  0.89913757928E+02 -0.18265908859E+02  0.18909406446E+01  0.91864984339E+02  0.41800000000E+01 0.  1.
        -11    1    1    2    0    0 -0.39905986908E+01 -0.21630311933E+02 -0.10116586980E+03  0.10352936050E+03  0.00000000000E+00 0. -1.
         11    1    1    2    0    0 -0.50365184264E+02  0.40671846306E+02 -0.41301087539E+02  0.76789522070E+02  0.00000000000E+00 0.  1.
</event>
<event>
 7    1  0.6833760E-006  0.1090825E+03  0.7561462E-02  0.1262279E+00
         -1   -1    0    0    0  501 -0.00000000000E+00  0.00000000000E+00  0.19284230355E+03  0.19284230355E+03  0.00000000000E+00 0.  1.
          1   -1    0    0  501    0  0.00000000000E+00 -0.00000000000E+00 -0.65832695016E+02  0.65832695016E+02  0.00000000000E+00 0. -1.
         23    2    1    2    0    0 -0.23909356118E+02 -0.15193786242E+02  0.68898496580E+02  0.14559138054E+03  0.12508932331E+03 0.  0.
          5    1    3    3  502    0 -0.73813640298E+01 -0.70170045578E+02  0.36792186345E+02  0.79683481396E+02  0.41800000000E+01 0.  1.
         -5    1    3    3    0  502 -0.16527992089E+02  0.54976259337E+02  0.32106310235E+02  0.65907899148E+02  0.41800000000E+01 0.  1.
        -11    1    1    2    0    0 -0.27711844147E+02 -0.13543031328E+02  0.92272241323E+00  0.30857923136E+02  0.00000000000E+00 0. -1.
         11    1    1    2    0    0  0.51621200266E+02  0.28736817570E+02  0.57188389537E+02  0.82225694881E+02  0.00000000000E+00 0.  1.
</event>
<event>
 7    1  0.6833760E-006  0.1317525E+03  0.7561462E-02  0.1224878E+00
         -3   -1    0    0    0  501 -0.00000000000E+00  0.00000000000E+00  0.13085966000E+03  0.13085966000E+03  0.00000000000E+00 0.  1.
          3   -1    0    0  501    0  0.00000000000E+00 -0.00000000000E+00 -0.19836128621E+03  0.19836128621E+03  0.00000000000E+00 0. -1.
         23    2    1    2    0    0 -0.10828620789E+03 -0.17680590238E+02  0.11036077236E+02  0.16676230586E+03  0.12509742429E+03 0.  0.
          5    1    3    3  502    0 -0.12707252044E+03 -0.10791087376E+02 -0.20445766772E+02  0.12922606083E+03  0.41800000000E+01 0. -1.
         -5    1    3    3    0  502  0.18786312547E+02 -0.68895028628E+01  0.31481844008E+02  0.37536245030E+02  0.41800000000E+01 0. -1.
        -11    1    1    2    0    0  0.17416671532E+02 -0.10486540991E+02  0.17831446407E+02  0.27041976078E+02  0.00000000000E+00 0.  1.
         11    1    1    2    0    0  0.90869536362E+02  0.28167131229E+02 -0.96369149852E+02  0.13541666428E+03  0.00000000000E+00 0. -1.
</event>
<event>
 7    1  0.6833760E-006  0.1261416E+03  0.7561462E-02  0.1233296E+00
          1   -1    0    0  501    0  0.00000000000E+00  0.00000000000E+00  0.73534770153E+02  0.73534770153E+02  0.00000000000E+00 0. -1.
         -1   -1    0    0    0  501 -0.00000000000E+00 -0.00000000000E+00 -0.39919383107E+03  0.39919383107E+03  0.00000000000E+00 0.  1.
         23    2    1    2    0    0 -0.84598549447E+02 -0.54935178945E+02 -0.28161313290E+03  0.32423519936E+03  0.12509084469E+03 0.  0.
          5    1    3    3  502    0 -0.20776468557E+02 -0.55234279246E+02 -0.33449655561E+02  0.67962041661E+02  0.41800000000E+01 0.  1.
         -5    1    3    3    0  502 -0.63822080890E+02  0.29910030142E+00 -0.24816347734E+03  0.25627315770E+03  0.41800000000E+01 0.  1.
        -11    1    1    2    0    0  0.48159231715E+02  0.73805228028E+02 -0.57594843331E+02  0.10527910173E+03  0.00000000000E+00 0.  1.
         11    1    1    2    0    0  0.36439317732E+02 -0.18870049083E+02  0.13548915319E+02  0.43214300127E+02  0.00000000000E+00 0. -1.
</event>
<event>
 7    1  0.6833760E-006  0.8218884E+02  0.7561462E-02  0.1322952E+00
          1   -1    0    0  501    0  0.00000000000E+00  0.00000000000E+00  0.15099954547E+03  0.15099954547E+03  0.00000000000E+00 0. -1.
         -1   -1    0    0    0  501 -0.00000000000E+00 -0.00000000000E+00 -0.17149948094E+03  0.17149948094E+03  0.00000000000E+00 0.  1.
         23    2    1    2    0    0  0.22415579905E+02  0.24608813247E+02 -0.12505806145E+03  0.17998658379E+03  0.12509036614E+03 0.  0.
          5    1    3    3  502    0  0.49299619749E+02  0.32795932111E+02 -0.13689260888E+03  0.14920819159E+03  0.41800000000E+01 0. -1.
         -5    1    3    3    0  502 -0.26884039845E+02 -0.81871188639E+01  0.11834547438E+02  0.30778392205E+02  0.41800000000E+01 0. -1.
        -11    1    1    2    0    0 -0.61815744691E+01  0.24299913142E+02  0.82908182876E+02  0.86616767600E+02  0.00000000000E+00 0. -1.
         11    1    1    2    0    0 -0.16234005435E+02 -0.48908726389E+02  0.21649943094E+02  0.55895675016E+02  0.00000000000E+00 0.  1.
</event>
<event>
 7    1  0.6833760E-006  0.1460334E+03  0.7561462E-02  0.1205434E+00
         -2   -1    0    0    0  501 -0.00000000000E+00  0.00000000000E+00  0.25461473264E+03  0.25461473264E+03  0.00000000000E+00 0.  1.
          2   -1    0    0  501    0  0.00000000000E+00 -0.00000000000E+00 -0.17120535708E+03  0.17120535708E+03  0.00000000000E+00 0. -1.
         23    2    1    2    0    0 -0.61040012268E+02 -0.11103668183E+03  0.17102015221E+03  0.24688158748E+03  0.12509035921E+03 0.  0.
          5    1    3    3  502    0  0.53026931696E+01 -0.32477417642E+02  0.13315843448E+03  0.13722806668E+03  0.41800000000E+01 0.  1.
         -5    1    3    3    0  502 -0.66342705438E+02 -0.78559264186E+02  0.37861717729E+02  0.10965352080E+03  0.41800000000E+01 0.  1.
        -11    1    1    2    0    0 -0.23598930598E+02  0.14944847631E+02 -0.14185795541E+02  0.31328817265E+02  0.00000000000E+00 0. -1.
         11    1    1    2    0    0  0.84638942866E+02  0.96091834197E+02 -0.73424981110E+02  0.14760968498E+03  0.00000000000E+00 0.  1.
</event>
<event>
 7    1  0.6833760E-006  0.1115237E+03  0.7561462E-02  0.1257774E+00
         -1   -1    0    0    0  501 -0.00000000000E+00  0.00000000000E+00  0.28477412486E+02  0.28477412486E+02  0.00000000000E+00 0.  1.
          1   -1    0    0  501    0  0.00000000000E+00 -0.00000000000E+00 -0.55312021740E+03  0.55312021740E+03  0.00000000000E+00 0. -1.
         23    2    1    2    0    0  0.13894463804E+02 -0.49041322816E+02 -0.19616001189E+03  0.23817134789E+03  0.12509489686E+03 0.  0.
          5    1    3    3  502    0 -0.46977264340E+02 -0.29067756261E+01 -0.32011290443E+02  0.57074581253E+02  0.41800000000E+01 0.  1.
         -5    1    3    3    0  502  0.60871728144E+02 -0.46134547190E+02 -0.16414872145E+03  0.18109676664E+03  0.41800000000E+01 0.  1.
        -11    1    1    2    0    0  0.22576556108E+02  0.57576966649E+02 -0.18156534225E+03  0.19180923200E+03  0.00000000000E+00 0.  1.
         11    1    1    2    0    0 -0.36471019912E+02 -0.85356438330E+01 -0.14691745076E+03  0.15161704999E+03  0.00000000000E+00 0. -1.
</event>
<event>
 7    1  0.6833760E-006  0.1192478E+03  0.7561462E-02  0.1244343E+00
          1   -1    0    0  501    0  0.00000000000E+00  0.00000000000E+00  0.49724490008E+03  0.49724490008E+03  0.00000000000E+00 0. -1.
         -1   -1    0    0    0  501 -0.00000000000E+00 -0.00000000000E+00 -0.40621055553E+02  0.40621055553E+02  0.00000000000E+00 0.  1.
         23    2    1    2    0    0 -0.71987710869E+02 -0.26514630621E+02  0.15340004523E+03  0.21228377731E+03  0.12509025574E+03 0.  0.
          5    1    3    3  502    0 -0.62062629786E+02  0.39651596378E+02  0.50219588912E+02  0.89238436908E+02  0.41800000000E+01 0. -1.
         -5    1    3    3    0  502 -0.99250810827E+01 -0.66166226999E+02  0.10318045631E+03  0.12304534040E+03  0.41800000000E+01 0. -1.
        -11    1    1    2    0    0 -0.98049349403E+01  0.10463383823E+02  0.38870217741E+01  0.14856920558E+02  0.00000000000E+00 0.  1.
         11    1    1    2    0    0  0.81792645809E+02  0.16051246799E+02  0.29933677753E+03  0.31072525776E+03  0.00000000000E+00 0. -1.
</event>
<event>
 7    1  0.6833760E-006  0.3760205E+03  0.7561462E-02  0.1052414E+00
          2   -1    0    0  501    0  0.00000000000E+00  0.00000000000E+00  0.72809541998E+03  0.72809541998E+03  0.00000000000E+00 0.  1.
         -2   -1    0    0    0  501 -0.00000000000E+00 -0.00000000000E+00 -0.24080200183E+03  0.24080200183E+03  0.00000000000E+00 0. -1.
         23    2    1    2    0    0 -0.22279862772E+03  0.28873464000E+03  0.44279114689E+02  0.38809205166E+03  0.12509148538E+03 0.  0.
          5    1    3    3  502    0 -0.85737659720E+02  0.20192804683E+03 -0.16657609848E+01  0.21942226311E+03  0.41800000000E+01 0. -1.
         -5    1    3    3    0  502 -0.13706096800E+03  0.86806593169E+02  0.45944875674E+02  0.16866978854E+03  0.41800000000E+01 0. -1.
        -11    1    1    2    0    0  0.17857501662E+03 -0.26659692057E+03  0.34584714712E+03  0.47177664608E+03  0.00000000000E+00 0.  1.
         11    1    1    2    0    0  0.44223611105E+02 -0.22137719423E+02  0.97167156343E+02  0.10902872407E+03  0.00000000000E+00 0. -1.
</event>
<event>
 6    1  0.6833760E-006  0.6856763E+02  0.7561462E-02  0.1365033E+00
         -1   -1    0    0    0  501 -0.00000000000E+00  0.00000000000E+00  0.14134961054E+03  0.14134961054E+03  0.00000000000E+00 0.  1.
          1   -1    0    0  501    0  0.00000000000E+00 -0.00000000000E+00 -0.20476608202E+03  0.20476608202E+03  0.00000000000E+00 0. -1.
          5    1    1    2  502    0 -0.24203091298E+02  0.91428109092E+00 -0.59421609057E+02  0.64304164416E+02  0.41800000000E+01 0. -1.
         -5    1    1    2    0  502 -0.18760202400E+02  0.21133695229E+01  0.11914433566E+03  0.12070317579E+03  0.41800000000E+01 0.  1.
        -11    1    1    2    0    0  0.43781801493E+02 -0.38160661158E+02 -0.39089686280E+02  0.70007755109E+02  0.00000000000E+00 0. -1.
         11    1    1    2    0    0 -0.81850779498E+00  0.35133010544E+02 -0.84049511799E+02  0.91100597246E+02  0.00000000000E+00 0.  1.
</event>
<event>
 7    1  0.6833760E-006  0.1593459E+03  0.7561462E-02  0.1189437E+00
         -2   -1    0    0    0  501 -0.00000000000E+00  0.00000000000E+00  0.79851673090E+02  0.79851673090E+02  0.00000000000E+00 0.  1.
          2   -1    0    0  501    0  0.00000000000E+00 -0.00000000000E+00 -0.40409353229E+03  0.40409353229E+03  0.00000000000E+00 0. -1.
         23    2    1    2    0    0 -0.25134031664E+02 -0.13753525234E+03 -0.13239936733E+03  0.22962107011E+03  0.12509427719E+03 0.  0.
          5    1    3    3  502    0 -0.14303633581E+02 -0.14978301979E+03 -0.71901753513E+02  0.16681391282E+03  0.41800000000E+01 0. -1.
         -5    1    3    3    0  502 -0.10830398083E+02  0.12247767446E+02 -0.60497613820E+02  0.62807157299E+02  0.41800000000E+01 0. -1.
        -11    1    1    2    0    0  0.40974652223E+02  0.63422127747E+02 -0.41989563851E+02  0.86396827980E+02  0.00000000000E+00 0.  1.
         11    1    1    2    0    0 -0.15840620558E+02  0.74113124596E+02 -0.14985292801E+03  0.16792730728E+03  0.00000000000E+00 0. -1.
</event>
<event>
 7    1  0.6833760E-006  0.6919364E+02  0.7561462E-02  0.1362857E+00
          3   -1    0    0  501    0  0.00000000000E+00  0.00000000000E+00  0.53190061424E+02  0.53190061424E+02  0.00000000000E+00 0. -1.
         -3   -1    0    0    0  501 -0.00000000000E+00 -0.00000000000E+00 -0.21353505857E+03  0.21353505857E+03  0.00000000000E+00 0.  1.
         23    2    1    2    0    0 -0.59284972152E+01 -0.52191498061E+01 -0.11634203723E+03  0.16475695018E+03  0.11639156499E+03 0.  0.
          5    1    3    3  502    0 -0.28475709953E+02  0.48705850992E+02 -0.44064607448E+02  0.71709748345E+02  0.41800000000E+01 0. -1.
         -5    1    3    3    0  502  0.22547212738E+02 -0.53925000798E+02 -0.72277429786E+02  0.93047201838E+02  0.41800000000E+01 0.  1.
        -11    1    1    2    0    0 -0.30006047428E+01  0.11766366612E+02 -0.71396406446E+02  0.72421667099E+02  0.00000000000E+00 0.  1.
         11    1    1    2    0    0  0.89291019580E+01 -0.65472168056E+01  0.27393446532E+02  0.29546502713E+02  0.00000000000E+00 0. -1.
</event>
<event>
 7    1  0.6833760E-006  0.2013200E+03  0.7561462E-02  0.1148630E+00
         -2   -1    0    0    0  501 -0.00000000000E+00  0.00000000000E+00  0.65044342813E+02  0.65044342813E+02  0.00000000000E+00 0.  1.
          2   -1    0    0  501    0  0.00000000000E+00 -0.00000000000E+00 -0.72367420932E+03  0.72367420932E+03  0.00000000000E+00 0. -1.
         23    2    1    2    0    0  0.11718299973E+03 -0.14351960996E+03 -0.28773688900E+03  0.36437582864E+03  0.12508994100E+03 0.  0.
          5    1    3    3  502    0  0.10936515255E+03 -0.16222287997E+03 -0.22439212414E+03  0.29773528033E+03  0.41800000000E+01 0.  1.
         -5    1    3    3    0  502  0.78178471789E+01  0.18703270017E+02 -0.63344764857E+02  0.66640548307E+02  0.41800000000E+01 0.  1.
        -11    1    1    2    0    0 -0.22345088555E+02  0.16711799930E+02 -0.89937934997E+01  0.29316813622E+02  0.00000000000E+00 0.  1.
         11    1    1    2    0    0 -0.94837911178E+02  0.12680781003E+03 -0.36189918401E+03  0.39502590987E+03  0.00000000000E+00 0. -1.
</event>
<event>
 7    1  0.6833760E-006  0.1315329E+03  0.7561462E-02  0.1225199E+00
         -1   -1    0    0    0  501 -0.00000000000E+00  0.00000000000E+00  0.40521847317E+02  0.40521847317E+02  0.00000000000E+00 0.  1.
          1   -1    0    0  501    0  0.00000000000E+00 -0.00000000000E+00 -0.74188755184E+03  0.74188755184E+03  0.00000000000E+00 0. -1.
         23    2    1    2    0    0 -0.65309112552E+02 -0.10667991533E+03 -0.25900841844E+03  0.31365333237E+03  0.12508863885E+03 0.  0.
          5    1    3    3  502    0 -0.45523980326E+01 -0.54853453581E+02 -0.15477908946E+02  0.57329431908E+02  0.41800000000E+01 0.  1.
         -5    1    3    3    0  502 -0.60756714520E+02 -0.51826461753E+02 -0.24353050949E+03  0.25632390046E+03  0.41800000000E+01 0.  1.
        -11    1    1    2    0    0  0.13600798041E+01  0.20693683179E+02 -0.94621686553E+01  0.22794976996E+02  0.00000000000E+00 0.  1.
         11    1    1    2    0    0  0.63949032748E+02  0.85986232155E+02 -0.43289511743E+03  0.44596108979E+03  0.00000000000E+00 0. -1.
</event>
<event>
 7    1  0.6833760E-006  0.1333455E+03  0.7561462E-02  0.1222574E+00
         -1   -1    0    0    0  501 -0.00000000000E+00  0.00000000000E+00  0.59710947723E+03  0.59710947723E+03  0.00000000000E+00 0. -1.
          1   -1    0    0  501    0  0.00000000000E+00 -0.00000000000E+00 -0.10036718139E+03  0.10036718139E+03  0.00000000000E+00 0.  1.
         23    2    1    2    0    0  0.13456911116E+02 -0.11303485266E+03  0.52194628583E+03  0.54866429328E+03  0.12508643035E+03 0.  0.
          5    1    3    3  502    0 -0.39210601659E+02 -0.32003623786E+02  0.32826065468E+03  0.33216597212E+03  0.41800000000E+01 0.  1.
         -5    1    3    3    0  502  0.52667512775E+02 -0.81031228878E+02  0.19368563115E+03  0.21649832117E+03  0.41800000000E+01 0.  1.
        -11    1    1    2    0    0  0.11098735720E+02  0.19199100756E+02 -0.44680093725E+02  0.49880839805E+02  0.00000000000E+00 0.  1.
         11    1    1    2    0    0 -0.24555646836E+02  0.93835751907E+02  0.19476103727E+02  0.98931525531E+02  0.00000000000E+00 0. -1.
</event>
<event>
 7    1  0.6833760E-006  0.9920871E+02  0.7561462E-02  0.1281969E+00
         -1   -1    0    0    0  501 -0.00000000000E+00  0.00000000000E+00  0.50624743400E+03  0.50624743400E+03  0.00000000000E+00 0.  1.
          1   -1    0    0  501    0  0.00000000000E+00 -0.00000000000E+00 -0.42709509370E+02  0.42709509370E+02  0.00000000000E+00 0. -1.
         23    2    1    2    0    0 -0.36964799462E+02 -0.63960352313E+02  0.37121081056E+03  0.39862737031E+03  0.12509592886E+03 0.  0.
          5    1    3    3  502    0 -0.32155036915E+02  0.69192218827E+01  0.28462094044E+03  0.28654558829E+03  0.41800000000E+01 0. -1.
         -5    1    3    3    0  502 -0.48097625475E+01 -0.70879574196E+02  0.86589870114E+02  0.11208178202E+03  0.41800000000E+01 0. -1.
        -11    1    1    2    0    0 -0.13848311955E+02  0.20431557536E+01  0.63777306590E+02  0.65295444445E+02  0.00000000000E+00 0.  1.
         11    1    1    2    0    0  0.50813111417E+02  0.61917196559E+02  0.28549807478E+02  0.85034128611E+02  0.00000000000E+00 0. -1.
</event>
<event>
 7    1  0.6833760E-006  0.1106092E+03  0.7561462E-02  0.1259446E+00
          2   -1    0    0  501    0  0.00000000000E+00  0.00000000000E+00  0.43216422866E+03  0.43216422866E+03  0.00000000000E+00 0. -1.
         -2   -1    0    0    0  501 -0.00000000000E+00 -0.00000000000E+00 -0.32823975186E+02  0.32823975186E+02  0.00000000000E+00 0.  1.
         23    2    1    2    0    0 -0.34219792068E+02 -0.29788979997E+02  0.26321359151E+03  0.29493606639E+03  0.12509001161E+03 0.  0.
          5    1    3    3  502    0 -0.53095823540E+02  0.36134077030E+02  0.12630065119E+03  0.14175388845E+03  0.41800000000E+01 0.  1.
         -5    1    3    3    0  502  0.18876031472E+02 -0.65923057027E+02  0.13691294032E+03  0.15318217794E+03  0.41800000000E+01 0.  1.
        -11    1    1    2    0    0  0.45065610163E+02  0.48703469230E+02  0.13217178118E+03  0.14789292368E+03  0.00000000000E+00 0. -1.
         11    1    1    2    0    0 -0.10845818095E+02 -0.18914489233E+02  0.39548807894E+01  0.22159213776E+02  0.00000000000E+00 0.  1.
</event>
<event>
 7    1  0.6833760E-006  0.1885424E+03  0.7561462E-02  0.1159783E+00
          2   -1    0    0  501    0  0.00000000000E+00  0.00000000000E+00  0.85953474787E+03  0.85953474787E+03  0.00000000000E+00 0. -1.
         -2   -1    0    0    0  501 -0.00000000000E+00 -0.00000000000E+00 -0.43730037770E+02  0.43730037770E+02  0.00000000000E+00 0.  1.
         23    2    1    2    0    0 -0.14562866257E+03 -0.65072651916E+02  0.36113921239E+03  0.41301369374E+03  0.12131208965E+03 0.  0.
          5    1    3    3  502    0 -0.15977402100E+03 -0.40032586535E+02  0.33742626900E+03  0.37550539967E+03  0.41800000000E+01 0. -1.
         -5    1    3    3    0  502  0.14145358425E+02 -0.25040065381E+02  0.23712943392E+02  0.37508294063E+02  0.41800000000E+01 0.  1.
        -11    1    1    2    0    0  0.69158898472E+02 -0.16858925187E+02  0.18513504393E+03  0.19834858478E+03  0.00000000000E+00 0.  1.
         11    1    1    2    0    0  0.76469764102E+02  0.81931577103E+02  0.26953045378E+03  0.29190250713E+03  0.00000000000E+00 0. -1.
</event>
<event>
 7    1  0.6833760E-006  0.1317916E+03  0.7561462E-02  0.1224821E+00
         -1   -1    0    0    0  501 -0.00000000000E+00  0.00000000000E+00  0.16026161022E+03  0.16026161022E+03  0.00000000000E+00 0.  1.
          1   -1    0    0  501    0  0.00000000000E+00 -0.00000000000E+00 -0.13124012455E+03  0.13124012455E+03  0.00000000000E+00 0. -1.
         23    2    1    2    0    0  0.28484905606E+02 -0.78883735087E+02  0.62519293598E+02  0.16306442982E+03  0.12508921893E+03 0.  0.
          5    1    3    3  502    0  0.91498242360E+01  0.34138971300E+02  0.19029882516E+02  0.40358363117E+02  0.41800000000E+01 0. -1.
         -5    1    3    3    0  502  0.19335081370E+02 -0.11302270639E+03  0.43489411082E+02  0.12270606671E+03  0.41800000000E+01 0. -1.
        -11    1    1    2    0    0  0.13262130587E+02  0.69116970802E+02 -0.45634672144E+02  0.83878263348E+02  0.00000000000E+00 0. -1.
         11    1    1    2    0    0 -0.41747036192E+02  0.97667642849E+01  0.12136864209E+02  0.44559041600E+02  0.00000000000E+00 0.  1.
</event>
<event>
 7    1  0.6833760E-006  0.1667181E+03  0.7561462E-02  0.1181314E+00
         -2   -1    0    0    0  501 -0.00000000000E+00  0.00000000000E+00  0.68941015193E+02  0.68941015193E+02  0.00000000000E+00 0.  1.
          2   -1    0    0  501    0  0.00000000000E+00 -0.00000000000E+00 -0.52726291577E+03  0.52726291577E+03  0.00000000000E+00 0. -1.
         23    2    1    2    0    0 -0.11716186092E+03 -0.10000251504E+03 -0.19939235469E+03  0.28130873511E+03  0.12509951506E+03 0.  0.
          5    1    3    3  502    0 -0.49395706394E+02 -0.52424178872E+02 -0.78283540506E+01  0.72574002699E+02  0.41800000000E+01 0.  1.
         -5    1    3    3    0  502 -0.67766154525E+02 -0.47578336172E+02 -0.19156400064E+03  0.20873473241E+03  0.41800000000E+01 0.  1.
        -11    1    1    2    0    0  0.12292879062E+03  0.57896475863E+02 -0.18373210439E+03  0.22851909256E+03  0.00000000000E+00 0.  1.
         11    1    1    2    0    0 -0.57669296960E+01  0.42106039180E+02 -0.75197441493E+02  0.86376103296E+02  0.00000000000E+00 0. -1.
</event>
<event>
 7    1  0.6833760E-006  0.1209528E+03  0.7561462E-02  0.1241533E+00
          1   -1    0    0  501    0  0.00000000000E+00  0.00000000000E+00  0.35918826428E+03  0.35918826428E+03  0.00000000000E+00 0. -1.
         -1   -1    0    0    0  501 -0.00000000000E+00 -0.00000000000E+00 -0.81045131262E+02  0.81045131262E+02  0.00000000000E+00 0.  1.
         23    2    1    2    0    0  0.20615899235E+02  0.93723750088E+02  0.33274876075E+02  0.16113213579E+03  0.12508873320E+03 0.  0.
          5    1    3    3  502    0  0.32542299539E+01 -0.12209320613E+02  0.50595846539E+02  0.52317010708E+02  0.41800000000E+01 0.  1.
         -5    1    3    3    0  502  0.17361669281E+02  0.10593307070E+03 -0.17320970464E+02  0.10881512508E+03  0.41800000000E+01 0.  1.
        -11    1    1    2    0    0  0.14065071640E+02 -0.83973680251E+02  0.10775186870E+03  0.13733124344E+03  0.00000000000E+00 0.  1.
         11    1    1    2    0    0 -0.34680970875E+02 -0.97500698367E+01  0.13711638824E+03  0.14177001631E+03  0.00000000000E+00 0. -1.
</event>
<event>
 7    1  0.6833760E-006  0.1148840E+03  0.7561462E-02  0.1251784E+00
          3   -1    0    0  501    0  0.00000000000E+00  0.00000000000E+00  0.12800040441E+02  0.12800040441E+02  0.00000000000E+00 0. -1.
         -3   -1    0    0    0  501 -0.00000000000E+00 -0.00000000000E+00 -0.12764151574E+04  0.12764151574E+04  0.00000000000E+00 0.  1.
         23    2    1    2    0    0  0.46026832786E+02 -0.68760190143E+01 -0.93282029057E+03  0.94231905759E+03  0.12508302374E+03 0.  0.
          5    1    3    3  502    0 -0.18708187483E+02  0.45172470840E+02 -0.40975756474E+03  0.41268545245E+03  0.41800000000E+01 0. -1.
         -5    1    3    3    0  502  0.64735020269E+02 -0.52048489855E+02 -0.52306272583E+03  0.52963360514E+03  0.41800000000E+01 0. -1.
        -11    1    1    2    0    0 -0.71169051688E+02  0.11109419057E+02 -0.17856319466E+03  0.19254419648E+03  0.00000000000E+00 0. -1.
         11    1    1    2    0    0  0.25142218902E+02 -0.42334000428E+01 -0.15223163169E+03  0.15435194373E+03  0.00000000000E+00 0.  1.
</event>
<event>
 7    1  0.6833760E-006  0.1605688E+03  0.7561462E-02  0.1188056E+00
         -1   -1    0    0    0  501 -0.00000000000E+00  0.00000000000E+00  0.14823522833E+03  0.14823522833E+03  0.00000000000E+00 0. -1.
          1   -1    0    0  501    0  0.00000000000E+00 -0.00000000000E+00 -0.22259195606E+03  0.22259195606E+03  0.00000000000E+00 0.  1.
         23    2    1    2    0    0 -0.13416731271E+03  0.24087424158E+02  0.11997095186E+02  0.18540028829E+03  0.12509302460E+03 0.  0.
          5    1    3    3  502    0 -0.75853691584E+02 -0.28134721165E+02  0.53124045111E+02  0.96876114863E+02  0.41800000000E+01 0. -1.
         -5    1    3    3    0  502 -0.58313621129E+02  0.52222145323E+02 -0.41126949925E+02  0.88524173430E+02  0.41800000000E+01 0. -1.
        -11    1    1    2    0    0  0.80505405530E+01  0.25105339879E+02 -0.26607652738E+02  0.37457395503E+02  0.00000000000E+00 0.  1.
         11    1    1    2    0    0  0.12611677216E+03 -0.49192764037E+02 -0.59746170175E+02  0.14796950059E+03  0.00000000000E+00 0. -1.
</event>
<event>
 7    1  0.6833760E-006  0.1168648E+03  0.7561462E-02  0.1248361E+00
         -2   -1    0    0    0  501 -0.00000000000E+00  0.00000000000E+00  0.21106468696E+03  0.21106468696E+03  0.00000000000E+00 0. -1.
          2   -1    0    0  501    0  0.00000000000E+00 -0.00000000000E+00 -0.11558814931E+03  0.11558814931E+03  0.00000000000E+00 0.  1.
         23    2    1    2    0    0  0.11069206274E+03  0.19434215983E+02  0.39974443075E+02  0.17284357673E+03  0.12508606802E+03 0.  0.
          5    1    3    3  502    0  0.14578407985E+01  0.79169262996E+01  0.60370461376E+02  0.61048079646E+02  0.41800000000E+01 0.  1.
         -5    1    3    3    0  502  0.10923422194E+03  0.11517289683E+02 -0.20396018300E+02  0.11179549708E+03  0.41800000000E+01 0.  1.
        -11    1    1    2    0    0 -0.28139434526E+02 -0.15425278530E+02 -0.23265780593E+02  0.39636643901E+02  0.00000000000E+00 0.  1.
         11    1    1    2    0    0 -0.82552628215E+02 -0.40089374527E+01  0.78767875167E+02  0.11417261564E+03  0.00000000000E+00 0. -1.
</event>
<event>
 7    1  0.6833760E-006  0.9334992E+02  0.7561462E-02  0.1294936E+00
         -4   -1    0    0    0  501 -0.00000000000E+00  0.00000000000E+00  0.23275926598E+03  0.23275926598E+03  0.00000000000E+00 0. -1.
          4   -1    0    0  501    0  0.00000000000E+00 -0.00000000000E+00 -0.51791788751E+02  0.51791788751E+02  0.00000000000E+00 0.  1.
         23    2    1    2    0    0  0.47350410186E+01 -0.91259268184E+01  0.12525071884E+03  0.17730716382E+03  0.12507751443E+03 0.  0.
          5    1    3    3  502    0 -0.15658546401E+02  0.54828725112E+02  0.69140256558E+02  0.89717482409E+02  0.41800000000E+01 0.  1.
         -5    1    3    3    0  502  0.20393587419E+02 -0.63954651930E+02  0.56110462287E+02  0.87589681409E+02  0.41800000000E+01 0.  1.
        -11    1    1    2    0    0  0.27645711546E+02  0.11184324936E+02  0.66639808518E+02  0.73008482867E+02  0.00000000000E+00 0. -1.
         11    1    1    2    0    0 -0.32380752565E+02 -0.20583981177E+01 -0.10923050138E+02  0.34235408042E+02  0.00000000000E+00 0.  1.
</event>
<event>
 7    1  0.6833760E-006  0.9253755E+02  0.7561462E-02  0.1296820E+00
         -1   -1    0    0    0  501 -0.00000000000E+00  0.00000000000E+00  0.25500931500E+03  0.25500931500E+03  0.00000000000E+00 0.  1.
          1   -1    0    0  501    0  0.00000000000E+00 -0.00000000000E+00 -0.80929583164E+02  0.80929583164E+02  0.00000000000E+00 0. -1.
         23    2    1    2    0    0 -0.42316089578E+02  0.75683312248E+02  0.13294196050E+03  0.20208967651E+03  0.12509219521E+03 0.  0.
          5    1    3    3  502    0 -0.18795728671E+02  0.34646178595E+02  0.14725424675E+03  0.15249564811E+03  0.41800000000E+01 0.  1.
         -5    1    3    3    0  502 -0.23520360908E+02  0.41037133653E+02 -0.14312286248E+02  0.49594028404E+02  0.41800000000E+01 0.  1.
        -11    1    1    2    0    0  0.37764914153E+02 -0.21254644438E+02  0.61777190532E+02  0.75461049033E+02  0.00000000000E+00 0.  1.
         11    1    1    2    0    0  0.45511754257E+01 -0.54428667811E+02 -0.20639419191E+02  0.58388172620E+02  0.00000000000E+00 0. -1.
</event>
<event>
 7    1  0.6833760E-006  0.1050902E+03  0.7561462E-02  0.1269942E+00
         -4   -1    0    0    0  501 -0.00000000000E+00  0.00000000000E+00  0.22064936218E+03  0.22064936218E+03  0.00000000000E+00 0.  1.
          4   -1    0    0  501    0  0.00000000000E+00 -0.00000000000E+00 -0.91687754830E+02  0.91687754830E+02  0.00000000000E+00 0. -1.
         23    2    1    2    0    0  0.67401447833E+02 -0.52174446994E+02  0.10841601443E+03  0.18619125469E+03  0.12509205830E+03 0.  0.
          5    1    3    3  502    0  0.64361517540E+01 -0.14150421898E+02 -0.27803258413E+02  0.32127123551E+02  0.41800000000E+01 0.  1.
         -5    1    3    3    0  502  0.60965296079E+02 -0.38024025096E+02  0.13621927284E+03  0.15406413114E+03  0.41800000000E+01 0.  1.
        -11    1    1    2    0    0 -0.70569833958E+02  0.72713675661E+02  0.26097490737E+02  0.10463488479E+03  0.00000000000E+00 0.  1.
         11    1    1    2    0    0  0.31683861253E+01 -0.20539228667E+02 -0.55518978128E+01  0.21510977527E+02  0.00000000000E+00 0. -1.
</event>
<event>
 7    1  0.6833760E-006  0.1177115E+03  0.7561462E-02  0.1246921E+00
         -1   -1    0    0    0  501 -0.00000000000E+00  0.00000000000E+00  0.17816030968E+02  0.17816030968E+02  0.00000000000E+00 0.  1.
          1   -1    0    0  501    0  0.00000000000E+00 -0.00000000000E+00 -0.85992975179E+03  0.85992975179E+03  0.00000000000E+00 0. -1.
         23    2    1    2    0    0  0.46805234905E+02  0.20170877370E+02 -0.34106541319E+03  0.36650918928E+03  0.12412000419E+03 0.  0.
          5    1    3    3  502    0  0.73710580523E+02  0.53396660590E+02 -0.23844114676E+03  0.25525694096E+03  0.41800000000E+01 0. -1.
         -5    1    3    3    0  502 -0.26905345619E+02 -0.33225783220E+02 -0.10262426643E+03  0.11125224831E+03  0.41800000000E+01 0.  1.
        -11    1    1    2    0    0 -0.70166810872E+02  0.48301242466E+00 -0.33154384323E+03  0.33888779063E+03  0.00000000000E+00 0.  1.
         11    1    1    2    0    0  0.23361575968E+02 -0.20653889795E+02 -0.16950446440E+03  0.17234880286E+03  0.00000000000E+00 0. -1.
</event>
<event>
 7    1  0.6833760E-006  0.1278906E+03  0.7561462E-02  0.1230620E+00
          1   -1    0    0  501    0  0.00000000000E+00  0.00000000000E+00  0.49477008724E+03  0.49477008724E+03  0.00000000000E+00 0. -1.
         -1   -1    0    0    0  501 -0.00000000000E+00 -0.00000000000E+00 -0.37901930071E+02  0.37901930071E+02  0.00000000000E+00 0.  1.
         23    2    1    2    0    0 -0.73684219994E+02  0.37347026721E+02  0.28333493033E+03  0.32054678035E+03  0.12508953180E+03 0.  0.
          5    1    3    3  502    0 -0.75849633551E+02 -0.29651237763E+02  0.17525704985E+03  0.19329994499E+03  0.41800000000E+01 0.  1.
         -5    1    3    3    0  502  0.21654135575E+01  0.66998264484E+02  0.10807788048E+03  0.12724683536E+03  0.41800000000E+01 0.  1.
        -11    1    1    2    0    0  0.39005883256E+02  0.17042801658E+02  0.12307981345E+03  0.13023270133E+03  0.00000000000E+00 0.  1.
         11    1    1    2    0    0  0.34678336738E+02 -0.54389828379E+02  0.50453413392E+02  0.81892535636E+02  0.00000000000E+00 0. -1.
</event>
<event>
 7    1  0.6833760E-006  0.1180065E+03  0.7561462E-02  0.1246422E+00
          1   -1    0    0  501    0  0.00000000000E+00  0.00000000000E+00  0.44302050682E+02  0.44302050682E+02  0.00000000000E+00 0. -1.
         -1   -1    0    0    0  501 -0.00000000000E+00 -0.00000000000E+00 -0.52674100475E+03  0.52674100475E+03  0.00000000000E+00 0.  1.
         23    2    1    2    0    0  0.43155130125E+02  0.40051514203E+02 -0.42442897047E+03  0.44635659878E+03  0.12501109251E+03 0.  0.
          5    1    3    3  502    0  0.67130110819E+02 -0.12358616197E+02 -0.31782054181E+03  0.32509468831E+03  0.41800000000E+01 0.  1.
         -5    1    3    3    0  502 -0.23974980694E+02  0.52410130400E+02 -0.10660842866E+03  0.12126191047E+03  0.41800000000E+01 0.  1.
        -11    1    1    2    0    0 -0.71806052596E+02 -0.18966006099E+02 -0.44829636931E+02  0.86749725787E+02  0.00000000000E+00 0.  1.
         11    1    1    2    0    0  0.28650922471E+02 -0.21085508105E+02 -0.13180346661E+02  0.37936730863E+02  0.00000000000E+00 0. -1.
</event>
<event>
 7    1  0.6833760E-006  0.8153417E+02  0.7561462E-02  0.1324753E+00
         -1   -1    0    0    0  501 -0.00000000000E+00  0.00000000000E+00  0.33267859581E+03  0.33267859581E+03  0.00000000000E+00 0.  1.
          1   -1    0    0  501    0  0.00000000000E+00 -0.00000000000E+00 -0.46659051284E+02  0.46659051284E+02  0.00000000000E+00 0. -1.
         23    2    1    2    0    0  0.21651379886E+02 -0.52186452103E+02  0.20074034208E+03  0.24317700981E+03  0.12508463186E+03 0.  0.
          5    1    3    3  502    0  0.11433435813E+02 -0.30238099472E+02 -0.75361881084E+01  0.33456429059E+02  0.41800000000E+01 0. -1.
         -5    1    3    3    0  502  0.10217944073E+02 -0.21948352631E+02  0.20827653019E+03  0.20972058075E+03  0.41800000000E+01 0. -1.
        -11    1    1    2    0    0 -0.54582265492E+02  0.48040319281E+02  0.62757992412E+02  0.96050307623E+02  0.00000000000E+00 0. -1.
         11    1    1    2    0    0  0.32930885606E+02  0.41461328213E+01  0.22521210040E+02  0.40110329665E+02  0.00000000000E+00 0.  1.
</event>
<event>
 7    1  0.6833760E-006  0.1020672E+03  0.7561462E-02  0.1276008E+00
         -1   -1    0    0    0  501 -0.00000000000E+00  0.00000000000E+00  0.16156909476E+03  0.16156909476E+03  0.00000000000E+00 0.  1.
          1   -1    0    0  501    0  0.00000000000E+00 -0.00000000000E+00 -0.90301312783E+02  0.90301312783E+02  0.00000000000E+00 0. -1.
         23    2    1    2    0    0  0.27463642876E+02 -0.29681851793E+02  0.74089334832E+02  0.15090311083E+03  0.12508898958E+03 0.  0.
          5    1    3    3  502    0  0.61115001035E+02 -0.33101991502E+02  0.30778648233E+00  0.69630110767E+02  0.41800000000E+01 0.  1.
         -5    1    3    3    0  502 -0.33651358159E+02  0.34201397091E+01  0.73781548350E+02  0.81273000058E+02  0.41800000000E+01 0.  1.
        -11    1    1    2    0    0 -0.24277837026E+01  0.60594883842E+02 -0.66351233187E+01  0.61005400933E+02  0.00000000000E+00 0.  1.
         11    1    1    2    0    0 -0.25035859173E+02 -0.30913032049E+02  0.38135704633E+01  0.39961895784E+02  0.00000000000E+00 0. -1.
</event>
<event>
 7    1  0.6833760E-006  0.1017928E+03  0.7561462E-02  0.1276571E+00
          2   -1    0    0  501    0  0.00000000000E+00  0.00000000000E+00  0.10098101829E+03  0.10098101829E+03  0.00000000000E+00 0. -1.
         -2   -1    0    0    0  501 -0.00000000000E+00 -0.00000000000E+00 -0.21954919953E+03  0.21954919953E+03  0.00000000000E+00 0.  1.
         23    2    1    2    0    0  0.68459133935E+02 -0.39915549588E+01 -0.14319704496E+03  0.20212747318E+03  0.12509011232E+03 0.  0.
          5    1    3    3  502    0  0.89283244822E+02 -0.23951742559E+02 -0.14599144546E+03  0.17284721093E+03  0.41800000000E+01 0.  1.
         -5    1    3    3    0  502 -0.20824110886E+02  0.19960187601E+02  0.27944005079E+01  0.29280262250E+02  0.41800000000E+01 0.  1.
        -11    1    1    2    0    0 -0.40906589363E+02 -0.19850162555E+02 -0.28734305979E+02  0.53786971907E+02  0.00000000000E+00 0.  1.
         11    1    1    2    0    0 -0.27552544572E+02  0.23841717514E+02  0.53363169695E+02  0.64615772736E+02  0.00000000000E+00 0. -1.
</event>
<event>
 7    1  0.6833760E-006  0.1368113E+03  0.7561462E-02  0.1217685E+00
         -2   -1    0    0    0  501 -0.00000000000E+00  0.00000000000E+00  0.38921124292E+03  0.38921124292E+03  0.00000000000E+00 0.  1.
          2   -1    0    0  501    0  0.00000000000E+00 -0.00000000000E+00 -0.50088013292E+02  0.50088013292E+02  0.00000000000E+00 0. -1.
         23    2    1    2    0    0  0.10031737303E+02  0.82700187051E+02  0.21672000522E+03  0.26373481309E+03  0.12509410172E+03 0.  0.
          5    1    3    3  502    0  0.48326186181E+02 -0.83701683817E+01  0.94241381758E+02  0.10632210694E+03  0.41800000000E+01 0. -1.
         -5    1    3    3    0  502 -0.38294448878E+02  0.91070355433E+02  0.12247862346E+03  0.15741270615E+03  0.41800000000E+01 0. -1.
        -11    1    1    2    0    0 -0.52128482241E+02 -0.41729803350E+02  0.71547382546E+02  0.97866148885E+02  0.00000000000E+00 0.  1.
         11    1    1    2    0    0  0.42096744938E+02 -0.40970383701E+02  0.50855841871E+02  0.77698294237E+02  0.00000000000E+00 0. -1.
</event>
<event>
 7    1  0.6833760E-006  0.1055445E+03  0.7561462E-02  0.1269050E+00
          1   -1    0    0  501    0  0.00000000000E+00  0.00000000000E+00  0.96448304240E+03  0.96448304240E+03  0.00000000000E+00 0. -1.
         -1   -1    0    0    0  501 -0.00000000000E+00 -0.00000000000E+00 -0.20013042519E+02  0.20013042519E+02  0.00000000000E+00 0.  1.
         23    2    1    2    0    0 -0.38391836950E+02  0.76565750128E+02  0.47156281854E+03  0.49532288216E+03  0.12504806484E+03 0.  0.
          5    1    3    3  502    0 -0.31297466533E+02  0.71895568609E+02  0.11863540445E+03  0.14226853407E+03  0.41800000000E+01 0. -1.
         -5    1    3    3    0  502 -0.70943704164E+01  0.46701815193E+01  0.35292741409E+03  0.35305434809E+03  0.41800000000E+01 0. -1.
        -11    1    1    2    0    0  0.33898418150E+02 -0.96699940584E+02  0.42160249596E+03  0.43387630249E+03  0.00000000000E+00 0. -1.
         11    1    1    2    0    0  0.44934187993E+01  0.20134190456E+02  0.51304685378E+02  0.55296900270E+02  0.00000000000E+00 0.  1.
</event>
<event>
 7    1  0.6833760E-006  0.1034620E+03  0.7561462E-02  0.1273180E+00
          2   -1    0    0  501    0  0.00000000000E+00  0.00000000000E+00  0.24793282077E+03  0.24793282077E+03  0.00000000000E+00 0.  1.
         -2   -1    0    0    0  501 -0.00000000000E+00 -0.00000000000E+00 -0.70472194345E+02  0.70472194345E+02  0.00000000000E+00 0. -1.
         23    2    1    2    0    0  0.31462248261E+02 -0.33552572676E+02  0.34085382051E+02  0.13756747909E+03  0.12508936739E+03 0.  0.
          5    1    3    3  502    0  0.64225741003E-01  0.32436886576E+02 -0.26858305758E+02  0.42320169232E+02  0.41800000000E+01 0.  1.
         -5    1    3    3    0  502  0.31398022520E+02 -0.65989459252E+02  0.60943687809E+02  0.95247309853E+02  0.41800000000E+01 0.  1.
        -11    1    1    2    0    0  0.31803601879E+02  0.80343328837E+01  0.84795041348E+02  0.90918747432E+02  0.00000000000E+00 0.  1.
         11    1    1    2    0    0 -0.63265850140E+02  0.25518239792E+02  0.58580203021E+02  0.89918788593E+02  0.00000000000E+00 0. -1.
</event>
<event>
 7    1  0.6833760E-006  0.1521933E+03  0.7561462E-02  0.1197804E+00
         -2   -1    0    0    0  501 -0.00000000000E+00  0.00000000000E+00  0.45932975427E+02  0.45932975427E+02  0.00000000000E+00 0.  1.
          2   -1    0    0  501    0  0.00000000000E+00 -0.00000000000E+00 -0.69720705141E+03  0.69720705141E+03  0.00000000000E+00 0. -1.
         23    2    1    2    0    0  0.39461214266E+02 -0.13362522291E+03 -0.28858487471E+03  0.34400818212E+03  0.12509001488E+03 0.  0.
          5    1    3    3  502    0  0.64709115093E+02 -0.11915684889E+03 -0.14960217842E+03  0.20195026220E+03  0.41800000000E+01 0. -1.
         -5    1    3    3    0  502 -0.25247900827E+02 -0.14468374018E+02 -0.13898269629E+03  0.14205791992E+03  0.41800000000E+01 0. -1.
        -11    1    1    2    0    0 -0.15402073691E+02  0.52214184305E+02 -0.46027932535E+02  0.71288957701E+02  0.00000000000E+00 0.  1.
         11    1    1    2    0    0 -0.24059140575E+02  0.81411038604E+02 -0.31666126873E+03  0.32784288702E+03  0.00000000000E+00 0. -1.
</event>
<event>
 7    1  0.6833760E-006  0.1102002E+03  0.7561462E-02  0.1260200E+00
          2   -1    0    0  501    0  0.00000000000E+00  0.00000000000E+00  0.47107051296E+03  0.47107051296E+03  0.00000000000E+00 0. -1.
         -2   -1    0    0    0  501 -0.00000000000E+00 -0.00000000000E+00 -0.28195713382E+02  0.28195713382E+02  0.00000000000E+00 0.  1.
         23    2    1    2    0    0  0.24126083933E+02  0.17200682830E+02  0.24798253661E+03  0.27932704409E+03  0.12510126970E+03 0.  0.
          5    1    3    3  502    0 -0.38623228411E+02 -0.25756236724E+02  0.13711528480E+03  0.14482130793E+03  0.41800000000E+01 0. -1.
         -5    1    3    3    0  502  0.62749312344E+02  0.42956919554E+02  0.11086725180E+03  0.13450573616E+03  0.41800000000E+01 0. -1.
        -11    1    1    2    0    0 -0.57318468508E+02  0.52490682707E+01  0.14460241469E+03  0.15563681404E+03  0.00000000000E+00 0.  1.
         11    1    1    2    0    0  0.33192384575E+02 -0.22449751100E+02  0.50289848279E+02  0.64302368216E+02  0.00000000000E+00 0. -1.
</event>
<event>
 7    1  0.6833760E-006  0.1457202E+03  0.7561462E-02  0.1205833E+00
         -1   -1    0    0    0  501 -0.00000000000E+00  0.00000000000E+00  0.30420406497E+02  0.30420406497E+02  0.00000000000E+00 0.  1.
          1   -1    0    0  501    0  0.00000000000E+00 -0.00000000000E+00 -0.79690914916E+03  0.79690914916E+03  0.00000000000E+00 0. -1.
         23    2    1    2    0    0  0.99443914614E+02  0.24886487272E+02 -0.30421475315E+03  0.34453299481E+03  0.12509172263E+03 0.  0.
          5    1    3    3  502    0  0.16054157628E+02  0.65687047716E+02 -0.14793435186E+03  0.16271007674E+03  0.41800000000E+01 0.  1.
         -5    1    3    3    0  502  0.83389756986E+02 -0.40800560444E+02 -0.15628040130E+03  0.18182291806E+03  0.41800000000E+01 0.  1.
        -11    1    1    2    0    0 -0.29213156361E+02 -0.48540773647E+02 -0.28635651880E+03  0.29190695618E+03  0.00000000000E+00 0.  1.
         11    1    1    2    0    0 -0.70230758253E+02  0.23654286375E+02 -0.17591747071E+03  0.19088960467E+03  0.00000000000E+00 0. -1.
</event>
<event>
 7    1  0.6833760E-006  0.1215234E+03  0.7561462E-02  0.1240605E+00
         -1   -1    0    0    0  501 -0.00000000000E+00  0.00000000000E+00  0.45104126809E+02  0.45104126809E+02  0.00000000000E+00 0.  1.
          1   -1    0    0  501    0  0.00000000000E+00 -0.00000000000E+00 -0.43985859167E+03  0.43985859167E+03  0.00000000000E+00 0. -1.
         23    2    1    2    0    0 -0.73585847114E+02 -0.29919320132E+02 -0.14409723582E+03  0.20669665842E+03  0.12509777223E+03 0.  0.
          5    1    3    3  502    0 -0.75871814187E+02 -0.69202265864E+02 -0.12755196420E+03  0.16380617131E+03  0.41800000000E+01 0.  1.
         -5    1    3    3    0  502  0.22859670740E+01  0.39282945732E+02 -0.16545271620E+02  0.42890487101E+02  0.41800000000E+01 0.  1.
        -11    1    1    2    0    0  0.51041031149E+02  0.49305287325E+02 -0.88666511127E+02  0.11356913496E+03  0.00000000000E+00 0.  1.
         11    1    1    2    0    0  0.22544815965E+02 -0.19385967193E+02 -0.16199071791E+03  0.16469692511E+03  0.00000000000E+00 0. -1.
</event>
<event>
 7    1  0.6833760E-006  0.1220565E+03  0.7561462E-02  0.1239743E+00
         -1   -1    0    0    0  501 -0.00000000000E+00  0.00000000000E+00  0.44806342585E+02  0.44806342585E+02  0.00000000000E+00 0.  1.
          1   -1    0    0  501    0  0.00000000000E+00 -0.00000000000E+00 -0.37223115602E+03  0.37223115602E+03  0.00000000000E+00 0. -1.
         23    2    1    2    0    0 -0.64257419622E+02 -0.16875880757E+02 -0.14277767612E+03  0.20108221832E+03  0.12503912347E+03 0.  0.
          5    1    3    3  502    0 -0.26517580686E+02 -0.65311924008E+02 -0.39645236088E+02  0.80981767377E+02  0.41800000000E+01 0. -1.
         -5    1    3    3    0  502 -0.37739838937E+02  0.48436043251E+02 -0.10313244004E+03  0.12010045094E+03  0.41800000000E+01 0. -1.
        -11    1    1    2    0    0  0.83993424305E+02  0.28920412670E+02 -0.14874509514E+03  0.17325238504E+03  0.00000000000E+00 0.  1.
         11    1    1    2    0    0 -0.19736004683E+02 -0.12044531914E+02 -0.35902042171E+02  0.42702895240E+02  0.00000000000E+00 0. -1.
</event>
<event>
 7    1  0.6833760E-006  0.1723744E+03  0.7561462E-02  0.1175394E+00
          2   -1    0    0  501    0  0.00000000000E+00  0.00000000000E+00  0.10724625608E+03  0.10724625608E+03  0.00000000000E+00 0. -1.
         -2   -1    0    0    0  501 -0.00000000000E+00 -0.00000000000E+00 -0.41766958717E+03  0.41766958717E+03  0.00000000000E+00 0.  1.
         23    2    1    2    0    0 -0.46690254037E+02  0.84933408030E+02 -0.14092159336E+03  0.21048143722E+03  0.12267793737E+03 0.  0.
          5    1    3    3  502    0 -0.82493418839E+02  0.86362184164E+02 -0.11667705483E+03  0.16701676122E+03  0.41800000000E+01 0. -1.
         -5    1    3    3    0  502  0.35803164802E+02 -0.14287761347E+01 -0.24244538526E+02  0.43464675996E+02  0.41800000000E+01 0.  1.
        -11    1    1    2    0    0  0.45990470303E+02  0.41971849763E+02 -0.17667422478E+03  0.18732469467E+03  0.00000000000E+00 0.  1.
         11    1    1    2    0    0  0.69978373342E+00 -0.12690525779E+03  0.71724870438E+01  0.12710971136E+03  0.00000000000E+00 0. -1.
</event>
<event>
 6    1  0.6833760E-006  0.1504368E+03  0.7561462E-02  0.1199937E+00
          2   -1    0    0  501    0  0.00000000000E+00  0.00000000000E+00  0.30219535025E+03  0.30219535025E+03  0.00000000000E+00 0. -1.
         -2   -1    0    0    0  501 -0.00000000000E+00 -0.00000000000E+00 -0.13933131802E+03  0.13933131802E+03  0.00000000000E+00 0.  1.
          5    1    1    2  502    0  0.92092065120E+02 -0.43435808801E+02  0.85606460658E+02  0.13309228547E+03  0.41800000000E+01 0. -1.
         -5    1    1    2    0  502 -0.10364930739E+03  0.42011244460E+02 -0.73489548166E+02  0.13388916936E+03  0.41800000000E+01 0.  1.
        -11    1    1    2    0    0  0.45953749433E+02  0.17381387365E+02  0.97471969515E+02  0.10915422371E+03  0.00000000000E+00 0. -1.
         11    1    1    2    0    0 -0.34396507164E+02 -0.15956823023E+02  0.53275150218E+02  0.65390989722E+02  0.00000000000E+00 0.  1.
</event>
<event>
 7    1  0.6833760E-006  0.8399089E+02  0.7561462E-02  0.1318093E+00
          1   -1    0    0  501    0  0.00000000000E+00  0.00000000000E+00  0.21805974684E+03  0.21805974684E+03  0.00000000000E+00 0. -1.
         -1   -1    0    0    0  501 -0.00000000000E+00 -0.00000000000E+00 -0.67088003614E+02  0.67088003614E+02  0.00000000000E+00 0.  1.
         23    2    1    2    0    0  0.12795049325E+02  0.45812740330E+02  0.53508473729E+02  0.14412961316E+03  0.12509063980E+03 0.  0.
          5    1    3    3  502    0 -0.12786149951E+02 -0.26001144783E+00  0.82668890504E+02  0.83756618208E+02  0.41800000000E+01 0. -1.
         -5    1    3    3    0  502  0.25581199276E+02  0.46072751778E+02 -0.29160416776E+02  0.60372994951E+02  0.41800000000E+01 0. -1.
        -11    1    1    2    0    0 -0.43941123759E+02 -0.53844440478E+02  0.61916159528E+02  0.93078767387E+02  0.00000000000E+00 0.  1.
         11    1    1    2    0    0  0.31146074433E+02  0.80317001479E+01  0.35547109967E+02  0.47939369905E+02  0.00000000000E+00 0. -1.
</event>
<event>
 7    1  0.6833760E-006  0.7498490E+02  0.7561462E-02  0.1343918E+00
         -1   -1    0    0    0  501 -0.00000000000E+00  0.00000000000E+00  0.10791973426E+03  0.10791973426E+03  0.00000000000E+00 0.  1.
          1   -1    0    0  501    0  0.00000000000E+00 -0.00000000000E+00 -0.11577216708E+03  0.11577216708E+03  0.00000000000E+00 0. -1.
         23    2    1    2    0    0 -0.20983074962E+02 -0.75321324106E+00  0.21586824416E+02  0.12866345843E+03  0.12508971893E+03 0.  0.
          5    1    3    3  502    0 -0.11494947239E+02 -0.49821773387E+02 -0.27738337458E+02  0.58320070991E+02  0.41800000000E+01 0.  1.
         -5    1    3    3    0  502 -0.94881277222E+01  0.49068560146E+02  0.49325161874E+02  0.70343387438E+02  0.41800000000E+01 0.  1.
        -11    1    1    2    0    0  0.11391427162E+02  0.22239184753E+02 -0.54925099868E+02  0.60341631953E+02  0.00000000000E+00 0. -1.
         11    1    1    2    0    0  0.95916477997E+01 -0.21485971512E+02  0.25485842630E+02  0.34686810950E+02  0.00000000000E+00 0.  1.
</event>
<event>
 7    1  0.6833760E-006  0.1190408E+03  0.7561462E-02  0.1244688E+00
         -2   -1    0    0    0  501 -0.00000000000E+00  0.00000000000E+00  0.22393261150E+02  0.22393261150E+02  0.00000000000E+00 0.  1.
          2   -1    0    0  501    0  0.00000000000E+00 -0.00000000000E+00 -0.68088647584E+03  0.68088647584E+03  0.00000000000E+00 0. -1.
         23    2    1    2    0    0 -0.32767294980E+02  0.41754839403E+02 -0.32702991521E+03  0.35413595371E+03  0.12508615443E+03 0.  0.
          5    1    3    3  502    0 -0.79647210858E+02  0.38504649094E+02 -0.22087384045E+03  0.23796851051E+03  0.41800000000E+01 0.  1.
         -5    1    3    3    0  502  0.46879915877E+02  0.32501903090E+01 -0.10615607476E+03  0.11616744319E+03  0.41800000000E+01 0.  1.
        -11    1    1    2    0    0 -0.14680658120E+02  0.19781463531E+02 -0.35915607715E+02  0.43551795598E+02  0.00000000000E+00 0.  1.
         11    1    1    2    0    0  0.47447953100E+02 -0.61536302933E+02 -0.29554769177E+03  0.30559198769E+03  0.00000000000E+00 0. -1.
</event>
<event>
 7    1  0.6833760E-006  0.9393931E+02  0.7561462E-02  0.1293583E+00
          2   -1    0    0  501    0  0.00000000000E+00  0.00000000000E+00  0.97532218478E+02  0.97532218478E+02  0.00000000000E+00 0. -1.
         -2   -1    0    0    0  501 -0.00000000000E+00 -0.00000000000E+00 -0.17864400024E+03  0.17864400024E+03  0.00000000000E+00 0.  1.
         23    2    1    2    0    0  0.43113908989E+02  0.56646150575E+02 -0.78549783410E+02  0.16396630624E+03  0.12508911058E+03 0.  0.
          5    1    3    3  502    0 -0.12302242263E+02  0.55871334831E+01 -0.86894676523E+02  0.88038164640E+02  0.41800000000E+01 0.  1.
         -5    1    3    3    0  502  0.55416151251E+02  0.51059017092E+02  0.83448931124E+01  0.75928141601E+02  0.41800000000E+01 0.  1.
        -11    1    1    2    0    0 -0.10612187596E+01 -0.56202070536E+02 -0.28269131867E+02  0.62920129802E+02  0.00000000000E+00 0.  1.
         11    1    1    2    0    0 -0.42052690229E+02 -0.44408003840E+00  0.25707133515E+02  0.49289782675E+02  0.00000000000E+00 0. -1.
</event>
<event>
 7    1  0.6833760E-006  0.1066154E+03  0.7561462E-02  0.1266969E+00
         -3   -1    0    0    0  501 -0.00000000000E+00  0.00000000000E+00  0.28487404290E+02  0.28487404290E+02  0.00000000000E+00 0.  1.
          3   -1    0    0  501    0  0.00000000000E+00 -0.00000000000E+00 -0.46872186725E+03  0.46872186725E+03  0.00000000000E+00 0. -1.
         23    2    1    2    0    0  0.24288964881E+02  0.14600598740E+02 -0.18379546026E+03  0.22412175083E+03  0.12508659675E+03 0.  0.
          5    1    3    3  502    0  0.42171309865E+02 -0.42405355229E+02 -0.52016030503E+02  0.79371111603E+02  0.41800000000E+01 0. -1.
         -5    1    3    3    0  502 -0.17882344984E+02  0.57005953969E+02 -0.13177942976E+03  0.14475063923E+03  0.41800000000E+01 0. -1.
        -11    1    1    2    0    0 -0.50490914993E-01  0.36673971861E+02 -0.11479761107E+03  0.12051337797E+03  0.00000000000E+00 0. -1.
         11    1    1    2    0    0 -0.24238473966E+02 -0.51274570601E+02 -0.14164139162E+03  0.15257414273E+03  0.00000000000E+00 0.  1.
</event>
<event>
 7    1  0.6833760E-006  0.1381965E+03  0.7561462E-02  0.1215777E+00
         -1   -1    0    0    0  501 -0.00000000000E+00  0.00000000000E+00  0.91450396237E+02  0.91450396237E+02  0.00000000000E+00 0.  1.
          1   -1    0    0  501    0  0.00000000000E+00 -0.00000000000E+00 -0.37386935449E+03  0.37386935449E+03  0.00000000000E+00 0. -1.
         23    2    1    2    0    0 -0.10716229164E+03 -0.36473867133E+02 -0.25517516889E+02  0.17050969532E+03  0.12493323335E+03 0.  0.
          5    1    3    3  502    0 -0.10304302896E+03 -0.70243408776E+02 -0.43068979879E+02  0.13200155954E+03  0.41800000000E+01 0.  1.
         -5    1    3    3    0  502 -0.41192626804E+01  0.33769541642E+02  0.17551462991E+02  0.38508135775E+02  0.41800000000E+01 0.  1.
        -11    1    1    2    0    0  0.47413968358E+02  0.14621796825E+00 -0.19734037493E+03  0.20295647157E+03  0.00000000000E+00 0. -1.
         11    1    1    2    0    0  0.59748323284E+02  0.36327649165E+02 -0.59561066435E+02  0.91853583839E+02  0.00000000000E+00 0.  1.
</event>
<event>
 7    1  0.6833760E-006  0.1463893E+03  0.7561462E-02  0.1204981E+00
         -2   -1    0    0    0  501 -0.00000000000E+00  0.00000000000E+00  0.33243841818E+02  0.33243841818E+02  0.00000000000E+00 0.  1.
          2   -1    0    0  501    0  0.00000000000E+00 -0.00000000000E+00 -0.75517362092E+03  0.75517362092E+03  0.00000000000E+00 0. -1.
         23    2    1    2    0    0  0.10176776666E+03  0.35017175951E+02 -0.29664232081E+03  0.33945224922E+03  0.12509309357E+03 0.  0.
          5    1    3    3  502    0  0.12180541150E+03  0.57027713667E+02 -0.23285586981E+03  0.26893874191E+03  0.41800000000E+01 0. -1.
         -5    1    3    3    0  502 -0.20037644836E+02 -0.22010537715E+02 -0.63786451003E+02  0.70513507307E+02  0.41800000000E+01 0. -1.
        -11    1    1    2    0    0 -0.85904140986E+02  0.40472646811E+01 -0.17319452842E+03  0.19337074873E+03  0.00000000000E+00 0.  1.
         11    1    1    2    0    0 -0.15863625674E+02 -0.39064440633E+02 -0.25209292987E+03  0.25559446479E+03  0.00000000000E+00 0. -1.
</event>
<event>
 7    1  0.6833760E-006  0.1082289E+03  0.7561462E-02  0.1263885E+00
          2   -1    0    0  501    0  0.00000000000E+00  0.00000000000E+00  0.16046731368E+03  0.16046731368E+03  0.00000000000E+00 0. -1.
         -2   -1    0    0    0  501 -0.00000000000E+00 -0.00000000000E+00 -0.86313656647E+02  0.86313656647E+02  0.00000000000E+00 0.  1.
         23    2    1    2    0    0  0.39944039664E+02 -0.20216221257E+01  0.84944737914E+01  0.12778867406E+03  0.12107095388E+03 0.  0.
          5    1    3    3  502    0  0.68621130491E+02  0.37644918658E+02  0.50370322384E+01  0.78541985870E+02  0.41800000000E+01 0. -1.
         -5    1    3    3    0  502 -0.28677090827E+02 -0.39666540784E+02  0.34574415530E+01  0.49246688195E+02  0.41800000000E+01 0.  1.
        -11    1    1    2    0    0 -0.50390510937E+02  0.30305016744E+02  0.16072233788E+02  0.60958299938E+02  0.00000000000E+00 0. -1.
         11    1    1    2    0    0  0.10446471273E+02 -0.28283394619E+02  0.49586949454E+02  0.58033996325E+02  0.00000000000E+00 0.  1.
</event>
<event>
 6    1  0.6833760E-006  0.1625886E+03  0.7561462E-02  0.1185805E+00
         -2   -1    0    0    0  501 -0.00000000000E+00  0.00000000000E+00  0.53367160282E+02  0.53367160282E+02  0.00000000000E+00 0.  1.
          2   -1    0    0  501    0  0.00000000000E+00 -0.00000000000E+00 -0.57742481880E+03  0.57742481880E+03  0.00000000000E+00 0. -1.
          5    1    1    2  502    0 -0.44709749529E+02  0.14239424249E+02 -0.77849049716E+02  0.90992691176E+02  0.41800000000E+01 0. -1.
         -5    1    1    2    0  502  0.94699431083E+02  0.93472381160E+02 -0.11469843936E+03  0.17572214624E+03  0.41800000000E+01 0.  1.
        -11    1    1    2    0    0 -0.72296173121E+02 -0.67244289971E+02 -0.17549553031E+03  0.20136338381E+03  0.00000000000E+00 0. -1.
         11    1    1    2    0    0  0.22306491567E+02 -0.40467515438E+02 -0.15601463913E+03  0.16271375785E+03  0.00000000000E+00 0.  1.
</event>
<event>
 7    1  0.6833760E-006  0.9863982E+02  0.7561462E-02  0.1283182E+00
          2   -1    0    0  501    0  0.00000000000E+00  0.00000000000E+00  0.63705807046E+02  0.63705807046E+02  0.00000000000E+00 0.  1.
         -2   -1    0    0    0  501 -0.00000000000E+00 -0.00000000000E+00 -0.21915920408E+03  0.21915920408E+03  0.00000000000E+00 0. -1.
         23    2    1    2    0    0  0.29398027375E+02 -0.23058256079E+02 -0.12014498854E+03  0.17742388632E+03  0.12509392462E+03 0.  0.
          5    1    3    3  502    0  0.45689362287E+02 -0.63957260493E+02 -0.10381965144E+03  0.13028446347E+03  0.41800000000E+01 0.  1.
         -5    1    3    3    0  502 -0.16291334912E+02  0.40899004414E+02 -0.16325337102E+02  0.47139422852E+02  0.41800000000E+01 0.  1.
        -11    1    1    2    0    0 -0.95623733133E+01 -0.22613705311E+02  0.19527598808E+02  0.31371097629E+02  0.00000000000E+00 0.  1.
         11    1    1    2    0    0 -0.19835654062E+02  0.45671961389E+02 -0.54836007299E+02  0.74070027175E+02  0.00000000000E+00 0. -1.
</event>
<event>
 7    1  0.6833760E-006  0.1257017E+03  0.7561462E-02  0.1233977E+00
          1   -1    0    0  501    0  0.00000000000E+00  0.00000000000E+00  0.66117178801E+02  0.66117178801E+02  0.00000000000E+00 0. -1.
         -1   -1    0    0    0  501 -0.00000000000E+00 -0.00000000000E+00 -0.40778980466E+03  0.40778980466E+03  0.00000000000E+00 0.  1.
         23    2    1    2    0    0  0.78444242701E+02 -0.52865992032E+02 -0.26669299447E+03  0.30938788448E+03  0.12508955766E+03 0.  0.
          5    1    3    3  502    0  0.34698039428E+02 -0.91699564486E+02 -0.16308170222E+03  0.19033096980E+03  0.41800000000E+01 0. -1.
         -5    1    3    3    0  502  0.43746203273E+02  0.38833572454E+02 -0.10361129226E+03  0.11905691468E+03  0.41800000000E+01 0. -1.
        -11    1    1    2    0    0 -0.32716787813E+02  0.23444854033E+02  0.27334220083E+02  0.48653971811E+02  0.00000000000E+00 0. -1.
         11    1    1    2    0    0 -0.45727454888E+02  0.29421138000E+02 -0.10231385147E+03  0.11586512717E+03  0.00000000000E+00 0.  1.
</event>
<event>
 7    1  0.6833760E-006  0.1083769E+03  0.7561462E-02  0.1263605E+00
         -1   -1    0    0    0  501 -0.00000000000E+00  0.00000000000E+00  0.16696281341E+03  0.16696281341E+03  0.00000000000E+00 0.  1.
          1   -1    0    0  501    0  0.00000000000E+00 -0.00000000000E+00 -0.77227532946E+02  0.77227532946E+02  0.00000000000E+00 0. -1.
         23    2    1    2    0    0  0.17316914494E+02 -0.21655675604E+02  0.73555440518E+02  0.14773731863E+03  0.12508824354E+03 0.  0.
          5    1    3    3  502    0 -0.11992106924E+02  0.46072120952E+02  0.52255940214E+02  0.70813887375E+02  0.41800000000E+01 0. -1.
         -5    1    3    3    0  502  0.29309021418E+02 -0.67727796556E+02  0.21299500304E+02  0.76923431255E+02  0.41800000000E+01 0. -1.
        -11    1    1    2    0    0 -0.54920776109E+02  0.13896625010E+02  0.10991476270E+02  0.57708061704E+02  0.00000000000E+00 0.  1.
         11    1    1    2    0    0  0.37603861615E+02  0.77590505946E+01  0.51883636778E+01  0.38744966023E+02  0.00000000000E+00 0. -1.
</event>
<event>
 7    1  0.6833760E-006  0.7966489E+02  0.7561462E-02  0.1330005E+00
         -2   -1    0    0    0  501 -0.00000000000E+00  0.00000000000E+00  0.59125174525E+02  0.59125174525E+02  0.00000000000E+00 0.  1.
          2   -1    0    0  501    0  0.00000000000E+00 -0.00000000000E+00 -0.20947717510E+03  0.20947717510E+03  0.00000000000E+00 0. -1.
         23    2    1    2    0    0 -0.64553440653E+01 -0.24543489229E+02 -0.81502710414E+02  0.15143815286E+03  0.12508704172E+03 0.  0.
          5    1    3    3  502    0 -0.63838569175E+01 -0.61672490312E+02 -0.40156363904E+00  0.62144053165E+02  0.41800000000E+01 0. -1.
         -5    1    3    3    0  502 -0.71487147762E-01  0.37129001083E+02 -0.81101146775E+02  0.89294099693E+02  0.41800000000E+01 0. -1.
        -11    1    1    2    0    0  0.26574207551E+02 -0.18474051231E+01 -0.78260972963E+02  0.82670316932E+02  0.00000000000E+00 0. -1.
         11    1    1    2    0    0 -0.20118863486E+02  0.26390894352E+02  0.94116828043E+01  0.34493879832E+02  0.00000000000E+00 0.  1.
</event>
<event>
 7    1  0.6833760E-006  0.1221782E+03  0.7561462E-02  0.1239546E+00
          1   -1    0    0  501    0  0.00000000000E+00  0.00000000000E+00  0.65236286949E+03  0.65236286949E+03  0.00000000000E+00 0. -1.
         -1   -1    0    0    0  501 -0.00000000000E+00 -0.00000000000E+00 -0.38792798762E+02  0.38792798762E+02  0.00000000000E+00 0.  1.
         23    2    1    2    0    0  0.10558560944E+03 -0.34862565486E+02  0.25127207907E+03  0.30190789876E+03  0.12508797792E+03 0.  0.
          5    1    3    3  502    0  0.82236968724E+01 -0.21063160215E+02  0.17730167196E+03  0.17878658000E+03  0.41800000000E+01 0. -1.
         -5    1    3    3    0  502  0.97361912570E+02 -0.13799405271E+02  0.73970407115E+02  0.12312131876E+03  0.41800000000E+01 0. -1.
        -11    1    1    2    0    0 -0.37255816508E+02  0.39692187874E+02  0.68119855423E+02  0.87199657939E+02  0.00000000000E+00 0.  1.
         11    1    1    2    0    0 -0.68329792934E+02 -0.48296223876E+01  0.29417813624E+03  0.30204811156E+03  0.00000000000E+00 0. -1.
</event>
<event>
 7    1  0.6833760E-006  0.1381863E+03  0.7561462E-02  0.1215790E+00
         -2   -1    0    0    0  501 -0.00000000000E+00  0.00000000000E+00  0.87793506950E+02  0.87793506950E+02  0.00000000000E+00 0.  1.
          2   -1    0    0  501    0  0.00000000000E+00 -0.00000000000E+00 -0.29869203603E+03  0.29869203603E+03  0.00000000000E+00 0. -1.
         23    2    1    2    0    0 -0.76121880316E+02 -0.77205615793E+02 -0.51575298388E+02  0.17336094221E+03  0.12505501632E+03 0.  0.
          5    1    3    3  502    0 -0.10959156833E+03 -0.62857018852E+02 -0.27081790083E+02  0.12927572248E+03  0.41800000000E+01 0.  1.
         -5    1    3    3    0  502  0.33469688013E+02 -0.14348596941E+02 -0.24493508305E+02  0.44085219733E+02  0.41800000000E+01 0.  1.
        -11    1    1    2    0    0  0.16862691317E+02  0.11604920636E+01  0.89984213086E+01  0.19148594891E+02  0.00000000000E+00 0.  1.
         11    1    1    2    0    0  0.59259189000E+02  0.76045123729E+02 -0.16832165200E+03  0.19397600588E+03  0.00000000000E+00 0. -1.
</event>
<event>
 6    1  0.6833760E-006  0.1400835E+03  0.7561462E-02  0.1213217E+00
         -2   -1    0    0    0  501 -0.00000000000E+00  0.00000000000E+00  0.42695206398E+02  0.42695206398E+02  0.00000000000E+00 0.  1.
          2   -1    0    0  501    0  0.00000000000E+00 -0.00000000000E+00 -0.61042434467E+03  0.61042434467E+03  0.00000000000E+00 0. -1.
          5    1    1    2  502    0 -0.56146583646E+01 -0.94104410105E+02 -0.20303786546E+03  0.22389509061E+03  0.41800000000E+01 0. -1.
         -5    1    1    2    0  502 -0.80677047960E+01  0.10024212956E+03 -0.73474843378E+02  0.12461780535E+03  0.41800000000E+01 0.  1.
        -11    1    1    2    0    0  0.33546684797E+02  0.29289143746E+02 -0.19765184159E+03  0.20260672369E+03  0.00000000000E+00 0.  1.
         11    1    1    2    0    0 -0.19864321637E+02 -0.35426863203E+02 -0.93564587843E+02  0.10199993142E+03  0.00000000000E+00 0. -1.
</event>
<event>
 7    1  0.6833760E-006  0.1504508E+03  0.7561462E-02  0.1199920E+00
          1   -1    0    0  501    0  0.00000000000E+00  0.00000000000E+00  0.17687164529E+04  0.17687164529E+04  0.00000000000E+00 0. -1.
         -1   -1    0    0    0  501 -0.00000000000E+00 -0.00000000000E+00 -0.16210612762E+02  0.16210612762E+02  0.00000000000E+00 0.  1.
         23    2    1    2    0    0  0.42210082318E+02 -0.12288843084E+03  0.96469896265E+03  0.98141590631E+03  0.12509930110E+03 0.  0.
          5    1    3    3  502    0  0.58059903480E+02 -0.95085262968E+02  0.38495527775E+03  0.40077449756E+03  0.41800000000E+01 0.  1.
         -5    1    3    3    0  502 -0.15849821163E+02 -0.27803167873E+02  0.57974368490E+03  0.58064140875E+03  0.41800000000E+01 0.  1.
        -11    1    1    2    0    0 -0.51670843502E+02  0.22588003926E+02  0.32616942275E+03  0.33100843845E+03  0.00000000000E+00 0. -1.
         11    1    1    2    0    0  0.94607611839E+01  0.10030042691E+03  0.46163745476E+03  0.47250272092E+03  0.00000000000E+00 0.  1.
</event>
<event>
 7    1  0.6833760E-006  0.9616295E+02  0.7561462E-02  0.1288578E+00
         -1   -1    0    0    0  501 -0.00000000000E+00  0.00000000000E+00  0.50139418710E+02  0.50139418710E+02  0.00000000000E+00 0.  1.
          1   -1    0    0  501    0  0.00000000000E+00 -0.00000000000E+00 -0.27366426818E+03  0.27366426818E+03  0.00000000000E+00 0. -1.
         23    2    1    2    0    0 -0.32345825067E+02 -0.20081046032E+02 -0.90483190912E+02  0.15903278102E+03  0.12511881070E+03 0.  0.
          5    1    3    3  502    0 -0.90535198500E+01  0.43311153295E+02  0.19410516137E+01  0.44486653086E+02  0.41800000000E+01 0. -1.
         -5    1    3    3    0  502 -0.23292305217E+02 -0.63392199328E+02 -0.92424242526E+02  0.11454612793E+03  0.41800000000E+01 0. -1.
        -11    1    1    2    0    0  0.12045262059E+02 -0.26661343881E+02 -0.89051051667E+01  0.30581309548E+02  0.00000000000E+00 0.  1.
         11    1    1    2    0    0  0.20300563008E+02  0.46742389914E+02 -0.12413655339E+03  0.13418959632E+03  0.00000000000E+00 0. -1.
</event>
<event>
 7    1  0.6833760E-006  0.6930238E+02  0.7561462E-02  0.1362482E+00
          3   -1    0    0  501    0  0.00000000000E+00  0.00000000000E+00  0.90938616295E+02  0.90938616295E+02  0.00000000000E+00 0. -1.
         -3   -1    0    0    0  501 -0.00000000000E+00 -0.00000000000E+00 -0.16750549483E+03  0.16750549483E+03  0.00000000000E+00 0.  1.
         23    2    1    2    0    0 -0.33575255933E+02  0.43836680919E+02 -0.61628150202E+02  0.14998243970E+03  0.12509097056E+03 0.  0.
          5    1    3    3  502    0 -0.32341121365E+01  0.42662332994E+02  0.30618014427E+02  0.52777545843E+02  0.41800000000E+01 0.  1.
         -5    1    3    3    0  502 -0.30341143797E+02  0.11743479248E+01 -0.92246164629E+02  0.97204893852E+02  0.41800000000E+01 0.  1.
        -11    1    1    2    0    0  0.76773643892E+01 -0.37535572263E+02 -0.50895120319E+02  0.63703801938E+02  0.00000000000E+00 0.  1.
         11    1    1    2    0    0  0.25897891544E+02 -0.63011086561E+01  0.35956391987E+02  0.44757869492E+02  0.00000000000E+00 0. -1.
</event>
<event>
 7    1  0.6833760E-006  0.1215792E+03  0.7561462E-02  0.1240514E+00
          1   -1    0    0  501    0  0.00000000000E+00  0.00000000000E+00  0.67712739562E+03  0.67712739562E+03  0.00000000000E+00 0. -1.
         -1   -1    0    0    0  501 -0.00000000000E+00 -0.00000000000E+00 -0.24741379966E+02  0.24741379966E+02  0.00000000000E+00 0.  1.
         23    2    1    2    0    0  0.13648686612E+02  0.66917396301E+02  0.32391925909E+03  0.35388957521E+03  0.12509964212E+03 0.  0.
          5    1    3    3  502    0  0.51765220916E+02  0.73115004123E+02  0.28550787068E+03  0.29926185615E+03  0.41800000000E+01 0.  1.
         -5    1    3    3    0  502 -0.38116534304E+02 -0.61976078219E+01  0.38411388402E+02  0.54627719054E+02  0.41800000000E+01 0.  1.
        -11    1    1    2    0    0  0.39257124129E+02 -0.36516393367E+02  0.14213464163E+03  0.15191058268E+03  0.00000000000E+00 0. -1.
         11    1    1    2    0    0 -0.52905810741E+02 -0.30401002934E+02  0.18633211494E+03  0.19606861770E+03  0.00000000000E+00 0.  1.
</event>
<event>
 7    1  0.6833760E-006  0.9352753E+02  0.7561462E-02  0.1294527E+00
          2   -1    0    0  501    0  0.00000000000E+00  0.00000000000E+00  0.34143562474E+03  0.34143562474E+03  0.00000000000E+00 0. -1.
         -2   -1    0    0    0  501 -0.00000000000E+00 -0.00000000000E+00 -0.45291845736E+02  0.45291845736E+02  0.00000000000E+00 0.  1.
         23    2    1    2    0    0 -0.24065940221E+02  0.55690344432E+02  0.16170736517E+03  0.21325587601E+03  0.12509281658E+03 0.  0.
          5    1    3    3  502    0 -0.54657480126E+02  0.42753722356E+01  0.13838361945E+03  0.14890674086E+03  0.41800000000E+01 0. -1.
         -5    1    3    3    0  502  0.30591539905E+02  0.51414972196E+02  0.23323745722E+02  0.64349135147E+02  0.41800000000E+01 0. -1.
        -11    1    1    2    0    0 -0.66624267695E+01 -0.33598130202E+02  0.13107546102E+03  0.13547693075E+03  0.00000000000E+00 0. -1.
         11    1    1    2    0    0  0.30728366990E+02 -0.22092214230E+02  0.33609528128E+01  0.37994663721E+02  0.00000000000E+00 0.  1.
</event>
<event>
 7    1  0.6833760E-006  0.9442064E+02  0.7561462E-02  0.1292486E+00
          2   -1    0    0  501    0  0.00000000000E+00  0.00000000000E+00  0.41378053896E+02  0.41378053896E+02  0.00000000000E+00 0. -1.
         -2   -1    0    0    0  501 -0.00000000000E+00 -0.00000000000E+00 -0.33758043896E+03  0.33758043896E+03  0.00000000000E+00 0.  1.
         23    2    1    2    0    0  0.14363448919E+02  0.42102040050E+02 -0.19125868808E+03  0.23282167259E+03  0.12508858869E+03 0.  0.
          5    1    3    3  502    0  0.57390390219E+02  0.20190876351E+02 -0.16866099494E+03  0.17934695981E+03  0.41800000000E+01 0. -1.
         -5    1    3    3    0  502 -0.43026941300E+02  0.21911163698E+02 -0.22597693136E+02  0.53474712784E+02  0.41800000000E+01 0. -1.
        -11    1    1    2    0    0  0.25358341899E+02 -0.68052164456E+01 -0.85683026585E+02  0.89615498211E+02  0.00000000000E+00 0.  1.
         11    1    1    2    0    0 -0.39721790819E+02 -0.35296823604E+02 -0.19260670401E+02  0.56521322054E+02  0.00000000000E+00 0. -1.
</event>
<event>
 7    1  0.6833760E-006  0.1808902E+03  0.7561462E-02  0.1166944E+00
         -2   -1    0    0    0  501 -0.00000000000E+00  0.00000000000E+00  0.32645344411E+02  0.32645344411E+02  0.00000000000E+00 0.  1.
          2   -1    0    0  501    0  0.00000000000E+00 -0.00000000000E+00 -0.10901794033E+04  0.10901794033E+04  0.00000000000E+00 0. -1.
         23    2    1    2    0    0  0.15153015475E+03 -0.23026474117E+02 -0.53759946929E+03  0.57284603847E+03  0.12509111918E+03 0.  0.
          5    1    3    3  502    0  0.16179607056E+03 -0.43129087052E+01 -0.52073272293E+03  0.54532248327E+03  0.41800000000E+01 0. -1.
         -5    1    3    3    0  502 -0.10265915812E+02 -0.18713565412E+02 -0.16866746362E+02  0.27523555198E+02  0.41800000000E+01 0. -1.
        -11    1    1    2    0    0 -0.62786953672E+02 -0.35202133351E+02 -0.24149913289E+03  0.25199845819E+03  0.00000000000E+00 0. -1.
         11    1    1    2    0    0 -0.88743201073E+02  0.58228607468E+02 -0.27843545666E+03  0.29798025101E+03  0.00000000000E+00 0.  1.
</event>
<event>
 7    1  0.6833760E-006  0.1163106E+03  0.7561462E-02  0.1249310E+00
         -2   -1    0    0    0  501 -0.00000000000E+00  0.00000000000E+00  0.46482224429E+02  0.46482224429E+02  0.00000000000E+00 0.  1.
          2   -1    0    0  501    0  0.00000000000E+00 -0.00000000000E+00 -0.33276463198E+03  0.33276463198E+03  0.00000000000E+00 0. -1.
         23    2    1    2    0    0  0.50727050473E+02  0.31975118624E+02 -0.15077568151E+03  0.20488318740E+03  0.12509265560E+03 0.  0.
          5    1    3    3  502    0  0.71898377491E+02 -0.12861379601E+02 -0.13346041494E+03  0.15219706478E+03  0.41800000000E+01 0.  1.
         -5    1    3    3    0  502 -0.21171327017E+02  0.44836498224E+02 -0.17315266567E+02  0.52686122622E+02  0.41800000000E+01 0.  1.
        -11    1    1    2    0    0 -0.68170643984E+01  0.31661431358E+02 -0.41788341051E+02  0.52869500191E+02  0.00000000000E+00 0.  1.
         11    1    1    2    0    0 -0.43909986075E+02 -0.63636549982E+02 -0.93718384986E+02  0.12149416881E+03  0.00000000000E+00 0. -1.
</event>
<event>
 7    1  0.6833760E-006  0.9872342E+02  0.7561462E-02  0.1283004E+00
          1   -1    0    0  501    0  0.00000000000E+00  0.00000000000E+00  0.17397619082E+03  0.17397619082E+03  0.00000000000E+00 0. -1.
         -1   -1    0    0    0  501 -0.00000000000E+00 -0.00000000000E+00 -0.13097706965E+03  0.13097706965E+03  0.00000000000E+00 0.  1.
         23    2    1    2    0    0 -0.30804062131E+02 -0.43352869909E+02 -0.68883809777E+02  0.15238510817E+03  0.12509148800E+03 0.  0.
          5    1    3    3  502    0  0.70085382623E+00  0.21501397495E+02 -0.76673170763E+02  0.79743644293E+02  0.41800000000E+01 0. -1.
         -5    1    3    3    0  502 -0.31504915957E+02 -0.64854267403E+02  0.77893609861E+01  0.72641463879E+02  0.41800000000E+01 0. -1.
        -11    1    1    2    0    0 -0.31279705989E+02  0.19139007430E+02  0.46392041742E+02  0.59134957083E+02  0.00000000000E+00 0.  1.
         11    1    1    2    0    0  0.62083768120E+02  0.24213862478E+02  0.65490889199E+02  0.93433195215E+02  0.00000000000E+00 0. -1.
</event>
<event>
 7    1  0.6833760E-006  0.1387060E+03  0.7561462E-02  0.1215081E+00
         -2   -1    0    0    0  501 -0.00000000000E+00  0.00000000000E+00  0.71796624716E+03  0.71796624716E+03  0.00000000000E+00 0. -1.
          2   -1    0    0  501    0  0.00000000000E+00 -0.00000000000E+00 -0.32406112810E+02  0.32406112810E+02  0.00000000000E+00 0.  1.
         23    2    1    2    0    0  0.58151813460E+02  0.81247129201E+02  0.46570214209E+03  0.49245255035E+03  0.12509316445E+03 0.  0.
          5    1    3    3  502    0  0.14370703099E+02  0.10065012323E+03  0.38767108801E+03  0.40080332994E+03  0.41800000000E+01 0.  1.
         -5    1    3    3    0  502  0.43781110361E+02 -0.19402994025E+02  0.78031054082E+02  0.91649220415E+02  0.41800000000E+01 0.  1.
        -11    1    1    2    0    0 -0.53951776892E+02 -0.83818550479E+01  0.54375527707E+02  0.77056782552E+02  0.00000000000E+00 0. -1.
         11    1    1    2    0    0 -0.42000365683E+01 -0.72865274153E+02  0.16548246456E+03  0.18086302707E+03  0.00000000000E+00 0.  1.
</event>
<event>
 7    1  0.6833760E-006  0.1024821E+03  0.7561462E-02  0.1275161E+00
         -2   -1    0    0    0  501 -0.00000000000E+00  0.00000000000E+00  0.12558301145E+03  0.12558301145E+03  0.00000000000E+00 0. -1.
          2   -1    0    0  501    0  0.00000000000E+00 -0.00000000000E+00 -0.12318554789E+03  0.12318554789E+03  0.00000000000E+00 0.  1.
         23    2    1    2    0    0 -0.48279827931E+02  0.19086350046E+02  0.27571018670E+02  0.13821558123E+03  0.12509258684E+03 0.  0.
          5    1    3    3  502    0  0.10956890753E+02  0.57448096076E+02 -0.78247657472E+01  0.59152654689E+02  0.41800000000E+01 0. -1.
         -5    1    3    3    0  502 -0.59236718684E+02 -0.38361746031E+02  0.35395784417E+02  0.79062926543E+02  0.41800000000E+01 0. -1.
        -11    1    1    2    0    0  0.10341195692E+02  0.19153836279E+02 -0.47494148878E+02  0.52244654752E+02  0.00000000000E+00 0.  1.
         11    1    1    2    0    0  0.37938632240E+02 -0.38240186324E+02  0.22320593770E+02  0.58308323356E+02  0.00000000000E+00 0. -1.
</event>
<event>
 7    1  0.6833760E-006  0.1224906E+03  0.7561462E-02  0.1239044E+00
          1   -1    0    0  501    0  0.00000000000E+00  0.00000000000E+00  0.22492734942E+03  0.22492734942E+03  0.00000000000E+00 0. -1.
         -1   -1    0    0    0  501 -0.00000000000E+00 -0.00000000000E+00 -0.86184516359E+02  0.86184516359E+02  0.00000000000E+00 0.  1.
         23    2    1    2    0    0 -0.37582009946E+02 -0.49873350992E+02  0.43656738275E+02  0.14646949688E+03  0.12509054364E+03 0.  0.
          5    1    3    3  502    0 -0.30349763546E+02  0.24617403213E+02 -0.23531183144E+02  0.45807353868E+02  0.41800000000E+01 0. -1.
         -5    1    3    3    0  502 -0.72322463998E+01 -0.74490754205E+02  0.67187921419E+02  0.10066214301E+03  0.41800000000E+01 0. -1.
        -11    1    1    2    0    0  0.41710721858E+02 -0.29597001363E+02  0.56476872996E+02  0.76193201738E+02  0.00000000000E+00 0. -1.
         11    1    1    2    0    0 -0.41287119124E+01  0.79470352355E+02  0.38609221793E+02  0.88449167170E+02  0.00000000000E+00 0.  1.
</event>
<event>
 7    1  0.6833760E-006  0.1646169E+03  0.7561462E-02  0.1183581E+00
         -2   -1    0    0    0  501 -0.00000000000E+00  0.00000000000E+00  0.30146302408E+02  0.30146302408E+02  0.00000000000E+00 0.  1.
          2   -1    0    0  501    0  0.00000000000E+00 -0.00000000000E+00 -0.10915802338E+04  0.10915802338E+04  0.00000000000E+00 0. -1.
         23    2    1    2    0    0 -0.90491890504E+02  0.10360278332E+03 -0.41855935883E+03  0.45799718685E+03  0.12508863796E+03 0.  0.
          5    1    3    3  502    0 -0.10748931027E+03  0.11543076463E+03 -0.39955668455E+03  0.42958262280E+03  0.41800000000E+01 0.  1.
         -5    1    3    3    0  502  0.16997419765E+02 -0.11827981311E+02 -0.19002674278E+02  0.28414564052E+02  0.41800000000E+01 0.  1.
        -11    1    1    2    0    0  0.34307881374E+02 -0.84139113103E+02 -0.51173577452E+03  0.51974024666E+03  0.00000000000E+00 0. -1.
         11    1    1    2    0    0  0.56184009130E+02 -0.19463670216E+02 -0.13113879800E+03  0.14398910265E+03  0.00000000000E+00 0.  1.
</event>
<event>
 7    1  0.6833760E-006  0.1092911E+03  0.7561462E-02  0.1261888E+00
          2   -1    0    0  501    0  0.00000000000E+00  0.00000000000E+00  0.44730668946E+02  0.44730668946E+02  0.00000000000E+00 0. -1.
         -2   -1    0    0    0  501 -0.00000000000E+00 -0.00000000000E+00 -0.37482888897E+03  0.37482888897E+03  0.00000000000E+00 0.  1.
         23    2    1    2    0    0 -0.41064783167E+02 -0.21077141596E+02 -0.27395938517E+03  0.30467965546E+03  0.12508151508E+03 0.  0.
          5    1    3    3  502    0 -0.58091833224E+02 -0.56655305053E+02 -0.23671069219E+03  0.25026767445E+03  0.41800000000E+01 0.  1.
         -5    1    3    3    0  502  0.17027050058E+02  0.35578163457E+02 -0.37248692979E+02  0.54411981009E+02  0.41800000000E+01 0.  1.
        -11    1    1    2    0    0  0.37401709078E+02 -0.29079367580E+02 -0.14373959448E+02  0.49508667635E+02  0.00000000000E+00 0. -1.
         11    1    1    2    0    0  0.36630740892E+01  0.50156509175E+02 -0.41764875411E+02  0.65371234825E+02  0.00000000000E+00 0.  1.
</event>
<event>
 7    1  0.6833760E-006  0.1027612E+03  0.7561462E-02  0.1274594E+00
          1   -1    0    0  501    0  0.00000000000E+00  0.00000000000E+00  0.37069846912E+02  0.37069846912E+02  0.00000000000E+00 0. -1.
         -1   -1    0    0    0  501 -0.00000000000E+00 -0.00000000000E+00 -0.33056943113E+03  0.33056943113E+03  0.00000000000E+00 0.  1.
         23    2    1    2    0    0 -0.66279796690E+01 -0.56175663903E+01 -0.19900467887E+03  0.23520353665E+03  0.12506939784E+03 0.  0.
          5    1    3    3  502    0  0.42706217619E+02 -0.35058912902E+02 -0.14883612175E+03  0.15881628360E+03  0.41800000000E+01 0.  1.
         -5    1    3    3    0  502 -0.49334197288E+02  0.29441346511E+02 -0.50168557113E+02  0.76387253054E+02  0.41800000000E+01 0.  1.
        -11    1    1    2    0    0 -0.38370440257E+02 -0.17206556371E+02 -0.48118817401E+02  0.63904435337E+02  0.00000000000E+00 0.  1.
         11    1    1    2    0    0  0.44998419926E+02  0.22824122762E+02 -0.46376087946E+02  0.68531306049E+02  0.00000000000E+00 0. -1.
</event>
<event>
 7    1  0.6833760E-006  0.1320496E+03  0.7561462E-02  0.1224446E+00
         -2   -1    0    0    0  501 -0.00000000000E+00  0.00000000000E+00  0.15899436693E+03  0.15899436693E+03  0.00000000000E+00 0.  1.
          2   -1    0    0  501    0  0.00000000000E+00 -0.00000000000E+00 -0.16055332865E+03  0.16055332865E+03  0.00000000000E+00 0. -1.
         23    2    1    2    0    0 -0.92447206156E+02 -0.45034998738E+02  0.53551750437E+02  0.17055669914E+03  0.12508861103E+03 0.  0.
          5    1    3    3  502    0 -0.10669869928E+03  0.60849899464E+01  0.47338044206E+02  0.11696154223E+03  0.41800000000E+01 0.  1.
         -5    1    3    3    0  502  0.14251493126E+02 -0.51119988684E+02  0.62137062311E+01  0.53595156913E+02  0.41800000000E+01 0.  1.
        -11    1    1    2    0    0  0.56696427466E+02  0.35564932859E+02  0.16021371051E+02  0.68818846743E+02  0.00000000000E+00 0.  1.
         11    1    1    2    0    0  0.35750778689E+02  0.94700658785E+01 -0.71132083212E+02  0.80172149695E+02  0.00000000000E+00 0. -1.
</event>
<event>
 7    1  0.6833760E-006  0.1151297E+03  0.7561462E-02  0.1251355E+00
          1   -1    0    0  501    0  0.00000000000E+00  0.00000000000E+00  0.42185387945E+03  0.42185387945E+03  0.00000000000E+00 0. -1.
         -1   -1    0    0    0  501 -0.00000000000E+00 -0.00000000000E+00 -0.43185118193E+02  0.43185118193E+02  0.00000000000E+00 0.  1.
         23    2    1    2    0    0  0.54015411350E+02  0.56774659188E+02  0.18327902118E+03  0.23533290107E+03  0.12509735462E+03 0.  0.
          5    1    3    3  502    0 -0.18627041430E+02  0.83267879054E+00  0.12535132482E+03  0.12679939693E+03  0.41800000000E+01 0.  1.
         -5    1    3    3    0  502  0.72642452780E+02  0.55941980398E+02  0.57927696360E+02  0.10853350415E+03  0.41800000000E+01 0.  1.
        -11    1    1    2    0    0 -0.20155955221E+02 -0.77225734957E+02  0.11337561048E+03  0.13865102135E+03  0.00000000000E+00 0.  1.
         11    1    1    2    0    0 -0.33859456129E+02  0.20451075769E+02  0.82014129595E+02  0.91055075217E+02  0.00000000000E+00 0. -1.
</event>
<event>
 7    1  0.6833760E-006  0.9056255E+02  0.7561462E-02  0.1301495E+00
         -1   -1    0    0    0  501 -0.00000000000E+00  0.00000000000E+00  0.11737886942E+03  0.11737886942E+03  0.00000000000E+00 0.  1.
          1   -1    0    0  501    0  0.00000000000E+00 -0.00000000000E+00 -0.12804109300E+03  0.12804109300E+03  0.00000000000E+00 0. -1.
         23    2    1    2    0    0  0.11906344495E+02  0.33476526089E+02  0.22204550003E+02  0.13192140323E+03  0.12509106983E+03 0.  0.
          5    1    3    3  502    0 -0.52619985952E+02  0.26991248479E+02  0.30043937036E+02  0.66464283406E+02  0.41800000000E+01 0. -1.
         -5    1    3    3    0  502  0.64526330447E+02  0.64852776104E+01 -0.78393870328E+01  0.65457119824E+02  0.41800000000E+01 0. -1.
        -11    1    1    2    0    0 -0.22013455905E+02 -0.39403794478E+02  0.26933611382E+02  0.52561113784E+02  0.00000000000E+00 0.  1.
         11    1    1    2    0    0  0.10107111410E+02  0.59272683887E+01 -0.59800384958E+02  0.60937445407E+02  0.00000000000E+00 0. -1.
</event>
<event>
 7    1  0.6833760E-006  0.8581192E+02  0.7561462E-02  0.1313323E+00
         -2   -1    0    0    0  501 -0.00000000000E+00  0.00000000000E+00  0.10667809917E+03  0.10667809917E+03  0.00000000000E+00 0.  1.
          2   -1    0    0  501    0  0.00000000000E+00 -0.00000000000E+00 -0.14220031388E+03  0.14220031388E+03  0.00000000000E+00 0. -1.
         23    2    1    2    0    0 -0.19322215594E+02  0.13306730674E+01  0.35431185922E+02  0.13144554753E+03  0.12508974507E+03 0.  0.
          5    1    3    3  502    0 -0.61648530315E+02  0.53886618503E+01  0.56416832459E+02  0.83844560654E+02  0.41800000000E+01 0. -1.
         -5    1    3    3    0  502  0.42326314721E+02 -0.40579887828E+01 -0.20985646537E+02  0.47600986874E+02  0.41800000000E+01 0. -1.
        -11    1    1    2    0    0  0.30540130199E+00  0.30119631204E+02 -0.74646940286E+02  0.80495038033E+02  0.00000000000E+00 0. -1.
         11    1    1    2    0    0  0.19016814292E+02 -0.31450304272E+02  0.36935396542E+01  0.36937827491E+02  0.00000000000E+00 0.  1.
</event>
<event>
 7    1  0.6833760E-006  0.8592723E+02  0.7561462E-02  0.1313025E+00
          1   -1    0    0  501    0  0.00000000000E+00  0.00000000000E+00  0.59097550616E+03  0.59097550616E+03  0.00000000000E+00 0. -1.
         -1   -1    0    0    0  501 -0.00000000000E+00 -0.00000000000E+00 -0.23195469946E+02  0.23195469946E+02  0.00000000000E+00 0.  1.
         23    2    1    2    0    0 -0.39343222672E+02 -0.26005134913E+01  0.28311885890E+03  0.31202248980E+03  0.12508834492E+03 0.  0.
          5    1    3    3  502    0 -0.54661846013E+02 -0.13811476775E+02  0.28673175386E+03  0.29225202372E+03  0.41800000000E+01 0.  1.
         -5    1    3    3    0  502  0.15318623341E+02  0.11210963284E+02 -0.36128949571E+01  0.19770466074E+02  0.41800000000E+01 0.  1.
        -11    1    1    2    0    0  0.31761636979E+02 -0.40867262225E+02  0.10387797272E+03  0.11605846768E+03  0.00000000000E+00 0.  1.
         11    1    1    2    0    0  0.75815856925E+01  0.43467775717E+02  0.18078320460E+03  0.18609001862E+03  0.00000000000E+00 0. -1.
</event>
<event>
 7    1  0.6833760E-006  0.1449085E+03  0.7561462E-02  0.1206873E+00
         -2   -1    0    0    0  501 -0.00000000000E+00  0.00000000000E+00  0.84573816045E+02  0.84573816045E+02  0.00000000000E+00 0.  1.
          2   -1    0    0  501    0  0.00000000000E+00 -0.00000000000E+00 -0.48942299417E+03  0.48942299417E+03  0.00000000000E+00 0. -1.
         23    2    1    2    0    0 -0.24269061882E+02  0.12748548417E+03 -0.54502838598E+02  0.18830780548E+03  0.12509090354E+03 0.  0.
          5    1    3    3  502    0 -0.50727076573E+02  0.31641418947E+02  0.20877678298E+02  0.63464679482E+02  0.41800000000E+01 0.  1.
         -5    1    3    3    0  502  0.26458014691E+02  0.95844065227E+02 -0.75380516896E+02  0.12484312599E+03  0.41800000000E+01 0.  1.
        -11    1    1    2    0    0 -0.65940472378E+00 -0.20728656080E+02 -0.23962501825E+01  0.20877116956E+02  0.00000000000E+00 0.  1.
         11    1    1    2    0    0  0.24928466606E+02 -0.10675682809E+03 -0.34795008934E+03  0.36481188778E+03  0.00000000000E+00 0. -1.
</event>
<event>
 6    1  0.6833760E-006  0.1125088E+03  0.7561462E-02  0.1255993E+00
          1   -1    0    0  501    0  0.00000000000E+00  0.00000000000E+00  0.36243736181E+03  0.36243736181E+03  0.00000000000E+00 0. -1.
         -1   -1    0    0    0  501 -0.00000000000E+00 -0.00000000000E+00 -0.10337653017E+03  0.10337653017E+03  0.00000000000E+00 0.  1.
          5    1    1    2  502    0  0.50023203133E+02 -0.74214651606E+02  0.14005639326E+03  0.16626304779E+03  0.41800000000E+01 0. -1.
         -5    1    1    2    0  502 -0.10689224033E+02  0.31662604921E+02 -0.72841068205E+02  0.80250069646E+02  0.41800000000E+01 0.  1.
        -11    1    1    2    0    0  0.60142654326E+01 -0.22025849702E+02  0.20611717754E+02  0.30759589603E+02  0.00000000000E+00 0. -1.
         11    1    1    2    0    0 -0.45348244532E+02  0.64577896386E+02  0.17123378883E+03  0.18854118494E+03  0.00000000000E+00 0.  1.
</event>
<event>
 7    1  0.6833760E-006  0.1751395E+03  0.7561462E-02  0.1172592E+00
         -2   -1    0    0    0  501 -0.00000000000E+00  0.00000000000E+00  0.18079039105E+03  0.18079039105E+03  0.00000000000E+00 0.  1.
          2   -1    0    0  501    0  0.00000000000E+00 -0.00000000000E+00 -0.19025360619E+03  0.19025360619E+03  0.00000000000E+00 0. -1.
         23    2    1    2    0    0 -0.86309196382E+02  0.10895017195E+03  0.53327593503E+02  0.19444750121E+03  0.12508629482E+03 0.  0.
          5    1    3    3  502    0 -0.11136952872E+03  0.11467308677E+03  0.38493235346E+02  0.16447580468E+03  0.41800000000E+01 0. -1.
         -5    1    3    3    0  502  0.25060332342E+02 -0.57229148207E+01  0.14834358157E+02  0.29971696533E+02  0.41800000000E+01 0. -1.
        -11    1    1    2    0    0  0.19107792700E+02  0.14354999311E+02 -0.34589007682E+01  0.24148245105E+02  0.00000000000E+00 0.  1.
         11    1    1    2    0    0  0.67201403682E+02 -0.12330517126E+03 -0.59331907878E+02  0.15244825092E+03  0.00000000000E+00 0. -1.
</event>
<event>
 7    1  0.6833760E-006  0.1204752E+03  0.7561462E-02  0.1242315E+00
          1   -1    0    0  501    0  0.00000000000E+00  0.00000000000E+00  0.13017783375E+03  0.13017783375E+03  0.00000000000E+00 0. -1.
         -1   -1    0    0    0  501 -0.00000000000E+00 -0.00000000000E+00 -0.49597104512E+03  0.49597104512E+03  0.00000000000E+00 0.  1.
         23    2    1    2    0    0  0.19787495266E+02  0.75066166901E+02 -0.45484106329E+03  0.47734709467E+03  0.12228402001E+03 0.  0.
          5    1    3    3  502    0 -0.30003717374E+02  0.85089507098E+02 -0.23707894262E+03  0.25370129032E+03  0.41800000000E+01 0. -1.
         -5    1    3    3    0  502  0.49791212640E+02 -0.10023340197E+02 -0.21776212067E+03  0.22364580435E+03  0.41800000000E+01 0.  1.
        -11    1    1    2    0    0 -0.27280101432E+01 -0.81418129219E+02  0.98877546686E+02  0.12811371138E+03  0.00000000000E+00 0. -1.
         11    1    1    2    0    0 -0.17059485123E+02  0.63519623182E+01 -0.98296947546E+01  0.20688072818E+02  0.00000000000E+00 0.  1.
</event>
<event>
 7    1  0.6833760E-006  0.1089623E+03  0.7561462E-02  0.1262504E+00
          1   -1    0    0  501    0  0.00000000000E+00  0.00000000000E+00  0.32939689362E+03  0.32939689362E+03  0.00000000000E+00 0. -1.
         -1   -1    0    0    0  501 -0.00000000000E+00 -0.00000000000E+00 -0.40450498843E+02  0.40450498843E+02  0.00000000000E+00 0.  1.
         23    2    1    2    0    0 -0.19668438237E+02  0.37788948275E+02  0.96391685480E+02  0.15318704008E+03  0.11117580737E+03 0.  0.
          5    1    3    3  502    0  0.40299966691E+02 -0.10301497601E+02  0.38915288086E+02  0.57114623477E+02  0.41800000000E+01 0. -1.
         -5    1    3    3    0  502 -0.59968404928E+02  0.48090445877E+02  0.57476397394E+02  0.96072416602E+02  0.41800000000E+01 0.  1.
        -11    1    1    2    0    0 -0.22057265604E+02  0.18693474511E+02  0.62289281770E+02  0.68672582437E+02  0.00000000000E+00 0.  1.
         11    1    1    2    0    0  0.41725703841E+02 -0.56482422786E+02  0.13026542753E+03  0.14798776995E+03  0.00000000000E+00 0. -1.
</event>
<event>
 6    1  0.6833760E-006  0.1094448E+03  0.7561462E-02  0.1261601E+00
          2   -1    0    0  501    0  0.00000000000E+00  0.00000000000E+00  0.79855959727E+03  0.79855959727E+03  0.00000000000E+00 0. -1.
         -2   -1    0    0    0  501 -0.00000000000E+00 -0.00000000000E+00 -0.35706278296E+02  0.35706278296E+02  0.00000000000E+00 0.  1.
          5    1    1    2  502    0 -0.82479973821E+01 -0.83989290661E+02  0.21260802113E+03  0.22878346412E+03  0.41800000000E+01 0. -1.
         -5    1    1    2    0  502 -0.18622402863E+01 -0.52874686073E+01 -0.19646638194E+02  0.20853969778E+02  0.41800000000E+01 0.  1.
        -11    1    1    2    0    0 -0.77073781582E+01 -0.17513137913E+02  0.48985645523E+02  0.52589990919E+02  0.00000000000E+00 0.  1.
         11    1    1    2    0    0  0.17817615827E+02  0.10678989718E+03  0.52090629052E+03  0.53203845075E+03  0.00000000000E+00 0. -1.
</event>
<event>
 7    1  0.6833760E-006  0.1027740E+03  0.7561462E-02  0.1274568E+00
          3   -1    0    0  501    0  0.00000000000E+00  0.00000000000E+00  0.16173691244E+03  0.16173691244E+03  0.00000000000E+00 0. -1.
         -3   -1    0    0    0  501 -0.00000000000E+00 -0.00000000000E+00 -0.10975560130E+03  0.10975560130E+03  0.00000000000E+00 0.  1.
         23    2    1    2    0    0 -0.16030429844E+02 -0.70426383611E+02  0.13903135618E+02  0.14510729095E+03  0.12508388592E+03 0.  0.
          5    1    3    3  502    0 -0.14781761365E+02  0.43877672498E+01  0.56630866942E+02  0.58841145988E+02  0.41800000000E+01 0.  1.
         -5    1    3    3    0  502 -0.12486684785E+01 -0.74814150861E+02 -0.42727731324E+02  0.86266144959E+02  0.41800000000E+01 0.  1.
        -11    1    1    2    0    0  0.53225086406E+02  0.42797353076E+02  0.31656279549E+01  0.68370640289E+02  0.00000000000E+00 0.  1.
         11    1    1    2    0    0 -0.37194656562E+02  0.27629030535E+02  0.34912547569E+02  0.58014582502E+02  0.00000000000E+00 0. -1.
</event>
<event>
 7    1  0.6833760E-006  0.1116886E+03  0.7561462E-02  0.1257474E+00
          2   -1    0    0  501    0  0.00000000000E+00  0.00000000000E+00  0.67808486207E+02  0.67808486207E+02  0.00000000000E+00 0. -1.
         -2   -1    0    0    0  501 -0.00000000000E+00 -0.00000000000E+00 -0.19447117776E+03  0.19447117776E+03  0.00000000000E+00 0.  1.
         23    2    1    2    0    0 -0.15317278702E+01 -0.37817113742E+02 -0.89052849895E+02  0.15814711032E+03  0.12509043986E+03 0.  0.
          5    1    3    3  502    0  0.37213079393E+01 -0.83418324488E+02 -0.47893711917E+02  0.96352192681E+02  0.41800000000E+01 0. -1.
         -5    1    3    3    0  502 -0.52530358095E+01  0.45601210746E+02 -0.41159137978E+02  0.61794917638E+02  0.41800000000E+01 0. -1.
        -11    1    1    2    0    0  0.17143166689E+02 -0.24239172453E+02  0.42587865645E+00  0.29691867876E+02  0.00000000000E+00 0.  1.
         11    1    1    2    0    0 -0.15611438819E+02  0.62056286195E+02 -0.38035720312E+02  0.74440685771E+02  0.00000000000E+00 0. -1.
</event>
<event>
 7    1  0.6833760E-006  0.1533529E+03  0.7561462E-02  0.1196413E+00
          2   -1    0    0  501    0  0.00000000000E+00  0.00000000000E+00  0.70873157379E+02  0.70873157379E+02  0.00000000000E+00 0.  1.
         -2   -1    0    0    0  501 -0.00000000000E+00 -0.00000000000E+00 -0.34705688719E+03  0.34705688719E+03  0.00000000000E+00 0. -1.
         23    2    1    2    0    0 -0.71661784144E+02  0.88146452077E+02 -0.15528982051E+03  0.22950298163E+03  0.12510588277E+03 0.  0.
          5    1    3    3  502    0  0.25682521920E+02  0.55591672287E+02 -0.32653155465E+02  0.69525009325E+02  0.41800000000E+01 0.  1.
         -5    1    3    3    0  502 -0.97344306064E+02  0.32554779790E+02 -0.12263666504E+03  0.15997797231E+03  0.41800000000E+01 0.  1.
        -11    1    1    2    0    0  0.55402630532E+02 -0.10528555197E+03 -0.11133657403E+03  0.16294272503E+03  0.00000000000E+00 0. -1.
         11    1    1    2    0    0  0.16259153612E+02  0.17139099891E+02 -0.95573352741E+01  0.25484337911E+02  0.00000000000E+00 0.  1.
</event>
<event>
 7    1  0.6833760E-006  0.7665233E+02  0.7561462E-02  0.1338829E+00
          2   -1    0    0  501    0  0.00000000000E+00  0.00000000000E+00  0.27008358455E+03  0.27008358455E+03  0.00000000000E+00 0.  1.
         -2   -1    0    0    0  501 -0.00000000000E+00 -0.00000000000E+00 -0.48934848174E+02  0.48934848174E+02  0.00000000000E+00 0. -1.
         23    2    1    2    0    0 -0.45191828438E+02  0.16698037870E+02  0.10447051490E+03  0.16994948128E+03  0.12509041481E+03 0.  0.
          5    1    3    3  502    0 -0.29734016638E+02 -0.16726326122E+02 -0.20213264683E+02  0.39873928827E+02  0.41800000000E+01 0.  1.
         -5    1    3    3    0  502 -0.15457811800E+02  0.33424363992E+02  0.12468377958E+03  0.13007555245E+03  0.41800000000E+01 0.  1.
        -11    1    1    2    0    0  0.58634325519E+02 -0.27370170912E+02  0.11482885952E+03  0.13180583206E+03  0.00000000000E+00 0.  1.
         11    1    1    2    0    0 -0.13442497080E+02  0.10672133042E+02  0.18493619517E+01  0.17263119390E+02  0.00000000000E+00 0. -1.
</event>
<event>
 7    1  0.6833760E-006  0.8019193E+02  0.7561462E-02  0.1328508E+00
          2   -1    0    0  501    0  0.00000000000E+00  0.00000000000E+00  0.48749547593E+03  0.48749547593E+03  0.00000000000E+00 0. -1.
         -2   -1    0    0    0  501 -0.00000000000E+00 -0.00000000000E+00 -0.43223740098E+02  0.43223740098E+02  0.00000000000E+00 0.  1.
         23    2    1    2    0    0 -0.74918537670E+02 -0.27807749222E+02  0.14326029754E+03  0.20629491351E+03  0.12509204725E+03 0.  0.
          5    1    3    3  502    0 -0.20363429264E+02 -0.81457428049E+01  0.14637783674E+03  0.14807081369E+03  0.41800000000E+01 0. -1.
         -5    1    3    3    0  502 -0.54555108406E+02 -0.19662006417E+02 -0.31175392006E+01  0.58224099823E+02  0.41800000000E+01 0. -1.
        -11    1    1    2    0    0  0.49447456243E+02  0.17977060146E+02  0.29040733555E+03  0.29513496262E+03  0.00000000000E+00 0. -1.
         11    1    1    2    0    0  0.25471081427E+02  0.98306890751E+01  0.10604102748E+02  0.29289339901E+02  0.00000000000E+00 0.  1.
</event>
<event>
 7    1  0.6833760E-006  0.2340758E+03  0.7561462E-02  0.1123803E+00
          2   -1    0    0  501    0  0.00000000000E+00  0.00000000000E+00  0.68235396623E+03  0.68235396623E+03  0.00000000000E+00 0. -1.
         -2   -1    0    0    0  501 -0.00000000000E+00 -0.00000000000E+00 -0.11119074012E+03  0.11119074012E+03  0.00000000000E+00 0.  1.
         23    2    1    2    0    0  0.74602327615E+02 -0.22091628816E+03  0.15157064519E+03  0.30494387846E+03  0.12509034680E+03 0.  0.
          5    1    3    3  502    0 -0.78284920975E+00 -0.14394840953E+02 -0.20726977172E+02  0.25591097703E+02  0.41800000000E+01 0. -1.
         -5    1    3    3    0  502  0.75385176825E+02 -0.20652144721E+03  0.17229762237E+03  0.27935278076E+03  0.41800000000E+01 0. -1.
        -11    1    1    2    0    0 -0.58784300123E+02  0.18141061925E+03  0.25394454743E+03  0.31757399120E+03  0.00000000000E+00 0.  1.
         11    1    1    2    0    0 -0.15818027493E+02  0.39505668914E+02  0.16564803348E+03  0.17102683668E+03  0.00000000000E+00 0. -1.
</event>
<event>
 7    1  0.6833760E-006  0.1226061E+03  0.7561462E-02  0.1238859E+00
          2   -1    0    0  501    0  0.00000000000E+00  0.00000000000E+00  0.50169013951E+03  0.50169013951E+03  0.00000000000E+00 0. -1.
         -2   -1    0    0    0  501 -0.00000000000E+00 -0.00000000000E+00 -0.41726101688E+02  0.41726101688E+02  0.00000000000E+00 0.  1.
         23    2    1    2    0    0 -0.11382145215E+02  0.93351111085E+02  0.21952144985E+03  0.26959560588E+03  0.12509252812E+03 0.  0.
          5    1    3    3  502    0 -0.37512687368E+02 -0.39283663219E+01  0.13585600703E+02  0.40307253962E+02  0.41800000000E+01 0.  1.
         -5    1    3    3    0  502  0.26130542153E+02  0.97279477407E+02  0.20593584915E+03  0.22928835191E+03  0.41800000000E+01 0.  1.
        -11    1    1    2    0    0  0.31156172682E+02 -0.52145179477E+02  0.21072139037E+03  0.21930191790E+03  0.00000000000E+00 0.  1.
         11    1    1    2    0    0 -0.19774027467E+02 -0.41205931608E+02  0.29721197600E+02  0.54518717416E+02  0.00000000000E+00 0. -1.
</event>
<event>
 7    1  0.6833760E-006  0.8654615E+02  0.7561462E-02  0.1311438E+00
          1   -1    0    0  501    0  0.00000000000E+00  0.00000000000E+00  0.32921195921E+02  0.32921195921E+02  0.00000000000E+00 0. -1.
         -1   -1    0    0    0  501 -0.00000000000E+00 -0.00000000000E+00 -0.40079596235E+03  0.40079596235E+03  0.00000000000E+00 0.  1.
         23    2    1    2    0    0  0.78237340483E+01 -0.32749227678E+02 -0.25138449339E+03  0.28278859146E+03  0.12506598743E+03 0.  0.
          5    1    3    3  502    0  0.46106454068E+02 -0.55015670863E+01 -0.27798135660E+02  0.54279656349E+02  0.41800000000E+01 0.  1.
         -5    1    3    3    0  502 -0.38282720020E+02 -0.27247660592E+02 -0.22358635773E+03  0.22850893511E+03  0.41800000000E+01 0.  1.
        -11    1    1    2    0    0  0.68840531362E+01  0.53456020700E+02 -0.11312439797E+03  0.12530788384E+03  0.00000000000E+00 0.  1.
         11    1    1    2    0    0 -0.14707787184E+02 -0.20706793021E+02 -0.33658750660E+01  0.25620682974E+02  0.00000000000E+00 0. -1.
</event>
<event>
 7    1  0.6833760E-006  0.1418546E+03  0.7561462E-02  0.1210855E+00
          1   -1    0    0  501    0  0.00000000000E+00  0.00000000000E+00  0.26329879388E+03  0.26329879388E+03  0.00000000000E+00 0. -1.
         -1   -1    0    0    0  501 -0.00000000000E+00 -0.00000000000E+00 -0.80894640504E+02  0.80894640504E+02  0.00000000000E+00 0.  1.
         23    2    1    2    0    0 -0.13452668869E+02 -0.95500659188E+02  0.87740232526E+02  0.18068601536E+03  0.12509091709E+03 0.  0.
          5    1    3    3  502    0 -0.54599943827E+02 -0.10226019398E+03  0.66367805731E+02  0.13364302891E+03  0.41800000000E+01 0.  1.
         -5    1    3    3    0  502  0.41147274959E+02  0.67595347894E+01  0.21372426796E+02  0.47042986451E+02  0.41800000000E+01 0.  1.
        -11    1    1    2    0    0  0.45421399455E+02  0.75446871680E+02  0.89250154748E+02  0.12538310930E+03  0.00000000000E+00 0. -1.
         11    1    1    2    0    0 -0.31968730586E+02  0.20053787507E+02  0.54137661017E+01  0.38124309726E+02  0.00000000000E+00 0.  1.
</event>
<event>
 7    1  0.6833760E-006  0.7676966E+02  0.7561462E-02  0.1338477E+00
          2   -1    0    0  501    0  0.00000000000E+00  0.00000000000E+00  0.48489863574E+03  0.48489863574E+03  0.00000000000E+00 0.  1.
         -2   -1    0    0    0  501 -0.00000000000E+00 -0.00000000000E+00 -0.56261526448E+02  0.56261526448E+02  0.00000000000E+00 0. -1.
         23    2    1    2    0    0 -0.38704610303E+02 -0.16744976774E+02  0.36847118929E+02  0.13705377108E+03  0.12509030693E+03 0.  0.
          5    1    3    3  502    0 -0.30947269163E+02  0.16312378281E+02 -0.39778366603E+02  0.53137726743E+02  0.41800000000E+01 0.  1.
         -5    1    3    3    0  502 -0.77573411408E+01 -0.33057355055E+02  0.76625485532E+02  0.83916044341E+02  0.41800000000E+01 0.  1.
        -11    1    1    2    0    0  0.43047411889E+02  0.41004011832E+02  0.35422170671E+03  0.35917603785E+03  0.00000000000E+00 0.  1.
         11    1    1    2    0    0 -0.43428015860E+01 -0.24259035058E+02  0.37568283654E+02  0.44930353262E+02  0.00000000000E+00 0. -1.
</event>
<event>
 7    1  0.6833760E-006  0.2086989E+03  0.7561462E-02  0.1142600E+00
          2   -1    0    0  501    0  0.00000000000E+00  0.00000000000E+00  0.55120969251E+03  0.55120969251E+03  0.00000000000E+00 0. -1.
         -2   -1    0    0    0  501 -0.00000000000E+00 -0.00000000000E+00 -0.10318736488E+03  0.10318736488E+03  0.00000000000E+00 0.  1.
         23    2    1    2    0    0 -0.10507705208E+03  0.15981312704E+03  0.10374290790E+03  0.25097680988E+03  0.12508135635E+03 0.  0.
          5    1    3    3  502    0 -0.11962765012E+03  0.90373836273E+02  0.99073250980E+02  0.17975312630E+03  0.41800000000E+01 0.  1.
         -5    1    3    3    0  502  0.14550598038E+02  0.69439290769E+02  0.46696569225E+01  0.71223683572E+02  0.41800000000E+01 0.  1.
        -11    1    1    2    0    0  0.30561810883E+02 -0.16300355307E+02  0.13256651078E+03  0.13701680791E+03  0.00000000000E+00 0. -1.
         11    1    1    2    0    0  0.74515241200E+02 -0.14351277174E+03  0.21171290895E+03  0.26640343961E+03  0.00000000000E+00 0.  1.
</event>
<event>
 7    1  0.6833760E-006  0.2070190E+03  0.7561462E-02  0.1143949E+00
         -1   -1    0    0    0  501 -0.00000000000E+00  0.00000000000E+00  0.15122860318E+03  0.15122860318E+03  0.00000000000E+00 0.  1.
          1   -1    0    0  501    0  0.00000000000E+00 -0.00000000000E+00 -0.57441274863E+03  0.57441274863E+03  0.00000000000E+00 0. -1.
         23    2    1    2    0    0 -0.16645457101E+03  0.70426755694E+02  0.36781463406E+02  0.22286565760E+03  0.12509665526E+03 0.  0.
          5    1    3    3  502    0 -0.17010627897E+03  0.23995598244E+02  0.38386085830E+02  0.17607640065E+03  0.41800000000E+01 0.  1.
         -5    1    3    3    0  502  0.36517079531E+01  0.46431157450E+02 -0.16046224244E+01  0.46789256953E+02  0.41800000000E+01 0.  1.
        -11    1    1    2    0    0  0.80635794528E+01 -0.31246383422E+02 -0.35219273696E+02  0.47767719542E+02  0.00000000000E+00 0.  1.
         11    1    1    2    0    0  0.15839099156E+03 -0.39180372272E+02 -0.42474633516E+03  0.45500797466E+03  0.00000000000E+00 0. -1.
</event>
<event>
 7    1  0.6833760E-006  0.1454471E+03  0.7561462E-02  0.1206182E+00
          1   -1    0    0  501    0  0.00000000000E+00  0.00000000000E+00  0.19057675035E+03  0.19057675035E+03  0.00000000000E+00 0. -1.
         -1   -1    0    0    0  501 -0.00000000000E+00 -0.00000000000E+00 -0.14786172575E+03  0.14786172575E+03  0.00000000000E+00 0.  1.
         23    2    1    2    0    0  0.75638234419E+02  0.87299047589E+02 -0.32266387133E+02  0.17327898189E+03  0.12506885947E+03 0.  0.
          5    1    3    3  502    0  0.10848282616E+02 -0.30770445237E+02 -0.18744557599E+02  0.37859429147E+02  0.41800000000E+01 0.  1.
         -5    1    3    3    0  502  0.64789951803E+02  0.11806949283E+03 -0.13521829535E+02  0.13541955274E+03  0.41800000000E+01 0.  1.
        -11    1    1    2    0    0 -0.57753126776E+02 -0.33954291604E+02 -0.52123433511E+01  0.67197366719E+02  0.00000000000E+00 0.  1.
         11    1    1    2    0    0 -0.17885107643E+02 -0.53344755985E+02  0.80193755086E+02  0.97962127484E+02  0.00000000000E+00 0. -1.
</event>
<event>
 7    1  0.6833760E-006  0.1113811E+03  0.7561462E-02  0.1258034E+00
          1   -1    0    0  501    0  0.00000000000E+00  0.00000000000E+00  0.10823130373E+04  0.10823130373E+04  0.00000000000E+00 0. -1.
         -1   -1    0    0    0  501 -0.00000000000E+00 -0.00000000000E+00 -0.12186647172E+02  0.12186647172E+02  0.00000000000E+00 0.  1.
         23    2    1    2    0    0  0.18556390311E-01  0.38217939827E+02  0.56960740799E+03  0.58443167529E+03  0.12508865884E+03 0.  0.
          5    1    3    3  502    0  0.37478820170E+02 -0.29541785344E+02  0.30352017253E+03  0.30727731217E+03  0.41800000000E+01 0.  1.
         -5    1    3    3    0  502 -0.37460263780E+02  0.67759725172E+02  0.26608723546E+03  0.27715436312E+03  0.41800000000E+01 0.  1.
        -11    1    1    2    0    0  0.44471625660E+02 -0.24440116569E+02  0.29548856926E+03  0.29981417470E+03  0.00000000000E+00 0. -1.
         11    1    1    2    0    0 -0.44490182051E+02 -0.13777823259E+02  0.20503041287E+03  0.21025383448E+03  0.00000000000E+00 0.  1.
</event>
<event>
 7    1  0.6833760E-006  0.1528045E+03  0.7561462E-02  0.1197069E+00
         -2   -1    0    0    0  501 -0.00000000000E+00  0.00000000000E+00  0.20484797591E+03  0.20484797591E+03  0.00000000000E+00 0.  1.
          2   -1    0    0  501    0  0.00000000000E+00 -0.00000000000E+00 -0.12628412557E+03  0.12628412557E+03  0.00000000000E+00 0. -1.
         23    2    1    2    0    0 -0.10774899607E+03  0.63741131294E+02  0.25612830818E+02  0.17881487992E+03  0.12508383670E+03 0.  0.
          5    1    3    3  502    0 -0.89436033830E+02  0.10105943737E+03  0.22935577177E+02  0.13695008992E+03  0.41800000000E+01 0. -1.
         -5    1    3    3    0  502 -0.18312962244E+02 -0.37318306076E+02  0.26772536414E+01  0.41864789998E+02  0.41800000000E+01 0. -1.
        -11    1    1    2    0    0  0.30990470883E+02 -0.35256506344E+02  0.52523821581E+02  0.70442759448E+02  0.00000000000E+00 0.  1.
         11    1    1    2    0    0  0.76758525190E+02 -0.28484624950E+02  0.42719794562E+00  0.81874462111E+02  0.00000000000E+00 0. -1.
</event>
<event>
 7    1  0.6833760E-006  0.1138407E+03  0.7561462E-02  0.1253618E+00
          1   -1    0    0  501    0  0.00000000000E+00  0.00000000000E+00  0.16475979762E+02  0.16475979762E+02  0.00000000000E+00 0. -1.
         -1   -1    0    0    0  501 -0.00000000000E+00 -0.00000000000E+00 -0.93318382052E+03  0.93318382052E+03  0.00000000000E+00 0.  1.
         23    2    1    2    0    0 -0.36467641847E+02 -0.31618674883E+02 -0.62857823237E+03  0.64271962635E+03  0.12509314285E+03 0.  0.
          5    1    3    3  502    0 -0.33491830016E+02 -0.78652325952E+02 -0.44400079305E+03  0.45217481983E+03  0.41800000000E+01 0. -1.
         -5    1    3    3    0  502 -0.29758118309E+01  0.47033651070E+02 -0.18457743932E+03  0.19054480653E+03  0.41800000000E+01 0. -1.
        -11    1    1    2    0    0  0.53826116088E+02 -0.51981422068E+01 -0.22802748504E+03  0.23435188369E+03  0.00000000000E+00 0.  1.
         11    1    1    2    0    0 -0.17358474241E+02  0.36816817089E+02 -0.60102123342E+02  0.72588290232E+02  0.00000000000E+00 0. -1.
</event>
<event>
 7    1  0.6833760E-006  0.9116264E+02  0.7561462E-02  0.1300060E+00
         -2   -1    0    0    0  501 -0.00000000000E+00  0.00000000000E+00  0.23111677162E+03  0.23111677162E+03  0.00000000000E+00 0.  1.
          2   -1    0    0  501    0  0.00000000000E+00 -0.00000000000E+00 -0.64694849416E+02  0.64694849416E+02  0.00000000000E+00 0. -1.
         23    2    1    2    0    0 -0.26098176362E+02 -0.30062484920E+01  0.16195245941E+03  0.20631542751E+03  0.12508918491E+03 0.  0.
          5    1    3    3  502    0 -0.67287633320E+02 -0.30166290813E+02  0.12233567136E+03  0.14290248279E+03  0.41800000000E+01 0.  1.
         -5    1    3    3    0  502  0.41189456958E+02  0.27160042321E+02  0.39616788047E+02  0.63412944723E+02  0.41800000000E+01 0.  1.
        -11    1    1    2    0    0 -0.63026695777E+01  0.20975375170E+02  0.35134538643E+02  0.41402002524E+02  0.00000000000E+00 0.  1.
         11    1    1    2    0    0  0.32400845940E+02 -0.17969126678E+02 -0.30665075849E+02  0.48094191001E+02  0.00000000000E+00 0. -1.
</event>
<event>
 7    1  0.6833760E-006  0.1871799E+03  0.7561462E-02  0.1161030E+00
         -1   -1    0    0    0  501 -0.00000000000E+00  0.00000000000E+00  0.15712215271E+03  0.15712215271E+03  0.00000000000E+00 0.  1.
          1   -1    0    0  501    0  0.00000000000E+00 -0.00000000000E+00 -0.26046448355E+03  0.26046448355E+03  0.00000000000E+00 0. -1.
         23    2    1    2    0    0 -0.14478415432E+03  0.89695089685E+02 -0.51694744812E+02  0.21754814655E+03  0.12508872439E+03 0.  0.
          5    1    3    3  502    0 -0.72322675778E+02  0.96827176120E+02 -0.73393383228E+02  0.14145717574E+03  0.41800000000E+01 0. -1.
         -5    1    3    3    0  502 -0.72461478539E+02 -0.71320864357E+01  0.21698638417E+02  0.76090970805E+02  0.41800000000E+01 0. -1.
        -11    1    1    2    0    0  0.12378568893E+03 -0.46063109142E+02 -0.40508482103E+01  0.13214051680E+03  0.00000000000E+00 0.  1.
         11    1    1    2    0    0  0.20998465386E+02 -0.43631980542E+02 -0.47596737825E+02  0.67897972917E+02  0.00000000000E+00 0. -1.
</event>
<event>
 7    1  0.6833760E-006  0.1432398E+03  0.7561462E-02  0.1209035E+00
          2   -1    0    0  501    0  0.00000000000E+00  0.00000000000E+00  0.14580047717E+03  0.14580047717E+03  0.00000000000E+00 0. -1.
         -2   -1    0    0    0  501 -0.00000000000E+00 -0.00000000000E+00 -0.16530942834E+03  0.16530942834E+03  0.00000000000E+00 0.  1.
         23    2    1    2    0    0 -0.10023978264E+03 -0.16951086345E+01 -0.57429366196E+02  0.17028292201E+03  0.12508898437E+03 0.  0.
          5    1    3    3  502    0  0.24929510167E+02  0.19572532293E+02 -0.30953604153E+01  0.32118813080E+02  0.41800000000E+01 0.  1.
         -5    1    3    3    0  502 -0.12516929281E+03 -0.21267640928E+02 -0.54334005781E+02  0.13816410893E+03  0.41800000000E+01 0.  1.
        -11    1    1    2    0    0  0.95626602585E+02  0.28889582107E+02  0.81264082116E+01  0.10022521433E+03  0.00000000000E+00 0.  1.
         11    1    1    2    0    0  0.46131800551E+01 -0.27194473472E+02  0.29794006819E+02  0.40601769173E+02  0.00000000000E+00 0. -1.
</event>
<event>
 7    1  0.6833760E-006  0.7525121E+02  0.7561462E-02  0.1343095E+00
          2   -1    0    0  501    0  0.00000000000E+00  0.00000000000E+00  0.33647550718E+03  0.33647550718E+03  0.00000000000E+00 0. -1.
         -2   -1    0    0    0  501 -0.00000000000E+00 -0.00000000000E+00 -0.51174410781E+02  0.51174410781E+02  0.00000000000E+00 0.  1.
         23    2    1    2    0    0 -0.30490500199E+00 -0.15813545560E+02  0.52938135729E+02  0.13675135184E+03  0.12509326451E+03 0.  0.
          5    1    3    3  502    0 -0.15233333057E+02  0.16376277677E+02  0.85460505330E+02  0.88437589733E+02  0.41800000000E+01 0.  1.
         -5    1    3    3    0  502  0.14928428055E+02 -0.32189823237E+02 -0.32522369601E+02  0.48313762105E+02  0.41800000000E+01 0.  1.
        -11    1    1    2    0    0  0.61429874606E+01 -0.37696256509E+02  0.68592872804E+02  0.78509402299E+02  0.00000000000E+00 0.  1.
         11    1    1    2    0    0 -0.58380824586E+01  0.53509802069E+02  0.16377008787E+03  0.17238916383E+03  0.00000000000E+00 0. -1.
</event>
<event>
 7    1  0.6833760E-006  0.7398680E+02  0.7561462E-02  0.1347038E+00
          2   -1    0    0  501    0  0.00000000000E+00  0.00000000000E+00  0.96548566310E+03  0.96548566310E+03  0.00000000000E+00 0. -1.
         -2   -1    0    0    0  501 -0.00000000000E+00 -0.00000000000E+00 -0.14301376380E+02  0.14301376380E+02  0.00000000000E+00 0.  1.
         23    2    1    2    0    0  0.41997549135E+02  0.94409834289E+01  0.47128638126E+03  0.48949863482E+03  0.12508051020E+03 0.  0.
          5    1    3    3  502    0  0.40006923502E+02  0.25411213516E+01  0.35727062094E+02  0.53860064906E+02  0.41800000000E+01 0. -1.
         -5    1    3    3    0  502  0.19906256331E+01  0.68998620773E+01  0.43555931917E+03  0.43563856992E+03  0.41800000000E+01 0. -1.
        -11    1    1    2    0    0 -0.13607628175E+02 -0.48894787156E+02  0.28026568148E+03  0.28482401579E+03  0.00000000000E+00 0. -1.
         11    1    1    2    0    0 -0.28389920960E+02  0.39453803727E+02  0.19963222398E+03  0.20546438886E+03  0.00000000000E+00 0.  1.
</event>
<event>
 7    1  0.6833760E-006  0.8763041E+02  0.7561462E-02  0.1308694E+00
          4   -1    0    0  501    0  0.00000000000E+00  0.00000000000E+00  0.31970642645E+03  0.31970642645E+03  0.00000000000E+00 0. -1.
         -4   -1    0    0    0  501 -0.00000000000E+00 -0.00000000000E+00 -0.39203974308E+02  0.39203974308E+02  0.00000000000E+00 0.  1.
         23    2    1    2    0    0  0.11631362014E+02  0.40878135053E+02  0.11625301382E+03  0.17597797837E+03  0.12508866911E+03 0.  0.
          5    1    3    3  502    0 -0.19093289316E+02 -0.19147029371E+02 -0.12878381037E+02  0.30240494850E+02  0.41800000000E+01 0. -1.
         -5    1    3    3    0  502  0.30724651330E+02  0.60025164423E+02  0.12913139486E+03  0.14573748352E+03  0.41800000000E+01 0. -1.
        -11    1    1    2    0    0 -0.14539752932E+02  0.17010056614E+02  0.40156806974E+02  0.45970812345E+02  0.00000000000E+00 0.  1.
         11    1    1    2    0    0  0.29083909172E+01 -0.57888191667E+02  0.12409263134E+03  0.13696161004E+03  0.00000000000E+00 0. -1.
</event>
<event>
 7    1  0.6833760E-006  0.9755050E+02  0.7561462E-02  0.1285533E+00
         -2   -1    0    0    0  501 -0.00000000000E+00  0.00000000000E+00  0.13635518427E+03  0.13635518427E+03  0.00000000000E+00 0.  1.
          2   -1    0    0  501    0  0.00000000000E+00 -0.00000000000E+00 -0.92402260616E+02  0.92402260616E+02  0.00000000000E+00 0. -1.
         23    2    1    2    0    0 -0.12092950397E+02  0.28465905570E+02  0.37347290639E+02  0.13416091030E+03  0.12509109683E+03 0.  0.
          5    1    3    3  502    0 -0.66534958671E+00  0.65480866486E+02 -0.16533081910E+02  0.67668321711E+02  0.41800000000E+01 0.  1.
         -5    1    3    3    0  502 -0.11427600810E+02 -0.37014960915E+02  0.53880372549E+02  0.66492588593E+02  0.41800000000E+01 0.  1.
        -11    1    1    2    0    0  0.45519977938E+02  0.16178050436E+01 -0.10042837141E+02  0.46642730006E+02  0.00000000000E+00 0. -1.
         11    1    1    2    0    0 -0.33427027540E+02 -0.30083710614E+02  0.16648470151E+02  0.47953804571E+02  0.00000000000E+00 0.  1.
</event>
<event>
 7    1  0.6833760E-006  0.9195744E+02  0.7561462E-02  0.1298180E+00
          4   -1    0    0  501    0  0.00000000000E+00  0.00000000000E+00  0.21279696943E+02  0.21279696943E+02  0.00000000000E+00 0. -1.
         -4   -1    0    0    0  501 -0.00000000000E+00 -0.00000000000E+00 -0.90620405815E+03  0.90620405815E+03  0.00000000000E+00 0.  1.
         23    2    1    2    0    0 -0.43636597136E+02  0.30760119848E+02 -0.71475078413E+03  0.72757547993E+03  0.12508820090E+03 0.  0.
          5    1    3    3  502    0 -0.47027846352E+02  0.59843115489E+02 -0.23800959035E+03  0.24991769506E+03  0.41800000000E+01 0.  1.
         -5    1    3    3    0  502  0.33912492160E+01 -0.29082995641E+02 -0.47674119378E+03  0.47765778487E+03  0.41800000000E+01 0.  1.
        -11    1    1    2    0    0  0.51639693777E+01 -0.38520598354E+02 -0.15157245486E+03  0.15647591556E+03  0.00000000000E+00 0.  1.
         11    1    1    2    0    0  0.38472627759E+02  0.77604785058E+01 -0.18601122227E+02  0.43432359611E+02  0.00000000000E+00 0. -1.
</event>
<event>
 7    1  0.6833760E-006  0.2476031E+03  0.7561462E-02  0.1114829E+00
          2   -1    0    0  501    0  0.00000000000E+00  0.00000000000E+00  0.62843137044E+03  0.62843137044E+03  0.00000000000E+00 0.  1.
         -2   -1    0    0    0  501 -0.00000000000E+00 -0.00000000000E+00 -0.14375459208E+03  0.14375459208E+03  0.00000000000E+00 0. -1.
         23    2    1    2    0    0 -0.19923814531E+03 -0.13053894894E+03  0.59517020884E+02  0.27554709155E+03  0.12509063974E+03 0.  0.
          5    1    3    3  502    0 -0.11331889804E+02 -0.49317803946E+02  0.48942258324E+02  0.70522865529E+02  0.41800000000E+01 0. -1.
         -5    1    3    3    0  502 -0.18790625550E+03 -0.81221144990E+02  0.10574762559E+02  0.20502422602E+03  0.41800000000E+01 0. -1.
        -11    1    1    2    0    0  0.74370129786E+02  0.64394450075E+02  0.26702031698E+03  0.28456530197E+03  0.00000000000E+00 0.  1.
         11    1    1    2    0    0  0.12486801552E+03  0.66144498860E+02  0.15813944050E+03  0.21207356901E+03  0.00000000000E+00 0. -1.
</event>
<event>
 7    1  0.6833760E-006  0.1089562E+03  0.7561462E-02  0.1262515E+00
          4   -1    0    0  501    0  0.00000000000E+00  0.00000000000E+00  0.11937180842E+03  0.11937180842E+03  0.00000000000E+00 0.  1.
         -4   -1    0    0    0  501 -0.00000000000E+00 -0.00000000000E+00 -0.16078189489E+03  0.16078189489E+03  0.00000000000E+00 0. -1.
         23    2    1    2    0    0 -0.25236071529E+02  0.63782829595E+02 -0.94932708842E+02  0.17136170361E+03  0.12508999001E+03 0.  0.
          5    1    3    3  502    0 -0.66729781604E+02  0.27373103406E+02 -0.90531715833E+02  0.11582579382E+03  0.41800000000E+01 0.  1.
         -5    1    3    3    0  502  0.41493710075E+02  0.36409726189E+02 -0.44009930091E+01  0.55535909791E+02  0.41800000000E+01 0.  1.
        -11    1    1    2    0    0  0.39951704561E+02 -0.21153160331E+02  0.10383132809E+02  0.46383233352E+02  0.00000000000E+00 0. -1.
         11    1    1    2    0    0 -0.14715633032E+02 -0.42629669264E+02  0.43139489563E+02  0.62408766346E+02  0.00000000000E+00 0.  1.
</event>
<event>
 7    1  0.6833760E-006  0.7737771E+02  0.7561462E-02  0.1336662E+00
          2   -1    0    0  501    0  0.00000000000E+00  0.00000000000E+00  0.77556288425E+02  0.77556288425E+02  0.00000000000E+00 0. -1.
         -2   -1    0    0    0  501 -0.00000000000E+00 -0.00000000000E+00 -0.18513775363E+03  0.18513775363E+03  0.00000000000E+00 0.  1.
         23    2    1    2    0    0 -0.46145267645E+02 -0.10330668141E+01 -0.85847657769E+02  0.15858459442E+03  0.12509516494E+03 0.  0.
          5    1    3    3  502    0  0.12869870792E+02  0.18646022733E+02  0.23373864002E+02  0.32819470689E+02  0.41800000000E+01 0. -1.
         -5    1    3    3    0  502 -0.59015138437E+02 -0.19679089547E+02 -0.10922152177E+03  0.12576512373E+03  0.41800000000E+01 0. -1.
        -11    1    1    2    0    0 -0.11496615351E+02  0.22372274130E+01  0.26478486891E+02  0.28953197044E+02  0.00000000000E+00 0. -1.
         11    1    1    2    0    0  0.57641882996E+02 -0.12041605989E+01 -0.48212294328E+02  0.75156250588E+02  0.00000000000E+00 0.  1.
</event>
<event>
 6    1  0.6833760E-006  0.1191032E+03  0.7561462E-02  0.1244584E+00
         -4   -1    0    0    0  501 -0.00000000000E+00  0.00000000000E+00  0.82400068285E+03  0.82400068285E+03  0.00000000000E+00 0. -1.
          4   -1    0    0  501    0  0.00000000000E+00 -0.00000000000E+00 -0.98190235183E+02  0.98190235183E+02  0.00000000000E+00 0.  1.
          5    1    1    2  502    0  0.57484402177E+02  0.53667801421E+02  0.90897039379E+02  0.12026817356E+03  0.41800000000E+01 0.  1.
         -5    1    1    2    0  502  0.23078607765E+02  0.46224463384E+01  0.66261250116E+03  0.66304357944E+03  0.41800000000E+01 0. -1.
        -11    1    1    2    0    0 -0.86554645404E+02 -0.77033277555E+02 -0.27977727271E+02  0.11919977229E+03  0.00000000000E+00 0.  1.
         11    1    1    2    0    0  0.59916354611E+01  0.18743029796E+02  0.27863439993E+00  0.19679392738E+02  0.00000000000E+00 0. -1.
</event>
<event>
 7    1  0.6833760E-006  0.1157247E+03  0.7561462E-02  0.1250321E+00
          2   -1    0    0  501    0  0.00000000000E+00  0.00000000000E+00  0.73385876137E+03  0.73385876137E+03  0.00000000000E+00 0. -1.
         -2   -1    0    0    0  501 -0.00000000000E+00 -0.00000000000E+00 -0.29777417136E+02  0.29777417136E+02  0.00000000000E+00 0.  1.
         23    2    1    2    0    0 -0.57413309192E+02  0.70932211811E+02  0.28225154027E+03  0.32193425864E+03  0.12509223861E+03 0.  0.
          5    1    3    3  502    0 -0.19910208647E+02  0.65997943807E+02  0.27455416311E+03  0.28310705727E+03  0.41800000000E+01 0. -1.
         -5    1    3    3    0  502 -0.37503100545E+02  0.49342680038E+01  0.76973771538E+01  0.38827201371E+02  0.41800000000E+01 0. -1.
        -11    1    1    2    0    0  0.47867117228E+02  0.47008019370E+01  0.99986845126E+02  0.11095371850E+03  0.00000000000E+00 0.  1.
         11    1    1    2    0    0  0.95461919638E+01 -0.75633013748E+02  0.32184295884E+03  0.33074820137E+03  0.00000000000E+00 0. -1.
</event>
<event>
 7    1  0.6833760E-006  0.1207083E+03  0.7561462E-02  0.1241933E+00
         -1   -1    0    0    0  501 -0.00000000000E+00  0.00000000000E+00  0.47869069508E+02  0.47869069508E+02  0.00000000000E+00 0.  1.
          1   -1    0    0  501    0  0.00000000000E+00 -0.00000000000E+00 -0.44327253767E+03  0.44327253767E+03  0.00000000000E+00 0. -1.
         23    2    1    2    0    0  0.35923881161E+02 -0.73148081335E+02 -0.15798239682E+03  0.21736335768E+03  0.12508886647E+03 0.  0.
          5    1    3    3  502    0 -0.23980830637E+02 -0.28662102145E+02  0.51235517553E+01  0.37951541734E+02  0.41800000000E+01 0. -1.
         -5    1    3    3    0  502  0.59904711798E+02 -0.44485979190E+02 -0.16310594857E+03  0.17941181594E+03  0.41800000000E+01 0. -1.
        -11    1    1    2    0    0 -0.70681069189E+02  0.40874702496E+02 -0.10428530198E+03  0.13244613643E+03  0.00000000000E+00 0.  1.
         11    1    1    2    0    0  0.34757188028E+02  0.32273378839E+02 -0.13313576937E+03  0.14133211308E+03  0.00000000000E+00 0. -1.
</event>
<event>
 7    1  0.6833760E-006  0.1100391E+03  0.7561462E-02  0.1260498E+00
          2   -1    0    0  501    0  0.00000000000E+00  0.00000000000E+00  0.61567628236E+03  0.61567628236E+03  0.00000000000E+00 0.  1.
         -2   -1    0    0    0  501 -0.00000000000E+00 -0.00000000000E+00 -0.22431928880E+02  0.22431928880E+02  0.00000000000E+00 0. -1.
         23    2    1    2    0    0  0.38127003790E+02  0.17218787370E+02  0.24923598019E+03  0.28198712511E+03  0.12509200554E+03 0.  0.
          5    1    3    3  502    0  0.32550775396E+02 -0.51288523143E+02  0.91893166927E+02  0.11023562089E+03  0.41800000000E+01 0.  1.
         -5    1    3    3    0  502  0.55762283946E+01  0.68507310513E+02  0.15734281327E+03  0.17175150423E+03  0.41800000000E+01 0.  1.
        -11    1    1    2    0    0 -0.11888943463E+02 -0.48248547097E+02  0.15410027890E+03  0.16191406742E+03  0.00000000000E+00 0.  1.
         11    1    1    2    0    0 -0.26238060328E+02  0.31029759728E+02  0.18990809438E+03  0.19420701870E+03  0.00000000000E+00 0. -1.
</event>
<event>
 7    1  0.6833760E-006  0.1075533E+03  0.7561462E-02  0.1265169E+00
         -2   -1    0    0    0  501 -0.00000000000E+00  0.00000000000E+00  0.70761916804E+02  0.70761916804E+02  0.00000000000E+00 0. -1.
          2   -1    0    0  501    0  0.00000000000E+00 -0.00000000000E+00 -0.20801999651E+03  0.20801999651E+03  0.00000000000E+00 0.  1.
         23    2    1    2    0    0  0.16297283501E+02 -0.96221980477E+01 -0.18772186490E+02  0.12789708138E+03  0.12508829000E+03 0.  0.
          5    1    3    3  502    0 -0.50497374781E+02 -0.26777224452E+02 -0.11198075498E+02  0.58394125595E+02  0.41800000000E+01 0. -1.
         -5    1    3    3    0  502  0.66794658282E+02  0.17155026405E+02 -0.75741109919E+01  0.69502955788E+02  0.41800000000E+01 0. -1.
        -11    1    1    2    0    0 -0.24575330887E+02  0.45593867377E+02 -0.91562838446E+02  0.10519743825E+03  0.00000000000E+00 0. -1.
         11    1    1    2    0    0  0.82780473854E+01 -0.35971669330E+02 -0.26923054767E+02  0.45687393676E+02  0.00000000000E+00 0.  1.
</event>
<event>
 7    1  0.6833760E-006  0.1058427E+03  0.7561462E-02  0.1268468E+00
          2   -1    0    0  501    0  0.00000000000E+00  0.00000000000E+00  0.36648828609E+03  0.36648828609E+03  0.00000000000E+00 0. -1.
         -2   -1    0    0    0  501 -0.00000000000E+00 -0.00000000000E+00 -0.34526536826E+02  0.34526536826E+02  0.00000000000E+00 0.  1.
         23    2    1    2    0    0  0.31235380349E+02 -0.45430317540E+02  0.19490733866E+03  0.23806823825E+03  0.12509217667E+03 0.  0.
          5    1    3    3  502    0 -0.36125412760E+02 -0.57183059366E+02  0.87503470114E+02  0.11067645372E+03  0.41800000000E+01 0.  1.
         -5    1    3    3    0  502  0.67360793108E+02  0.11752741827E+02  0.10740386855E+03  0.12739178454E+03  0.41800000000E+01 0.  1.
        -11    1    1    2    0    0  0.13507139939E+02  0.19429466471E+02  0.89811025700E+02  0.92876085910E+02  0.00000000000E+00 0. -1.
         11    1    1    2    0    0 -0.44742520288E+02  0.26000851069E+02  0.47243384901E+02  0.70070498748E+02  0.00000000000E+00 0.  1.
</event>
<event>
 6    1  0.6833760E-006  0.7822240E+02  0.7561462E-02  0.1334173E+00
         -1   -1    0    0    0  501 -0.00000000000E+00  0.00000000000E+00  0.18622077972E+03  0.18622077972E+03  0.00000000000E+00 0.  1.
          1   -1    0    0  501    0  0.00000000000E+00 -0.00000000000E+00 -0.16295076380E+03  0.16295076380E+03  0.00000000000E+00 0. -1.
          5    1    1    2  502    0 -0.24337664308E+02 -0.53251414906E+02 -0.14262614900E+02  0.60406371164E+02  0.41800000000E+01 0. -1.
         -5    1    1    2    0  502  0.17403470414E+02  0.22193844466E+02  0.14318786031E+03  0.14599891525E+03  0.41800000000E+01 0.  1.
        -11    1    1    2    0    0  0.31176496678E+02  0.32388995373E+02 -0.12732435830E+02  0.46724039728E+02  0.00000000000E+00 0.  1.
         11    1    1    2    0    0 -0.24242302784E+02 -0.13314249333E+01 -0.92922793666E+02  0.96042217380E+02  0.00000000000E+00 0. -1.
</event>
<event>
 7    1  0.6833760E-006  0.1224115E+03  0.7561462E-02  0.1239171E+00
         -2   -1    0    0    0  501 -0.00000000000E+00  0.00000000000E+00  0.10545194781E+03  0.10545194781E+03  0.00000000000E+00 0.  1.
          2   -1    0    0  501    0  0.00000000000E+00 -0.00000000000E+00 -0.26667002952E+03  0.26667002952E+03  0.00000000000E+00 0. -1.
         23    2    1    2    0    0 -0.37014483136E+02 -0.82633443036E+02  0.14888694524E+02  0.15513412201E+03  0.12508622913E+03 0.  0.
          5    1    3    3  502    0 -0.63367214582E+02 -0.21683420932E+02 -0.31393883621E+02  0.74085241148E+02  0.41800000000E+01 0.  1.
         -5    1    3    3    0  502  0.26352731446E+02 -0.60950022105E+02  0.46282578146E+02  0.81048880862E+02  0.41800000000E+01 0.  1.
        -11    1    1    2    0    0  0.49318167817E+02  0.85358614061E+02 -0.10213550280E+03  0.14195082108E+03  0.00000000000E+00 0.  1.
         11    1    1    2    0    0 -0.12303684681E+02 -0.27251710249E+01 -0.73971273436E+02  0.75037034240E+02  0.00000000000E+00 0. -1.
</event>
<event>
 7    1  0.6833760E-006  0.1060373E+03  0.7561462E-02  0.1268089E+00
          2   -1    0    0  501    0  0.00000000000E+00  0.00000000000E+00  0.42336002891E+02  0.42336002891E+02  0.00000000000E+00 0. -1.
         -2   -1    0    0    0  501 -0.00000000000E+00 -0.00000000000E+00 -0.38434429681E+03  0.38434429681E+03  0.00000000000E+00 0.  1.
         23    2    1    2    0    0  0.14023877602E+02  0.24572975795E+02 -0.29216858105E+03  0.31907767351E+03  0.12509029417E+03 0.  0.
          5    1    3    3  502    0 -0.34075316534E+02  0.51147325149E+02 -0.86761003408E+02  0.10640545183E+03  0.41800000000E+01 0. -1.
         -5    1    3    3    0  502  0.48099194135E+02 -0.26574349354E+02 -0.20540757764E+03  0.21267222168E+03  0.41800000000E+01 0. -1.
        -11    1    1    2    0    0 -0.25970178119E+02 -0.56007162989E+02 -0.32516564853E+02  0.69775206538E+02  0.00000000000E+00 0. -1.
         11    1    1    2    0    0  0.11946300517E+02  0.31434187194E+02 -0.17323148015E+02  0.37827419655E+02  0.00000000000E+00 0.  1.
</event>
<event>
 7    1  0.6833760E-006  0.8923063E+02  0.7561462E-02  0.1304726E+00
          1   -1    0    0  501    0  0.00000000000E+00  0.00000000000E+00  0.29879626306E+02  0.29879626306E+02  0.00000000000E+00 0. -1.
         -1   -1    0    0    0  501 -0.00000000000E+00 -0.00000000000E+00 -0.70598999191E+03  0.70598999191E+03  0.00000000000E+00 0.  1.
         23    2    1    2    0    0 -0.76314048665E+02  0.43848188041E+02 -0.46634274220E+03  0.49078411069E+03  0.12508793900E+03 0.  0.
          5    1    3    3  502    0 -0.21473571605E+02  0.85796335668E+01 -0.39868726571E+01  0.23834679423E+02  0.41800000000E+01 0.  1.
         -5    1    3    3    0  502 -0.54840477060E+02  0.35268554474E+02 -0.46235586954E+03  0.46694943126E+03  0.41800000000E+01 0.  1.
        -11    1    1    2    0    0  0.44040644502E+02 -0.15555493668E+02 -0.20491683747E+02  0.51004517978E+02  0.00000000000E+00 0. -1.
         11    1    1    2    0    0  0.32273404163E+02 -0.28292694373E+02 -0.18927593966E+03  0.19408098955E+03  0.00000000000E+00 0.  1.
</event>
<event>
 7    1  0.6833760E-006  0.1062930E+03  0.7561462E-02  0.1267593E+00
          1   -1    0    0  501    0  0.00000000000E+00  0.00000000000E+00  0.57390846318E+03  0.57390846318E+03  0.00000000000E+00 0. -1.
         -1   -1    0    0    0  501 -0.00000000000E+00 -0.00000000000E+00 -0.81035613682E+02  0.81035613682E+02  0.00000000000E+00 0.  1.
         23    2    1    2    0    0 -0.81963645664E+02  0.32949755209E+02  0.63943818722E+00  0.14624144718E+03  0.11654366741E+03 0.  0.
          5    1    3    3  502    0 -0.83129734572E+02  0.27271034982E+02  0.46953001202E+02  0.99379670159E+02  0.41800000000E+01 0. -1.
         -5    1    3    3    0  502  0.11660889074E+01  0.56787202273E+01 -0.46313563015E+02  0.46861777025E+02  0.41800000000E+01 0.  1.
        -11    1    1    2    0    0  0.17390285162E+02 -0.48421400687E+02  0.11956208105E+03  0.13016199633E+03  0.00000000000E+00 0.  1.
         11    1    1    2    0    0  0.64573360502E+02  0.15471645477E+02  0.37267133026E+03  0.37854063336E+03  0.00000000000E+00 0. -1.
</event>
<event>
 7    1  0.6833760E-006  0.1316955E+03  0.7561462E-02  0.1224961E+00
          1   -1    0    0  501    0  0.00000000000E+00  0.00000000000E+00  0.31477964747E+03  0.31477964747E+03  0.00000000000E+00 0. -1.
         -1   -1    0    0    0  501 -0.00000000000E+00 -0.00000000000E+00 -0.82979636018E+02  0.82979636018E+02  0.00000000000E+00 0.  1.
         23    2    1    2    0    0  0.69770556422E+02  0.95731653976E+02  0.14033814838E+03  0.22220473110E+03  0.12509063320E+03 0.  0.
          5    1    3    3  502    0 -0.10506527395E+02  0.36268493618E+02  0.11201493181E+03  0.11828190097E+03  0.41800000000E+01 0.  1.
         -5    1    3    3    0  502  0.80277083818E+02  0.59463160358E+02  0.28323216572E+02  0.10392283013E+03  0.41800000000E+01 0.  1.
        -11    1    1    2    0    0 -0.62029483118E+02 -0.51830242745E+02  0.10160464314E+03  0.12983656783E+03  0.00000000000E+00 0.  1.
         11    1    1    2    0    0 -0.77410733042E+01 -0.43901411231E+02 -0.10142780074E+02  0.45717984553E+02  0.00000000000E+00 0. -1.
</event>
<event>
 7    1  0.6833760E-006  0.1052319E+03  0.7561462E-02  0.1269663E+00
         -2   -1    0    0    0  501 -0.00000000000E+00  0.00000000000E+00  0.98700877100E+02  0.98700877100E+02  0.00000000000E+00 0.  1.
          2   -1    0    0  501    0  0.00000000000E+00 -0.00000000000E+00 -0.30072652520E+03  0.30072652520E+03  0.00000000000E+00 0. -1.
         23    2    1    2    0    0 -0.10636537355E+02 -0.21002175124E+02  0.45374536707E+02  0.13512753328E+03  0.12508546831E+03 0.  0.
          5    1    3    3  502    0 -0.24029884122E+02 -0.70916266700E+02  0.32315119000E+02  0.81659607699E+02  0.41800000000E+01 0. -1.
         -5    1    3    3    0  502  0.13393346767E+02  0.49914091576E+02  0.13059417708E+02  0.53467925585E+02  0.41800000000E+01 0. -1.
        -11    1    1    2    0    0 -0.31384903981E+02  0.26712933991E+02 -0.18007919298E+03  0.18473523969E+03  0.00000000000E+00 0. -1.
         11    1    1    2    0    0  0.42021441335E+02 -0.57107588669E+01 -0.67320991829E+02  0.79564629325E+02  0.00000000000E+00 0.  1.
</event>
<event>
 6    1  0.6833760E-006  0.1949237E+03  0.7561462E-02  0.1154094E+00
          1   -1    0    0  501    0  0.00000000000E+00  0.00000000000E+00  0.15540763588E+03  0.15540763588E+03  0.00000000000E+00 0. -1.
         -1   -1    0    0    0  501 -0.00000000000E+00 -0.00000000000E+00 -0.31706141687E+03  0.31706141687E+03  0.00000000000E+00 0.  1.
          5    1    1    2  502    0  0.42705900698E+02 -0.26848222650E+02  0.12567759828E+02  0.52154021906E+02  0.41800000000E+01 0. -1.
         -5    1    1    2    0  502 -0.18586468787E+03  0.21529462790E+02 -0.16621307937E+03  0.25030673207E+03  0.41800000000E+01 0.  1.
        -11    1    1    2    0    0  0.91398042414E+02  0.27961462005E+02  0.31984389029E+02  0.10078911973E+03  0.00000000000E+00 0. -1.
         11    1    1    2    0    0  0.51760744763E+02 -0.22642702145E+02 -0.39992850474E+02  0.69219179047E+02  0.00000000000E+00 0.  1.
</event>
<event>
 6    1  0.6833760E-006  0.1023168E+03  0.7561462E-02  0.1275498E+00
          2   -1    0    0  501    0  0.00000000000E+00  0.00000000000E+00  0.25776849636E+03  0.25776849636E+03  0.00000000000E+00 0. -1.
         -2   -1    0    0    0  501 -0.00000000000E+00 -0.00000000000E+00 -0.67866533964E+02  0.67866533964E+02  0.00000000000E+00 0.  1.
          5    1    1    2  502    0 -0.18349493616E+02  0.76169319407E+02  0.98122088872E+02  0.12563393594E+03  0.41800000000E+01 0. -1.
         -5    1    1    2    0  502  0.41206070003E+02 -0.44011482550E+02 -0.67786463769E+01  0.60814252014E+02  0.41800000000E+01 0.  1.
        -11    1    1    2    0    0  0.10005599719E+02 -0.31305261802E+02 -0.24569097083E+01  0.32957060663E+02  0.00000000000E+00 0.  1.
         11    1    1    2    0    0 -0.32862176106E+02 -0.85257505584E+00  0.10101542961E+03  0.10622978171E+03  0.00000000000E+00 0. -1.
</event>
<event>
 7    1  0.6833760E-006  0.2059563E+03  0.7561462E-02  0.1144809E+00
         -1   -1    0    0    0  501 -0.00000000000E+00  0.00000000000E+00  0.46332299980E+02  0.46332299980E+02  0.00000000000E+00 0.  1.
          1   -1    0    0  501    0  0.00000000000E+00 -0.00000000000E+00 -0.94140672132E+03  0.94140672132E+03  0.00000000000E+00 0. -1.
         23    2    1    2    0    0  0.14351478706E+03 -0.10313378842E+03 -0.41252108570E+03  0.46589151210E+03  0.12509269555E+03 0.  0.
          5    1    3    3  502    0 -0.19756673111E+02  0.25268202096E+01 -0.24571227286E+02  0.31904992762E+02  0.41800000000E+01 0.  1.
         -5    1    3    3    0  502  0.16327146018E+03 -0.10566060863E+03 -0.38794985842E+03  0.43398651934E+03  0.41800000000E+01 0.  1.
        -11    1    1    2    0    0 -0.11805474313E+03  0.11852494690E+03 -0.43098281561E+03  0.46231079672E+03  0.00000000000E+00 0.  1.
         11    1    1    2    0    0 -0.25460043929E+02 -0.15391158480E+02 -0.51570520028E+02  0.59536712473E+02  0.00000000000E+00 0. -1.
</event>
<event>
 7    1  0.6833760E-006  0.1146620E+03  0.7561462E-02  0.1252172E+00
          2   -1    0    0  501    0  0.00000000000E+00  0.00000000000E+00  0.62504288903E+03  0.62504288903E+03  0.00000000000E+00 0. -1.
         -2   -1    0    0    0  501 -0.00000000000E+00 -0.00000000000E+00 -0.23198432919E+02  0.23198432919E+02  0.00000000000E+00 0.  1.
         23    2    1    2    0    0  0.32432129898E+02 -0.35308663388E+02  0.30212174102E+03  0.33049017206E+03  0.12509061783E+03 0.  0.
          5    1    3    3  502    0  0.16177319454E+02 -0.81498333440E+02  0.21381085659E+03  0.22942588959E+03  0.41800000000E+01 0.  1.
         -5    1    3    3    0  502  0.16254810444E+02  0.46189670052E+02  0.88310884433E+02  0.10106428247E+03  0.41800000000E+01 0.  1.
        -11    1    1    2    0    0  0.27241069501E+02  0.23884749355E+02  0.56995934696E+02  0.67535869664E+02  0.00000000000E+00 0. -1.
         11    1    1    2    0    0 -0.59673199399E+02  0.11423914033E+02  0.24272678039E+03  0.25021528022E+03  0.00000000000E+00 0.  1.
</event>
<event>
 7    1  0.6833760E-006  0.1328476E+03  0.7561462E-02  0.1223291E+00
          2   -1    0    0  501    0  0.00000000000E+00  0.00000000000E+00  0.25391566377E+03  0.25391566377E+03  0.00000000000E+00 0. -1.
         -2   -1    0    0    0  501 -0.00000000000E+00 -0.00000000000E+00 -0.78398337098E+02  0.78398337098E+02  0.00000000000E+00 0.  1.
         23    2    1    2    0    0 -0.82966848105E+02 -0.22240960988E+02  0.66101318286E+02  0.16551527835E+03  0.12509102629E+03 0.  0.
          5    1    3    3  502    0  0.12943760542E+02  0.29607210642E+02 -0.80911698740E+01  0.33571822841E+02  0.41800000000E+01 0. -1.
         -5    1    3    3    0  502 -0.95910608647E+02 -0.51848171630E+02  0.74192488160E+02  0.13194345551E+03  0.41800000000E+01 0. -1.
        -11    1    1    2    0    0 -0.18236571553E+01 -0.26259866513E+02  0.12299505718E+02  0.29054847369E+02  0.00000000000E+00 0.  1.
         11    1    1    2    0    0  0.84790505260E+02  0.48500827501E+02  0.97116502665E+02  0.13774387515E+03  0.00000000000E+00 0. -1.
</event>
<event>
 7    1  0.6833760E-006  0.1233277E+03  0.7561462E-02  0.1237706E+00
          3   -1    0    0  501    0  0.00000000000E+00  0.00000000000E+00  0.78724817170E+02  0.78724817170E+02  0.00000000000E+00 0. -1.
         -3   -1    0    0    0  501 -0.00000000000E+00 -0.00000000000E+00 -0.27535299568E+03  0.27535299568E+03  0.00000000000E+00 0.  1.
         23    2    1    2    0    0 -0.21212295077E+02 -0.75899635394E+02 -0.18628506294E+03  0.23782195471E+03  0.12508573601E+03 0.  0.
          5    1    3    3  502    0  0.41637637358E+02 -0.43062983059E+02 -0.14184730042E+03  0.15403325093E+03  0.41800000000E+01 0. -1.
         -5    1    3    3    0  502 -0.62849932435E+02 -0.32836652335E+02 -0.44437762515E+02  0.83788703779E+02  0.41800000000E+01 0. -1.
        -11    1    1    2    0    0  0.49915844919E+02  0.70477630110E+02 -0.46045260339E+01  0.86486354877E+02  0.00000000000E+00 0. -1.
         11    1    1    2    0    0 -0.28703549842E+02  0.54220052834E+01 -0.57385895407E+01  0.29769503267E+02  0.00000000000E+00 0.  1.
</event>
<event>
 7    1  0.6833760E-006  0.4720667E+02  0.7561462E-02  0.1461018E+00
          2   -1    0    0  501    0  0.00000000000E+00  0.00000000000E+00  0.13889451188E+03  0.13889451188E+03  0.00000000000E+00 0. -1.
         -2   -1    0    0    0  501 -0.00000000000E+00 -0.00000000000E+00 -0.94256333731E+02  0.94256333731E+02  0.00000000000E+00 0.  1.
         23    2    1    2    0    0  0.25988244297E+01  0.34699984851E+02  0.14295245773E+02  0.13062415642E+03  0.12508986111E+03 0.  0.
          5    1    3    3  502    0  0.43440117776E+00  0.27801999897E+02 -0.54498954471E+02  0.61324940612E+02  0.41800000000E+01 0.  1.
         -5    1    3    3    0  502  0.21644232520E+01  0.68979849540E+01  0.68794200244E+02  0.69299215809E+02  0.41800000000E+01 0.  1.
        -11    1    1    2    0    0  0.21902687147E+02 -0.16156393447E+02  0.56150596183E+02  0.62399088176E+02  0.00000000000E+00 0. -1.
         11    1    1    2    0    0 -0.24501511577E+02 -0.18543591404E+02 -0.25807663809E+02  0.40127601012E+02  0.00000000000E+00 0.  1.
</event>
<event>
 6    1  0.6833760E-006  0.1262896E+03  0.7561462E-02  0.1233067E+00
         -1   -1    0    0    0  501 -0.00000000000E+00  0.00000000000E+00  0.46291127568E+02  0.46291127568E+02  0.00000000000E+00 0.  1.
          1   -1    0    0  501    0  0.00000000000E+00 -0.00000000000E+00 -0.54874381637E+03  0.54874381637E+03  0.00000000000E+00 0. -1.
          5    1    1    2  502    0  0.78774978837E+01 -0.59359371459E+02 -0.23362829031E+03  0.24121616941E+03  0.41800000000E+01 0. -1.
         -5    1    1    2    0  502  0.46505193422E+02 -0.39321260660E+02 -0.17251676306E+02  0.63434905930E+02  0.41800000000E+01 0.  1.
        -11    1    1    2    0    0 -0.70644642470E+02  0.78988568999E+02 -0.13810257496E+03  0.17407521579E+03  0.00000000000E+00 0. -1.
         11    1    1    2    0    0  0.16261951164E+02  0.19692063119E+02 -0.11347014723E+03  0.11630865280E+03  0.00000000000E+00 0.  1.
</event>
<event>
 7    1  0.6833760E-006  0.2382696E+03  0.7561462E-02  0.1120951E+00
          1   -1    0    0  501    0  0.00000000000E+00  0.00000000000E+00  0.97227993794E+02  0.97227993794E+02  0.00000000000E+00 0. -1.
         -1   -1    0    0    0  501 -0.00000000000E+00 -0.00000000000E+00 -0.67525869474E+03  0.67525869474E+03  0.00000000000E+00 0.  1.
         23    2    1    2    0    0 -0.10306148990E+03 -0.19052138382E+03 -0.42028480140E+03  0.48908795475E+03  0.12509054639E+03 0.  0.
          5    1    3    3  502    0 -0.10581852610E+03 -0.65126261189E+02 -0.22145390002E+03  0.25396514052E+03  0.41800000000E+01 0.  1.
         -5    1    3    3    0  502  0.27570361966E+01 -0.12539512263E+03 -0.19883090138E+03  0.23512281423E+03  0.41800000000E+01 0.  1.
        -11    1    1    2    0    0  0.29182099711E+02  0.12372932412E+03 -0.49812748088E+02  0.13653516200E+03  0.00000000000E+00 0. -1.
         11    1    1    2    0    0  0.73879390193E+02  0.66792059704E+02 -0.10793315146E+03  0.14686357179E+03  0.00000000000E+00 0.  1.
</event>
<event>
 7    1  0.6833760E-006  0.1506074E+03  0.7561462E-02  0.1199729E+00
          1   -1    0    0  501    0  0.00000000000E+00  0.00000000000E+00  0.33528485736E+03  0.33528485736E+03  0.00000000000E+00 0. -1.
         -1   -1    0    0    0  501 -0.00000000000E+00 -0.00000000000E+00 -0.95787513396E+02  0.95787513396E+02  0.00000000000E+00 0.  1.
         23    2    1    2    0    0  0.90515519247E+02 -0.88278026485E+02  0.44048254110E+02  0.18323058004E+03  0.12508847903E+03 0.  0.
          5    1    3    3  502    0  0.11431160308E+03 -0.85238642311E+02  0.59309911454E+02  0.15449241644E+03  0.41800000000E+01 0.  1.
         -5    1    3    3    0  502 -0.23796083833E+02 -0.30393841736E+01 -0.15261657344E+02  0.28738163595E+02  0.41800000000E+01 0.  1.
        -11    1    1    2    0    0 -0.45497084583E+02  0.74206047314E+02  0.17690728073E+03  0.19716162948E+03  0.00000000000E+00 0. -1.
         11    1    1    2    0    0 -0.45018434665E+02  0.14071979171E+02  0.18541809122E+02  0.50680161236E+02  0.00000000000E+00 0.  1.
</event>
<event>
 7    1  0.6833760E-006  0.1511335E+03  0.7561462E-02  0.1199087E+00
          1   -1    0    0  501    0  0.00000000000E+00  0.00000000000E+00  0.96347896185E+02  0.96347896185E+02  0.00000000000E+00 0. -1.
         -1   -1    0    0    0  501 -0.00000000000E+00 -0.00000000000E+00 -0.27588405018E+03  0.27588405018E+03  0.00000000000E+00 0.  1.
         23    2    1    2    0    0 -0.12398746747E+03  0.36574317416E+01 -0.80025407263E+02  0.19348828859E+03  0.12508950043E+03 0.  0.
          5    1    3    3  502    0 -0.12381350819E+02  0.52441712184E+02 -0.19928334405E+02  0.57602447318E+02  0.41800000000E+01 0.  1.
         -5    1    3    3    0  502 -0.11160611665E+03 -0.48784280442E+02 -0.60097072859E+02  0.13588584128E+03  0.41800000000E+01 0.  1.
        -11    1    1    2    0    0  0.84876141463E+02  0.87237408246E+01 -0.17579423042E+02  0.87115435820E+02  0.00000000000E+00 0. -1.
         11    1    1    2    0    0  0.39111326011E+02 -0.12381172566E+02 -0.81931323685E+02  0.91628221947E+02  0.00000000000E+00 0.  1.
</event>
<event>
 6    1  0.6833760E-006  0.1436805E+03  0.7561462E-02  0.1208461E+00
          2   -1    0    0  501    0  0.00000000000E+00  0.00000000000E+00  0.58844005521E+03  0.58844005521E+03  0.00000000000E+00 0. -1.
         -2   -1    0    0    0  501 -0.00000000000E+00 -0.00000000000E+00 -0.61487508051E+02  0.61487508051E+02  0.00000000000E+00 0.  1.
          5    1    1    2  502    0 -0.30971250568E+02  0.11615861439E+03  0.12365226718E+03  0.17250912334E+03  0.41800000000E+01 0. -1.
         -5    1    1    2    0  502  0.20977457599E+02 -0.59615113695E+02  0.33690797100E+01  0.63425851246E+02  0.41800000000E+01 0.  1.
        -11    1    1    2    0    0  0.34333815275E+02  0.75688439265E+01  0.91327706634E+02  0.97861372710E+02  0.00000000000E+00 0.  1.
         11    1    1    2    0    0 -0.24340022306E+02 -0.64112344623E+02  0.30860349364E+03  0.31613121596E+03  0.00000000000E+00 0. -1.
</event>
<event>
 7    1  0.6833760E-006  0.1427729E+03  0.7561462E-02  0.1209646E+00
          2   -1    0    0  501    0  0.00000000000E+00  0.00000000000E+00  0.41699026366E+02  0.41699026366E+02  0.00000000000E+00 0. -1.
         -2   -1    0    0    0  501 -0.00000000000E+00 -0.00000000000E+00 -0.61819323533E+03  0.61819323533E+03  0.00000000000E+00 0.  1.
         23    2    1    2    0    0  0.96199325084E+02 -0.35593813941E+02 -0.42631365943E+03  0.45597149514E+03  0.12508172698E+03 0.  0.
          5    1    3    3  502    0  0.10013045074E+03 -0.69570697112E+02 -0.37342189409E+03  0.39284548164E+03  0.41800000000E+01 0.  1.
         -5    1    3    3    0  502 -0.39311256524E+01  0.33976883172E+02 -0.52891765344E+02  0.63126013498E+02  0.41800000000E+01 0.  1.
        -11    1    1    2    0    0  0.10825876575E+02 -0.80669397792E+01 -0.47265510456E+02  0.49155911137E+02  0.00000000000E+00 0.  1.
         11    1    1    2    0    0 -0.10702520166E+03  0.43660753720E+02 -0.10291503908E+03  0.15476485542E+03  0.00000000000E+00 0. -1.
</event>
<event>
 7    1  0.6833760E-006  0.1106821E+03  0.7561462E-02  0.1259312E+00
         -1   -1    0    0    0  501 -0.00000000000E+00  0.00000000000E+00  0.38473114840E+02  0.38473114840E+02  0.00000000000E+00 0.  1.
          1   -1    0    0  501    0  0.00000000000E+00 -0.00000000000E+00 -0.34811691146E+03  0.34811691146E+03  0.00000000000E+00 0. -1.
         23    2    1    2    0    0 -0.22019468258E+02  0.29332788222E+02 -0.14651054983E+03  0.19610876230E+03  0.12509211004E+03 0.  0.
          5    1    3    3  502    0 -0.10119821722E+02 -0.47268174036E+02 -0.33339649924E+02  0.58870159890E+02  0.41800000000E+01 0.  1.
         -5    1    3    3    0  502 -0.11899646536E+02  0.76600962259E+02 -0.11317089991E+03  0.13723860241E+03  0.41800000000E+01 0.  1.
        -11    1    1    2    0    0 -0.26365288289E+02  0.14357165442E+02 -0.31071139926E+02  0.43205003905E+02  0.00000000000E+00 0.  1.
         11    1    1    2    0    0  0.48384756547E+02 -0.43689953665E+02 -0.13206210686E+03  0.14727626009E+03  0.00000000000E+00 0. -1.
</event>
<event>
 7    1  0.6833760E-006  0.1167690E+03  0.7561462E-02  0.1248524E+00
          1   -1    0    0  501    0  0.00000000000E+00  0.00000000000E+00  0.82000490164E+03  0.82000490164E+03  0.00000000000E+00 0. -1.
         -1   -1    0    0    0  501 -0.00000000000E+00 -0.00000000000E+00 -0.18290879387E+02  0.18290879387E+02  0.00000000000E+00 0.  1.
         23    2    1    2    0    0  0.34291182964E+01  0.54630798802E+02  0.39793464438E+03  0.42070973476E+03  0.12509363171E+03 0.  0.
          5    1    3    3  502    0  0.52812064491E+02 -0.47917631832E+01  0.22584358237E+03  0.23202342823E+03  0.41800000000E+01 0. -1.
         -5    1    3    3    0  502 -0.49382946195E+02  0.59422561986E+02  0.17209106201E+03  0.18868630653E+03  0.41800000000E+01 0. -1.
        -11    1    1    2    0    0  0.55275249739E+01  0.23593409077E+02  0.56220611691E+02  0.61220582022E+02  0.00000000000E+00 0.  1.
         11    1    1    2    0    0 -0.89566432703E+01 -0.78224207879E+02  0.34755876618E+03  0.35636546425E+03  0.00000000000E+00 0. -1.
</event>
<event>
 7    1  0.6833760E-006  0.1202065E+03  0.7561462E-02  0.1242757E+00
          2   -1    0    0  501    0  0.00000000000E+00  0.00000000000E+00  0.12903334709E+03  0.12903334709E+03  0.00000000000E+00 0. -1.
         -2   -1    0    0    0  501 -0.00000000000E+00 -0.00000000000E+00 -0.12506358347E+03  0.12506358347E+03  0.00000000000E+00 0.  1.
         23    2    1    2    0    0  0.58468769865E+02  0.14880216294E+02 -0.19568702809E+02  0.14025515952E+03  0.12509419553E+03 0.  0.
          5    1    3    3  502    0  0.89628544794E+02  0.30385599022E+02  0.88282985261E+01  0.95141851594E+02  0.41800000000E+01 0.  1.
         -5    1    3    3    0  502 -0.31159774929E+02 -0.15505382728E+02 -0.28397001335E+02  0.45113307926E+02  0.41800000000E+01 0.  1.
        -11    1    1    2    0    0  0.23747407567E+02 -0.15590711118E+02  0.11912999108E+02  0.30804694238E+02  0.00000000000E+00 0.  1.
         11    1    1    2    0    0 -0.82216177432E+02  0.71049482448E+00  0.11625467324E+02  0.83037076809E+02  0.00000000000E+00 0. -1.
</event>
<event>
 7    1  0.6833760E-006  0.1172207E+03  0.7561462E-02  0.1247754E+00
         -2   -1    0    0    0  501 -0.00000000000E+00  0.00000000000E+00  0.10860780116E+03  0.10860780116E+03  0.00000000000E+00 0.  1.
          2   -1    0    0  501    0  0.00000000000E+00 -0.00000000000E+00 -0.21513921509E+03  0.21513921509E+03  0.00000000000E+00 0. -1.
         23    2    1    2    0    0  0.10008023851E+03  0.38448108298E+02 -0.62486355720E+02  0.17620023123E+03  0.12509062979E+03 0.  0.
          5    1    3    3  502    0 -0.63582614958E+01 -0.26803991783E+01 -0.61483956689E+02  0.62010977731E+02  0.41800000000E+01 0.  1.
         -5    1    3    3    0  502  0.10643850000E+03  0.41128507476E+02 -0.10023990308E+01  0.11418925350E+03  0.41800000000E+01 0.  1.
        -11    1    1    2    0    0 -0.18432961204E+02 -0.22348776265E+02 -0.56409854134E+02  0.63413827378E+02  0.00000000000E+00 0.  1.
         11    1    1    2    0    0 -0.81647277304E+02 -0.16099332033E+02  0.12364795920E+02  0.84132957639E+02  0.00000000000E+00 0. -1.
</event>
<event>
 7    1  0.6833760E-006  0.1132632E+03  0.7561462E-02  0.1254644E+00
         -1   -1    0    0    0  501 -0.00000000000E+00  0.00000000000E+00  0.22705992534E+03  0.22705992534E+03  0.00000000000E+00 0.  1.
          1   -1    0    0  501    0  0.00000000000E+00 -0.00000000000E+00 -0.75943794626E+02  0.75943794626E+02  0.00000000000E+00 0. -1.
         23    2    1    2    0    0 -0.41846097530E+02  0.19368850369E+02  0.14811719336E+03  0.19927892912E+03  0.12508853016E+03 0.  0.
          5    1    3    3  502    0  0.43273912548E+02 -0.60267482740E+01  0.57248655372E+02  0.72137605615E+02  0.41800000000E+01 0. -1.
         -5    1    3    3    0  502 -0.85120010077E+02  0.25395598643E+02  0.90868537987E+02  0.12714132350E+03  0.41800000000E+01 0. -1.
        -11    1    1    2    0    0  0.14540642747E+02 -0.50352954773E+02  0.23709487648E+02  0.57523822460E+02  0.00000000000E+00 0.  1.
         11    1    1    2    0    0  0.27305454783E+02  0.30984104405E+02 -0.20710550294E+02  0.46200968389E+02  0.00000000000E+00 0. -1.
</event>
<event>
 7    1  0.6833760E-006  0.1096597E+03  0.7561462E-02  0.1261201E+00
         -1   -1    0    0    0  501 -0.00000000000E+00  0.00000000000E+00  0.12408709131E+03  0.12408709131E+03  0.00000000000E+00 0.  1.
          1   -1    0    0  501    0  0.00000000000E+00 -0.00000000000E+00 -0.19090522614E+03  0.19090522614E+03  0.00000000000E+00 0. -1.
         23    2    1    2    0    0  0.51674225032E+02  0.63167838431E+02  0.37975726713E+02  0.15411522597E+03  0.12509574617E+03 0.  0.
          5    1    3    3  502    0  0.37088834024E+02  0.35594866593E+01 -0.39983631204E+02  0.54812541619E+02  0.41800000000E+01 0. -1.
         -5    1    3    3    0  502  0.14585391008E+02  0.59608351772E+02  0.77959357916E+02  0.99302684347E+02  0.41800000000E+01 0. -1.
        -11    1    1    2    0    0 -0.86323213474E+01 -0.75145661527E+02 -0.78614319259E+02  0.10909444812E+03  0.00000000000E+00 0.  1.
         11    1    1    2    0    0 -0.43041903685E+02  0.11977823096E+02 -0.26179542284E+02  0.51782643358E+02  0.00000000000E+00 0. -1.
</event>
<event>
 7    1  0.6833760E-006  0.1682144E+03  0.7561462E-02  0.1179723E+00
          2   -1    0    0  501    0  0.00000000000E+00  0.00000000000E+00  0.86577979179E+03  0.86577979179E+03  0.00000000000E+00 0. -1.
         -2   -1    0    0    0  501 -0.00000000000E+00 -0.00000000000E+00 -0.40691694457E+02  0.40691694457E+02  0.00000000000E+00 0.  1.
         23    2    1    2    0    0  0.11138136111E+03 -0.96571013203E+02  0.33694385485E+03  0.38847137202E+03  0.12508827828E+03 0.  0.
          5    1    3    3  502    0  0.12506327842E+03 -0.11188385437E+03  0.32063954670E+03  0.36191989692E+03  0.41800000000E+01 0.  1.
         -5    1    3    3    0  502 -0.13681917310E+02  0.15312841167E+02  0.16304308155E+02  0.26551475106E+02  0.41800000000E+01 0.  1.
        -11    1    1    2    0    0 -0.50872230744E+02  0.49160264102E+02  0.37236373402E+03  0.37902436048E+03  0.00000000000E+00 0. -1.
         11    1    1    2    0    0 -0.60509130369E+02  0.47410749100E+02  0.11578050846E+03  0.13897575374E+03  0.00000000000E+00 0.  1.
</event>
<event>
 7    1  0.6833760E-006  0.1109733E+03  0.7561462E-02  0.1258778E+00
         -2   -1    0    0    0  501 -0.00000000000E+00  0.00000000000E+00  0.20276063554E+03  0.20276063554E+03  0.00000000000E+00 0. -1.
          2   -1    0    0  501    0  0.00000000000E+00 -0.00000000000E+00 -0.11962525096E+03  0.11962525096E+03  0.00000000000E+00 0.  1.
         23    2    1    2    0    0  0.81872297105E+02  0.65684252521E+02  0.82738313888E+02  0.18305648643E+03  0.12508618859E+03 0.  0.
          5    1    3    3  502    0  0.72925480567E+02  0.59482982793E+02 -0.52038557099E+01  0.94344599592E+02  0.41800000000E+01 0. -1.
         -5    1    3    3    0  502  0.89468165384E+01  0.62012697286E+01  0.87942169598E+02  0.88711886836E+02  0.41800000000E+01 0. -1.
        -11    1    1    2    0    0 -0.55657476875E+02 -0.70091922859E+02  0.34646713344E+02  0.95974096129E+02  0.00000000000E+00 0. -1.
         11    1    1    2    0    0 -0.26214820230E+02  0.44076703380E+01 -0.34249642652E+02  0.43355303935E+02  0.00000000000E+00 0.  1.
</event>
<event>
 7    1  0.6833760E-006  0.8617810E+02  0.7561462E-02  0.1312380E+00
         -1   -1    0    0    0  501 -0.00000000000E+00  0.00000000000E+00  0.25315081368E+03  0.25315081368E+03  0.00000000000E+00 0.  1.
          1   -1    0    0  501    0  0.00000000000E+00 -0.00000000000E+00 -0.81768642006E+02  0.81768642006E+02  0.00000000000E+00 0. -1.
         23    2    1    2    0    0 -0.82487412373E+02  0.13963222064E+01  0.13186093116E+03  0.19961961017E+03  0.12511818686E+03 0.  0.
          5    1    3    3  502    0 -0.80933725928E+02  0.76299181709E+01  0.15509268087E+03  0.17515620373E+03  0.41800000000E+01 0. -1.
         -5    1    3    3    0  502 -0.15536864450E+01 -0.62335959645E+01 -0.23231749714E+02  0.24463406447E+02  0.41800000000E+01 0. -1.
        -11    1    1    2    0    0  0.42048176270E+02 -0.64426027969E+01  0.71703308430E+02  0.83372181801E+02  0.00000000000E+00 0.  1.
         11    1    1    2    0    0  0.40439236103E+02  0.50462805905E+01 -0.32182067907E+02  0.51927663718E+02  0.00000000000E+00 0. -1.
</event>
<event>
 7    1  0.6833760E-006  0.1641555E+03  0.7561462E-02  0.1184083E+00
          1   -1    0    0  501    0  0.00000000000E+00  0.00000000000E+00  0.81043871246E+03  0.81043871246E+03  0.00000000000E+00 0. -1.
         -1   -1    0    0    0  501 -0.00000000000E+00 -0.00000000000E+00 -0.43200806242E+02  0.43200806242E+02  0.00000000000E+00 0.  1.
         23    2    1    2    0    0 -0.68988341409E+02 -0.11214812803E+03  0.23022730903E+03  0.29324075944E+03  0.12509570457E+03 0.  0.
          5    1    3    3  502    0  0.31514818664E+02 -0.30064902489E+02  0.10094292898E+03  0.11001831424E+03  0.41800000000E+01 0.  1.
         -5    1    3    3    0  502 -0.10050316007E+03 -0.82083225546E+02  0.12928438005E+03  0.18322244520E+03  0.41800000000E+01 0.  1.
        -11    1    1    2    0    0  0.82580241445E+02  0.63381807783E+02  0.42356827623E+03  0.43617294101E+03  0.00000000000E+00 0.  1.
         11    1    1    2    0    0 -0.13591900036E+02  0.48766320251E+02  0.11344232095E+03  0.12422581825E+03  0.00000000000E+00 0. -1.
</event>
<event>
 7    1  0.6833760E-006  0.1152985E+03  0.7561462E-02  0.1251061E+00
         -2   -1    0    0    0  501 -0.00000000000E+00  0.00000000000E+00  0.54353724071E+03  0.54353724071E+03  0.00000000000E+00 0.  1.
          2   -1    0    0  501    0  0.00000000000E+00 -0.00000000000E+00 -0.31283683570E+02  0.31283683570E+02  0.00000000000E+00 0. -1.
         23    2    1    2    0    0  0.37252112678E+02 -0.56500177642E+02  0.32476409073E+03  0.35454041752E+03  0.12508878069E+03 0.  0.
          5    1    3    3  502    0 -0.45843406290E+02 -0.25356277625E+02  0.10271932839E+03  0.11538323770E+03  0.41800000000E+01 0. -1.
         -5    1    3    3    0  502  0.83095518968E+02 -0.31143900016E+02  0.22204476233E+03  0.23915717982E+03  0.41800000000E+01 0. -1.
        -11    1    1    2    0    0 -0.12474719327E+02  0.62481273451E+02  0.18379460889E+03  0.19452502772E+03  0.00000000000E+00 0.  1.
         11    1    1    2    0    0 -0.24777393351E+02 -0.59810958095E+01  0.36948575223E+01  0.25755479038E+02  0.00000000000E+00 0. -1.
</event>
<event>
 7    1  0.6981267E-006  0.1425625E+03  0.7561462E-02  0.1209922E+00
         -1   -1    0    0    0  501 -0.00000000000E+00  0.00000000000E+00  0.75885154233E+02  0.75885154233E+02  0.00000000000E+00 0.  1.
          1   -1    0    0  501    0  0.00000000000E+00 -0.00000000000E+00 -0.33268380939E+03  0.33268380939E+03  0.00000000000E+00 0. -1.
         23    2    1    2    0    0 -0.49707810892E+02 -0.10416123692E+03 -0.11037820934E+03  0.20285810432E+03  0.12509049384E+03 0.  0.
          5    1    3    3  502    0  0.26876116618E+02  0.11486013842E+02 -0.31769617211E+02  0.43370901952E+02  0.41800000000E+01 0.  1.
         -5    1    3    3    0  502 -0.76583927510E+02 -0.11564725076E+03 -0.78608592133E+02  0.15948720237E+03  0.41800000000E+01 0.  1.
        -11    1    1    2    0    0  0.10854088469E+02  0.43184399814E+02 -0.24386307754E+01  0.44594288242E+02  0.00000000000E+00 0.  1.
         11    1    1    2    0    0  0.38853722423E+02  0.60976837106E+02 -0.14398181504E+03  0.16111657106E+03  0.00000000000E+00 0. -1.
</event>
<event>
 7    1  0.6833760E-006  0.1646126E+03  0.7561462E-02  0.1183585E+00
          2   -1    0    0  501    0  0.00000000000E+00  0.00000000000E+00  0.37671274903E+03  0.37671274903E+03  0.00000000000E+00 0. -1.
         -2   -1    0    0    0  501 -0.00000000000E+00 -0.00000000000E+00 -0.11448446368E+03  0.11448446368E+03  0.00000000000E+00 0.  1.
         23    2    1    2    0    0 -0.32591408769E+02  0.15808914056E+03  0.51147462478E+02  0.21052078551E+03  0.12509421220E+03 0.  0.
          5    1    3    3  502    0 -0.26270153431E+02  0.14686302571E+03  0.86608383153E+02  0.17256115934E+03  0.41800000000E+01 0.  1.
         -5    1    3    3    0  502 -0.63212553382E+01  0.11226114856E+02 -0.35460920675E+02  0.37959626170E+02  0.41800000000E+01 0.  1.
        -11    1    1    2    0    0 -0.42405718487E+01 -0.79747046959E+02  0.40856337763E+02  0.89704037165E+02  0.00000000000E+00 0.  1.
         11    1    1    2    0    0  0.36831980618E+02 -0.78342093604E+02  0.17022448511E+03  0.19097239004E+03  0.00000000000E+00 0. -1.
</event>
<event>
 7    1  0.6833760E-006  0.1269336E+03  0.7561462E-02  0.1232078E+00
         -4   -1    0    0    0  501 -0.00000000000E+00  0.00000000000E+00  0.28775104671E+03  0.28775104671E+03  0.00000000000E+00 0.  1.
          4   -1    0    0  501    0  0.00000000000E+00 -0.00000000000E+00 -0.68474142967E+02  0.68474142967E+02  0.00000000000E+00 0. -1.
         23    2    1    2    0    0  0.85228402181E+02 -0.12834446004E+02  0.14853483389E+03  0.21245779169E+03  0.12508842004E+03 0.  0.
          5    1    3    3  502    0  0.10885815051E+03  0.48783106177E+01  0.14640842115E+03  0.18255627360E+03  0.41800000000E+01 0. -1.
         -5    1    3    3    0  502 -0.23629748328E+02 -0.17712756621E+02  0.21264127421E+01  0.29901518094E+02  0.41800000000E+01 0. -1.
        -11    1    1    2    0    0  0.80864187581E+01  0.19831750075E+02  0.39819524840E+02  0.45213748327E+02  0.00000000000E+00 0.  1.
         11    1    1    2    0    0 -0.93314820939E+02 -0.69973040709E+01  0.30922545013E+02  0.98553649660E+02  0.00000000000E+00 0. -1.
</event>
<event>
 7    1  0.6833760E-006  0.1556656E+03  0.7561462E-02  0.1193679E+00
         -2   -1    0    0    0  501 -0.00000000000E+00  0.00000000000E+00  0.54455568888E+02  0.54455568888E+02  0.00000000000E+00 0.  1.
          2   -1    0    0  501    0  0.00000000000E+00 -0.00000000000E+00 -0.79254070081E+03  0.79254070081E+03  0.00000000000E+00 0. -1.
         23    2    1    2    0    0  0.12214962403E+03 -0.64718259822E+02 -0.16012268658E+03  0.24575634448E+03  0.12509165555E+03 0.  0.
          5    1    3    3  502    0  0.44978912960E+02 -0.62523172005E+02 -0.11177439099E+02  0.77940087204E+02  0.41800000000E+01 0.  1.
         -5    1    3    3    0  502  0.77170711069E+02 -0.21950878167E+01 -0.14894524748E+03  0.16781625727E+03  0.41800000000E+01 0.  1.
        -11    1    1    2    0    0 -0.11830662993E+03  0.30133335527E+02 -0.51529279828E+03  0.52955749882E+03  0.00000000000E+00 0. -1.
         11    1    1    2    0    0 -0.38429940963E+01  0.34584924295E+02 -0.62669647053E+02  0.71682426395E+02  0.00000000000E+00 0.  1.
</event>
<event>
 6    1  0.6833760E-006  0.1585907E+03  0.7561462E-02  0.1190297E+00
         -1   -1    0    0    0  501 -0.00000000000E+00  0.00000000000E+00  0.38059684565E+02  0.38059684565E+02  0.00000000000E+00 0.  1.
          1   -1    0    0  501    0  0.00000000000E+00 -0.00000000000E+00 -0.74959405077E+03  0.74959405077E+03  0.00000000000E+00 0. -1.
          5    1    1    2  502    0 -0.24391404469E+02  0.35318886887E+01 -0.12129786295E+02  0.27785229264E+02  0.41800000000E+01 0. -1.
         -5    1    1    2    0  502  0.12594997319E+03 -0.69216216882E+02 -0.37110066683E+03  0.39797921773E+03  0.41800000000E+01 0.  1.
        -11    1    1    2    0    0 -0.26910095623E+02 -0.20909601297E+02 -0.11415064593E+03  0.11912906714E+03  0.00000000000E+00 0.  1.
         11    1    1    2    0    0 -0.74648473103E+02  0.86593929489E+02 -0.21415326715E+03  0.24276022119E+03  0.00000000000E+00 0. -1.
</event>
<event>
 7    1  0.6833760E-006  0.9691045E+02  0.7561462E-02  0.1286930E+00
          1   -1    0    0  501    0  0.00000000000E+00  0.00000000000E+00  0.57755386993E+02  0.57755386993E+02  0.00000000000E+00 0. -1.
         -1   -1    0    0    0  501 -0.00000000000E+00 -0.00000000000E+00 -0.32377112408E+03  0.32377112408E+03  0.00000000000E+00 0.  1.
         23    2    1    2    0    0  0.21215845807E+01  0.73209695228E+02 -0.20244645492E+03  0.24899060065E+03  0.12509033338E+03 0.  0.
          5    1    3    3  502    0 -0.12183942055E+02  0.27140866878E+02 -0.19811250915E+03  0.20037742832E+03  0.41800000000E+01 0. -1.
         -5    1    3    3    0  502  0.14305526636E+02  0.46068828350E+02 -0.43339457698E+01  0.48613172329E+02  0.41800000000E+01 0. -1.
        -11    1    1    2    0    0  0.41184357632E+02 -0.17377899437E+02 -0.32930380494E+02  0.55520740826E+02  0.00000000000E+00 0.  1.
         11    1    1    2    0    0 -0.43305942212E+02 -0.55831795791E+02 -0.30638901671E+02  0.77015169595E+02  0.00000000000E+00 0. -1.
</event>
<event>
 7    1  0.6833760E-006  0.7519768E+02  0.7561462E-02  0.1343260E+00
         -2   -1    0    0    0  501 -0.00000000000E+00  0.00000000000E+00  0.18631390488E+03  0.18631390488E+03  0.00000000000E+00 0.  1.
          2   -1    0    0  501    0  0.00000000000E+00 -0.00000000000E+00 -0.70732500244E+02  0.70732500244E+02  0.00000000000E+00 0. -1.
         23    2    1    2    0    0 -0.13287997149E+01 -0.13328002832E+02  0.10802331908E+03  0.16582106750E+03  0.12509271598E+03 0.  0.
          5    1    3    3  502    0  0.13818316618E+02 -0.56860855444E+02  0.10394833475E+03  0.11936009154E+03  0.41800000000E+01 0.  1.
         -5    1    3    3    0  502 -0.15147116333E+02  0.43532852612E+02  0.40749843382E+01  0.46460975959E+02  0.41800000000E+01 0.  1.
        -11    1    1    2    0    0 -0.20160631562E+02  0.12938980511E+02  0.43319580846E+02  0.49502064263E+02  0.00000000000E+00 0.  1.
         11    1    1    2    0    0  0.21489431277E+02  0.38902232139E+00 -0.35761495290E+02  0.41723273366E+02  0.00000000000E+00 0. -1.
</event>
<event>
 7    1  0.6833760E-006  0.1164779E+03  0.7561462E-02  0.1249023E+00
         -2   -1    0    0    0  501 -0.00000000000E+00  0.00000000000E+00  0.10413465872E+04  0.10413465872E+04  0.00000000000E+00 0.  1.
          2   -1    0    0  501    0  0.00000000000E+00 -0.00000000000E+00 -0.16476204619E+02  0.16476204619E+02  0.00000000000E+00 0. -1.
         23    2    1    2    0    0  0.22012621418E+02  0.51224965734E+02  0.77744876673E+03  0.78941906089E+03  0.12508923292E+03 0.  0.
          5    1    3    3  502    0 -0.16080277971E+01 -0.40291774909E+02  0.29594419843E+03  0.29870797422E+03  0.41800000000E+01 0. -1.
         -5    1    3    3    0  502  0.23620649216E+02  0.91516740643E+02  0.48150456830E+03  0.49071108667E+03  0.41800000000E+01 0. -1.
        -11    1    1    2    0    0  0.28605597858E+02 -0.33786476289E+02  0.15889868651E+03  0.16495029185E+03  0.00000000000E+00 0.  1.
         11    1    1    2    0    0 -0.50618219276E+02 -0.17438489445E+02  0.88522929348E+02  0.10345343908E+03  0.00000000000E+00 0. -1.
</event>
<event>
 7    1  0.6833760E-006  0.1662022E+03  0.7561462E-02  0.1181867E+00
          2   -1    0    0  501    0  0.00000000000E+00  0.00000000000E+00  0.44747419155E+03  0.44747419155E+03  0.00000000000E+00 0. -1.
         -2   -1    0    0    0  501 -0.00000000000E+00 -0.00000000000E+00 -0.71929913678E+02  0.71929913678E+02  0.00000000000E+00 0.  1.
         23    2    1    2    0    0  0.11390573786E+03 -0.80510212803E+02  0.24244503902E+03  0.30640389624E+03  0.12508932489E+03 0.  0.
          5    1    3    3  502    0  0.81516935428E+01  0.31296683616E+02  0.32303293989E+02  0.45901064427E+02  0.41800000000E+01 0. -1.
         -5    1    3    3    0  502  0.10575404432E+03 -0.11180689642E+03  0.21014174503E+03  0.26050283181E+03  0.41800000000E+01 0. -1.
        -11    1    1    2    0    0 -0.11005459930E+03  0.60751639527E+02  0.64068348919E+02  0.14109404617E+03  0.00000000000E+00 0.  1.
         11    1    1    2    0    0 -0.38511385636E+01  0.19758573276E+02  0.69030889931E+02  0.71906162816E+02  0.00000000000E+00 0. -1.
</event>
<event>
 7    1  0.6833760E-006  0.7886711E+02  0.7561462E-02  0.1332297E+00
          1   -1    0    0  501    0  0.00000000000E+00  0.00000000000E+00  0.17075298273E+03  0.17075298273E+03  0.00000000000E+00 0. -1.
         -1   -1    0    0    0  501 -0.00000000000E+00 -0.00000000000E+00 -0.75051648410E+02  0.75051648410E+02  0.00000000000E+00 0.  1.
         23    2    1    2    0    0 -0.17464754768E+01  0.19861210951E+02  0.19753191287E+02  0.12820174524E+03  0.12509189038E+03 0.  0.
          5    1    3    3  502    0 -0.50791271054E+02  0.24245706516E+02 -0.24818994345E+02  0.61652756468E+02  0.41800000000E+01 0. -1.
         -5    1    3    3    0  502  0.49044795577E+02 -0.43844955655E+01  0.44572185632E+02  0.66548988772E+02  0.41800000000E+01 0. -1.
        -11    1    1    2    0    0 -0.11421112162E+02 -0.31996330570E+02  0.89118381725E+02  0.95374487859E+02  0.00000000000E+00 0. -1.
         11    1    1    2    0    0  0.13167587639E+02  0.12135119619E+02 -0.13170238690E+02  0.22228398043E+02  0.00000000000E+00 0.  1.
</event>
<event>
 7    1  0.6833760E-006  0.9517598E+02  0.7561462E-02  0.1290780E+00
          2   -1    0    0  501    0  0.00000000000E+00  0.00000000000E+00  0.68864172610E+02  0.68864172610E+02  0.00000000000E+00 0. -1.
         -2   -1    0    0    0  501 -0.00000000000E+00 -0.00000000000E+00 -0.18932126913E+03  0.18932126913E+03  0.00000000000E+00 0.  1.
         23    2    1    2    0    0 -0.22350013262E+02  0.13449358204E+02 -0.81464625037E+02  0.15153001778E+03  0.12507778711E+03 0.  0.
          5    1    3    3  502    0 -0.63745417283E+02  0.30753464285E+02 -0.17053294010E+02  0.72921471643E+02  0.41800000000E+01 0.  1.
         -5    1    3    3    0  502  0.41395404021E+02 -0.17304106081E+02 -0.64411331028E+02  0.78608546139E+02  0.41800000000E+01 0.  1.
        -11    1    1    2    0    0  0.47523509643E+02 -0.47628349127E+01 -0.57107889947E+02  0.74447831798E+02  0.00000000000E+00 0.  1.
         11    1    1    2    0    0 -0.25173496382E+02 -0.86865232917E+01  0.18115418461E+02  0.32207592164E+02  0.00000000000E+00 0. -1.
</event>
<event>
 7    1  0.6833760E-006  0.1484579E+03  0.7561462E-02  0.1202381E+00
          1   -1    0    0  501    0  0.00000000000E+00  0.00000000000E+00  0.10750513273E+04  0.10750513273E+04  0.00000000000E+00 0. -1.
         -1   -1    0    0    0  501 -0.00000000000E+00 -0.00000000000E+00 -0.25545620858E+02  0.25545620858E+02  0.00000000000E+00 0.  1.
         23    2    1    2    0    0 -0.68200551691E+02  0.10233525605E+03  0.60498717287E+03  0.62990616591E+03  0.12509387926E+03 0.  0.
          5    1    3    3  502    0 -0.29714643389E+02  0.11421368136E+03  0.54420800375E+03  0.55687300957E+03  0.41800000000E+01 0.  1.
         -5    1    3    3    0  502 -0.38485908302E+02 -0.11878425314E+02  0.60779169123E+02  0.73033156340E+02  0.41800000000E+01 0.  1.
        -11    1    1    2    0    0  0.18771957334E+02 -0.83261413363E+02  0.36701623756E+03  0.37680998921E+03  0.00000000000E+00 0. -1.
         11    1    1    2    0    0  0.49428594357E+02 -0.19073842682E+02  0.77502296024E+02  0.93880793050E+02  0.00000000000E+00 0.  1.
</event>
<event>
 7    1  0.6833760E-006  0.1097596E+03  0.7561462E-02  0.1261016E+00
          2   -1    0    0  501    0  0.00000000000E+00  0.00000000000E+00  0.11873525972E+03  0.11873525972E+03  0.00000000000E+00 0.  1.
         -2   -1    0    0    0  501 -0.00000000000E+00 -0.00000000000E+00 -0.12083918792E+03  0.12083918792E+03  0.00000000000E+00 0. -1.
         23    2    1    2    0    0 -0.37756594343E+02 -0.33471600953E+02 -0.40400356452E+01  0.13494251247E+03  0.12508897353E+03 0.  0.
          5    1    3    3  502    0 -0.37875002349E+02  0.42508084565E+02  0.88340357558E+01  0.57766475088E+02  0.41800000000E+01 0.  1.
         -5    1    3    3    0  502  0.11840800625E+00 -0.75979685518E+02 -0.12874071401E+02  0.77176037385E+02  0.41800000000E+01 0.  1.
        -11    1    1    2    0    0 -0.14067033191E+02  0.31475042984E+02  0.29967227583E+02  0.45679256590E+02  0.00000000000E+00 0.  1.
         11    1    1    2    0    0  0.51823627534E+02  0.19965579699E+01 -0.28031120140E+02  0.58952678572E+02  0.00000000000E+00 0. -1.
</event>
<event>
 7    1  0.6833760E-006  0.1131112E+03  0.7561462E-02  0.1254914E+00
         -2   -1    0    0    0  501 -0.00000000000E+00  0.00000000000E+00  0.20795529124E+02  0.20795529124E+02  0.00000000000E+00 0.  1.
          2   -1    0    0  501    0  0.00000000000E+00 -0.00000000000E+00 -0.63220711644E+03  0.63220711644E+03  0.00000000000E+00 0. -1.
         23    2    1    2    0    0 -0.27616413871E+02 -0.23111818033E+02 -0.38137803917E+03  0.40298027338E+03  0.12508824693E+03 0.  0.
          5    1    3    3  502    0 -0.49082110873E+02 -0.65703828092E+02 -0.23080752099E+03  0.24498087839E+03  0.41800000000E+01 0.  1.
         -5    1    3    3    0  502  0.21465697001E+02  0.42592010058E+02 -0.15057051818E+03  0.15799939498E+03  0.41800000000E+01 0.  1.
        -11    1    1    2    0    0  0.13194886027E+02 -0.34446795715E+02 -0.66337953404E+02  0.75903957829E+02  0.00000000000E+00 0.  1.
         11    1    1    2    0    0  0.14421527844E+02  0.57558613748E+02 -0.16369559474E+03  0.17411841436E+03  0.00000000000E+00 0. -1.
</event>
<event>
 7    1  0.6833760E-006  0.1444537E+03  0.7561462E-02  0.1207459E+00
          1   -1    0    0  501    0  0.00000000000E+00  0.00000000000E+00  0.24757615731E+02  0.24757615731E+02  0.00000000000E+00 0. -1.
         -1   -1    0    0    0  501 -0.00000000000E+00 -0.00000000000E+00 -0.11316423169E+04  0.11316423169E+04  0.00000000000E+00 0.  1.
         23    2    1    2    0    0 -0.72786728915E+02  0.97087379985E+02 -0.69144462577E+03  0.71364247314E+03  0.12832007526E+03 0.  0.
          5    1    3    3  502    0 -0.49761880380E+02 -0.51430677210E+01 -0.89390725248E+02  0.10252253433E+03  0.41800000000E+01 0. -1.
         -5    1    3    3    0  502 -0.23024848535E+02  0.10223044771E+03 -0.60205390052E+03  0.61111993881E+03  0.41800000000E+01 0.  1.
        -11    1    1    2    0    0  0.45151182638E+02 -0.15575227466E+02 -0.26642138374E+03  0.27066874721E+03  0.00000000000E+00 0.  1.
         11    1    1    2    0    0  0.27635546277E+02 -0.81512152519E+02 -0.14901869164E+03  0.17208871225E+03  0.00000000000E+00 0. -1.
</event>
<event>
 7    1  0.6833760E-006  0.9555126E+02  0.7561462E-02  0.1289939E+00
          2   -1    0    0  501    0  0.00000000000E+00  0.00000000000E+00  0.68171312702E+03  0.68171312702E+03  0.00000000000E+00 0. -1.
         -2   -1    0    0    0  501 -0.00000000000E+00 -0.00000000000E+00 -0.28977738592E+02  0.28977738592E+02  0.00000000000E+00 0.  1.
         23    2    1    2    0    0  0.84650618246E+02  0.79562239000E+01  0.27651737555E+03  0.31516073134E+03  0.12504158880E+03 0.  0.
          5    1    3    3  502    0  0.54886000732E+02  0.25083764881E+02  0.32432994574E+02  0.68637015335E+02  0.41800000000E+01 0.  1.
         -5    1    3    3    0  502  0.29764617513E+02 -0.17127540981E+02  0.24408438098E+03  0.24652371601E+03  0.41800000000E+01 0.  1.
        -11    1    1    2    0    0 -0.21270216879E+01 -0.13159253844E+02  0.35439748743E+01  0.13793112082E+02  0.00000000000E+00 0.  1.
         11    1    1    2    0    0 -0.82523596558E+02  0.52030299442E+01  0.37267403800E+03  0.38173702219E+03  0.00000000000E+00 0. -1.
</event>
<event>
 7    1  0.6833760E-006  0.1964733E+03  0.7561462E-02  0.1152749E+00
         -2   -1    0    0    0  501 -0.00000000000E+00  0.00000000000E+00  0.18496525729E+03  0.18496525729E+03  0.00000000000E+00 0. -1.
          2   -1    0    0  501    0  0.00000000000E+00 -0.00000000000E+00 -0.58485604907E+03  0.58485604907E+03  0.00000000000E+00 0.  1.
         23    2    1    2    0    0  0.18554045775E+03  0.16546039469E+02  0.86692154494E+02  0.24054549341E+03  0.12509025488E+03 0.  0.
          5    1    3    3  502    0  0.93843532362E+02 -0.36347555772E+02  0.89245814635E+02  0.13457355315E+03  0.41800000000E+01 0.  1.
         -5    1    3    3    0  502  0.91696925385E+02  0.52893595241E+02 -0.25536601406E+01  0.10597194026E+03  0.41800000000E+01 0.  1.
        -11    1    1    2    0    0 -0.12451950836E+03 -0.10451063944E+02 -0.19712950556E+03  0.23339746070E+03  0.00000000000E+00 0.  1.
         11    1    1    2    0    0 -0.61020949387E+02 -0.60949755252E+01 -0.28945344071E+03  0.29587835225E+03  0.00000000000E+00 0. -1.
</event>
<event>
 7    1  0.6833760E-006  0.1181895E+03  0.7561462E-02  0.1246114E+00
          3   -1    0    0  501    0  0.00000000000E+00  0.00000000000E+00  0.37951681154E+02  0.37951681154E+02  0.00000000000E+00 0. -1.
         -3   -1    0    0    0  501 -0.00000000000E+00 -0.00000000000E+00 -0.47132860049E+03  0.47132860049E+03  0.00000000000E+00 0.  1.
         23    2    1    2    0    0 -0.40249559436E+02 -0.61380477629E+02 -0.28674058543E+03  0.32133363371E+03  0.12509017049E+03 0.  0.
          5    1    3    3  502    0  0.63200482730E+01  0.36100639519E+02 -0.69987887081E+02  0.79113689852E+02  0.41800000000E+01 0. -1.
         -5    1    3    3    0  502 -0.46569607709E+02 -0.97481117148E+02 -0.21675269835E+03  0.24221994386E+03  0.41800000000E+01 0. -1.
        -11    1    1    2    0    0  0.53085915386E+02  0.40116341534E+02 -0.38247589263E+02  0.76748376887E+02  0.00000000000E+00 0. -1.
         11    1    1    2    0    0 -0.12836355950E+02  0.21264136095E+02 -0.10838874464E+03  0.11119827104E+03  0.00000000000E+00 0.  1.
</event>
<event>
 7    1  0.6833760E-006  0.1041334E+03  0.7561462E-02  0.1271837E+00
          2   -1    0    0  501    0  0.00000000000E+00  0.00000000000E+00  0.37067128315E+02  0.37067128315E+02  0.00000000000E+00 0.  1.
         -2   -1    0    0    0  501 -0.00000000000E+00 -0.00000000000E+00 -0.57596947089E+03  0.57596947089E+03  0.00000000000E+00 0. -1.
         23    2    1    2    0    0 -0.22087420939E+02 -0.48318039515E+02 -0.46584484042E+03  0.48526487607E+03  0.12509235588E+03 0.  0.
          5    1    3    3  502    0 -0.36728295187E+01 -0.72544793347E+02 -0.43736934545E+03  0.44337980722E+03  0.41800000000E+01 0.  1.
         -5    1    3    3    0  502 -0.18414591421E+02  0.24226753832E+02 -0.28475494970E+02  0.41885068846E+02  0.41800000000E+01 0.  1.
        -11    1    1    2    0    0 -0.35148262758E+02  0.24250373534E+02 -0.28214158685E+02  0.51181244042E+02  0.00000000000E+00 0. -1.
         11    1    1    2    0    0  0.57235683697E+02  0.24067665980E+02 -0.44843343478E+02  0.76590479097E+02  0.00000000000E+00 0.  1.
</event>
<event>
 7    1  0.6833760E-006  0.1034042E+03  0.7561462E-02  0.1273296E+00
          1   -1    0    0  501    0  0.00000000000E+00  0.00000000000E+00  0.20469476240E+03  0.20469476240E+03  0.00000000000E+00 0. -1.
         -1   -1    0    0    0  501 -0.00000000000E+00 -0.00000000000E+00 -0.63846963672E+02  0.63846963672E+02  0.00000000000E+00 0.  1.
         23    2    1    2    0    0  0.79964585219E+01  0.19299753282E+02  0.46069639782E+02  0.13493104613E+03  0.12509017417E+03 0.  0.
          5    1    3    3  502    0 -0.47979052815E+02 -0.25945911823E+02  0.21092899488E+02  0.58630731346E+02  0.41800000000E+01 0.  1.
         -5    1    3    3    0  502  0.55975511337E+02  0.45245665105E+02  0.24976740294E+02  0.76300314782E+02  0.41800000000E+01 0.  1.
        -11    1    1    2    0    0  0.34809841527E+02 -0.75902972013E+01  0.78735376456E+02  0.86421045957E+02  0.00000000000E+00 0. -1.
         11    1    1    2    0    0 -0.42806300049E+02 -0.11709456081E+02  0.16042782490E+02  0.47189633985E+02  0.00000000000E+00 0.  1.
</event>
<event>
 7    1  0.6833760E-006  0.3930285E+02  0.7561462E-02  0.1513405E+00
          2   -1    0    0  501    0  0.00000000000E+00  0.00000000000E+00  0.16338201178E+03  0.16338201178E+03  0.00000000000E+00 0. -1.
         -2   -1    0    0    0  501 -0.00000000000E+00 -0.00000000000E+00 -0.75567166015E+02  0.75567166015E+02  0.00000000000E+00 0.  1.
         23    2    1    2    0    0 -0.30565102786E+01  0.22948391280E+02  0.33586791955E+02  0.13157015255E+03  0.12508661612E+03 0.  0.
          5    1    3    3  502    0 -0.14598778361E+02  0.19604961389E+02  0.79838165528E+02  0.83600741119E+02  0.41800000000E+01 0.  1.
         -5    1    3    3    0  502  0.11542268082E+02  0.33434298912E+01 -0.46251373573E+02  0.47969411434E+02  0.41800000000E+01 0.  1.
        -11    1    1    2    0    0 -0.14707475419E+02 -0.42858854805E+01  0.73578636077E+02  0.75156465687E+02  0.00000000000E+00 0. -1.
         11    1    1    2    0    0  0.17763985698E+02 -0.18662505800E+02 -0.19350582265E+02  0.32222559560E+02  0.00000000000E+00 0.  1.
</event>
<event>
 7    1  0.6833760E-006  0.1158430E+03  0.7561462E-02  0.1250117E+00
          1   -1    0    0  501    0  0.00000000000E+00  0.00000000000E+00  0.53147413593E+02  0.53147413593E+02  0.00000000000E+00 0. -1.
         -1   -1    0    0    0  501 -0.00000000000E+00 -0.00000000000E+00 -0.35551743845E+03  0.35551743845E+03  0.00000000000E+00 0.  1.
         23    2    1    2    0    0 -0.59062854972E+02 -0.48923000459E+02 -0.17349438627E+03  0.22722119439E+03  0.12508912144E+03 0.  0.
          5    1    3    3  502    0  0.73646036541E+00  0.36325641769E+02 -0.76772048404E+02  0.85038311601E+02  0.41800000000E+01 0. -1.
         -5    1    3    3    0  502 -0.59799315337E+02 -0.85248642228E+02 -0.96722337870E+02  0.14218288279E+03  0.41800000000E+01 0. -1.
        -11    1    1    2    0    0  0.88496789474E+01  0.38643355872E+02 -0.12373646627E+03  0.12993205477E+03  0.00000000000E+00 0.  1.
         11    1    1    2    0    0  0.50213176025E+02  0.10279644587E+02 -0.51391723106E+01  0.51511602881E+02  0.00000000000E+00 0. -1.
</event>
<event>
 7    1  0.6833760E-006  0.1732931E+03  0.7561462E-02  0.1174457E+00
         -3   -1    0    0    0  501 -0.00000000000E+00  0.00000000000E+00  0.36996401132E+03  0.36996401132E+03  0.00000000000E+00 0.  1.
          3   -1    0    0  501    0  0.00000000000E+00 -0.00000000000E+00 -0.13403342679E+03  0.13403342679E+03  0.00000000000E+00 0. -1.
         23    2    1    2    0    0  0.16234675455E+03 -0.22696852944E+02  0.23990497997E+03  0.31634011026E+03  0.12508017468E+03 0.  0.
          5    1    3    3  502    0  0.88295018427E+02 -0.27858837866E+02  0.22096800948E+03  0.23961731728E+03  0.41800000000E+01 0.  1.
         -5    1    3    3    0  502  0.74051736126E+02  0.51619849218E+01  0.18936970489E+02  0.76722792982E+02  0.41800000000E+01 0.  1.
        -11    1    1    2    0    0 -0.11623228480E+03  0.49371511746E+02  0.22331745310E+02  0.12824272709E+03  0.00000000000E+00 0.  1.
         11    1    1    2    0    0 -0.46114469753E+02 -0.26674658802E+02 -0.26306140743E+02  0.59414600761E+02  0.00000000000E+00 0. -1.
</event>
<event>
 7    1  0.6833760E-006  0.1185607E+03  0.7561462E-02  0.1245490E+00
          2   -1    0    0  501    0  0.00000000000E+00  0.00000000000E+00  0.69495528462E+03  0.69495528462E+03  0.00000000000E+00 0. -1.
         -2   -1    0    0    0  501 -0.00000000000E+00 -0.00000000000E+00 -0.38358373400E+02  0.38358373400E+02  0.00000000000E+00 0.  1.
         23    2    1    2    0    0  0.54161848070E+02  0.82609651724E+02  0.19155938475E+03  0.24919985239E+03  0.12509079983E+03 0.  0.
          5    1    3    3  502    0 -0.14702432970E+02  0.25325256632E+02  0.14533354474E+03  0.14831332302E+03  0.41800000000E+01 0. -1.
         -5    1    3    3    0  502  0.68864281040E+02  0.57284395091E+02  0.46225840009E+02  0.10088652937E+03  0.41800000000E+01 0. -1.
        -11    1    1    2    0    0  0.17519663001E+00 -0.58368531000E+02  0.11404479417E+03  0.12811374315E+03  0.00000000000E+00 0.  1.
         11    1    1    2    0    0 -0.54337044700E+02 -0.24241120723E+02  0.35099273230E+03  0.35600006249E+03  0.00000000000E+00 0. -1.
</event>
<event>
 7    1  0.6833760E-006  0.1272848E+03  0.7561462E-02  0.1231541E+00
         -1   -1    0    0    0  501 -0.00000000000E+00  0.00000000000E+00  0.11112728417E+02  0.11112728417E+02  0.00000000000E+00 0.  1.
          1   -1    0    0  501    0  0.00000000000E+00 -0.00000000000E+00 -0.14984552659E+04  0.14984552659E+04  0.00000000000E+00 0. -1.
         23    2    1    2    0    0  0.36921422232E+01 -0.69569382426E+02 -0.86853440277E+03  0.88025726149E+03  0.12508919511E+03 0.  0.
          5    1    3    3  502    0 -0.58283637076E+02 -0.23559263780E+02 -0.30443572213E+03  0.31088680025E+03  0.41800000000E+01 0.  1.
         -5    1    3    3    0  502  0.61975779300E+02 -0.46010118646E+02 -0.56409868063E+03  0.56937046123E+03  0.41800000000E+01 0.  1.
        -11    1    1    2    0    0  0.42149284523E+02  0.19695525209E+02 -0.27166059123E+03  0.27561558869E+03  0.00000000000E+00 0. -1.
         11    1    1    2    0    0 -0.45841426746E+02  0.49873857217E+02 -0.34714754347E+03  0.35369514413E+03  0.00000000000E+00 0.  1.
</event>
<event>
 7    1  0.6833760E-006  0.1034289E+03  0.7561462E-02  0.1273246E+00
         -1   -1    0    0    0  501 -0.00000000000E+00  0.00000000000E+00  0.25356999004E+02  0.25356999004E+02  0.00000000000E+00 0.  1.
          1   -1    0    0  501    0  0.00000000000E+00 -0.00000000000E+00 -0.63483581297E+03  0.63483581297E+03  0.00000000000E+00 0. -1.
         23    2    1    2    0    0 -0.20360375843E+02 -0.36329500060E+02 -0.20362455855E+03  0.24257258519E+03  0.12507645966E+03 0.  0.
          5    1    3    3  502    0 -0.61354049009E+02 -0.15819587943E+02 -0.46119257645E+02  0.78479532479E+02  0.41800000000E+01 0.  1.
         -5    1    3    3    0  502  0.40993673167E+02 -0.20509912117E+02 -0.15750530091E+03  0.16409305271E+03  0.41800000000E+01 0.  1.
        -11    1    1    2    0    0  0.19471988796E+02 -0.27389513051E+02 -0.11186897771E+03  0.11680758514E+03  0.00000000000E+00 0. -1.
         11    1    1    2    0    0  0.88838704676E+00  0.63719013111E+02 -0.29398527771E+03  0.30081264165E+03  0.00000000000E+00 0.  1.
</event>
<event>
 7    1  0.6833760E-006  0.1074224E+03  0.7561462E-02  0.1265419E+00
         -1   -1    0    0    0  501 -0.00000000000E+00  0.00000000000E+00  0.89084995965E+02  0.89084995965E+02  0.00000000000E+00 0.  1.
          1   -1    0    0  501    0  0.00000000000E+00 -0.00000000000E+00 -0.16997188924E+03  0.16997188924E+03  0.00000000000E+00 0. -1.
         23    2    1    2    0    0 -0.35358919413E+02 -0.13075027780E+02  0.48696738249E+01  0.13072344818E+03  0.12507476424E+03 0.  0.
          5    1    3    3  502    0 -0.73826842686E+02 -0.26867018738E+02 -0.21931959724E+02  0.81674492065E+02  0.41800000000E+01 0. -1.
         -5    1    3    3    0  502  0.38467923273E+02  0.13791990958E+02  0.26801633549E+02  0.49048956119E+02  0.41800000000E+01 0. -1.
        -11    1    1    2    0    0 -0.28220685287E+02  0.14005322662E+02 -0.33933824696E+02  0.46304001981E+02  0.00000000000E+00 0. -1.
         11    1    1    2    0    0  0.63579604700E+02 -0.93029488173E+00 -0.51822742403E+02  0.82029435038E+02  0.00000000000E+00 0.  1.
</event>
<event>
 7    1  0.6833760E-006  0.1505316E+03  0.7561462E-02  0.1199821E+00
          1   -1    0    0  501    0  0.00000000000E+00  0.00000000000E+00  0.36641377103E+03  0.36641377103E+03  0.00000000000E+00 0. -1.
         -1   -1    0    0    0  501 -0.00000000000E+00 -0.00000000000E+00 -0.73813919535E+02  0.73813919535E+02  0.00000000000E+00 0.  1.
         23    2    1    2    0    0  0.71720317919E+02 -0.95504469997E+02  0.12722979995E+03  0.21471075854E+03  0.12509348522E+03 0.  0.
          5    1    3    3  502    0 -0.93510830698E+01 -0.86480434681E+02  0.89032445414E+02  0.12454138699E+03  0.41800000000E+01 0.  1.
         -5    1    3    3    0  502  0.81071400989E+02 -0.90240353157E+01  0.38197354532E+02  0.90169371545E+02  0.41800000000E+01 0.  1.
        -11    1    1    2    0    0 -0.68529808754E+02  0.45649267182E+02  0.42040036115E+02  0.92452987614E+02  0.00000000000E+00 0.  1.
         11    1    1    2    0    0 -0.31905091643E+01  0.49855202814E+02  0.12333001543E+03  0.13306394441E+03  0.00000000000E+00 0. -1.
</event>
<event>
 7    1  0.6833760E-006  0.1219731E+03  0.7561462E-02  0.1239877E+00
          1   -1    0    0  501    0  0.00000000000E+00  0.00000000000E+00  0.13321090323E+03  0.13321090323E+03  0.00000000000E+00 0. -1.
         -1   -1    0    0    0  501 -0.00000000000E+00 -0.00000000000E+00 -0.15042075158E+03  0.15042075158E+03  0.00000000000E+00 0.  1.
         23    2    1    2    0    0  0.81305850097E+02  0.40363094767E+02 -0.19364345885E+02  0.15576768870E+03  0.12509506095E+03 0.  0.
          5    1    3    3  502    0  0.53122836791E+02 -0.16294833910E+02  0.40241830765E+02  0.68734523670E+02  0.41800000000E+01 0.  1.
         -5    1    3    3    0  502  0.28183013306E+02  0.56657928677E+02 -0.59606176650E+02  0.87033165034E+02  0.41800000000E+01 0.  1.
        -11    1    1    2    0    0 -0.76271124275E+02 -0.64660691813E+02 -0.95150967016E+01  0.10044315073E+03  0.00000000000E+00 0.  1.
         11    1    1    2    0    0 -0.50347258215E+01  0.24297597046E+02  0.11669594232E+02  0.27420815376E+02  0.00000000000E+00 0. -1.
</event>
<event>
 7    1  0.6833760E-006  0.9415113E+02  0.7561462E-02  0.1293099E+00
         -1   -1    0    0    0  501 -0.00000000000E+00  0.00000000000E+00  0.42121645989E+03  0.42121645989E+03  0.00000000000E+00 0.  1.
          1   -1    0    0  501    0  0.00000000000E+00 -0.00000000000E+00 -0.31508970029E+02  0.31508970029E+02  0.00000000000E+00 0. -1.
         23    2    1    2    0    0  0.18806907269E+02  0.13958931029E+02  0.28247284102E+03  0.30981668022E+03  0.12508764093E+03 0.  0.
          5    1    3    3  502    0 -0.40837816463E+02 -0.24257301423E+02  0.62060670768E+02  0.78263293963E+02  0.41800000000E+01 0.  1.
         -5    1    3    3    0  502  0.59644723732E+02  0.38216232452E+02  0.22041217025E+03  0.23155338625E+03  0.41800000000E+01 0.  1.
        -11    1    1    2    0    0  0.79069354454E+01  0.22849140751E+02  0.91722454047E+02  0.94855740140E+02  0.00000000000E+00 0.  1.
         11    1    1    2    0    0 -0.26713842714E+02 -0.36808071780E+02  0.15512194801E+02  0.48053009565E+02  0.00000000000E+00 0. -1.
</event>
<event>
 7    1  0.6833760E-006  0.1190687E+03  0.7561462E-02  0.1244641E+00
         -2   -1    0    0    0  501 -0.00000000000E+00  0.00000000000E+00  0.60568069176E+02  0.60568069176E+02  0.00000000000E+00 0.  1.
          2   -1    0    0  501    0  0.00000000000E+00 -0.00000000000E+00 -0.34375436170E+03  0.34375436170E+03  0.00000000000E+00 0. -1.
         23    2    1    2    0    0  0.25147396591E+02 -0.84837549875E+02 -0.10293256451E+03  0.18458702162E+03  0.12508978491E+03 0.  0.
          5    1    3    3  502    0  0.59481555391E+02 -0.45664663831E+01 -0.67744176298E+02  0.90364007599E+02  0.41800000000E+01 0.  1.
         -5    1    3    3    0  502 -0.34334158800E+02 -0.80271083492E+02 -0.35188388213E+02  0.94223014017E+02  0.41800000000E+01 0.  1.
        -11    1    1    2    0    0 -0.61141754112E+01  0.56271900376E+02 -0.27052011007E+02  0.62735326671E+02  0.00000000000E+00 0.  1.
         11    1    1    2    0    0 -0.19033221180E+02  0.28565649498E+02 -0.15320171701E+03  0.15700008259E+03  0.00000000000E+00 0. -1.
</event>
<event>
 7    1  0.6833760E-006  0.1180077E+03  0.7561462E-02  0.1246420E+00
          1   -1    0    0  501    0  0.00000000000E+00  0.00000000000E+00  0.25203498671E+03  0.25203498671E+03  0.00000000000E+00 0. -1.
         -1   -1    0    0    0  501 -0.00000000000E+00 -0.00000000000E+00 -0.70950654936E+02  0.70950654936E+02  0.00000000000E+00 0.  1.
         23    2    1    2    0    0  0.64925256809E+02  0.17977283818E+02  0.51474030316E+02  0.15111511768E+03  0.12509089211E+03 0.  0.
          5    1    3    3  502    0 -0.25466075785E+02  0.21311161940E+02 -0.17048815431E+02  0.37560899173E+02  0.41800000000E+01 0.  1.
         -5    1    3    3    0  502  0.90391332595E+02 -0.33338781214E+01  0.68522845747E+02  0.11355421851E+03  0.41800000000E+01 0.  1.
        -11    1    1    2    0    0  0.17929398802E+02  0.14445442056E+02  0.18558384550E+02  0.29572753925E+02  0.00000000000E+00 0. -1.
         11    1    1    2    0    0 -0.82854655611E+02 -0.32422725875E+02  0.11105191691E+03  0.14229777004E+03  0.00000000000E+00 0.  1.
</event>
<event>
 7    1  0.6833760E-006  0.1917480E+03  0.7561462E-02  0.1156894E+00
          1   -1    0    0  501    0  0.00000000000E+00  0.00000000000E+00  0.31295576585E+03  0.31295576585E+03  0.00000000000E+00 0. -1.
         -1   -1    0    0    0  501 -0.00000000000E+00 -0.00000000000E+00 -0.18725959136E+03  0.18725959136E+03  0.00000000000E+00 0.  1.
         23    2    1    2    0    0 -0.13561151620E+03 -0.83770479986E+02 -0.85838248544E+02  0.22003488148E+03  0.12505665720E+03 0.  0.
          5    1    3    3  502    0 -0.67542124458E+01 -0.72296834932E+02 -0.24019625798E+02  0.76595473433E+02  0.41800000000E+01 0. -1.
         -5    1    3    3    0  502 -0.12885730375E+03 -0.11473645054E+02 -0.61818622746E+02  0.14343940804E+03  0.41800000000E+01 0. -1.
        -11    1    1    2    0    0  0.93397288105E+02  0.69264572824E+01  0.86635019938E+02  0.12757999810E+03  0.00000000000E+00 0.  1.
         11    1    1    2    0    0  0.42214228095E+02  0.76844022703E+02  0.12489940310E+03  0.15260047763E+03  0.00000000000E+00 0. -1.
</event>
<event>
 7    1  0.6833760E-006  0.9356364E+02  0.7561462E-02  0.1294444E+00
         -2   -1    0    0    0  501 -0.00000000000E+00  0.00000000000E+00  0.35177985441E+02  0.35177985441E+02  0.00000000000E+00 0. -1.
          2   -1    0    0  501    0  0.00000000000E+00 -0.00000000000E+00 -0.38902726644E+03  0.38902726644E+03  0.00000000000E+00 0.  1.
         23    2    1    2    0    0  0.40378960112E+02 -0.22663399703E+02 -0.17828167688E+03  0.22265616020E+03  0.12508924518E+03 0.  0.
          5    1    3    3  502    0 -0.35262868380E+02  0.35963014278E+01 -0.11325472275E+02  0.37445186508E+02  0.41800000000E+01 0. -1.
         -5    1    3    3    0  502  0.75641828492E+02 -0.26259701130E+02 -0.16695620460E+03  0.18521097369E+03  0.41800000000E+01 0. -1.
        -11    1    1    2    0    0 -0.53182770962E+02  0.11825602033E+02 -0.17653063143E+03  0.18474662602E+03  0.00000000000E+00 0.  1.
         11    1    1    2    0    0  0.12803810850E+02  0.10837797669E+02  0.96302731598E+00  0.16802465659E+02  0.00000000000E+00 0. -1.
</event>
<event>
 7    1  0.6833760E-006  0.1468424E+03  0.7561462E-02  0.1204408E+00
          2   -1    0    0  501    0  0.00000000000E+00  0.00000000000E+00  0.44240445437E+03  0.44240445437E+03  0.00000000000E+00 0. -1.
         -2   -1    0    0    0  501 -0.00000000000E+00 -0.00000000000E+00 -0.54682906395E+02  0.54682906395E+02  0.00000000000E+00 0.  1.
         23    2    1    2    0    0 -0.62548888722E+02 -0.91745000034E+02  0.21637973240E+03  0.27349241621E+03  0.12509358344E+03 0.  0.
          5    1    3    3  502    0 -0.78693445903E+02 -0.54766004938E+01  0.92957488342E+02  0.12198860037E+03  0.41800000000E+01 0.  1.
         -5    1    3    3    0  502  0.16144557181E+02 -0.86268399540E+02  0.12342224406E+03  0.15150381584E+03  0.41800000000E+01 0.  1.
        -11    1    1    2    0    0  0.11983496346E+01  0.55611306774E+02  0.12966763957E+03  0.14109482710E+03  0.00000000000E+00 0. -1.
         11    1    1    2    0    0  0.61350539087E+02  0.36133693260E+02  0.41674176009E+02  0.82500117460E+02  0.00000000000E+00 0.  1.
</event>
<event>
 7    1  0.6833760E-006  0.1402718E+03  0.7561462E-02  0.1212964E+00
          2   -1    0    0  501    0  0.00000000000E+00  0.00000000000E+00  0.76483867795E+03  0.76483867795E+03  0.00000000000E+00 0. -1.
         -2   -1    0    0    0  501 -0.00000000000E+00 -0.00000000000E+00 -0.32012785685E+02  0.32012785685E+02  0.00000000000E+00 0.  1.
         23    2    1    2    0    0  0.56929691838E+02 -0.96896300984E+02  0.38640394164E+03  0.42140647868E+03  0.12508209785E+03 0.  0.
          5    1    3    3  502    0 -0.35653544102E+02 -0.32961203283E+01  0.71821591067E+02  0.80360767540E+02  0.41800000000E+01 0.  1.
         -5    1    3    3    0  502  0.92583235940E+02 -0.93600180656E+02  0.31458235057E+03  0.34104571114E+03  0.41800000000E+01 0.  1.
        -11    1    1    2    0    0 -0.26424068985E+02  0.35905281914E+02  0.26729221151E+03  0.27098440366E+03  0.00000000000E+00 0. -1.
         11    1    1    2    0    0 -0.30505622853E+02  0.60991019070E+02  0.79129739120E+02  0.10446058130E+03  0.00000000000E+00 0.  1.
</event>
<event>
 7    1  0.6833760E-006  0.1014605E+03  0.7561462E-02  0.1277254E+00
         -1   -1    0    0    0  501 -0.00000000000E+00  0.00000000000E+00  0.46386941611E+02  0.46386941611E+02  0.00000000000E+00 0.  1.
          1   -1    0    0  501    0  0.00000000000E+00 -0.00000000000E+00 -0.28748893623E+03  0.28748893623E+03  0.00000000000E+00 0. -1.
         23    2    1    2    0    0 -0.30601077717E+02  0.16051028623E+02 -0.11616083151E+03  0.17416886768E+03  0.12508954479E+03 0.  0.
          5    1    3    3  502    0 -0.58866854546E+02 -0.19983254120E+02 -0.11178064737E+03  0.12797274138E+03  0.41800000000E+01 0. -1.
         -5    1    3    3    0  502  0.28265776829E+02  0.36034282743E+02 -0.43801841411E+01  0.46196126306E+02  0.41800000000E+01 0. -1.
        -11    1    1    2    0    0 -0.30850836999E+02  0.95231430624E+00 -0.66070158708E+02  0.72924254660E+02  0.00000000000E+00 0.  1.
         11    1    1    2    0    0  0.61451914715E+02 -0.17003342929E+02 -0.58871004407E+02  0.86782755503E+02  0.00000000000E+00 0. -1.
</event>
<event>
 7    1  0.6833760E-006  0.1688548E+03  0.7561462E-02  0.1179047E+00
          2   -1    0    0  501    0  0.00000000000E+00  0.00000000000E+00  0.60725297188E+03  0.60725297188E+03  0.00000000000E+00 0. -1.
         -2   -1    0    0    0  501 -0.00000000000E+00 -0.00000000000E+00 -0.99498429426E+02  0.99498429426E+02  0.00000000000E+00 0.  1.
         23    2    1    2    0    0 -0.47549517679E+02 -0.15634220861E+03  0.49859553503E+02  0.21174954388E+03  0.12509217176E+03 0.  0.
          5    1    3    3  502    0 -0.23127413806E+02 -0.30814546886E+02 -0.39770252733E+02  0.55529802553E+02  0.41800000000E+01 0.  1.
         -5    1    3    3    0  502 -0.24422103873E+02 -0.12552766172E+03  0.89629806236E+02  0.15621974133E+03  0.41800000000E+01 0.  1.
        -11    1    1    2    0    0  0.39768599575E+01  0.98540533215E+02  0.15606934459E+03  0.18461769260E+03  0.00000000000E+00 0.  1.
         11    1    1    2    0    0  0.43572657721E+02  0.57801675390E+02  0.30182564436E+03  0.31038416482E+03  0.00000000000E+00 0. -1.
</event>
<event>
 7    1  0.6833760E-006  0.1041838E+03  0.7561462E-02  0.1271736E+00
          2   -1    0    0  501    0  0.00000000000E+00  0.00000000000E+00  0.23572942960E+03  0.23572942960E+03  0.00000000000E+00 0. -1.
         -2   -1    0    0    0  501 -0.00000000000E+00 -0.00000000000E+00 -0.69720925904E+02  0.69720925904E+02  0.00000000000E+00 0.  1.
         23    2    1    2    0    0 -0.20724357201E+02  0.16414410729E+02  0.50259961962E+01  0.11913941274E+03  0.11606036003E+03 0.  0.
          5    1    3    3  502    0 -0.36914057858E+02  0.59562441720E+02  0.15045566904E+02  0.71792573534E+02  0.41800000000E+01 0. -1.
         -5    1    3    3    0  502  0.16189700657E+02 -0.43148030991E+02 -0.10019570708E+02  0.47346839208E+02  0.41800000000E+01 0.  1.
        -11    1    1    2    0    0  0.46819248744E+02 -0.36171429674E+02  0.12059212878E+03  0.13432377266E+03  0.00000000000E+00 0.  1.
         11    1    1    2    0    0 -0.26094891543E+02  0.19757018945E+02  0.40390378718E+02  0.51987170102E+02  0.00000000000E+00 0. -1.
</event>
<event>
 7    1  0.6833760E-006  0.1090391E+03  0.7561462E-02  0.1262360E+00
          2   -1    0    0  501    0  0.00000000000E+00  0.00000000000E+00  0.28650794780E+03  0.28650794780E+03  0.00000000000E+00 0. -1.
         -2   -1    0    0    0  501 -0.00000000000E+00 -0.00000000000E+00 -0.64941218154E+02  0.64941218154E+02  0.00000000000E+00 0.  1.
         23    2    1    2    0    0  0.23505072761E+02 -0.54682865528E+02  0.32045578395E+02  0.13321751498E+03  0.11479234720E+03 0.  0.
          5    1    3    3  502    0 -0.59335851173E+01 -0.75754921118E+02  0.51516021818E+02  0.91898794388E+02  0.41800000000E+01 0. -1.
         -5    1    3    3    0  502  0.29438657878E+02  0.21072055590E+02 -0.19470443424E+02  0.41318720594E+02  0.41800000000E+01 0.  1.
        -11    1    1    2    0    0 -0.41978610615E+02 -0.57214456721E+01  0.53372810077E+02  0.68143932564E+02  0.00000000000E+00 0. -1.
         11    1    1    2    0    0  0.18473537854E+02  0.60404311200E+02  0.13614834117E+03  0.15008771841E+03  0.00000000000E+00 0.  1.
</event>
<event>
 7    1  0.6833760E-006  0.2357343E+03  0.7561462E-02  0.1122668E+00
          2   -1    0    0  501    0  0.00000000000E+00  0.00000000000E+00  0.73439152106E+03  0.73439152106E+03  0.00000000000E+00 0.  1.
         -2   -1    0    0    0  501 -0.00000000000E+00 -0.00000000000E+00 -0.78070181204E+02  0.78070181204E+02  0.00000000000E+00 0. -1.
         23    2    1    2    0    0 -0.18362650164E+03  0.10679525108E+03  0.31461360016E+03  0.39969120537E+03  0.12508966578E+03 0.  0.
          5    1    3    3  502    0 -0.19946261191E+02 -0.26300166476E+02  0.63556996369E+02  0.71739224136E+02  0.41800000000E+01 0. -1.
         -5    1    3    3    0  502 -0.16368024045E+03  0.13309541755E+03  0.25105660379E+03  0.32795198123E+03  0.41800000000E+01 0. -1.
        -11    1    1    2    0    0  0.11367689479E+03 -0.10860609552E+03  0.19710224292E+03  0.25212499788E+03  0.00000000000E+00 0.  1.
         11    1    1    2    0    0  0.69949606846E+02  0.18108444441E+01  0.14460549678E+03  0.16064549901E+03  0.00000000000E+00 0. -1.
</event>
<event>
 7    1  0.6833760E-006  0.1046113E+03  0.7561462E-02  0.1270887E+00
          1   -1    0    0  501    0  0.00000000000E+00  0.00000000000E+00  0.14781773412E+03  0.14781773412E+03  0.00000000000E+00 0. -1.
         -1   -1    0    0    0  501 -0.00000000000E+00 -0.00000000000E+00 -0.14452543075E+03  0.14452543075E+03  0.00000000000E+00 0.  1.
         23    2    1    2    0    0  0.42703916937E+02 -0.32574553635E+02 -0.78170018552E+02  0.15699041835E+03  0.12510281207E+03 0.  0.
          5    1    3    3  502    0  0.10271550000E+02 -0.76984494165E+02 -0.28705107642E+02  0.82907012285E+02  0.41800000000E+01 0. -1.
         -5    1    3    3    0  502  0.32432366937E+02  0.44409940530E+02 -0.49464910910E+02  0.74083406066E+02  0.41800000000E+01 0. -1.
        -11    1    1    2    0    0 -0.17850310137E+02 -0.14541511758E+02 -0.13340243927E+02  0.26609232312E+02  0.00000000000E+00 0.  1.
         11    1    1    2    0    0 -0.24853606800E+02  0.47116065393E+02  0.94802565853E+02  0.10874351420E+03  0.00000000000E+00 0. -1.
</event>
<event>
 7    1  0.6833760E-006  0.1118347E+03  0.7561462E-02  0.1257209E+00
         -2   -1    0    0    0  501 -0.00000000000E+00  0.00000000000E+00  0.14638423915E+03  0.14638423915E+03  0.00000000000E+00 0. -1.
          2   -1    0    0  501    0  0.00000000000E+00 -0.00000000000E+00 -0.10114156239E+03  0.10114156239E+03  0.00000000000E+00 0.  1.
         23    2    1    2    0    0 -0.48404431120E+02 -0.38297140299E+02  0.38615271147E+02  0.14473511018E+03  0.12508977994E+03 0.  0.
          5    1    3    3  502    0 -0.88912494072E+01 -0.80725181713E+02  0.24216603732E+02  0.84850018120E+02  0.41800000000E+01 0.  1.
         -5    1    3    3    0  502 -0.39513181713E+02  0.42428041414E+02  0.14398667415E+02  0.59885092057E+02  0.41800000000E+01 0.  1.
        -11    1    1    2    0    0  0.28593171588E+02 -0.11352214226E+02 -0.25900901302E+02  0.40215655130E+02  0.00000000000E+00 0.  1.
         11    1    1    2    0    0  0.19811259533E+02  0.49649354525E+02  0.32528306920E+02  0.62575036238E+02  0.00000000000E+00 0. -1.
</event>
<event>
 7    1  0.6833760E-006  0.2147622E+03  0.7561462E-02  0.1137849E+00
         -2   -1    0    0    0  501 -0.00000000000E+00  0.00000000000E+00  0.31707280534E+02  0.31707280534E+02  0.00000000000E+00 0.  1.
          2   -1    0    0  501    0  0.00000000000E+00 -0.00000000000E+00 -0.15831189619E+04  0.15831189619E+04  0.00000000000E+00 0. -1.
         23    2    1    2    0    0 -0.18320838836E+03 -0.33627560422E+02 -0.59464006898E+03  0.63556327958E+03  0.12509094419E+03 0.  0.
          5    1    3    3  502    0 -0.24457835871E+02 -0.55516268276E+02 -0.21575551318E+03  0.22416100384E+03  0.41800000000E+01 0. -1.
         -5    1    3    3    0  502 -0.15875055249E+03  0.21888707853E+02 -0.37888455581E+03  0.41140227573E+03  0.41800000000E+01 0. -1.
        -11    1    1    2    0    0  0.55206464692E+02  0.55806880148E+02 -0.33684179810E+03  0.34586783395E+03  0.00000000000E+00 0.  1.
         11    1    1    2    0    0  0.12800192367E+03 -0.22179319725E+02 -0.61992981431E+03  0.63339512894E+03  0.00000000000E+00 0. -1.
</event>
<event>
 7    1  0.6833760E-006  0.1385420E+03  0.7561462E-02  0.1215304E+00
         -2   -1    0    0    0  501 -0.00000000000E+00  0.00000000000E+00  0.57267034115E+03  0.57267034115E+03  0.00000000000E+00 0.  1.
          2   -1    0    0  501    0  0.00000000000E+00 -0.00000000000E+00 -0.35722786119E+02  0.35722786119E+02  0.00000000000E+00 0. -1.
         23    2    1    2    0    0  0.90923755164E+02  0.89532667223E+01  0.34502567395E+03  0.37818884772E+03  0.12504718555E+03 0.  0.
          5    1    3    3  502    0  0.24956165716E+02  0.61003978691E+02  0.10710178986E+03  0.12582750659E+03  0.41800000000E+01 0.  1.
         -5    1    3    3    0  502  0.65967589448E+02 -0.52050711969E+02  0.23792388409E+03  0.25236134113E+03  0.41800000000E+01 0.  1.
        -11    1    1    2    0    0  0.10057362181E+02  0.19545290935E+02  0.38530460789E+02  0.44359501128E+02  0.00000000000E+00 0.  1.
         11    1    1    2    0    0 -0.10098111734E+03 -0.28498557657E+02  0.15339142029E+03  0.18584477842E+03  0.00000000000E+00 0. -1.
</event>
<event>
 7    1  0.6833760E-006  0.1527257E+03  0.7561462E-02  0.1197163E+00
         -1   -1    0    0    0  501 -0.00000000000E+00  0.00000000000E+00  0.35682971347E+02  0.35682971347E+02  0.00000000000E+00 0.  1.
          1   -1    0    0  501    0  0.00000000000E+00 -0.00000000000E+00 -0.74040363131E+03  0.74040363131E+03  0.00000000000E+00 0. -1.
         23    2    1    2    0    0 -0.39142762703E+02 -0.11387450317E+03 -0.39759067360E+03  0.43385056794E+03  0.12509361785E+03 0.  0.
          5    1    3    3  502    0  0.27792908767E+02  0.12132828562E+02 -0.61287063912E+02  0.68507137654E+02  0.41800000000E+01 0. -1.
         -5    1    3    3    0  502 -0.66935671470E+02 -0.12600733173E+03 -0.33630360969E+03  0.36534343029E+03  0.41800000000E+01 0. -1.
        -11    1    1    2    0    0 -0.12785371129E+02  0.38479467817E+02 -0.30177868421E+02  0.50545414241E+02  0.00000000000E+00 0.  1.
         11    1    1    2    0    0  0.51928133832E+02  0.75395035355E+02 -0.27695211794E+03  0.29169062047E+03  0.00000000000E+00 0. -1.
</event>
<event>
 7    1  0.6833760E-006  0.2241143E+03  0.7561462E-02  0.1130852E+00
         -2   -1    0    0    0  501 -0.00000000000E+00  0.00000000000E+00  0.81618083645E+02  0.81618083645E+02  0.00000000000E+00 0.  1.
          2   -1    0    0  501    0  0.00000000000E+00 -0.00000000000E+00 -0.71882083939E+03  0.71882083939E+03  0.00000000000E+00 0. -1.
         23    2    1    2    0    0  0.17756450245E+03  0.85818452977E+02 -0.18240932383E+03  0.29633937484E+03  0.12509957737E+03 0.  0.
          5    1    3    3  502    0  0.22089257277E+02 -0.29685803417E+02 -0.14467165364E+02  0.39949386545E+02  0.41800000000E+01 0.  1.
         -5    1    3    3    0  502  0.15547524518E+03  0.11550425639E+03 -0.16794215847E+03  0.25638998830E+03  0.41800000000E+01 0.  1.
        -11    1    1    2    0    0 -0.79793489708E+02  0.99366328433E+01 -0.15859474281E+03  0.17781459478E+03  0.00000000000E+00 0. -1.
         11    1    1    2    0    0 -0.97771012747E+02 -0.95755085820E+02 -0.29619868911E+03  0.32628495342E+03  0.00000000000E+00 0.  1.
</event>
<event>
 7    1  0.6833760E-006  0.1619851E+03  0.7561462E-02  0.1186474E+00
         -1   -1    0    0    0  501 -0.00000000000E+00  0.00000000000E+00  0.65672108123E+03  0.65672108123E+03  0.00000000000E+00 0.  1.
          1   -1    0    0  501    0  0.00000000000E+00 -0.00000000000E+00 -0.52563456021E+02  0.52563456021E+02  0.00000000000E+00 0. -1.
         23    2    1    2    0    0 -0.22309340654E+02  0.14771095287E+03  0.27884113319E+03  0.34017107255E+03  0.12509096196E+03 0.  0.
          5    1    3    3  502    0 -0.14805901415E+02  0.82299889547E+02  0.25759773711E+03  0.27086260927E+03  0.41800000000E+01 0.  1.
         -5    1    3    3    0  502 -0.75034392395E+01  0.65411063322E+02  0.21243396082E+02  0.69308463281E+02  0.41800000000E+01 0.  1.
        -11    1    1    2    0    0  0.70093096979E+01 -0.15648028623E+03  0.29641080506E+03  0.33525300260E+03  0.00000000000E+00 0. -1.
         11    1    1    2    0    0  0.15300030957E+02  0.87693333570E+01  0.28905686957E+02  0.33860462094E+02  0.00000000000E+00 0.  1.
</event>
<event>
 7    1  0.6833760E-006  0.8472462E+02  0.7561462E-02  0.1316154E+00
         -1   -1    0    0    0  501 -0.00000000000E+00  0.00000000000E+00  0.18496243894E+02  0.18496243894E+02  0.00000000000E+00 0.  1.
          1   -1    0    0  501    0  0.00000000000E+00 -0.00000000000E+00 -0.80526158034E+03  0.80526158034E+03  0.00000000000E+00 0. -1.
         23    2    1    2    0    0  0.21148558404E+02 -0.43335112386E+02 -0.34186015282E+03  0.36720467239E+03  0.12508282795E+03 0.  0.
          5    1    3    3  502    0  0.34390886282E+02 -0.20136017068E+02 -0.33743678971E+03  0.33980766868E+03  0.41800000000E+01 0.  1.
         -5    1    3    3    0  502 -0.13242327879E+02 -0.23199095317E+02 -0.44233631161E+01  0.27397003713E+02  0.41800000000E+01 0.  1.
        -11    1    1    2    0    0  0.87992937415E+01  0.64863777967E+02 -0.29541902833E+03  0.30258410328E+03  0.00000000000E+00 0.  1.
         11    1    1    2    0    0 -0.29947852145E+02 -0.21528665582E+02 -0.14948615530E+03  0.15396904856E+03  0.00000000000E+00 0. -1.
</event>
<event>
 7    1  0.6833760E-006  0.1314100E+03  0.7561462E-02  0.1225378E+00
         -1   -1    0    0    0  501 -0.00000000000E+00  0.00000000000E+00  0.67206684907E+03  0.67206684907E+03  0.00000000000E+00 0.  1.
          1   -1    0    0  501    0  0.00000000000E+00 -0.00000000000E+00 -0.35190734780E+02  0.35190734780E+02  0.00000000000E+00 0. -1.
         23    2    1    2    0    0  0.30256969939E+02  0.96751947014E+02  0.34878498150E+03  0.38415455309E+03  0.12508930354E+03 0.  0.
          5    1    3    3  502    0 -0.34731788118E+02  0.11196869711E+02  0.18233157348E+03  0.18599446789E+03  0.41800000000E+01 0. -1.
         -5    1    3    3    0  502  0.64988758057E+02  0.85555077304E+02  0.16645340802E+03  0.19816008520E+03  0.41800000000E+01 0. -1.
        -11    1    1    2    0    0 -0.40522811341E+02 -0.28481569188E+02  0.22225005493E+03  0.22770240434E+03  0.00000000000E+00 0.  1.
         11    1    1    2    0    0  0.10265841402E+02 -0.68270377826E+02  0.65841077853E+02  0.95400626418E+02  0.00000000000E+00 0. -1.
</event>
<event>
 7    1  0.6833760E-006  0.8219508E+02  0.7561462E-02  0.1322935E+00
          2   -1    0    0  501    0  0.00000000000E+00  0.00000000000E+00  0.14797926635E+03  0.14797926635E+03  0.00000000000E+00 0. -1.
         -2   -1    0    0    0  501 -0.00000000000E+00 -0.00000000000E+00 -0.86726755358E+02  0.86726755358E+02  0.00000000000E+00 0.  1.
         23    2    1    2    0    0  0.16403439451E+02  0.25321455009E+02  0.27334290421E+02  0.13154820787E+03  0.12509004217E+03 0.  0.
          5    1    3    3  502    0 -0.11035730915E+02 -0.28989625175E+02 -0.33191216797E+02  0.45621431335E+02  0.41800000000E+01 0.  1.
         -5    1    3    3    0  502  0.27439170365E+02  0.54311080184E+02  0.60525507218E+02  0.85926776532E+02  0.41800000000E+01 0.  1.
        -11    1    1    2    0    0 -0.41825301496E+02 -0.12669453059E+02 -0.15327199719E+02  0.46311920034E+02  0.00000000000E+00 0.  1.
         11    1    1    2    0    0  0.25421862045E+02 -0.12652001950E+02  0.49245420285E+02  0.56845893803E+02  0.00000000000E+00 0. -1.
</event>
<event>
 7    1  0.6833760E-006  0.1046641E+03  0.7561462E-02  0.1270783E+00
          1   -1    0    0  501    0  0.00000000000E+00  0.00000000000E+00  0.50438282488E+03  0.50438282488E+03  0.00000000000E+00 0. -1.
         -1   -1    0    0    0  501 -0.00000000000E+00 -0.00000000000E+00 -0.26087827605E+02  0.26087827605E+02  0.00000000000E+00 0.  1.
         23    2    1    2    0    0  0.34499701267E+02 -0.13875652625E+02  0.27754897909E+03  0.30669653978E+03  0.12508624463E+03 0.  0.
          5    1    3    3  502    0  0.72163543096E+02 -0.16337079491E+02  0.24724457250E+03  0.25811204573E+03  0.41800000000E+01 0. -1.
         -5    1    3    3    0  502 -0.37663841829E+02  0.24614268657E+01  0.30304406586E+02  0.48584494049E+02  0.41800000000E+01 0. -1.
        -11    1    1    2    0    0 -0.48761526559E+02 -0.25741898331E+02  0.13342644965E+03  0.14437087403E+03  0.00000000000E+00 0.  1.
         11    1    1    2    0    0  0.14261825292E+02  0.39617550956E+02  0.67319568535E+02  0.79403238675E+02  0.00000000000E+00 0. -1.
</event>
<event>
 7    1  0.6833760E-006  0.1005008E+03  0.7561462E-02  0.1279246E+00
          1   -1    0    0  501    0  0.00000000000E+00  0.00000000000E+00  0.21607487830E+03  0.21607487830E+03  0.00000000000E+00 0. -1.
         -1   -1    0    0    0  501 -0.00000000000E+00 -0.00000000000E+00 -0.56147861053E+02  0.56147861053E+02  0.00000000000E+00 0.  1.
         23    2    1    2    0    0 -0.15175318528E+02  0.16129039365E+02  0.70997629132E+02  0.14552984078E+03  0.12509130670E+03 0.  0.
          5    1    3    3  502    0  0.48118954088E+02 -0.21875999180E+02  0.27321514675E+02  0.59648391821E+02  0.41800000000E+01 0.  1.
         -5    1    3    3    0  502 -0.63294272616E+02  0.38005038546E+02  0.43676114457E+02  0.85881448957E+02  0.41800000000E+01 0.  1.
        -11    1    1    2    0    0 -0.27320423940E+02  0.28933419002E+01  0.13495021735E+01  0.27506329230E+02  0.00000000000E+00 0.  1.
         11    1    1    2    0    0  0.42495742468E+02 -0.19022381266E+02  0.87579885939E+02  0.99186569343E+02  0.00000000000E+00 0. -1.
</event>
<event>
 7    1  0.6833760E-006  0.1042133E+03  0.7561462E-02  0.1271677E+00
         -1   -1    0    0    0  501 -0.00000000000E+00  0.00000000000E+00  0.57805982240E+02  0.57805982240E+02  0.00000000000E+00 0.  1.
          1   -1    0    0  501    0  0.00000000000E+00 -0.00000000000E+00 -0.25690741708E+03  0.25690741708E+03  0.00000000000E+00 0. -1.
         23    2    1    2    0    0 -0.61547106191E+02  0.41805461524E+02 -0.10052942742E+03  0.17688686796E+03  0.12508819044E+03 0.  0.
          5    1    3    3  502    0 -0.91330859609E+02  0.23570108073E+02 -0.31706640850E+02  0.99597486843E+02  0.41800000000E+01 0. -1.
         -5    1    3    3    0  502  0.29783753418E+02  0.18235353451E+02 -0.68822786567E+02  0.77289381120E+02  0.41800000000E+01 0. -1.
        -11    1    1    2    0    0  0.23587956409E+02 -0.17477662490E+01  0.13357590407E+01  0.23690306596E+02  0.00000000000E+00 0.  1.
         11    1    1    2    0    0  0.37959149782E+02 -0.40057695275E+02 -0.99907766468E+02  0.11413622476E+03  0.00000000000E+00 0. -1.
</event>
<event>
 7    1  0.1197249E-005  0.1902937E+03  0.7561462E-02  0.1158197E+00
          1   -1    0    0  501    0  0.00000000000E+00  0.00000000000E+00  0.90534682381E+03  0.90534682381E+03  0.00000000000E+00 0. -1.
         -1   -1    0    0    0  501 -0.00000000000E+00 -0.00000000000E+00 -0.46955363572E+02  0.46955363572E+02  0.00000000000E+00 0.  1.
         23    2    1    2    0    0 -0.88215755664E+02 -0.14328601750E+03  0.33586020721E+03  0.39593260760E+03  0.12509056166E+03 0.  0.
          5    1    3    3  502    0 -0.11902775855E+03 -0.12220774367E+03  0.25577318750E+03  0.30747314641E+03  0.41800000000E+01 0. -1.
         -5    1    3    3    0  502  0.30812002882E+02 -0.21078273834E+02  0.80087019706E+02  0.88459461195E+02  0.41800000000E+01 0. -1.
        -11    1    1    2    0    0  0.76403119635E+01  0.43281031828E+02  0.49413470015E+02  0.66131029796E+02  0.00000000000E+00 0.  1.
         11    1    1    2    0    0  0.80575443701E+02  0.10000498567E+03  0.47311778302E+03  0.49023854999E+03  0.00000000000E+00 0. -1.
</event>
<event>
 7    1  0.6833760E-006  0.9664078E+02  0.7561462E-02  0.1287523E+00
         -2   -1    0    0    0  501 -0.00000000000E+00  0.00000000000E+00  0.15890701055E+03  0.15890701055E+03  0.00000000000E+00 0.  1.
          2   -1    0    0  501    0  0.00000000000E+00 -0.00000000000E+00 -0.21690170109E+03  0.21690170109E+03  0.00000000000E+00 0. -1.
         23    2    1    2    0    0 -0.34752814875E+01 -0.45292909121E+01  0.12557929163E+03  0.17122555165E+03  0.11625592026E+03 0.  0.
          5    1    3    3  502    0  0.28998822592E+02  0.46632896790E+02  0.51214208949E+02  0.75205893207E+02  0.41800000000E+01 0. -1.
         -5    1    3    3    0  502 -0.32474104080E+02 -0.51162187702E+02  0.74365082679E+02  0.96019658446E+02  0.41800000000E+01 0.  1.
        -11    1    1    2    0    0 -0.15357054261E+02  0.36926918186E+02 -0.14653298253E+03  0.15189256523E+03  0.00000000000E+00 0. -1.
         11    1    1    2    0    0  0.18832335748E+02 -0.32397627274E+02 -0.37040999634E+02  0.52690594764E+02  0.00000000000E+00 0.  1.
</event>
<event>
 7    1  0.6833760E-006  0.5024258E+02  0.7561462E-02  0.1444038E+00
         -4   -1    0    0    0  501 -0.00000000000E+00  0.00000000000E+00  0.14957762170E+03  0.14957762170E+03  0.00000000000E+00 0.  1.
          4   -1    0    0  501    0  0.00000000000E+00 -0.00000000000E+00 -0.88405309913E+02  0.88405309913E+02  0.00000000000E+00 0. -1.
         23    2    1    2    0    0 -0.26715515279E+02  0.13440347418E+02  0.60198983062E+02  0.14200732474E+03  0.12509117084E+03 0.  0.
          5    1    3    3  502    0 -0.37393293585E+02  0.26072754714E+01  0.95860070708E+02  0.10301301785E+03  0.41800000000E+01 0.  1.
         -5    1    3    3    0  502  0.10677778306E+02  0.10833071946E+02 -0.35661087646E+02  0.38994306885E+02  0.41800000000E+01 0.  1.
        -11    1    1    2    0    0  0.90214425299E+01 -0.24513393472E+02 -0.41278647595E+02  0.48848947094E+02  0.00000000000E+00 0. -1.
         11    1    1    2    0    0  0.17694072749E+02  0.11073046055E+02  0.42251976319E+02  0.47126659782E+02  0.00000000000E+00 0.  1.
</event>
<event>
 7    1  0.6833760E-006  0.1151812E+03  0.7561462E-02  0.1251265E+00
          1   -1    0    0  501    0  0.00000000000E+00  0.00000000000E+00  0.31909596489E+03  0.31909596489E+03  0.00000000000E+00 0. -1.
         -1   -1    0    0    0  501 -0.00000000000E+00 -0.00000000000E+00 -0.72192880579E+02  0.72192880579E+02  0.00000000000E+00 0.  1.
         23    2    1    2    0    0 -0.57734555096E+02  0.18606757615E+02  0.21315218296E+02  0.14064893031E+03  0.12509313645E+03 0.  0.
          5    1    3    3  502    0  0.29345407990E+02  0.20389525233E+02 -0.23135899547E+02  0.42774150572E+02  0.41800000000E+01 0. -1.
         -5    1    3    3    0  502 -0.87079963086E+02 -0.17827676178E+01  0.44451117843E+02  0.97874779739E+02  0.41800000000E+01 0. -1.
        -11    1    1    2    0    0 -0.23402940549E+02 -0.10482926959E+02  0.35435473972E+02  0.43740852753E+02  0.00000000000E+00 0.  1.
         11    1    1    2    0    0  0.81137495645E+02 -0.81238306565E+01  0.19015239205E+03  0.20689906241E+03  0.00000000000E+00 0. -1.
</event>
<event>
 7    1  0.6833760E-006  0.8767971E+02  0.7561462E-02  0.1308570E+00
          2   -1    0    0  501    0  0.00000000000E+00  0.00000000000E+00  0.38693581468E+02  0.38693581468E+02  0.00000000000E+00 0. -1.
         -2   -1    0    0    0  501 -0.00000000000E+00 -0.00000000000E+00 -0.31872968980E+03  0.31872968980E+03  0.00000000000E+00 0.  1.
         23    2    1    2    0    0 -0.23959685890E+02 -0.90342560922E+00 -0.17393615595E+03  0.21558435940E+03  0.12509175410E+03 0.  0.
          5    1    3    3  502    0  0.19192480326E+02  0.28079974325E+02 -0.15708508261E+03  0.16077945092E+03  0.41800000000E+01 0. -1.
         -5    1    3    3    0  502 -0.43152166216E+02 -0.28983399934E+02 -0.16851073347E+02  0.54804908482E+02  0.41800000000E+01 0. -1.
        -11    1    1    2    0    0  0.29351129042E+02  0.39922794662E+02 -0.35368608450E+02  0.60879033940E+02  0.00000000000E+00 0. -1.
         11    1    1    2    0    0 -0.53914431523E+01 -0.39019369053E+02 -0.70731343931E+02  0.80959877933E+02  0.00000000000E+00 0.  1.
</event>
<event>
 7    1  0.6833760E-006  0.1205139E+03  0.7561462E-02  0.1242252E+00
          3   -1    0    0  501    0  0.00000000000E+00  0.00000000000E+00  0.14626119447E+03  0.14626119447E+03  0.00000000000E+00 0. -1.
         -3   -1    0    0    0  501 -0.00000000000E+00 -0.00000000000E+00 -0.13470075712E+03  0.13470075712E+03  0.00000000000E+00 0.  1.
         23    2    1    2    0    0  0.29304050669E+02 -0.83605087779E+02  0.46858761295E+01  0.15335370300E+03  0.12508742024E+03 0.  0.
          5    1    3    3  502    0 -0.20710811470E+02 -0.56449760518E+02 -0.46944478502E+02  0.76398754153E+02  0.41800000000E+01 0.  1.
         -5    1    3    3    0  502  0.50014862138E+02 -0.27155327262E+02  0.51630354632E+02  0.76954948852E+02  0.41800000000E+01 0.  1.
        -11    1    1    2    0    0  0.17798251485E+02  0.73356096203E+02  0.19129094811E+02  0.77870513510E+02  0.00000000000E+00 0. -1.
         11    1    1    2    0    0 -0.47102302153E+02  0.10248991576E+02 -0.12254533593E+02  0.49737735072E+02  0.00000000000E+00 0.  1.
</event>
<event>
 7    1  0.6833760E-006  0.2284813E+03  0.7561462E-02  0.1127713E+00
         -2   -1    0    0    0  501 -0.00000000000E+00  0.00000000000E+00  0.20942910757E+03  0.20942910757E+03  0.00000000000E+00 0. -1.
          2   -1    0    0  501    0  0.00000000000E+00 -0.00000000000E+00 -0.31526344148E+03  0.31526344148E+03  0.00000000000E+00 0.  1.
         23    2    1    2    0    0 -0.18900824001E+03  0.72550052394E+02  0.63185439499E+02  0.24622922815E+03  0.12509519629E+03 0.  0.
          5    1    3    3  502    0 -0.66900551034E+02 -0.34588902538E+02  0.22481463491E+02  0.78708096839E+02  0.41800000000E+01 0.  1.
         -5    1    3    3    0  502 -0.12210768898E+03  0.10713895493E+03  0.40703976008E+02  0.16752113131E+03  0.41800000000E+01 0.  1.
        -11    1    1    2    0    0  0.10089885548E+03  0.58839220904E+01 -0.97950595184E+02  0.14074629186E+03  0.00000000000E+00 0.  1.
         11    1    1    2    0    0  0.88109384535E+02 -0.78433974484E+02 -0.71069178226E+02  0.13771702905E+03  0.00000000000E+00 0. -1.
</event>
<event>
 7    1  0.6833760E-006  0.1638163E+03  0.7561462E-02  0.1184454E+00
          2   -1    0    0  501    0  0.00000000000E+00  0.00000000000E+00  0.14735067146E+03  0.14735067146E+03  0.00000000000E+00 0. -1.
         -2   -1    0    0    0  501 -0.00000000000E+00 -0.00000000000E+00 -0.21730580988E+03  0.21730580988E+03  0.00000000000E+00 0.  1.
         23    2    1    2    0    0  0.10967570474E+03  0.86598952410E+02 -0.61962942853E+02  0.19787521274E+03  0.12564654695E+03 0.  0.
          5    1    3    3  502    0 -0.36916365052E+01  0.73393147173E+02 -0.21012878251E+02  0.76545383168E+02  0.41800000000E+01 0.  1.
         -5    1    3    3    0  502  0.11336734124E+03  0.13205805237E+02 -0.40950064602E+02  0.12132982957E+03  0.41800000000E+01 0.  1.
        -11    1    1    2    0    0 -0.27109247882E+02 -0.23947001585E+02 -0.44090159849E+02  0.57029048749E+02  0.00000000000E+00 0.  1.
         11    1    1    2    0    0 -0.82566456854E+02 -0.62651950825E+02  0.36097964280E+02  0.10975221986E+03  0.00000000000E+00 0. -1.
</event>
<event>
 7    1  0.6833760E-006  0.1185274E+03  0.7561462E-02  0.1245546E+00
          2   -1    0    0  501    0  0.00000000000E+00  0.00000000000E+00  0.70648211517E+03  0.70648211517E+03  0.00000000000E+00 0.  1.
         -2   -1    0    0    0  501 -0.00000000000E+00 -0.00000000000E+00 -0.21266548561E+02  0.21266548561E+02  0.00000000000E+00 0. -1.
         23    2    1    2    0    0 -0.36915182935E+02 -0.47285438932E+02  0.37985510801E+03  0.40439559350E+03  0.12508896631E+03 0.  0.
          5    1    3    3  502    0  0.35809878479E+02 -0.52560654981E+02  0.21113864116E+03  0.22054924175E+03  0.41800000000E+01 0. -1.
         -5    1    3    3    0  502 -0.72725061414E+02  0.52752160481E+01  0.16871646685E+03  0.18384635174E+03  0.41800000000E+01 0. -1.
        -11    1    1    2    0    0  0.38153421885E+01  0.63367185849E+02  0.13664924006E+03  0.15067505397E+03  0.00000000000E+00 0. -1.
         11    1    1    2    0    0  0.33099840747E+02 -0.16081746917E+02  0.16871121853E+03  0.17267801626E+03  0.00000000000E+00 0.  1.
</event>
<event>
 6    1  0.6833760E-006  0.2468147E+03  0.7561462E-02  0.1115335E+00
          2   -1    0    0  501    0  0.00000000000E+00  0.00000000000E+00  0.11496510612E+03  0.11496510612E+03  0.00000000000E+00 0. -1.
         -2   -1    0    0    0  501 -0.00000000000E+00 -0.00000000000E+00 -0.63194592679E+03  0.63194592679E+03  0.00000000000E+00 0.  1.
          5    1    1    2  502    0  0.14237809895E+02  0.13954220049E+03 -0.72636357780E+02  0.15801346088E+03  0.41800000000E+01 0. -1.
         -5    1    1    2    0  502  0.10995588268E+02  0.97588524509E+02 -0.24832932577E+03  0.26707555020E+03  0.41800000000E+01 0.  1.
        -11    1    1    2    0    0 -0.43331094939E+02 -0.23225495603E+03 -0.18506301001E+03  0.30011375521E+03  0.00000000000E+00 0.  1.
         11    1    1    2    0    0  0.18097696776E+02 -0.48757689658E+01 -0.10952127097E+02  0.21708266618E+02  0.00000000000E+00 0. -1.
</event>
<event>
 7    1  0.6833760E-006  0.1040629E+03  0.7561462E-02  0.1271977E+00
         -1   -1    0    0    0  501 -0.00000000000E+00  0.00000000000E+00  0.41520670333E+03  0.41520670333E+03  0.00000000000E+00 0.  1.
          1   -1    0    0  501    0  0.00000000000E+00 -0.00000000000E+00 -0.63041332290E+02  0.63041332290E+02  0.00000000000E+00 0. -1.
         23    2    1    2    0    0 -0.22022044427E+02  0.23726465098E+02  0.36165486575E+03  0.38142782783E+03  0.11681194430E+03 0.  0.
          5    1    3    3  502    0  0.23892021810E+02 -0.32163810352E+02  0.68636496318E+02  0.79585051545E+02  0.41800000000E+01 0. -1.
         -5    1    3    3    0  502 -0.45914066236E+02  0.55890275450E+02  0.29301836944E+03  0.30184277629E+03  0.41800000000E+01 0.  1.
        -11    1    1    2    0    0 -0.10309931568E+02  0.30533443813E+02  0.32341089219E+01  0.32388969427E+02  0.00000000000E+00 0.  1.
         11    1    1    2    0    0  0.32331975995E+02 -0.54259908911E+02 -0.12723603641E+02  0.64431238358E+02  0.00000000000E+00 0. -1.
</event>
<event>
 7    1  0.6833760E-006  0.1022268E+03  0.7561462E-02  0.1275682E+00
          4   -1    0    0  501    0  0.00000000000E+00  0.00000000000E+00  0.32283886952E+03  0.32283886952E+03  0.00000000000E+00 0. -1.
         -4   -1    0    0    0  501 -0.00000000000E+00 -0.00000000000E+00 -0.37372339091E+02  0.37372339091E+02  0.00000000000E+00 0.  1.
         23    2    1    2    0    0  0.24482172843E+02 -0.82322219806E+01  0.16322122512E+03  0.20724601567E+03  0.12507036585E+03 0.  0.
          5    1    3    3  502    0  0.72530174838E+02  0.14881148306E+02  0.91460839720E+02  0.11774817383E+03  0.41800000000E+01 0.  1.
         -5    1    3    3    0  502 -0.48048001994E+02 -0.23113370287E+02  0.71760385400E+02  0.89497841842E+02  0.41800000000E+01 0.  1.
        -11    1    1    2    0    0 -0.50419892690E+02  0.61013790713E+01  0.34388507923E+02  0.61334834169E+02  0.00000000000E+00 0. -1.
         11    1    1    2    0    0  0.25937719846E+02  0.21308429093E+01  0.87856797381E+02  0.91630358770E+02  0.00000000000E+00 0.  1.
</event>
<event>
 7    1  0.6833760E-006  0.1479528E+03  0.7561462E-02  0.1203011E+00
          3   -1    0    0  501    0  0.00000000000E+00  0.00000000000E+00  0.34444852851E+02  0.34444852851E+02  0.00000000000E+00 0. -1.
         -3   -1    0    0    0  501 -0.00000000000E+00 -0.00000000000E+00 -0.77960513921E+03  0.77960513921E+03  0.00000000000E+00 0.  1.
         23    2    1    2    0    0  0.10545080171E+03 -0.54558040653E+00 -0.54855716118E+03  0.57243562936E+03  0.12508965363E+03 0.  0.
          5    1    3    3  502    0  0.10561903500E+03  0.47120161034E+02 -0.38304697180E+03  0.40014765416E+03  0.41800000000E+01 0. -1.
         -5    1    3    3    0  502 -0.16823328826E+00 -0.47665741440E+02 -0.16551018938E+03  0.17228797520E+03  0.41800000000E+01 0. -1.
        -11    1    1    2    0    0 -0.10568433478E+03 -0.23512702233E+02 -0.12144315961E+03  0.16269747018E+03  0.00000000000E+00 0. -1.
         11    1    1    2    0    0  0.23353307588E+00  0.24058282640E+02 -0.75159965567E+02  0.78916892522E+02  0.00000000000E+00 0.  1.
</event>
<event>
 7    1  0.6833760E-006  0.1439557E+03  0.7561462E-02  0.1208103E+00
          1   -1    0    0  501    0  0.00000000000E+00  0.00000000000E+00  0.72943125378E+03  0.72943125378E+03  0.00000000000E+00 0. -1.
         -1   -1    0    0    0  501 -0.00000000000E+00 -0.00000000000E+00 -0.35831919348E+02  0.35831919348E+02  0.00000000000E+00 0.  1.
         23    2    1    2    0    0 -0.57586258206E+02  0.90423263058E+02  0.30524936367E+03  0.34686341407E+03  0.12507801710E+03 0.  0.
          5    1    3    3  502    0  0.33449934171E+02 -0.19592120657E+00  0.90759151805E+02  0.96817521748E+02  0.41800000000E+01 0.  1.
         -5    1    3    3    0  502 -0.91036192377E+02  0.90619184264E+02  0.21449021187E+03  0.25004589232E+03  0.41800000000E+01 0.  1.
        -11    1    1    2    0    0  0.65331484953E+02 -0.44349672407E+02  0.10582549379E+03  0.13203837134E+03  0.00000000000E+00 0.  1.
         11    1    1    2    0    0 -0.77452267471E+01 -0.46073590650E+02  0.28252447697E+03  0.28636138772E+03  0.00000000000E+00 0. -1.
</event>
<event>
 7    1  0.6833760E-006  0.1348723E+03  0.7561462E-02  0.1220400E+00
          1   -1    0    0  501    0  0.00000000000E+00  0.00000000000E+00  0.87626370123E+02  0.87626370123E+02  0.00000000000E+00 0. -1.
         -1   -1    0    0    0  501 -0.00000000000E+00 -0.00000000000E+00 -0.24900862341E+03  0.24900862341E+03  0.00000000000E+00 0.  1.
         23    2    1    2    0    0 -0.10407118598E+03  0.23734033972E+02 -0.72566050435E+02  0.17974348814E+03  0.12509106177E+03 0.  0.
          5    1    3    3  502    0 -0.70562050406E+02 -0.37258874227E+02 -0.11108192826E+01  0.79912032797E+02  0.41800000000E+01 0.  1.
         -5    1    3    3    0  502 -0.33509135571E+02  0.60992908199E+02 -0.71455231153E+02  0.99831455346E+02  0.41800000000E+01 0.  1.
        -11    1    1    2    0    0  0.54985998349E+01 -0.20791988255E+02  0.35219291580E+01  0.21793241171E+02  0.00000000000E+00 0. -1.
         11    1    1    2    0    0  0.98572586143E+02 -0.29420457174E+01 -0.92338132008E+02  0.13509826422E+03  0.00000000000E+00 0.  1.
</event>
<event>
 7    1  0.6833760E-006  0.1137890E+03  0.7561462E-02  0.1253710E+00
         -2   -1    0    0    0  501 -0.00000000000E+00  0.00000000000E+00  0.53256172478E+02  0.53256172478E+02  0.00000000000E+00 0.  1.
          2   -1    0    0  501    0  0.00000000000E+00 -0.00000000000E+00 -0.37802467911E+03  0.37802467911E+03  0.00000000000E+00 0. -1.
         23    2    1    2    0    0 -0.10299985245E+02 -0.88110024130E+02 -0.14539913151E+03  0.21132562948E+03  0.12509255847E+03 0.  0.
          5    1    3    3  502    0  0.33765597415E+02 -0.60133098963E+02 -0.14853612874E+02  0.70669706205E+02  0.41800000000E+01 0. -1.
         -5    1    3    3    0  502 -0.44065582659E+02 -0.27976925167E+02 -0.13054551864E+03  0.14065592328E+03  0.41800000000E+01 0. -1.
        -11    1    1    2    0    0  0.31239367818E+02  0.26212243303E+02 -0.15653535673E+02  0.43680807910E+02  0.00000000000E+00 0.  1.
         11    1    1    2    0    0 -0.20939382573E+02  0.61897780827E+02 -0.16371583944E+03  0.17627441419E+03  0.00000000000E+00 0. -1.
</event>
<event>
 7    1  0.6833760E-006  0.1039098E+03  0.7561462E-02  0.1272283E+00
         -2   -1    0    0    0  501 -0.00000000000E+00  0.00000000000E+00  0.10957465089E+03  0.10957465089E+03  0.00000000000E+00 0.  1.
          2   -1    0    0  501    0  0.00000000000E+00 -0.00000000000E+00 -0.15047343808E+03  0.15047343808E+03  0.00000000000E+00 0. -1.
         23    2    1    2    0    0  0.50876816870E+02 -0.12184165245E+02  0.24992321559E+02  0.13787313251E+03  0.12508988830E+03 0.  0.
          5    1    3    3  502    0  0.16790909630E+02  0.43083126222E+02  0.49939169557E+02  0.68187120978E+02  0.41800000000E+01 0.  1.
         -5    1    3    3    0  502  0.34085907240E+02 -0.55267291468E+02 -0.24946847998E+02  0.69686011535E+02  0.41800000000E+01 0.  1.
        -11    1    1    2    0    0 -0.57525790910E+02 -0.21932843728E+02 -0.20259838571E+02  0.64813018081E+02  0.00000000000E+00 0.  1.
         11    1    1    2    0    0  0.66489740409E+01  0.34117008973E+02 -0.45631270179E+02  0.57361938385E+02  0.00000000000E+00 0. -1.
</event>
<event>
 7    1  0.6833760E-006  0.1094016E+03  0.7561462E-02  0.1261682E+00
         -1   -1    0    0    0  501 -0.00000000000E+00  0.00000000000E+00  0.27846669273E+02  0.27846669273E+02  0.00000000000E+00 0.  1.
          1   -1    0    0  501    0  0.00000000000E+00 -0.00000000000E+00 -0.57833353649E+03  0.57833353649E+03  0.00000000000E+00 0. -1.
         23    2    1    2    0    0 -0.53136090731E+02  0.10097601317E+02 -0.22121587541E+03  0.25982553171E+03  0.12508971862E+03 0.  0.
          5    1    3    3  502    0 -0.62525653968E+02  0.59066848373E+02 -0.13437381401E+03  0.15959995073E+03  0.41800000000E+01 0. -1.
         -5    1    3    3    0  502  0.93895632370E+01 -0.48969247055E+02 -0.86842061407E+02  0.10022558099E+03  0.41800000000E+01 0. -1.
        -11    1    1    2    0    0  0.52972448861E+02 -0.31247111976E+02 -0.31474304285E+03  0.32069556494E+03  0.00000000000E+00 0. -1.
         11    1    1    2    0    0  0.16364186993E+00  0.21149510658E+02 -0.14527948946E+02  0.25659109110E+02  0.00000000000E+00 0.  1.
</event>
<event>
 7    1  0.6833760E-006  0.1217426E+03  0.7561462E-02  0.1240250E+00
         -2   -1    0    0    0  501 -0.00000000000E+00  0.00000000000E+00  0.59952204486E+03  0.59952204486E+03  0.00000000000E+00 0.  1.
          2   -1    0    0  501    0  0.00000000000E+00 -0.00000000000E+00 -0.36531063377E+02  0.36531063377E+02  0.00000000000E+00 0. -1.
         23    2    1    2    0    0  0.48711977747E+02  0.39763665756E+02  0.41002699117E+03  0.43327136718E+03  0.12509171928E+03 0.  0.
          5    1    3    3  502    0 -0.33310248744E+02 -0.16767032930E+02  0.15424224396E+03  0.15874145106E+03  0.41800000000E+01 0. -1.
         -5    1    3    3    0  502  0.82022226490E+02  0.56530698685E+02  0.25578474721E+03  0.27452991611E+03  0.41800000000E+01 0. -1.
        -11    1    1    2    0    0  0.17156793466E+02 -0.36470674128E+02  0.47836320213E+01  0.40587544502E+02  0.00000000000E+00 0. -1.
         11    1    1    2    0    0 -0.65868771212E+02 -0.32929916280E+01  0.14818035828E+03  0.16219419655E+03  0.00000000000E+00 0.  1.
</event>
<event>
 7    1  0.6833760E-006  0.1099281E+03  0.7561462E-02  0.1260703E+00
          2   -1    0    0  501    0  0.00000000000E+00  0.00000000000E+00  0.57999188159E+03  0.57999188159E+03  0.00000000000E+00 0. -1.
         -2   -1    0    0    0  501 -0.00000000000E+00 -0.00000000000E+00 -0.37152001259E+02  0.37152001259E+02  0.00000000000E+00 0.  1.
         23    2    1    2    0    0  0.40210413259E+02 -0.86710782318E+02  0.24510454431E+03  0.29130336617E+03  0.12508307797E+03 0.  0.
          5    1    3    3  502    0  0.12117424978E+02 -0.23053255300E+02  0.21288169207E+03  0.21450960768E+03  0.41800000000E+01 0. -1.
         -5    1    3    3    0  502  0.28092988281E+02 -0.63657527018E+02  0.32222852241E+02  0.76793758491E+02  0.41800000000E+01 0. -1.
        -11    1    1    2    0    0  0.17034091667E+02 -0.30566850883E+01  0.97855037497E+02  0.99373597933E+02  0.00000000000E+00 0. -1.
         11    1    1    2    0    0 -0.57244504927E+02  0.89767467407E+02  0.19988029852E+03  0.22646691875E+03  0.00000000000E+00 0.  1.
</event>
<event>
 7    1  0.6833760E-006  0.1381696E+03  0.7561462E-02  0.1215813E+00
         -2   -1    0    0    0  501 -0.00000000000E+00  0.00000000000E+00  0.42100432899E+02  0.42100432899E+02  0.00000000000E+00 0.  1.
          2   -1    0    0  501    0  0.00000000000E+00 -0.00000000000E+00 -0.50910648577E+03  0.50910648577E+03  0.00000000000E+00 0. -1.
         23    2    1    2    0    0  0.88753326960E+02 -0.18898607222E+02 -0.18780869892E+03  0.24321986195E+03  0.12509789550E+03 0.  0.
          5    1    3    3  502    0  0.10639497779E+03  0.22925897136E+02 -0.13495093586E+03  0.17342063184E+03  0.41800000000E+01 0.  1.
         -5    1    3    3    0  502 -0.17641650832E+02 -0.41824504358E+02 -0.52857763053E+02  0.69799230109E+02  0.41800000000E+01 0.  1.
        -11    1    1    2    0    0 -0.46882033925E+02 -0.31373834024E+02 -0.76894440611E+02  0.95367696644E+02  0.00000000000E+00 0.  1.
         11    1    1    2    0    0 -0.41871293036E+02  0.50272441247E+02 -0.20230291335E+03  0.21261936007E+03  0.00000000000E+00 0. -1.
</event>
<event>
 7    1  0.6833760E-006  0.1647495E+03  0.7561462E-02  0.1183437E+00
         -1   -1    0    0    0  501 -0.00000000000E+00  0.00000000000E+00  0.70933071079E+02  0.70933071079E+02  0.00000000000E+00 0.  1.
          1   -1    0    0  501    0  0.00000000000E+00 -0.00000000000E+00 -0.41978065411E+03  0.41978065411E+03  0.00000000000E+00 0. -1.
         23    2    1    2    0    0  0.10786493974E+03  0.79517969260E+02 -0.18940294440E+03  0.26358074782E+03  0.12507350885E+03 0.  0.
          5    1    3    3  502    0 -0.18445581672E+02 -0.55439617505E+01 -0.61779042088E+02  0.64846722634E+02  0.41800000000E+01 0. -1.
         -5    1    3    3    0  502  0.12631052141E+03  0.85061931011E+02 -0.12762390231E+03  0.19873402519E+03  0.41800000000E+01 0. -1.
        -11    1    1    2    0    0 -0.72088710593E+02 -0.20473895822E+01 -0.99340789775E+02  0.12275816271E+03  0.00000000000E+00 0.  1.
         11    1    1    2    0    0 -0.35776229145E+02 -0.77470579678E+02 -0.60103848859E+02  0.10437481466E+03  0.00000000000E+00 0. -1.
</event>
<event>
 7    1  0.6833760E-006  0.1420218E+03  0.7561462E-02  0.1210634E+00
          2   -1    0    0  501    0  0.00000000000E+00  0.00000000000E+00  0.91662884841E+02  0.91662884841E+02  0.00000000000E+00 0. -1.
         -2   -1    0    0    0  501 -0.00000000000E+00 -0.00000000000E+00 -0.29475621223E+03  0.29475621223E+03  0.00000000000E+00 0.  1.
         23    2    1    2    0    0 -0.10704020486E+03  0.57861330716E+02 -0.12998927565E+03  0.21760064631E+03  0.12508912999E+03 0.  0.
          5    1    3    3  502    0  0.18692319190E+02  0.24661108232E+02 -0.65114356580E+02  0.72214436844E+02  0.41800000000E+01 0.  1.
         -5    1    3    3    0  502 -0.12573252405E+03  0.33200222484E+02 -0.64874919066E+02  0.14538620946E+03  0.41800000000E+01 0.  1.
        -11    1    1    2    0    0  0.41721964653E+02 -0.13908362348E+02 -0.78419337014E+02  0.89909717469E+02  0.00000000000E+00 0.  1.
         11    1    1    2    0    0  0.65318240211E+02 -0.43952968368E+02  0.53152852716E+01  0.78908733294E+02  0.00000000000E+00 0. -1.
</event>
<event>
 7    1  0.6833760E-006  0.1322113E+03  0.7561462E-02  0.1224211E+00
         -2   -1    0    0    0  501 -0.00000000000E+00  0.00000000000E+00  0.62975202029E+02  0.62975202029E+02  0.00000000000E+00 0. -1.
          2   -1    0    0  501    0  0.00000000000E+00 -0.00000000000E+00 -0.33379601415E+03  0.33379601415E+03  0.00000000000E+00 0.  1.
         23    2    1    2    0    0  0.30215523243E+02  0.89407402118E+02 -0.16331749995E+03  0.22632851977E+03  0.12508130026E+03 0.  0.
          5    1    3    3  502    0 -0.34816817959E+02  0.59915470710E+02 -0.13009722464E+03  0.14746129900E+03  0.41800000000E+01 0.  1.
         -5    1    3    3    0  502  0.65032341202E+02  0.29491931408E+02 -0.33220275303E+02  0.78867220768E+02  0.41800000000E+01 0.  1.
        -11    1    1    2    0    0 -0.46783431188E+02 -0.17936228996E+02 -0.14847350608E+02  0.52257454630E+02  0.00000000000E+00 0. -1.
         11    1    1    2    0    0  0.16567907945E+02 -0.71471173122E+02 -0.92655961567E+02  0.11818524178E+03  0.00000000000E+00 0.  1.
</event>
<event>
 7    1  0.6833760E-006  0.1347191E+03  0.7561462E-02  0.1220617E+00
         -3   -1    0    0    0  501 -0.00000000000E+00  0.00000000000E+00  0.12102909649E+03  0.12102909649E+03  0.00000000000E+00 0.  1.
          3   -1    0    0  501    0  0.00000000000E+00 -0.00000000000E+00 -0.24999313323E+03  0.24999313323E+03  0.00000000000E+00 0. -1.
         23    2    1    2    0    0  0.10602509567E+03  0.50420593433E+02  0.42958060892E+01  0.17160891438E+03  0.12509040088E+03 0.  0.
          5    1    3    3  502    0  0.53832692617E+02  0.96360907731E+01  0.62627075513E+02  0.83249240399E+02  0.41800000000E+01 0. -1.
         -5    1    3    3    0  502  0.52192403054E+02  0.40784502660E+02 -0.58331269423E+02  0.88359673982E+02  0.41800000000E+01 0. -1.
        -11    1    1    2    0    0  0.10687526670E+02  0.11831698259E+02 -0.11853019179E+02  0.19867218569E+02  0.00000000000E+00 0.  1.
         11    1    1    2    0    0 -0.11671262234E+03 -0.62252291692E+02 -0.12140682366E+03  0.17954609677E+03  0.00000000000E+00 0. -1.
</event>
<event>
 6    1  0.6833760E-006  0.1268399E+03  0.7561462E-02  0.1232222E+00
          2   -1    0    0  501    0  0.00000000000E+00  0.00000000000E+00  0.13574357466E+03  0.13574357466E+03  0.00000000000E+00 0. -1.
         -2   -1    0    0    0  501 -0.00000000000E+00 -0.00000000000E+00 -0.16169955025E+03  0.16169955025E+03  0.00000000000E+00 0.  1.
          5    1    1    2  502    0  0.95282850641E+02  0.45654327455E+02 -0.36380662623E+02  0.11182202044E+03  0.41800000000E+01 0. -1.
         -5    1    1    2    0  502 -0.83186063365E+02 -0.73270614566E+01  0.15835721289E+02  0.85099056613E+02  0.41800000000E+01 0.  1.
        -11    1    1    2    0    0  0.14789383966E+02  0.29370969814E+01  0.34162671755E+02  0.37342208802E+02  0.00000000000E+00 0. -1.
         11    1    1    2    0    0 -0.26886171243E+02 -0.41264362980E+02 -0.39573706011E+02  0.63179839060E+02  0.00000000000E+00 0.  1.
</event>
<event>
 7    1  0.6833760E-006  0.7751723E+02  0.7561462E-02  0.1336249E+00
         -2   -1    0    0    0  501 -0.00000000000E+00  0.00000000000E+00  0.15189811311E+02  0.15189811311E+02  0.00000000000E+00 0.  1.
          2   -1    0    0  501    0  0.00000000000E+00 -0.00000000000E+00 -0.93043773060E+03  0.93043773060E+03  0.00000000000E+00 0. -1.
         23    2    1    2    0    0 -0.42843040175E+02  0.18119496699E+02 -0.49751376033E+03  0.51510291612E+03  0.12508888928E+03 0.  0.
          5    1    3    3  502    0 -0.43523741998E+02  0.17358637506E+02 -0.54201868439E+02  0.71770142510E+02  0.41800000000E+01 0.  1.
         -5    1    3    3    0  502  0.68070182240E+00  0.76085919332E+00 -0.44331189189E+03  0.44333277361E+03  0.41800000000E+01 0.  1.
        -11    1    1    2    0    0 -0.98779293556E+01 -0.43902499168E+02 -0.20187222262E+03  0.20682697404E+03  0.00000000000E+00 0. -1.
         11    1    1    2    0    0  0.52720969531E+02  0.25783002469E+02 -0.21586193633E+03  0.22369765176E+03  0.00000000000E+00 0.  1.
</event>
<event>
 7    1  0.6833760E-006  0.1094087E+03  0.7561462E-02  0.1261669E+00
          2   -1    0    0  501    0  0.00000000000E+00  0.00000000000E+00  0.13859241085E+03  0.13859241085E+03  0.00000000000E+00 0.  1.
         -2   -1    0    0    0  501 -0.00000000000E+00 -0.00000000000E+00 -0.18436189821E+03  0.18436189821E+03  0.00000000000E+00 0. -1.
         23    2    1    2    0    0  0.80366936853E+02  0.36624070502E+02 -0.82305419611E+02  0.17384465387E+03  0.12509042530E+03 0.  0.
          5    1    3    3  502    0  0.34735950738E+02  0.49825376775E+02  0.17402524182E+02  0.63320412920E+02  0.41800000000E+01 0.  1.
         -5    1    3    3    0  502  0.45630986114E+02 -0.13201306273E+02 -0.99707943793E+02  0.11052424095E+03  0.41800000000E+01 0.  1.
        -11    1    1    2    0    0 -0.70942991535E+02  0.15193310508E+01 -0.25733041896E+02  0.75481162285E+02  0.00000000000E+00 0. -1.
         11    1    1    2    0    0 -0.94239453182E+01 -0.38143401553E+02  0.62268974141E+02  0.73628492908E+02  0.00000000000E+00 0.  1.
</event>
<event>
 7    1  0.6833760E-006  0.1529910E+03  0.7561462E-02  0.1196845E+00
          2   -1    0    0  501    0  0.00000000000E+00  0.00000000000E+00  0.61563655928E+03  0.61563655928E+03  0.00000000000E+00 0. -1.
         -2   -1    0    0    0  501 -0.00000000000E+00 -0.00000000000E+00 -0.43952500743E+02  0.43952500743E+02  0.00000000000E+00 0.  1.
         23    2    1    2    0    0 -0.22761969101E+02  0.12738753683E+03  0.26897384360E+03  0.32363631137E+03  0.12509133351E+03 0.  0.
          5    1    3    3  502    0  0.17864424480E+02  0.13273777993E+03  0.17020871877E+03  0.21662625932E+03  0.41800000000E+01 0. -1.
         -5    1    3    3    0  502 -0.40626393580E+02 -0.53502431004E+01  0.98765124832E+02  0.10701005205E+03  0.41800000000E+01 0. -1.
        -11    1    1    2    0    0  0.22468828664E+02 -0.72448494250E+02  0.97587635833E+02  0.12360007786E+03  0.00000000000E+00 0.  1.
         11    1    1    2    0    0  0.29314043677E+00 -0.54939042584E+02  0.20512257911E+03  0.21235267079E+03  0.00000000000E+00 0. -1.
</event>
<event>
 7    1  0.6833760E-006  0.1432700E+03  0.7561462E-02  0.1208995E+00
         -1   -1    0    0    0  501 -0.00000000000E+00  0.00000000000E+00  0.93945979540E+02  0.93945979540E+02  0.00000000000E+00 0.  1.
          1   -1    0    0  501    0  0.00000000000E+00 -0.00000000000E+00 -0.27094771787E+03  0.27094771787E+03  0.00000000000E+00 0. -1.
         23    2    1    2    0    0  0.46925701561E+02 -0.10935872183E+03 -0.10248193228E+03  0.20077761345E+03  0.12509097535E+03 0.  0.
          5    1    3    3  502    0 -0.35918214587E+02 -0.17323584432E+02 -0.17172897302E+00  0.40096466272E+02  0.41800000000E+01 0.  1.
         -5    1    3    3    0  502  0.82843916148E+02 -0.92035137394E+02 -0.10231020331E+03  0.16068114718E+03  0.41800000000E+01 0.  1.
        -11    1    1    2    0    0 -0.16171739203E+02  0.73711263948E+02 -0.87237482667E+02  0.11534840252E+03  0.00000000000E+00 0. -1.
         11    1    1    2    0    0 -0.30753962358E+02  0.35647457879E+02  0.12717676622E+02  0.48767681436E+02  0.00000000000E+00 0.  1.
</event>
<event>
 7    1  0.6833760E-006  0.7506272E+02  0.7561462E-02  0.1343677E+00
          2   -1    0    0  501    0  0.00000000000E+00  0.00000000000E+00  0.13117298672E+03  0.13117298672E+03  0.00000000000E+00 0. -1.
         -2   -1    0    0    0  501 -0.00000000000E+00 -0.00000000000E+00 -0.88743400749E+02  0.88743400749E+02  0.00000000000E+00 0.  1.
         23    2    1    2    0    0 -0.30326787035E+01 -0.13355127622E+01  0.23768623202E+02  0.12736641287E+03  0.12508507083E+03 0.  0.
          5    1    3    3  502    0 -0.37532749228E+02  0.49481050309E+02  0.21172824167E+02  0.65748326880E+02  0.41800000000E+01 0.  1.
         -5    1    3    3    0  502  0.34500070525E+02 -0.50816563071E+02  0.25957990348E+01  0.61618085991E+02  0.41800000000E+01 0.  1.
        -11    1    1    2    0    0 -0.54346488348E+01  0.11719050469E+02 -0.34965330249E+02  0.37275271579E+02  0.00000000000E+00 0.  1.
         11    1    1    2    0    0  0.84673275383E+01 -0.10383537707E+02  0.53626293020E+02  0.55274703020E+02  0.00000000000E+00 0. -1.
</event>
<event>
 7    1  0.6833760E-006  0.1177240E+03  0.7561462E-02  0.1246900E+00
          2   -1    0    0  501    0  0.00000000000E+00  0.00000000000E+00  0.22233665270E+03  0.22233665270E+03  0.00000000000E+00 0. -1.
         -2   -1    0    0    0  501 -0.00000000000E+00 -0.00000000000E+00 -0.67670778288E+02  0.67670778288E+02  0.00000000000E+00 0.  1.
         23    2    1    2    0    0  0.41230703217E+02  0.36464619867E+02  0.79769116123E+02  0.15824250180E+03  0.12509171875E+03 0.  0.
          5    1    3    3  502    0  0.81541642493E+02  0.41894351969E+02  0.36646138458E+02  0.98815930149E+02  0.41800000000E+01 0.  1.
         -5    1    3    3    0  502 -0.40310939276E+02 -0.54297321022E+01  0.43122977665E+02  0.59426571655E+02  0.41800000000E+01 0.  1.
        -11    1    1    2    0    0 -0.14451195370E+02 -0.63269792735E+02  0.66570832329E+02  0.92970852622E+02  0.00000000000E+00 0. -1.
         11    1    1    2    0    0 -0.26779507847E+02  0.26805172868E+02  0.83259259564E+01  0.38794076558E+02  0.00000000000E+00 0.  1.
</event>
<event>
 7    1  0.6833760E-006  0.9771647E+02  0.7561462E-02  0.1285173E+00
          2   -1    0    0  501    0  0.00000000000E+00  0.00000000000E+00  0.39030338543E+03  0.39030338543E+03  0.00000000000E+00 0.  1.
         -2   -1    0    0    0  501 -0.00000000000E+00 -0.00000000000E+00 -0.51401249635E+02  0.51401249635E+02  0.00000000000E+00 0. -1.
         23    2    1    2    0    0  0.44598253159E+02  0.55668260580E+02  0.97047390269E+02  0.17364790135E+03  0.12508972086E+03 0.  0.
          5    1    3    3  502    0 -0.17617626744E+02 -0.12196429298E+02 -0.16528999228E+02  0.27382729506E+02  0.41800000000E+01 0. -1.
         -5    1    3    3    0  502  0.62215879903E+02  0.67864689878E+02  0.11357638950E+03  0.14626517185E+03  0.41800000000E+01 0. -1.
        -11    1    1    2    0    0 -0.47377934941E+02 -0.31008412017E+02  0.23581291442E+03  0.24251581586E+03  0.00000000000E+00 0.  1.
         11    1    1    2    0    0  0.27796817817E+01 -0.24659848563E+02  0.60418311163E+01  0.25540917861E+02  0.00000000000E+00 0. -1.
</event>
<event>
 7    1  0.6833760E-006  0.1378681E+03  0.7561462E-02  0.1216227E+00
          1   -1    0    0  501    0  0.00000000000E+00  0.00000000000E+00  0.63764031298E+03  0.63764031298E+03  0.00000000000E+00 0. -1.
         -1   -1    0    0    0  501 -0.00000000000E+00 -0.00000000000E+00 -0.52979726488E+02  0.52979726488E+02  0.00000000000E+00 0.  1.
         23    2    1    2    0    0 -0.11230534536E+03  0.68410767657E+01  0.12745999234E+03  0.21107652516E+03  0.12509180188E+03 0.  0.
          5    1    3    3  502    0 -0.47182479596E+02  0.51316383349E+02  0.10984359232E+03  0.13016391495E+03  0.41800000000E+01 0.  1.
         -5    1    3    3    0  502 -0.65122865767E+02 -0.44475306583E+02  0.17616400019E+02  0.80912610211E+02  0.41800000000E+01 0.  1.
        -11    1    1    2    0    0  0.67706009169E+02  0.24952000584E+02  0.13848912462E+03  0.15615999375E+03  0.00000000000E+00 0.  1.
         11    1    1    2    0    0  0.44599336194E+02 -0.31793077350E+02  0.31871146953E+03  0.32338352055E+03  0.00000000000E+00 0. -1.
</event>
<event>
 7    1  0.6833760E-006  0.1345310E+03  0.7561462E-02  0.1220883E+00
         -1   -1    0    0    0  501 -0.00000000000E+00  0.00000000000E+00  0.23816104789E+02  0.23816104789E+02  0.00000000000E+00 0.  1.
          1   -1    0    0  501    0  0.00000000000E+00 -0.00000000000E+00 -0.81501508781E+03  0.81501508781E+03  0.00000000000E+00 0. -1.
         23    2    1    2    0    0 -0.86726073472E+02  0.73345533588E+01 -0.45437921188E+03  0.47925446409E+03  0.12509662532E+03 0.  0.
          5    1    3    3  502    0 -0.11306241641E+03  0.18678447992E+02 -0.28144557779E+03  0.30390965776E+03  0.41800000000E+01 0.  1.
         -5    1    3    3    0  502  0.26336342942E+02 -0.11343894633E+02 -0.17293363409E+03  0.17534480632E+03  0.41800000000E+01 0.  1.
        -11    1    1    2    0    0  0.27448430073E+02 -0.46760012205E+02 -0.13031617247E+03  0.14114609404E+03  0.00000000000E+00 0.  1.
         11    1    1    2    0    0  0.59277643398E+02  0.39425458847E+02 -0.20650359867E+03  0.21843063447E+03  0.00000000000E+00 0. -1.
</event>
<event>
 7    1  0.6833760E-006  0.1140547E+03  0.7561462E-02  0.1253240E+00
         -1   -1    0    0    0  501 -0.00000000000E+00  0.00000000000E+00  0.40934102926E+03  0.40934102926E+03  0.00000000000E+00 0.  1.
          1   -1    0    0  501    0  0.00000000000E+00 -0.00000000000E+00 -0.33031328427E+02  0.33031328427E+02  0.00000000000E+00 0. -1.
         23    2    1    2    0    0  0.14663610330E+02 -0.34528908364E+02  0.24854919126E+03  0.28077086001E+03  0.12509319874E+03 0.  0.
          5    1    3    3  502    0  0.69827014981E+02 -0.22086021728E+02  0.15267601092E+03  0.16938430000E+03  0.41800000000E+01 0. -1.
         -5    1    3    3    0  502 -0.55163404651E+02 -0.12442886637E+02  0.95873180344E+02  0.11138656001E+03  0.41800000000E+01 0. -1.
        -11    1    1    2    0    0  0.67957605082E+01 -0.29628966594E+02  0.29944996157E+02  0.42670373999E+02  0.00000000000E+00 0. -1.
         11    1    1    2    0    0 -0.21459370839E+02  0.64157874959E+02  0.97815513412E+02  0.11893112368E+03  0.00000000000E+00 0.  1.
</event>
<event>
 7    1  0.6833760E-006  0.9002866E+02  0.7561462E-02  0.1302782E+00
          1   -1    0    0  501    0  0.00000000000E+00  0.00000000000E+00  0.62275026469E+02  0.62275026469E+02  0.00000000000E+00 0. -1.
         -1   -1    0    0    0  501 -0.00000000000E+00 -0.00000000000E+00 -0.23404406203E+03  0.23404406203E+03  0.00000000000E+00 0.  1.
         23    2    1    2    0    0  0.30800053368E+02  0.36874695808E+02 -0.14525848863E+03  0.18944619745E+03  0.11172039532E+03 0.  0.
          5    1    3    3  502    0  0.22865290828E+02 -0.21368235528E+02  0.11796025318E+01  0.31595678128E+02  0.41800000000E+01 0. -1.
         -5    1    3    3    0  502  0.79347625399E+01  0.58242931336E+02 -0.14643809116E+03  0.15785051932E+03  0.41800000000E+01 0.  1.
        -11    1    1    2    0    0 -0.49438653568E+02 -0.13734673102E+01 -0.40996312925E+02  0.64239898447E+02  0.00000000000E+00 0.  1.
         11    1    1    2    0    0  0.18638600199E+02 -0.35501228498E+02  0.14485765989E+02  0.42632992606E+02  0.00000000000E+00 0. -1.
</event>
<event>
 7    1  0.6833760E-006  0.1072609E+03  0.7561462E-02  0.1265728E+00
         -3   -1    0    0    0  501 -0.00000000000E+00  0.00000000000E+00  0.36820801347E+02  0.36820801347E+02  0.00000000000E+00 0.  1.
          3   -1    0    0  501    0  0.00000000000E+00 -0.00000000000E+00 -0.51698764475E+03  0.51698764475E+03  0.00000000000E+00 0. -1.
         23    2    1    2    0    0 -0.19684781675E+02 -0.41357993705E+01 -0.97002122416E+02  0.15955119699E+03  0.12507028921E+03 0.  0.
          5    1    3    3  502    0 -0.53174654763E+02 -0.45423717176E+02 -0.36832761283E+02  0.79151643666E+02  0.41800000000E+01 0. -1.
         -5    1    3    3    0  502  0.33489873088E+02  0.41287917806E+02 -0.60169361133E+02  0.80399553328E+02  0.41800000000E+01 0. -1.
        -11    1    1    2    0    0  0.19039625666E+01 -0.41818220210E+02 -0.21430146586E+03  0.21835179616E+03  0.00000000000E+00 0. -1.
         11    1    1    2    0    0  0.17780819108E+02  0.45954019581E+02 -0.16886325513E+03  0.17590545295E+03  0.00000000000E+00 0.  1.
</event>
<event>
 7    1  0.6833760E-006  0.5413132E+02  0.7561462E-02  0.1424252E+00
         -4   -1    0    0    0  501 -0.00000000000E+00  0.00000000000E+00  0.48181668853E+03  0.48181668853E+03  0.00000000000E+00 0.  1.
          4   -1    0    0  501    0  0.00000000000E+00 -0.00000000000E+00 -0.26021055526E+02  0.26021055526E+02  0.00000000000E+00 0. -1.
         23    2    1    2    0    0  0.14875994560E+02 -0.12994005092E+02  0.29460269484E+03  0.32066828676E+03  0.12508902009E+03 0.  0.
          5    1    3    3  502    0 -0.10915158514E+02 -0.11801885864E+02 -0.69340084963E+01  0.17999390800E+02  0.41800000000E+01 0.  1.
         -5    1    3    3    0  502  0.25791153074E+02 -0.11921192278E+01  0.30153670334E+03  0.30266889596E+03  0.41800000000E+01 0.  1.
        -11    1    1    2    0    0 -0.39049955591E+02  0.13501963943E+02  0.23836244841E+02  0.47700824207E+02  0.00000000000E+00 0. -1.
         11    1    1    2    0    0  0.24173961030E+02 -0.50795885036E+00  0.13735669332E+03  0.13946863308E+03  0.00000000000E+00 0.  1.
</event>
<event>
 7    1  0.6833760E-006  0.1186809E+03  0.7561462E-02  0.1245289E+00
         -1   -1    0    0    0  501 -0.00000000000E+00  0.00000000000E+00  0.14520538891E+03  0.14520538891E+03  0.00000000000E+00 0.  1.
          1   -1    0    0  501    0  0.00000000000E+00 -0.00000000000E+00 -0.10536005913E+03  0.10536005913E+03  0.00000000000E+00 0. -1.
         23    2    1    2    0    0 -0.54857985347E+02  0.31600944753E+02  0.36483528428E+02  0.13575349981E+03  0.11441130450E+03 0.  0.
          5    1    3    3  502    0  0.23170590761E+02 -0.21285748062E+02 -0.59544618906E+01  0.32293766631E+02  0.41800000000E+01 0. -1.
         -5    1    3    3    0  502 -0.78028576108E+02  0.52886692816E+02  0.42437990319E+02  0.10345973318E+03  0.41800000000E+01 0.  1.
        -11    1    1    2    0    0  0.67028662005E+02  0.10136402833E+02 -0.11716445925E+02  0.68795808721E+02  0.00000000000E+00 0.  1.
         11    1    1    2    0    0 -0.12170676658E+02 -0.41737347586E+02  0.15078247277E+02  0.46016139503E+02  0.00000000000E+00 0. -1.
</event>
<event>
 7    1  0.6833760E-006  0.1610105E+03  0.7561462E-02  0.1187561E+00
         -1   -1    0    0    0  501 -0.00000000000E+00  0.00000000000E+00  0.12609881135E+04  0.12609881135E+04  0.00000000000E+00 0.  1.
          1   -1    0    0  501    0  0.00000000000E+00 -0.00000000000E+00 -0.41506842747E+02  0.41506842747E+02  0.00000000000E+00 0. -1.
         23    2    1    2    0    0  0.12065374165E+03 -0.66231276620E+02  0.10437415492E+04  0.10601831419E+04  0.12509182824E+03 0.  0.
          5    1    3    3  502    0  0.11396793984E+03 -0.97903958163E+02  0.77263859429E+03  0.78712244671E+03  0.41800000000E+01 0.  1.
         -5    1    3    3    0  502  0.66858018161E+01  0.31672681543E+02  0.27110295487E+03  0.27306069516E+03  0.41800000000E+01 0.  1.
        -11    1    1    2    0    0 -0.92731592843E+02  0.60057217835E+02  0.18212096712E+03  0.21301188791E+03  0.00000000000E+00 0.  1.
         11    1    1    2    0    0 -0.27922148810E+02  0.61740587848E+01 -0.63812455304E+01  0.29299926461E+02  0.00000000000E+00 0. -1.
</event>
<event>
 7    1  0.6833760E-006  0.1298321E+03  0.7561462E-02  0.1227705E+00
         -2   -1    0    0    0  501 -0.00000000000E+00  0.00000000000E+00  0.23809015855E+02  0.23809015855E+02  0.00000000000E+00 0. -1.
          2   -1    0    0  501    0  0.00000000000E+00 -0.00000000000E+00 -0.98216352830E+03  0.98216352830E+03  0.00000000000E+00 0.  1.
         23    2    1    2    0    0  0.10213281440E+03  0.52968182343E+01 -0.41488486295E+03  0.44523677909E+03  0.12508865612E+03 0.  0.
          5    1    3    3  502    0  0.11183197671E+03  0.23545566911E+01 -0.41887225033E+03  0.43357048959E+03  0.41800000000E+01 0. -1.
         -5    1    3    3    0  502 -0.96991623088E+01  0.29422615433E+01  0.39873873789E+01  0.11666289495E+02  0.41800000000E+01 0. -1.
        -11    1    1    2    0    0 -0.37895675024E+02 -0.46851872698E+02 -0.20178002290E+03  0.21058574928E+03  0.00000000000E+00 0. -1.
         11    1    1    2    0    0 -0.64237139376E+02  0.41555054464E+02 -0.34168962661E+03  0.35015001579E+03  0.00000000000E+00 0.  1.
</event>
<event>
 7    1  0.6833760E-006  0.1795080E+03  0.7561462E-02  0.1168280E+00
          2   -1    0    0  501    0  0.00000000000E+00  0.00000000000E+00  0.64621086551E+03  0.64621086551E+03  0.00000000000E+00 0. -1.
         -2   -1    0    0    0  501 -0.00000000000E+00 -0.00000000000E+00 -0.64404840296E+02  0.64404840296E+02  0.00000000000E+00 0.  1.
         23    2    1    2    0    0 -0.10730570790E+03  0.13419723450E+03  0.30878510092E+03  0.37485918138E+03  0.12509098537E+03 0.  0.
          5    1    3    3  502    0  0.46995023276E+01  0.31964940379E+02  0.20291275252E+01  0.32640963437E+02  0.41800000000E+01 0.  1.
         -5    1    3    3    0  502 -0.11200521023E+03  0.10223229412E+03  0.30675597339E+03  0.34221821794E+03  0.41800000000E+01 0.  1.
        -11    1    1    2    0    0  0.69800122668E+02 -0.61926627852E+02  0.68890979869E+02  0.11598677282E+03  0.00000000000E+00 0.  1.
         11    1    1    2    0    0  0.37505585233E+02 -0.72270606651E+02  0.20412994443E+03  0.21976975161E+03  0.00000000000E+00 0. -1.
</event>
<event>
 7    1  0.6833760E-006  0.1066503E+03  0.7561462E-02  0.1266902E+00
         -2   -1    0    0    0  501 -0.00000000000E+00  0.00000000000E+00  0.85957828603E+02  0.85957828603E+02  0.00000000000E+00 0.  1.
          2   -1    0    0  501    0  0.00000000000E+00 -0.00000000000E+00 -0.15896581728E+03  0.15896581728E+03  0.00000000000E+00 0. -1.
         23    2    1    2    0    0  0.28124193952E+02  0.36837994814E+02 -0.50368411595E+02  0.14259054656E+03  0.12508828456E+03 0.  0.
          5    1    3    3  502    0  0.33353208203E+02 -0.42194470956E+02 -0.17243295717E+02  0.56635797195E+02  0.41800000000E+01 0.  1.
         -5    1    3    3    0  502 -0.52290142511E+01  0.79032465770E+02 -0.33125115878E+02  0.85954749361E+02  0.41800000000E+01 0.  1.
        -11    1    1    2    0    0 -0.47958865326E+02 -0.36383849553E+02  0.12960698216E+02  0.61577731120E+02  0.00000000000E+00 0.  1.
         11    1    1    2    0    0  0.19834671375E+02 -0.45414526109E+00 -0.35600275300E+02  0.40755368209E+02  0.00000000000E+00 0. -1.
</event>
<event>
 7    1  0.6833760E-006  0.1013910E+03  0.7561462E-02  0.1277398E+00
          2   -1    0    0  501    0  0.00000000000E+00  0.00000000000E+00  0.13090687236E+04  0.13090687236E+04  0.00000000000E+00 0. -1.
         -2   -1    0    0    0  501 -0.00000000000E+00 -0.00000000000E+00 -0.14640696851E+02  0.14640696851E+02  0.00000000000E+00 0.  1.
         23    2    1    2    0    0  0.82446168994E+02 -0.90433473920E+01  0.79955291346E+03  0.81351809573E+03  0.12509067810E+03 0.  0.
          5    1    3    3  502    0  0.55149899437E+02 -0.70005345617E+01  0.77347469369E+03  0.77548120098E+03  0.41800000000E+01 0. -1.
         -5    1    3    3    0  502  0.27296269557E+02 -0.20428128303E+01  0.26078219764E+02  0.38036894748E+02  0.41800000000E+01 0. -1.
        -11    1    1    2    0    0 -0.70154172018E+02  0.43645021389E+02  0.40029973211E+03  0.40873753348E+03  0.00000000000E+00 0. -1.
         11    1    1    2    0    0 -0.12291996976E+02 -0.34601673997E+02  0.94575381182E+02  0.10145379125E+03  0.00000000000E+00 0.  1.
</event>
<event>
 7    1  0.6833760E-006  0.2075950E+03  0.7561462E-02  0.1143485E+00
          2   -1    0    0  501    0  0.00000000000E+00  0.00000000000E+00  0.91920490714E+03  0.91920490714E+03  0.00000000000E+00 0. -1.
         -2   -1    0    0    0  501 -0.00000000000E+00 -0.00000000000E+00 -0.10491922349E+03  0.10491922349E+03  0.00000000000E+00 0.  1.
         23    2    1    2    0    0  0.14099307656E+03 -0.12325303047E+03  0.47082243993E+02  0.23007615557E+03  0.12509173636E+03 0.  0.
          5    1    3    3  502    0  0.87086539049E+02 -0.14064389803E+03  0.18539624991E+02  0.16651114506E+03  0.41800000000E+01 0. -1.
         -5    1    3    3    0  502  0.53906537509E+02  0.17390867561E+02  0.28542619002E+02  0.63565010503E+02  0.41800000000E+01 0. -1.
        -11    1    1    2    0    0 -0.13006308195E+03  0.90663762921E+02  0.70849058651E+03  0.72601324669E+03  0.00000000000E+00 0.  1.
         11    1    1    2    0    0 -0.10929994611E+02  0.32589267545E+02  0.58712853146E+02  0.68034728381E+02  0.00000000000E+00 0. -1.
</event>
<event>
 7    1  0.6833760E-006  0.1177613E+03  0.7561462E-02  0.1246837E+00
         -1   -1    0    0    0  501 -0.00000000000E+00  0.00000000000E+00  0.11821328186E+02  0.11821328186E+02  0.00000000000E+00 0.  1.
          1   -1    0    0  501    0  0.00000000000E+00 -0.00000000000E+00 -0.12873683920E+04  0.12873683920E+04  0.00000000000E+00 0. -1.
         23    2    1    2    0    0  0.57872577051E+02  0.21660071840E+01 -0.66049146922E+03  0.67472307025E+03  0.12509322066E+03 0.  0.
          5    1    3    3  502    0  0.83970184194E+02  0.29884436271E+02 -0.56214052795E+03  0.56917793082E+03  0.41800000000E+01 0. -1.
         -5    1    3    3    0  502 -0.26097607143E+02 -0.27718429087E+02 -0.98350941269E+02  0.10554513943E+03  0.41800000000E+01 0. -1.
        -11    1    1    2    0    0 -0.24148803703E+02  0.44375129082E+02 -0.28344569491E+03  0.28791279716E+03  0.00000000000E+00 0.  1.
         11    1    1    2    0    0 -0.33723773347E+02 -0.46541136266E+02 -0.33160989970E+03  0.33655385280E+03  0.00000000000E+00 0. -1.
</event>
<event>
 6    1  0.6833760E-006  0.1806948E+03  0.7561462E-02  0.1167132E+00
          2   -1    0    0  501    0  0.00000000000E+00  0.00000000000E+00  0.15989703307E+03  0.15989703307E+03  0.00000000000E+00 0. -1.
         -2   -1    0    0    0  501 -0.00000000000E+00 -0.00000000000E+00 -0.31898618896E+03  0.31898618896E+03  0.00000000000E+00 0.  1.
          5    1    1    2  502    0 -0.82297028154E+02  0.50409345190E+02  0.26615824126E+01  0.96635704304E+02  0.41800000000E+01 0. -1.
         -5    1    1    2    0  502 -0.40088789911E+02 -0.98304030111E+02 -0.19207691628E+03  0.21950354799E+03  0.41800000000E+01 0.  1.
        -11    1    1    2    0    0  0.22735130382E+02  0.54117932097E+02  0.21487105228E+02  0.62508658752E+02  0.00000000000E+00 0. -1.
         11    1    1    2    0    0  0.99650687683E+02 -0.62232471761E+01  0.88390727452E+01  0.10023531098E+03  0.00000000000E+00 0.  1.
</event>
<event>
 6    1  0.6833760E-006  0.1090814E+03  0.7561462E-02  0.1262280E+00
         -1   -1    0    0    0  501 -0.00000000000E+00  0.00000000000E+00  0.95136467618E+02  0.95136467618E+02  0.00000000000E+00 0.  1.
          1   -1    0    0  501    0  0.00000000000E+00 -0.00000000000E+00 -0.20908909162E+03  0.20908909162E+03  0.00000000000E+00 0. -1.
          5    1    1    2  502    0  0.60156787055E+01  0.86934164075E+02  0.29965897970E+02  0.92245133828E+02  0.41800000000E+01 0. -1.
         -5    1    1    2    0  502  0.14268202732E+02 -0.43848303595E+02 -0.25444748212E+02  0.52831457948E+02  0.41800000000E+01 0.  1.
        -11    1    1    2    0    0 -0.46534971089E+02 -0.28948281328E+02 -0.23545028244E+02  0.59647924365E+02  0.00000000000E+00 0.  1.
         11    1    1    2    0    0  0.26251089651E+02 -0.14137579153E+02 -0.94928745516E+02  0.99501043097E+02  0.00000000000E+00 0. -1.
</event>
<event>
 7    1  0.6833760E-006  0.8186341E+02  0.7561462E-02  0.1323845E+00
          4   -1    0    0  501    0  0.00000000000E+00  0.00000000000E+00  0.36892809068E+03  0.36892809068E+03  0.00000000000E+00 0. -1.
         -4   -1    0    0    0  501 -0.00000000000E+00 -0.00000000000E+00 -0.33425921440E+02  0.33425921440E+02  0.00000000000E+00 0.  1.
         23    2    1    2    0    0  0.22888044270E+02  0.21687490454E+02  0.19814453604E+03  0.23644051977E+03  0.12509457389E+03 0.  0.
          5    1    3    3  502    0 -0.12337423963E+01  0.40324452707E+02  0.50065398222E+01  0.40867119392E+02  0.41800000000E+01 0. -1.
         -5    1    3    3    0  502  0.24121786667E+02 -0.18636962253E+02  0.19313799621E+03  0.19557340038E+03  0.41800000000E+01 0. -1.
        -11    1    1    2    0    0 -0.55882804606E+02 -0.20026993476E+02  0.97433062345E+02  0.11409281290E+03  0.00000000000E+00 0. -1.
         11    1    1    2    0    0  0.32994760336E+02 -0.16604969781E+01  0.39924570856E+02  0.51820679442E+02  0.00000000000E+00 0.  1.
</event>
<event>
 7    1  0.6833760E-006  0.7788190E+02  0.7561462E-02  0.1335172E+00
          4   -1    0    0  501    0  0.00000000000E+00  0.00000000000E+00  0.40773972644E+02  0.40773972644E+02  0.00000000000E+00 0.  1.
         -4   -1    0    0    0  501 -0.00000000000E+00 -0.00000000000E+00 -0.34961100700E+03  0.34961100700E+03  0.00000000000E+00 0. -1.
         23    2    1    2    0    0  0.15510324413E+02 -0.29493790642E+02 -0.23671412005E+03  0.26979535398E+03  0.12508199129E+03 0.  0.
          5    1    3    3  502    0  0.38490533091E+02 -0.47536210521E+01 -0.96329785109E+01  0.40179406737E+02  0.41800000000E+01 0. -1.
         -5    1    3    3    0  502 -0.22980208678E+02 -0.24740169589E+02 -0.22708114154E+03  0.22961594724E+03  0.41800000000E+01 0. -1.
        -11    1    1    2    0    0  0.28989897910E+02 -0.62649744251E+00  0.19685581968E+01  0.29063411728E+02  0.00000000000E+00 0.  1.
         11    1    1    2    0    0 -0.44500222323E+02  0.30120288084E+02 -0.74091472496E+02  0.91526213937E+02  0.00000000000E+00 0. -1.
</event>
<event>
 7    1  0.6833760E-006  0.1502839E+03  0.7561462E-02  0.1200125E+00
         -1   -1    0    0    0  501 -0.00000000000E+00  0.00000000000E+00  0.93967195818E+03  0.93967195818E+03  0.00000000000E+00 0.  1.
          1   -1    0    0  501    0  0.00000000000E+00 -0.00000000000E+00 -0.34254871029E+02  0.34254871029E+02  0.00000000000E+00 0. -1.
         23    2    1    2    0    0  0.57136346820E+02  0.98300207873E+02  0.70317222971E+03  0.72320505537E+03  0.12508746733E+03 0.  0.
          5    1    3    3  502    0  0.37738158537E+02 -0.21208949715E+02  0.26711125065E+03  0.27062867694E+03  0.41800000000E+01 0. -1.
         -5    1    3    3    0  502  0.19398188283E+02  0.11950915759E+03  0.43606097906E+03  0.45257637843E+03  0.41800000000E+01 0. -1.
        -11    1    1    2    0    0 -0.75443496051E+02 -0.76131437055E+02  0.19256767715E+03  0.22038608642E+03  0.00000000000E+00 0.  1.
         11    1    1    2    0    0  0.18307149231E+02 -0.22168770819E+02  0.96771802848E+01  0.30335687413E+02  0.00000000000E+00 0. -1.
</event>
<event>
 7    1  0.6833760E-006  0.1064250E+03  0.7561462E-02  0.1267337E+00
          1   -1    0    0  501    0  0.00000000000E+00  0.00000000000E+00  0.47912356762E+03  0.47912356762E+03  0.00000000000E+00 0. -1.
         -1   -1    0    0    0  501 -0.00000000000E+00 -0.00000000000E+00 -0.33840129751E+02  0.33840129751E+02  0.00000000000E+00 0.  1.
         23    2    1    2    0    0  0.47554299009E+02 -0.45122378444E+02  0.21266407127E+03  0.25528595375E+03  0.12508985004E+03 0.  0.
          5    1    3    3  502    0  0.84729324681E+02 -0.17015561420E+02  0.17499453848E+03  0.19521564663E+03  0.41800000000E+01 0. -1.
         -5    1    3    3    0  502 -0.37175025672E+02 -0.28106817024E+02  0.37669532794E+02  0.60070307123E+02  0.41800000000E+01 0. -1.
        -11    1    1    2    0    0 -0.34171511917E+02  0.18274348884E+01  0.19723972260E+03  0.20018626306E+03  0.00000000000E+00 0. -1.
         11    1    1    2    0    0 -0.13382787092E+02  0.43294943556E+02  0.35379643992E+02  0.57491480559E+02  0.00000000000E+00 0.  1.
</event>
<event>
 7    1  0.6833760E-006  0.1055640E+03  0.7561462E-02  0.1269012E+00
          1   -1    0    0  501    0  0.00000000000E+00  0.00000000000E+00  0.35456635950E+03  0.35456635950E+03  0.00000000000E+00 0. -1.
         -1   -1    0    0    0  501 -0.00000000000E+00 -0.00000000000E+00 -0.51888952151E+02  0.51888952151E+02  0.00000000000E+00 0.  1.
         23    2    1    2    0    0  0.12614714145E+02  0.64268365915E+01  0.46524349895E+02  0.13421193355E+03  0.12509153741E+03 0.  0.
          5    1    3    3  502    0  0.59322298136E+02 -0.24711441120E+02  0.56506115549E+01  0.64646671912E+02  0.41800000000E+01 0.  1.
         -5    1    3    3    0  502 -0.46707583991E+02  0.31138277711E+02  0.40873738340E+02  0.69565261639E+02  0.41800000000E+01 0.  1.
        -11    1    1    2    0    0 -0.37860932411E+02 -0.35522421165E+02  0.12007258339E+03  0.13081558734E+03  0.00000000000E+00 0. -1.
         11    1    1    2    0    0  0.25246218266E+02  0.29095584574E+02  0.13608047406E+03  0.14142779076E+03  0.00000000000E+00 0.  1.
</event>
<event>
 7    1  0.7389196E-006  0.1750374E+03  0.7561462E-02  0.1172694E+00
          1   -1    0    0  501    0  0.00000000000E+00  0.00000000000E+00  0.16149259646E+04  0.16149259646E+04  0.00000000000E+00 0.  1.
         -1   -1    0    0    0  501 -0.00000000000E+00 -0.00000000000E+00 -0.21470922600E+02  0.21470922600E+02  0.00000000000E+00 0. -1.
         23    2    1    2    0    0 -0.14043800346E+03  0.15689240289E+02  0.70010620829E+03  0.72509631382E+03  0.12508787451E+03 0.  0.
          5    1    3    3  502    0 -0.12183442372E+02  0.37837176285E+02  0.33668939394E+03  0.33905354823E+03  0.41800000000E+01 0. -1.
         -5    1    3    3    0  502 -0.12825456109E+03 -0.22147935996E+02  0.36341681435E+03  0.38604276559E+03  0.41800000000E+01 0. -1.
        -11    1    1    2    0    0 -0.16296859616E+02 -0.16440047482E+02  0.10491121526E+03  0.10743475174E+03  0.00000000000E+00 0. -1.
         11    1    1    2    0    0  0.15673486308E+03  0.75080719273E+00  0.78843761844E+03  0.80386582163E+03  0.00000000000E+00 0.  1.
</event>
<event>
 7    1  0.6833760E-006  0.1560728E+03  0.7561462E-02  0.1193203E+00
         -1   -1    0    0    0  501 -0.00000000000E+00  0.00000000000E+00  0.11152662181E+04  0.11152662181E+04  0.00000000000E+00 0.  1.
          1   -1    0    0  501    0  0.00000000000E+00 -0.00000000000E+00 -0.29833193201E+02  0.29833193201E+02  0.00000000000E+00 0. -1.
         23    2    1    2    0    0  0.91994433138E+02  0.99723211831E+02  0.74020256396E+03  0.76286032105E+03  0.12509332131E+03 0.  0.
          5    1    3    3  502    0  0.97482856978E+02  0.33708841696E+02  0.29073169456E+03  0.30851512772E+03  0.41800000000E+01 0. -1.
         -5    1    3    3    0  502 -0.54884238402E+01  0.66014370135E+02  0.44947086940E+03  0.45434519333E+03  0.41800000000E+01 0. -1.
        -11    1    1    2    0    0 -0.76669652081E+02 -0.52574726950E+02  0.30356004700E+03  0.31747604571E+03  0.00000000000E+00 0.  1.
         11    1    1    2    0    0 -0.15324781057E+02 -0.47148484881E+02  0.41670413955E+02  0.64763044556E+02  0.00000000000E+00 0. -1.
</event>
<event>
 7    1  0.6833760E-006  0.6446438E+02  0.7561462E-02  0.1379998E+00
         -2   -1    0    0    0  501 -0.00000000000E+00  0.00000000000E+00  0.11167670464E+03  0.11167670464E+03  0.00000000000E+00 0.  1.
          2   -1    0    0  501    0  0.00000000000E+00 -0.00000000000E+00 -0.45563799298E+02  0.45563799298E+02  0.00000000000E+00 0. -1.
         23    2    1    2    0    0  0.15587391969E+02  0.11101830426E+02  0.56002623397E+02  0.12781246607E+03  0.11328510594E+03 0.  0.
          5    1    3    3  502    0  0.25214692649E+02  0.52732696326E+02  0.17492286723E+01  0.58626360864E+02  0.41800000000E+01 0. -1.
         -5    1    3    3    0  502 -0.96273006802E+01 -0.41630865900E+02  0.54253394725E+02  0.69186105203E+02  0.41800000000E+01 0.  1.
        -11    1    1    2    0    0 -0.13296536713E+02  0.25614389788E+01  0.30564390591E+01  0.13881666972E+02  0.00000000000E+00 0. -1.
         11    1    1    2    0    0 -0.22908552562E+01 -0.13663269405E+02  0.70538428836E+01  0.15546370897E+02  0.00000000000E+00 0.  1.
</event>
<event>
 7    1  0.6833760E-006  0.1010543E+03  0.7561462E-02  0.1278095E+00
          1   -1    0    0  501    0  0.00000000000E+00  0.00000000000E+00  0.30251303983E+02  0.30251303983E+02  0.00000000000E+00 0. -1.
         -1   -1    0    0    0  501 -0.00000000000E+00 -0.00000000000E+00 -0.40609992590E+03  0.40609992590E+03  0.00000000000E+00 0.  1.
         23    2    1    2    0    0 -0.19888840375E+02 -0.24393587483E+01 -0.19164764834E+03  0.22973528794E+03  0.12509182614E+03 0.  0.
          5    1    3    3  502    0 -0.88884790126E+01  0.58416169492E+02 -0.12720948576E+03  0.14032526353E+03  0.41800000000E+01 0.  1.
         -5    1    3    3    0  502 -0.11000361363E+02 -0.60855528240E+02 -0.64438162579E+02  0.89410024405E+02  0.41800000000E+01 0.  1.
        -11    1    1    2    0    0  0.49914699775E+02 -0.43554274926E+01 -0.15938265156E+03  0.16707266868E+03  0.00000000000E+00 0.  1.
         11    1    1    2    0    0 -0.30025859400E+02  0.67947862409E+01 -0.24818322013E+02  0.39543273262E+02  0.00000000000E+00 0. -1.
</event>
<event>
 7    1  0.6833760E-006  0.1053490E+03  0.7561462E-02  0.1269434E+00
          2   -1    0    0  501    0  0.00000000000E+00  0.00000000000E+00  0.37557201252E+03  0.37557201252E+03  0.00000000000E+00 0.  1.
         -2   -1    0    0    0  501 -0.00000000000E+00 -0.00000000000E+00 -0.40165655046E+02  0.40165655046E+02  0.00000000000E+00 0. -1.
         23    2    1    2    0    0  0.26891061961E+02 -0.29478126659E+02  0.11733920881E+03  0.17609637527E+03  0.12509737925E+03 0.  0.
          5    1    3    3  502    0  0.23121778616E+01 -0.76892597760E+02  0.78009071560E+02  0.10963897757E+03  0.41800000000E+01 0. -1.
         -5    1    3    3    0  502  0.24578884099E+02  0.47414471101E+02  0.39330137247E+02  0.66457397701E+02  0.41800000000E+01 0. -1.
        -11    1    1    2    0    0 -0.45290712449E+02 -0.55784836730E-01  0.18885058915E+03  0.19420555288E+03  0.00000000000E+00 0.  1.
         11    1    1    2    0    0  0.18399650488E+02  0.29533911496E+02  0.29216559514E+02  0.45435739415E+02  0.00000000000E+00 0. -1.
</event>
<event>
 7    1  0.6833760E-006  0.1269410E+03  0.7561462E-02  0.1232067E+00
         -2   -1    0    0    0  501 -0.00000000000E+00  0.00000000000E+00  0.23641922374E+02  0.23641922374E+02  0.00000000000E+00 0.  1.
          2   -1    0    0  501    0  0.00000000000E+00 -0.00000000000E+00 -0.10863406708E+04  0.10863406708E+04  0.00000000000E+00 0. -1.
         23    2    1    2    0    0 -0.49519758607E+02  0.10667660993E+03 -0.60646677149E+03  0.63030244167E+03  0.12508843852E+03 0.  0.
          5    1    3    3  502    0  0.73506728302E+01  0.63294420798E+02 -0.99036123743E+02  0.11783820391E+03  0.41800000000E+01 0.  1.
         -5    1    3    3    0  502 -0.56870431437E+02  0.43382189136E+02 -0.50743064775E+03  0.51246423776E+03  0.41800000000E+01 0.  1.
        -11    1    1    2    0    0  0.10942910770E+02 -0.38676249831E+02 -0.41997574758E+02  0.58132571616E+02  0.00000000000E+00 0.  1.
         11    1    1    2    0    0  0.38576847837E+02 -0.68000360103E+02 -0.41423440215E+03  0.42154757986E+03  0.00000000000E+00 0. -1.
</event>
<event>
 7    1  0.6833760E-006  0.2168889E+03  0.7561462E-02  0.1136224E+00
         -1   -1    0    0    0  501 -0.00000000000E+00  0.00000000000E+00  0.47526033784E+02  0.47526033784E+02  0.00000000000E+00 0.  1.
          1   -1    0    0  501    0  0.00000000000E+00 -0.00000000000E+00 -0.12025150845E+04  0.12025150845E+04  0.00000000000E+00 0. -1.
         23    2    1    2    0    0  0.27295518724E+02  0.20723394850E+03 -0.49138628246E+03  0.54845746084E+03  0.12511655768E+03 0.  0.
          5    1    3    3  502    0  0.55912890753E+02  0.11517465189E+03 -0.38039741722E+03  0.40138649606E+03  0.41800000000E+01 0. -1.
         -5    1    3    3    0  502 -0.28617372029E+02  0.92059296608E+02 -0.11098886524E+03  0.14707096478E+03  0.41800000000E+01 0. -1.
        -11    1    1    2    0    0 -0.14109765962E+02 -0.76712004833E+02 -0.12585352644E+03  0.14806392977E+03  0.00000000000E+00 0.  1.
         11    1    1    2    0    0 -0.13185752762E+02 -0.13052194367E+03 -0.53774924184E+03  0.55351972770E+03  0.00000000000E+00 0. -1.
</event>
<event>
 7    1  0.6833760E-006  0.1154294E+03  0.7561462E-02  0.1250833E+00
         -2   -1    0    0    0  501 -0.00000000000E+00  0.00000000000E+00  0.71369748738E+02  0.71369748738E+02  0.00000000000E+00 0.  1.
          2   -1    0    0  501    0  0.00000000000E+00 -0.00000000000E+00 -0.24341406326E+03  0.24341406326E+03  0.00000000000E+00 0. -1.
         23    2    1    2    0    0  0.69150648988E+02  0.48696467994E+01 -0.62385289177E+02  0.15602894121E+03  0.12509028929E+03 0.  0.
          5    1    3    3  502    0 -0.25561311090E+02  0.25217857231E+02 -0.44663062006E+02  0.57459398324E+02  0.41800000000E+01 0.  1.
         -5    1    3    3    0  502  0.94711960078E+02 -0.20348210432E+02 -0.17722227171E+02  0.98569542890E+02  0.41800000000E+01 0.  1.
        -11    1    1    2    0    0 -0.12266225252E+02  0.29037860935E+02 -0.10395000152E+01  0.31539470666E+02  0.00000000000E+00 0.  1.
         11    1    1    2    0    0 -0.56884423735E+02 -0.33907507734E+02 -0.10861952533E+03  0.12721540012E+03  0.00000000000E+00 0. -1.
</event>
<event>
 6    1  0.6833760E-006  0.1474084E+03  0.7561462E-02  0.1203694E+00
          2   -1    0    0  501    0  0.00000000000E+00  0.00000000000E+00  0.65992703314E+03  0.65992703314E+03  0.00000000000E+00 0. -1.
         -2   -1    0    0    0  501 -0.00000000000E+00 -0.00000000000E+00 -0.44132306506E+02  0.44132306506E+02  0.00000000000E+00 0.  1.
          5    1    1    2  502    0 -0.41282669401E+02 -0.10069220396E+03  0.31375814262E+03  0.33212169937E+03  0.41800000000E+01 0. -1.
         -5    1    1    2    0  502  0.27267523051E+02  0.88992509305E+02  0.55299635196E+02  0.10834531175E+03  0.41800000000E+01 0.  1.
        -11    1    1    2    0    0  0.41872751845E+02 -0.23369642809E+02  0.12904748447E+03  0.13766888102E+03  0.00000000000E+00 0.  1.
         11    1    1    2    0    0 -0.27857605495E+02  0.35069337463E+02  0.11768946434E+03  0.12592344751E+03  0.00000000000E+00 0. -1.
</event>
<event>
 7    1  0.6833760E-006  0.9980702E+02  0.7561462E-02  0.1280702E+00
          1   -1    0    0  501    0  0.00000000000E+00  0.00000000000E+00  0.94043836276E+03  0.94043836276E+03  0.00000000000E+00 0. -1.
         -1   -1    0    0    0  501 -0.00000000000E+00 -0.00000000000E+00 -0.19230204482E+02  0.19230204482E+02  0.00000000000E+00 0.  1.
         23    2    1    2    0    0 -0.46289632580E+02  0.60883688037E+02  0.42934349487E+03  0.45369219328E+03  0.12510482044E+03 0.  0.
          5    1    3    3  502    0 -0.19222378289E+02  0.58945193338E+02  0.42017492403E+03  0.42474518812E+03  0.41800000000E+01 0. -1.
         -5    1    3    3    0  502 -0.27067254291E+02  0.19384946990E+01  0.91685708445E+01  0.28947005163E+02  0.41800000000E+01 0. -1.
        -11    1    1    2    0    0  0.67107895811E+02 -0.31829848435E+02  0.40964146459E+03  0.41632047565E+03  0.00000000000E+00 0. -1.
         11    1    1    2    0    0 -0.20818263230E+02 -0.29053839602E+02  0.82223198809E+02  0.89655898311E+02  0.00000000000E+00 0.  1.
</event>
<event>
 7    1  0.6833760E-006  0.1255845E+03  0.7561462E-02  0.1234159E+00
         -2   -1    0    0    0  501 -0.00000000000E+00  0.00000000000E+00  0.41985429274E+02  0.41985429274E+02  0.00000000000E+00 0.  1.
          2   -1    0    0  501    0  0.00000000000E+00 -0.00000000000E+00 -0.46492742996E+03  0.46492742996E+03  0.00000000000E+00 0. -1.
         23    2    1    2    0    0 -0.46720398043E+02  0.72397127486E+02 -0.18832460251E+03  0.24194622221E+03  0.12509068259E+03 0.  0.
          5    1    3    3  502    0 -0.75982704609E+02  0.62876453702E+02 -0.73704086132E+02  0.12319328124E+03  0.41800000000E+01 0.  1.
         -5    1    3    3    0  502  0.29262306566E+02  0.95206737831E+01 -0.11462051637E+03  0.11875294097E+03  0.41800000000E+01 0.  1.
        -11    1    1    2    0    0 -0.24943122912E+02 -0.25995708572E+02 -0.50665242223E+02  0.62168344149E+02  0.00000000000E+00 0.  1.
         11    1    1    2    0    0  0.71663520955E+02 -0.46401418913E+02 -0.18395215596E+03  0.20279829288E+03  0.00000000000E+00 0. -1.
</event>
<event>
 7    1  0.6833760E-006  0.1635992E+03  0.7561462E-02  0.1184692E+00
          1   -1    0    0  501    0  0.00000000000E+00  0.00000000000E+00  0.21188145951E+03  0.21188145951E+03  0.00000000000E+00 0. -1.
         -1   -1    0    0    0  501 -0.00000000000E+00 -0.00000000000E+00 -0.13941527958E+03  0.13941527958E+03  0.00000000000E+00 0.  1.
         23    2    1    2    0    0 -0.13202916683E+03  0.88040487695E+01  0.51582655405E+02  0.18923900949E+03  0.12506566357E+03 0.  0.
          5    1    3    3  502    0 -0.96164258784E+02  0.62143626415E+02  0.16092975933E+02  0.11569723958E+03  0.41800000000E+01 0. -1.
         -5    1    3    3    0  502 -0.35864908048E+02 -0.53339577646E+02  0.35489679473E+02  0.73541769912E+02  0.41800000000E+01 0. -1.
        -11    1    1    2    0    0  0.33425178851E+02  0.27352217319E+02  0.35647485533E+02  0.56001157116E+02  0.00000000000E+00 0.  1.
         11    1    1    2    0    0  0.98603987982E+02 -0.36156266089E+02 -0.14763961011E+02  0.10605657249E+03  0.00000000000E+00 0. -1.
</event>
<event>
 7    1  0.6833760E-006  0.1035470E+03  0.7561462E-02  0.1273009E+00
          3   -1    0    0  501    0  0.00000000000E+00  0.00000000000E+00  0.25826291156E+03  0.25826291156E+03  0.00000000000E+00 0. -1.
         -3   -1    0    0    0  501 -0.00000000000E+00 -0.00000000000E+00 -0.85238279065E+02  0.85238279065E+02  0.00000000000E+00 0.  1.
         23    2    1    2    0    0 -0.30268549771E+02 -0.51880242988E+02  0.39251861290E+01  0.13881725299E+03  0.12508828052E+03 0.  0.
          5    1    3    3  502    0 -0.68824763590E+02  0.50953369404E+01 -0.49970541712E+01  0.69319935748E+02  0.41800000000E+01 0.  1.
         -5    1    3    3    0  502  0.38556213819E+02 -0.56975579929E+02  0.89222403002E+01  0.69497317245E+02  0.41800000000E+01 0.  1.
        -11    1    1    2    0    0  0.24672291875E+02  0.97451531221E+01 -0.36545469846E+01  0.26777709189E+02  0.00000000000E+00 0.  1.
         11    1    1    2    0    0  0.55962578961E+01  0.42135089866E+02  0.17275399335E+03  0.17790622844E+03  0.00000000000E+00 0. -1.
</event>
<event>
 7    1  0.6833760E-006  0.8713840E+02  0.7561462E-02  0.1309933E+00
          2   -1    0    0  501    0  0.00000000000E+00  0.00000000000E+00  0.45548452723E+03  0.45548452723E+03  0.00000000000E+00 0. -1.
         -2   -1    0    0    0  501 -0.00000000000E+00 -0.00000000000E+00 -0.26775138410E+02  0.26775138410E+02  0.00000000000E+00 0.  1.
         23    2    1    2    0    0  0.38619599563E+01 -0.12853307402E+02  0.26006948549E+03  0.28890098324E+03  0.12509004191E+03 0.  0.
          5    1    3    3  502    0  0.52966786191E+02  0.23936340363E+02  0.17104414241E+03  0.18069864383E+03  0.41800000000E+01 0.  1.
         -5    1    3    3    0  502 -0.49104826235E+02 -0.36789647765E+02  0.89025343081E+02  0.10820233941E+03  0.41800000000E+01 0.  1.
        -11    1    1    2    0    0 -0.16996731626E+02  0.29045376158E+02  0.16918742568E+03  0.17250190657E+03  0.00000000000E+00 0. -1.
         11    1    1    2    0    0  0.13134771669E+02 -0.16192068756E+02 -0.54752235244E+00  0.20856775833E+02  0.00000000000E+00 0.  1.
</event>
<event>
 7    1  0.6833760E-006  0.1165338E+03  0.7561462E-02  0.1248927E+00
          1   -1    0    0  501    0  0.00000000000E+00  0.00000000000E+00  0.43736238085E+03  0.43736238085E+03  0.00000000000E+00 0.  1.
         -1   -1    0    0    0  501 -0.00000000000E+00 -0.00000000000E+00 -0.42555261942E+02  0.42555261942E+02  0.00000000000E+00 0. -1.
         23    2    1    2    0    0 -0.77991928385E+02 -0.11789712210E+02  0.26337453658E+03  0.30204991160E+03  0.12508502858E+03 0.  0.
          5    1    3    3  502    0 -0.47644576694E+02  0.34837229210E+02  0.39055793218E+02  0.70897571265E+02  0.41800000000E+01 0.  1.
         -5    1    3    3    0  502 -0.30347351690E+02 -0.46626941420E+02  0.22431874336E+03  0.23115234034E+03  0.41800000000E+01 0.  1.
        -11    1    1    2    0    0  0.29944130932E+02  0.48939077718E+02  0.48824807310E+02  0.75336220465E+02  0.00000000000E+00 0. -1.
         11    1    1    2    0    0  0.48047797453E+02 -0.37149365507E+02  0.82607775019E+02  0.10253151072E+03  0.00000000000E+00 0.  1.
</event>
<event>
 7    1  0.6833760E-006  0.1517764E+03  0.7561462E-02  0.1198307E+00
         -2   -1    0    0    0  501 -0.00000000000E+00  0.00000000000E+00  0.39792543063E+02  0.39792543063E+02  0.00000000000E+00 0.  1.
          2   -1    0    0  501    0  0.00000000000E+00 -0.00000000000E+00 -0.71228429681E+03  0.71228429681E+03  0.00000000000E+00 0. -1.
         23    2    1    2    0    0  0.95450573161E+02 -0.83301749643E+02 -0.32448148669E+03  0.37011980472E+03  0.12510172352E+03 0.  0.
          5    1    3    3  502    0 -0.17466529701E+02 -0.47009085692E+02 -0.15688228689E+03  0.16475575297E+03  0.41800000000E+01 0. -1.
         -5    1    3    3    0  502  0.11291710286E+03 -0.36292663952E+02 -0.16759919981E+03  0.20536405175E+03  0.41800000000E+01 0. -1.
        -11    1    1    2    0    0 -0.52229500022E+01  0.28519420877E+02 -0.15053500791E+02  0.32668707656E+02  0.00000000000E+00 0.  1.
         11    1    1    2    0    0 -0.90227623159E+02  0.54782328767E+02 -0.33295676626E+03  0.34928832750E+03  0.00000000000E+00 0. -1.
</event>
<event>
 7    1  0.6833760E-006  0.3170186E+03  0.7561462E-02  0.1077030E+00
         -3   -1    0    0    0  501 -0.00000000000E+00  0.00000000000E+00  0.40329523009E+03  0.40329523009E+03  0.00000000000E+00 0.  1.
          3   -1    0    0  501    0  0.00000000000E+00 -0.00000000000E+00 -0.28109017693E+03  0.28109017693E+03  0.00000000000E+00 0. -1.
         23    2    1    2    0    0  0.88311109206E+02 -0.29818133630E+03  0.13907598249E+03  0.36290665850E+03  0.12509257592E+03 0.  0.
          5    1    3    3  502    0  0.76710266081E+02 -0.28484561168E+03  0.15965970866E+03  0.33545518685E+03  0.41800000000E+01 0. -1.
         -5    1    3    3    0  502  0.11600843125E+02 -0.13335724621E+02 -0.20583726173E+02  0.27451471646E+02  0.41800000000E+01 0. -1.
        -11    1    1    2    0    0 -0.10168616454E+03  0.23161355228E+03 -0.17755842353E+02  0.25357480868E+03  0.00000000000E+00 0.  1.
         11    1    1    2    0    0  0.13375055332E+02  0.66567784024E+02  0.88491302673E+00  0.67903939842E+02  0.00000000000E+00 0. -1.
</event>
<event>
 7    1  0.6833760E-006  0.1006040E+03  0.7561462E-02  0.1279031E+00
         -2   -1    0    0    0  501 -0.00000000000E+00  0.00000000000E+00  0.24259564565E+02  0.24259564565E+02  0.00000000000E+00 0.  1.
          2   -1    0    0  501    0  0.00000000000E+00 -0.00000000000E+00 -0.58460789142E+03  0.58460789142E+03  0.00000000000E+00 0. -1.
         23    2    1    2    0    0 -0.39669069953E+02  0.21072402583E+02 -0.25642619406E+03  0.28882544485E+03  0.12509221931E+03 0.  0.
          5    1    3    3  502    0 -0.27705856380E+02 -0.44938016998E+02 -0.54439380680E+02  0.75948393125E+02  0.41800000000E+01 0. -1.
         -5    1    3    3    0  502 -0.11963213573E+02  0.66010419581E+02 -0.20198681338E+03  0.21287705173E+03  0.41800000000E+01 0. -1.
        -11    1    1    2    0    0  0.58828106108E+00  0.22497693772E+02 -0.19867609534E+02  0.30020229983E+02  0.00000000000E+00 0.  1.
         11    1    1    2    0    0  0.39080788892E+02 -0.43570096354E+02 -0.28405452326E+03  0.29002178115E+03  0.00000000000E+00 0. -1.
</event>
<event>
 7    1  0.6833760E-006  0.1165506E+03  0.7561462E-02  0.1248898E+00
         -1   -1    0    0    0  501 -0.00000000000E+00  0.00000000000E+00  0.17054266806E+03  0.17054266806E+03  0.00000000000E+00 0.  1.
          1   -1    0    0  501    0  0.00000000000E+00 -0.00000000000E+00 -0.82752187236E+02  0.82752187236E+02  0.00000000000E+00 0. -1.
         23    2    1    2    0    0 -0.38414463561E+02 -0.29658763032E+02  0.53842572547E+02  0.14457786807E+03  0.12509366124E+03 0.  0.
          5    1    3    3  502    0 -0.60553923054E+02  0.29267459663E+02  0.44623004478E+02  0.80821078445E+02  0.41800000000E+01 0.  1.
         -5    1    3    3    0  502  0.22139459492E+02 -0.58926222694E+02  0.92195680684E+01  0.63756789623E+02  0.41800000000E+01 0.  1.
        -11    1    1    2    0    0  0.34279583315E+01  0.57693826219E+02  0.25140795546E+02  0.63026883810E+02  0.00000000000E+00 0. -1.
         11    1    1    2    0    0  0.34986505230E+02 -0.28035063187E+02  0.88071127356E+01  0.45690103423E+02  0.00000000000E+00 0.  1.
</event>
<event>
 7    1  0.6833760E-006  0.1624759E+03  0.7561462E-02  0.1185930E+00
          1   -1    0    0  501    0  0.00000000000E+00  0.00000000000E+00  0.27307694947E+03  0.27307694947E+03  0.00000000000E+00 0. -1.
         -1   -1    0    0    0  501 -0.00000000000E+00 -0.00000000000E+00 -0.15293296884E+03  0.15293296884E+03  0.00000000000E+00 0.  1.
         23    2    1    2    0    0  0.63625110156E+02  0.14504837899E+03 -0.10570199145E+02  0.20210944217E+03  0.12509720466E+03 0.  0.
          5    1    3    3  502    0  0.11723300602E+02  0.76685886822E+02  0.54005790584E+02  0.94616377183E+02  0.41800000000E+01 0.  1.
         -5    1    3    3    0  502  0.51901809554E+02  0.68362492168E+02 -0.64575989729E+02  0.10749306498E+03  0.41800000000E+01 0.  1.
        -11    1    1    2    0    0 -0.27997847371E+02 -0.30660594546E+02  0.86941030034E+02  0.96346739533E+02  0.00000000000E+00 0. -1.
         11    1    1    2    0    0 -0.35627262785E+02 -0.11438778444E+03  0.43773149740E+02  0.12755373660E+03  0.00000000000E+00 0.  1.
</event>
<event>
 7    1  0.6833760E-006  0.9438888E+02  0.7561462E-02  0.1292558E+00
          2   -1    0    0  501    0  0.00000000000E+00  0.00000000000E+00  0.93983439319E+03  0.93983439319E+03  0.00000000000E+00 0. -1.
         -2   -1    0    0    0  501 -0.00000000000E+00 -0.00000000000E+00 -0.16950747065E+02  0.16950747065E+02  0.00000000000E+00 0.  1.
         23    2    1    2    0    0  0.67048520430E+02 -0.64543494247E+01  0.50993388071E+03  0.52935602851E+03  0.12509228392E+03 0.  0.
          5    1    3    3  502    0  0.20667877387E+02  0.16294687885E+02  0.44715130620E+03  0.44794468525E+03  0.41800000000E+01 0.  1.
         -5    1    3    3    0  502  0.46380643043E+02 -0.22749037310E+02  0.62782574512E+02  0.81411343251E+02  0.41800000000E+01 0.  1.
        -11    1    1    2    0    0 -0.33970023092E+02  0.46989103043E+02  0.21445845013E+03  0.22215842344E+03  0.00000000000E+00 0. -1.
         11    1    1    2    0    0 -0.33078497337E+02 -0.40534753619E+02  0.19849131528E+03  0.20527068831E+03  0.00000000000E+00 0.  1.
</event>
<event>
 7    1  0.6833760E-006  0.1096358E+03  0.7561462E-02  0.1261246E+00
         -1   -1    0    0    0  501 -0.00000000000E+00  0.00000000000E+00  0.29305419939E+03  0.29305419939E+03  0.00000000000E+00 0.  1.
          1   -1    0    0  501    0  0.00000000000E+00 -0.00000000000E+00 -0.50491196453E+02  0.50491196453E+02  0.00000000000E+00 0. -1.
         23    2    1    2    0    0 -0.20262791456E+01 -0.53586147692E+02  0.13831614524E+03  0.19404926255E+03  0.12509268256E+03 0.  0.
          5    1    3    3  502    0  0.61351468734E+02 -0.29018419836E+02  0.68352335828E+02  0.96413617393E+02  0.41800000000E+01 0. -1.
         -5    1    3    3    0  502 -0.63377747879E+02 -0.24567727856E+02  0.69963809411E+02  0.97635645158E+02  0.41800000000E+01 0. -1.
        -11    1    1    2    0    0 -0.18986293505E+02 -0.60636130627E+01  0.78874561203E+02  0.81353814596E+02  0.00000000000E+00 0.  1.
         11    1    1    2    0    0  0.21012572650E+02  0.59649760754E+02  0.25372296492E+02  0.68142318692E+02  0.00000000000E+00 0. -1.
</event>
<event>
 7    1  0.6833760E-006  0.1443879E+03  0.7561462E-02  0.1207544E+00
         -1   -1    0    0    0  501 -0.00000000000E+00  0.00000000000E+00  0.70741252914E+02  0.70741252914E+02  0.00000000000E+00 0.  1.
          1   -1    0    0  501    0  0.00000000000E+00 -0.00000000000E+00 -0.31930425567E+03  0.31930425567E+03  0.00000000000E+00 0. -1.
         23    2    1    2    0    0  0.47674821609E+02 -0.44066922820E+02 -0.69943923060E+02  0.15733417434E+03  0.12508839970E+03 0.  0.
          5    1    3    3  502    0 -0.68133916986E+01 -0.76742932644E+02 -0.35339701190E+02  0.84866170513E+02  0.41800000000E+01 0. -1.
         -5    1    3    3    0  502  0.54488213307E+02  0.32676009825E+02 -0.34604221870E+02  0.72468003827E+02  0.41800000000E+01 0. -1.
        -11    1    1    2    0    0  0.41972661827E+02  0.40348062984E+02 -0.85106535627E+02  0.10311543499E+03  0.00000000000E+00 0. -1.
         11    1    1    2    0    0 -0.89647483436E+02  0.37188598359E+01 -0.93512544073E+02  0.12959589926E+03  0.00000000000E+00 0.  1.
</event>
<event>
 7    1  0.6833760E-006  0.1570026E+03  0.7561462E-02  0.1192123E+00
          2   -1    0    0  501    0  0.00000000000E+00  0.00000000000E+00  0.49966601339E+03  0.49966601339E+03  0.00000000000E+00 0. -1.
         -2   -1    0    0    0  501 -0.00000000000E+00 -0.00000000000E+00 -0.64876042352E+02  0.64876042352E+02  0.00000000000E+00 0.  1.
         23    2    1    2    0    0  0.14091331171E+03 -0.20239231813E+02  0.20654722405E+03  0.28031613778E+03  0.12509673624E+03 0.  0.
          5    1    3    3  502    0 -0.85581322889E+01 -0.18609869066E+02 -0.47673784774E+01  0.21442228254E+02  0.41800000000E+01 0. -1.
         -5    1    3    3    0  502  0.14947144400E+03 -0.16293627464E+01  0.21131460252E+03  0.25887390953E+03  0.41800000000E+01 0. -1.
        -11    1    1    2    0    0 -0.87837758204E+02  0.34969955745E+01  0.58502221946E+02  0.10559455818E+03  0.00000000000E+00 0.  1.
         11    1    1    2    0    0 -0.53075553508E+02  0.16742236238E+02  0.16974052505E+03  0.17863135978E+03  0.00000000000E+00 0. -1.
</event>
<event>
 7    1  0.6833760E-006  0.1370157E+03  0.7561462E-02  0.1217402E+00
         -1   -1    0    0    0  501 -0.00000000000E+00  0.00000000000E+00  0.14920377257E+03  0.14920377257E+03  0.00000000000E+00 0. -1.
          1   -1    0    0  501    0  0.00000000000E+00 -0.00000000000E+00 -0.18113414613E+03  0.18113414613E+03  0.00000000000E+00 0.  1.
         23    2    1    2    0    0  0.10890207283E+03 -0.10618434125E+02  0.32501608046E+02  0.16933793156E+03  0.12508624197E+03 0.  0.
          5    1    3    3  502    0  0.12306500046E+03 -0.28234283491E+02  0.54440374879E+02  0.13756233467E+03  0.41800000000E+01 0.  1.
         -5    1    3    3    0  502 -0.14162927625E+02  0.17615849366E+02 -0.21938766834E+02  0.31775596894E+02  0.41800000000E+01 0.  1.
        -11    1    1    2    0    0 -0.59193856794E+02  0.35606745906E+02  0.81401201585E+01  0.69555837946E+02  0.00000000000E+00 0. -1.
         11    1    1    2    0    0 -0.49708216040E+02 -0.24988311782E+02 -0.72572101759E+02  0.91444149191E+02  0.00000000000E+00 0.  1.
</event>
<event>
 7    1  0.6833760E-006  0.1038508E+03  0.7561462E-02  0.1272401E+00
         -1   -1    0    0    0  501 -0.00000000000E+00  0.00000000000E+00  0.80692712206E+03  0.80692712206E+03  0.00000000000E+00 0.  1.
          1   -1    0    0  501    0  0.00000000000E+00 -0.00000000000E+00 -0.16326793463E+02  0.16326793463E+02  0.00000000000E+00 0. -1.
         23    2    1    2    0    0  0.20004396503E+02 -0.95060819939E+01  0.56280637935E+03  0.57696597767E+03  0.12509267473E+03 0.  0.
          5    1    3    3  502    0  0.66456609997E+02 -0.14387902515E+02  0.20321944490E+03  0.21433410353E+03  0.41800000000E+01 0.  1.
         -5    1    3    3    0  502 -0.46452213494E+02  0.48818205216E+01  0.35958693446E+03  0.36263187414E+03  0.41800000000E+01 0.  1.
        -11    1    1    2    0    0  0.33788843641E+02  0.17901114171E+02  0.77119402589E+02  0.86078673891E+02  0.00000000000E+00 0.  1.
         11    1    1    2    0    0 -0.53793240143E+02 -0.83950321768E+01  0.15067454665E+03  0.16020926396E+03  0.00000000000E+00 0. -1.
</event>
<event>
 7    1  0.6833760E-006  0.1444975E+03  0.7561462E-02  0.1207402E+00
          3   -1    0    0  501    0  0.00000000000E+00  0.00000000000E+00  0.24906340995E+03  0.24906340995E+03  0.00000000000E+00 0. -1.
         -3   -1    0    0    0  501 -0.00000000000E+00 -0.00000000000E+00 -0.10243848871E+03  0.10243848871E+03  0.00000000000E+00 0.  1.
         23    2    1    2    0    0 -0.58714169884E+02  0.95359049652E+02  0.39135883770E+02  0.17239545916E+03  0.12509146591E+03 0.  0.
          5    1    3    3  502    0  0.12890639125E+02 -0.10993657391E+02 -0.23797807484E+02  0.29509949525E+02  0.41800000000E+01 0. -1.
         -5    1    3    3    0  502 -0.71604809009E+02  0.10635270704E+03  0.62933691254E+02  0.14288550963E+03  0.41800000000E+01 0. -1.
        -11    1    1    2    0    0 -0.20071407334E+02 -0.46276086548E+02  0.38129318939E+02  0.63231183298E+02  0.00000000000E+00 0.  1.
         11    1    1    2    0    0  0.78785577218E+02 -0.49082963104E+02  0.69359718528E+02  0.11587525620E+03  0.00000000000E+00 0. -1.
</event>
<event>
 7    1  0.6833760E-006  0.7744129E+02  0.7561462E-02  0.1336474E+00
          2   -1    0    0  501    0  0.00000000000E+00  0.00000000000E+00  0.13890971325E+03  0.13890971325E+03  0.00000000000E+00 0. -1.
         -2   -1    0    0    0  501 -0.00000000000E+00 -0.00000000000E+00 -0.96596601428E+02  0.96596601428E+02  0.00000000000E+00 0.  1.
         23    2    1    2    0    0 -0.26706672746E+02 -0.23454586689E+02  0.51726393836E+01  0.13014428344E+03  0.12508962510E+03 0.  0.
          5    1    3    3  502    0  0.90452705475E+01  0.52084284666E+01 -0.54016150897E+02  0.55173921414E+02  0.41800000000E+01 0. -1.
         -5    1    3    3    0  502 -0.35751943294E+02 -0.28663015155E+02  0.59188790281E+02  0.74970362024E+02  0.41800000000E+01 0. -1.
        -11    1    1    2    0    0 -0.15078717108E+01  0.55161880184E+02  0.13623747872E+02  0.56839363197E+02  0.00000000000E+00 0.  1.
         11    1    1    2    0    0  0.28214544457E+02 -0.31707293495E+02  0.23516724569E+02  0.48522668045E+02  0.00000000000E+00 0. -1.
</event>
<event>
 7    1  0.6833760E-006  0.8686845E+02  0.7561462E-02  0.1310617E+00
          2   -1    0    0  501    0  0.00000000000E+00  0.00000000000E+00  0.26009777077E+03  0.26009777077E+03  0.00000000000E+00 0. -1.
         -2   -1    0    0    0  501 -0.00000000000E+00 -0.00000000000E+00 -0.63433231397E+02  0.63433231397E+02  0.00000000000E+00 0.  1.
         23    2    1    2    0    0  0.21860001895E+02 -0.57680223454E+02  0.69898570292E+02  0.15597271565E+03  0.12504723123E+03 0.  0.
          5    1    3    3  502    0 -0.10145685240E+02 -0.36466385069E+02  0.99998788518E+02  0.10700449651E+03  0.41800000000E+01 0.  1.
         -5    1    3    3    0  502  0.32005687135E+02 -0.21213838384E+02 -0.30100218226E+02  0.48968219135E+02  0.41800000000E+01 0.  1.
        -11    1    1    2    0    0  0.14214284100E+02 -0.11976401038E+02  0.12119378974E+00  0.18587488863E+02  0.00000000000E+00 0.  1.
         11    1    1    2    0    0 -0.36074285995E+02  0.69656624492E+02  0.12664477529E+03  0.14897079765E+03  0.00000000000E+00 0. -1.
</event>
<event>
 7    1  0.6833760E-006  0.1323879E+03  0.7561462E-02  0.1223955E+00
         -2   -1    0    0    0  501 -0.00000000000E+00  0.00000000000E+00  0.45239724116E+03  0.45239724116E+03  0.00000000000E+00 0. -1.
          2   -1    0    0  501    0  0.00000000000E+00 -0.00000000000E+00 -0.44150113585E+02  0.44150113585E+02  0.00000000000E+00 0.  1.
         23    2    1    2    0    0  0.34242979226E+02  0.64394261791E+02  0.27909973162E+03  0.31442615999E+03  0.12509175558E+03 0.  0.
          5    1    3    3  502    0 -0.13834248233E+02  0.85753470424E+02  0.13130058650E+03  0.15748765199E+03  0.41800000000E+01 0. -1.
         -5    1    3    3    0  502  0.48077227458E+02 -0.21359208632E+02  0.14779914512E+03  0.15693850799E+03  0.41800000000E+01 0. -1.
        -11    1    1    2    0    0 -0.57578872116E+02 -0.11103847903E+01  0.39079200156E+02  0.69597006784E+02  0.00000000000E+00 0.  1.
         11    1    1    2    0    0  0.23335892890E+02 -0.63283877001E+02  0.90068195794E+02  0.11252418797E+03  0.00000000000E+00 0. -1.
</event>
<event>
 6    1  0.6833760E-006  0.1997566E+03  0.7561462E-02  0.1149945E+00
         -1   -1    0    0    0  501 -0.00000000000E+00  0.00000000000E+00  0.67758383379E+03  0.67758383379E+03  0.00000000000E+00 0.  1.
          1   -1    0    0  501    0  0.00000000000E+00 -0.00000000000E+00 -0.13038846352E+03  0.13038846352E+03  0.00000000000E+00 0. -1.
          5    1    1    2  502    0 -0.27301120677E+01  0.12807370420E+03  0.23255593989E+02  0.13026366443E+03  0.41800000000E+01 0. -1.
         -5    1    1    2    0  502 -0.56516071984E+02  0.29633468700E+02  0.44471605333E+03  0.44929060679E+03  0.41800000000E+01 0.  1.
        -11    1    1    2    0    0  0.50676849082E+02 -0.12420767419E+01 -0.42536077199E+01  0.50870216888E+02  0.00000000000E+00 0.  1.
         11    1    1    2    0    0  0.85693349689E+01 -0.15646509616E+03  0.83477330669E+02  0.17754780921E+03  0.00000000000E+00 0. -1.
</event>
<event>
 7    1  0.6833760E-006  0.1533338E+03  0.7561462E-02  0.1196435E+00
         -2   -1    0    0    0  501 -0.00000000000E+00  0.00000000000E+00  0.70159380549E+03  0.70159380549E+03  0.00000000000E+00 0.  1.
          2   -1    0    0  501    0  0.00000000000E+00 -0.00000000000E+00 -0.41845627998E+02  0.41845627998E+02  0.00000000000E+00 0. -1.
         23    2    1    2    0    0 -0.11701267528E+03 -0.26679043946E+02  0.46973671011E+03  0.50070384358E+03  0.12509206447E+03 0.  0.
          5    1    3    3  502    0 -0.13490381759E+02 -0.52211420836E+02  0.25788869914E+03  0.26349967060E+03  0.41800000000E+01 0.  1.
         -5    1    3    3    0  502 -0.10352229352E+03  0.25532376890E+02  0.21184801097E+03  0.23720417298E+03  0.41800000000E+01 0.  1.
        -11    1    1    2    0    0  0.37358060093E+01 -0.22191784561E+02  0.10289556749E+02  0.24744828281E+02  0.00000000000E+00 0. -1.
         11    1    1    2    0    0  0.11327686927E+03  0.48870828507E+02  0.17972191063E+03  0.21799076162E+03  0.00000000000E+00 0.  1.
</event>
<event>
 7    1  0.6833760E-006  0.1303021E+03  0.7561462E-02  0.1227008E+00
         -1   -1    0    0    0  501 -0.00000000000E+00  0.00000000000E+00  0.44031000483E+02  0.44031000483E+02  0.00000000000E+00 0.  1.
          1   -1    0    0  501    0  0.00000000000E+00 -0.00000000000E+00 -0.42958703964E+03  0.42958703964E+03  0.00000000000E+00 0. -1.
         23    2    1    2    0    0 -0.33132306273E+02  0.63672334902E+02 -0.13669318808E+03  0.19870607854E+03  0.12508861670E+03 0.  0.
          5    1    3    3  502    0  0.19239215141E+02  0.84886176976E+02 -0.75342545264E+02  0.11519453966E+03  0.41800000000E+01 0. -1.
         -5    1    3    3    0  502 -0.52371521415E+02 -0.21213842075E+02 -0.61350642820E+02  0.83511538875E+02  0.41800000000E+01 0. -1.
        -11    1    1    2    0    0  0.57836924921E+02 -0.11344383879E+02 -0.12488467263E+03  0.13809412148E+03  0.00000000000E+00 0.  1.
         11    1    1    2    0    0 -0.24704618647E+02 -0.52327951023E+02 -0.12397817845E+03  0.13681784011E+03  0.00000000000E+00 0. -1.
</event>
<event>
 7    1  0.6833760E-006  0.8910252E+02  0.7561462E-02  0.1305040E+00
          2   -1    0    0  501    0  0.00000000000E+00  0.00000000000E+00  0.43869464250E+03  0.43869464250E+03  0.00000000000E+00 0. -1.
         -2   -1    0    0    0  501 -0.00000000000E+00 -0.00000000000E+00 -0.29055867259E+02  0.29055867259E+02  0.00000000000E+00 0.  1.
         23    2    1    2    0    0  0.26255186562E+02  0.28853324541E+02  0.24464896580E+03  0.27399017329E+03  0.11702841293E+03 0.  0.
          5    1    3    3  502    0 -0.67538159258E+01 -0.17715796785E+02  0.20119409447E+03  0.20212867074E+03  0.41800000000E+01 0. -1.
         -5    1    3    3    0  502  0.33009002488E+02  0.46569121325E+02  0.43454871329E+02  0.71861502548E+02  0.41800000000E+01 0.  1.
        -11    1    1    2    0    0 -0.13818359255E+02 -0.63374188438E+02  0.10280170162E+03  0.12155420465E+03  0.00000000000E+00 0. -1.
         11    1    1    2    0    0 -0.12436827307E+02  0.34520863897E+02  0.62188107818E+02  0.72206131815E+02  0.00000000000E+00 0.  1.
</event>
<event>
 7    1  0.6833760E-006  0.1171312E+03  0.7561462E-02  0.1247906E+00
          1   -1    0    0  501    0  0.00000000000E+00  0.00000000000E+00  0.34017768864E+03  0.34017768864E+03  0.00000000000E+00 0. -1.
         -1   -1    0    0    0  501 -0.00000000000E+00 -0.00000000000E+00 -0.80815166039E+02  0.80815166039E+02  0.00000000000E+00 0.  1.
         23    2    1    2    0    0  0.29255765998E+02  0.10913377392E+03  0.67585914581E+02  0.18160378055E+03  0.12508395902E+03 0.  0.
          5    1    3    3  502    0  0.22511960488E+02  0.32865382765E+02 -0.35229266904E+02  0.53343185094E+02  0.41800000000E+01 0.  1.
         -5    1    3    3    0  502  0.67438055096E+01  0.76268391159E+02  0.10281518149E+03  0.12826059546E+03  0.41800000000E+01 0.  1.
        -11    1    1    2    0    0 -0.36434019147E+02 -0.91879998896E+02  0.83141441413E+02  0.12915831846E+03  0.00000000000E+00 0.  1.
         11    1    1    2    0    0  0.71782531494E+01 -0.17253775028E+02  0.10863516661E+03  0.11023075567E+03  0.00000000000E+00 0. -1.
</event>
<event>
 7    1  0.6833760E-006  0.1021603E+03  0.7561462E-02  0.1275818E+00
         -1   -1    0    0    0  501 -0.00000000000E+00  0.00000000000E+00  0.17136135610E+02  0.17136135610E+02  0.00000000000E+00 0.  1.
          1   -1    0    0  501    0  0.00000000000E+00 -0.00000000000E+00 -0.90483179483E+03  0.90483179483E+03  0.00000000000E+00 0. -1.
         23    2    1    2    0    0  0.48681778839E+02  0.73533226802E+01 -0.62903268475E+03  0.64323730679E+03  0.12509247545E+03 0.  0.
          5    1    3    3  502    0  0.21024102397E+02 -0.53920827507E+02 -0.17842229498E+03  0.18762051131E+03  0.41800000000E+01 0. -1.
         -5    1    3    3    0  502  0.27657676442E+02  0.61274150187E+02 -0.45061038977E+03  0.45561679547E+03  0.41800000000E+01 0. -1.
        -11    1    1    2    0    0 -0.16244472292E+02  0.27114096287E+02 -0.24937186498E+02  0.40260655334E+02  0.00000000000E+00 0.  1.
         11    1    1    2    0    0 -0.32437306547E+02 -0.34467418967E+02 -0.23372578798E+03  0.23846996832E+03  0.00000000000E+00 0. -1.
</event>
<event>
 6    1  0.6833760E-006  0.1748926E+03  0.7561462E-02  0.1172840E+00
          1   -1    0    0  501    0  0.00000000000E+00  0.00000000000E+00  0.72071783157E+02  0.72071783157E+02  0.00000000000E+00 0. -1.
         -1   -1    0    0    0  501 -0.00000000000E+00 -0.00000000000E+00 -0.47449634336E+03  0.47449634336E+03  0.00000000000E+00 0.  1.
          5    1    1    2  502    0 -0.14371752477E+03  0.30309071312E+02 -0.24247983489E+03  0.28352655865E+03  0.41800000000E+01 0. -1.
         -5    1    1    2    0  502  0.25196066584E+02  0.32013254841E+02 -0.10831540087E+02  0.42361361139E+02  0.41800000000E+01 0.  1.
        -11    1    1    2    0    0  0.16377483540E+02 -0.57334911749E+02 -0.65571092664E+02  0.88628901976E+02  0.00000000000E+00 0. -1.
         11    1    1    2    0    0  0.10214397464E+03 -0.49874144046E+01 -0.83542092557E+02  0.13205130475E+03  0.00000000000E+00 0.  1.
</event>
<event>
 7    1  0.6833760E-006  0.1250511E+03  0.7561462E-02  0.1234989E+00
         -1   -1    0    0    0  501 -0.00000000000E+00  0.00000000000E+00  0.10715800228E+03  0.10715800228E+03  0.00000000000E+00 0.  1.
          1   -1    0    0  501    0  0.00000000000E+00 -0.00000000000E+00 -0.16652240312E+03  0.16652240312E+03  0.00000000000E+00 0. -1.
         23    2    1    2    0    0 -0.33156538905E+02  0.71566657377E+02 -0.38156334928E+02  0.15272337927E+03  0.12508949661E+03 0.  0.
          5    1    3    3  502    0  0.32264998396E+02 -0.14857966037E+02 -0.24589575582E+02  0.43404019440E+02  0.41800000000E+01 0.  1.
         -5    1    3    3    0  502 -0.65421537301E+02  0.86424623414E+02 -0.13566759346E+02  0.10931935983E+03  0.41800000000E+01 0.  1.
        -11    1    1    2    0    0  0.43780150288E+02 -0.12056111610E+02  0.18062150533E+02  0.48870161328E+02  0.00000000000E+00 0.  1.
         11    1    1    2    0    0 -0.10623611383E+02 -0.59510545766E+02 -0.39270216451E+02  0.72086864797E+02  0.00000000000E+00 0. -1.
</event>
<event>
 7    1  0.6833760E-006  0.9694269E+02  0.7561462E-02  0.1286860E+00
         -4   -1    0    0    0  501 -0.00000000000E+00  0.00000000000E+00  0.55427872753E+03  0.55427872753E+03  0.00000000000E+00 0.  1.
          4   -1    0    0  501    0  0.00000000000E+00 -0.00000000000E+00 -0.29796196150E+02  0.29796196150E+02  0.00000000000E+00 0. -1.
         23    2    1    2    0    0  0.50145682795E+02 -0.41743762209E+02  0.33778010233E+03  0.36605856742E+03  0.12508535512E+03 0.  0.
          5    1    3    3  502    0  0.24362536720E+02  0.78490128684E+01  0.24208495107E+01  0.26047516404E+02  0.41800000000E+01 0. -1.
         -5    1    3    3    0  502  0.25783146075E+02 -0.49592775077E+02  0.33535925282E+03  0.34001105101E+03  0.41800000000E+01 0. -1.
        -11    1    1    2    0    0 -0.58774188079E+02  0.64679512542E+02  0.15508160389E+03  0.17801165240E+03  0.00000000000E+00 0. -1.
         11    1    1    2    0    0  0.86285052836E+01 -0.22935750333E+02  0.31620825168E+02  0.40004703862E+02  0.00000000000E+00 0.  1.
</event>
<event>
 7    1  0.6833760E-006  0.1096765E+03  0.7561462E-02  0.1261170E+00
         -2   -1    0    0    0  501 -0.00000000000E+00  0.00000000000E+00  0.87181574458E+03  0.87181574458E+03  0.00000000000E+00 0.  1.
          2   -1    0    0  501    0  0.00000000000E+00 -0.00000000000E+00 -0.18111852181E+02  0.18111852181E+02  0.00000000000E+00 0. -1.
         23    2    1    2    0    0 -0.56042016563E+02 -0.10124415312E+02  0.57936022646E+03  0.59543966437E+03  0.12508761131E+03 0.  0.
          5    1    3    3  502    0 -0.87994165712E+02  0.45906569269E+01  0.26970178051E+03  0.28376146698E+03  0.41800000000E+01 0. -1.
         -5    1    3    3    0  502  0.31952149149E+02 -0.14715072239E+02  0.30965844594E+03  0.31167819739E+03  0.41800000000E+01 0. -1.
        -11    1    1    2    0    0  0.49671833131E+02  0.40864929334E+02  0.23763380817E+03  0.24618501222E+03  0.00000000000E+00 0.  1.
         11    1    1    2    0    0  0.63701834325E+01 -0.30740514022E+02  0.36709857775E+02  0.48302920172E+02  0.00000000000E+00 0. -1.
</event>
<event>
 7    1  0.6833760E-006  0.1107647E+03  0.7561462E-02  0.1259160E+00
          4   -1    0    0  501    0  0.00000000000E+00  0.00000000000E+00  0.27001581378E+02  0.27001581378E+02  0.00000000000E+00 0. -1.
         -4   -1    0    0    0  501 -0.00000000000E+00 -0.00000000000E+00 -0.54133593671E+03  0.54133593671E+03  0.00000000000E+00 0.  1.
         23    2    1    2    0    0  0.41592109134E+02 -0.30133968470E+02 -0.32774462613E+03  0.35454400206E+03  0.12508776857E+03 0.  0.
          5    1    3    3  502    0  0.49285351125E+02  0.40500126372E+02 -0.14766937309E+03  0.16091308902E+03  0.41800000000E+01 0.  1.
         -5    1    3    3    0  502 -0.76932419906E+01 -0.70634094842E+02 -0.18007525304E+03  0.19363091304E+03  0.41800000000E+01 0.  1.
        -11    1    1    2    0    0  0.13458398859E+02 -0.11261963000E+02 -0.31242542683E+01  0.17824737731E+02  0.00000000000E+00 0. -1.
         11    1    1    2    0    0 -0.55050507993E+02  0.41395931470E+02 -0.18346547493E+03  0.19596877829E+03  0.00000000000E+00 0.  1.
</event>
<event>
 7    1  0.6833760E-006  0.4104806E+03  0.7561462E-02  0.1040210E+00
         -2   -1    0    0    0  501 -0.00000000000E+00  0.00000000000E+00  0.20625169240E+03  0.20625169240E+03  0.00000000000E+00 0. -1.
          2   -1    0    0  501    0  0.00000000000E+00 -0.00000000000E+00 -0.97573243654E+03  0.97573243654E+03  0.00000000000E+00 0.  1.
         23    2    1    2    0    0  0.30042158417E+03 -0.26709036653E+03 -0.16854626959E+03  0.45348110531E+03  0.12508747240E+03 0.  0.
          5    1    3    3  502    0  0.23277933474E+03 -0.16030576952E+03 -0.16426850810E+03  0.32693389787E+03  0.41800000000E+01 0. -1.
         -5    1    3    3    0  502  0.67642249424E+02 -0.10678459702E+03 -0.42777614944E+01  0.12654720744E+03  0.41800000000E+01 0. -1.
        -11    1    1    2    0    0 -0.16559903737E+03  0.87629474084E+02 -0.27416039562E+03  0.33206307900E+03  0.00000000000E+00 0.  1.
         11    1    1    2    0    0 -0.13482254679E+03  0.17946089245E+03 -0.32677407893E+03  0.39643994464E+03  0.00000000000E+00 0. -1.
</event>
<event>
 7    1  0.6833760E-006  0.1105503E+03  0.7561462E-02  0.1259554E+00
         -2   -1    0    0    0  501 -0.00000000000E+00  0.00000000000E+00  0.91500385798E+03  0.91500385798E+03  0.00000000000E+00 0.  1.
          2   -1    0    0  501    0  0.00000000000E+00 -0.00000000000E+00 -0.17281275760E+02  0.17281275760E+02  0.00000000000E+00 0. -1.
         23    2    1    2    0    0  0.26586363796E+02  0.55641604534E+02  0.55279512857E+03  0.57011771405E+03  0.12509568661E+03 0.  0.
          5    1    3    3  502    0 -0.27176049306E+01  0.87828613838E+02  0.27021159205E+03  0.28417077201E+03  0.41800000000E+01 0. -1.
         -5    1    3    3    0  502  0.29303968727E+02 -0.32187009304E+02  0.28258353652E+03  0.28594694204E+03  0.41800000000E+01 0. -1.
        -11    1    1    2    0    0  0.95734577686E+01 -0.52209005242E+02  0.29868826695E+03  0.30336794843E+03  0.00000000000E+00 0.  1.
         11    1    1    2    0    0 -0.36159821565E+02 -0.34325992926E+01  0.46239186694E+02  0.58799471253E+02  0.00000000000E+00 0. -1.
</event>
<event>
 7    1  0.6833760E-006  0.1130550E+03  0.7561462E-02  0.1255015E+00
          2   -1    0    0  501    0  0.00000000000E+00  0.00000000000E+00  0.14077941366E+04  0.14077941366E+04  0.00000000000E+00 0. -1.
         -2   -1    0    0    0  501 -0.00000000000E+00 -0.00000000000E+00 -0.10343844067E+02  0.10343844067E+02  0.00000000000E+00 0.  1.
         23    2    1    2    0    0  0.28234188130E+02  0.37293143083E+02  0.81725634550E+03  0.82838429322E+03  0.12698289294E+03 0.  0.
          5    1    3    3  502    0 -0.40597360542E+02 -0.22682715541E+01  0.12351925529E+03  0.13010676218E+03  0.41800000000E+01 0. -1.
         -5    1    3    3    0  502  0.68831548673E+02  0.39561414638E+02  0.69373709021E+03  0.69827753104E+03  0.41800000000E+01 0. -1.
        -11    1    1    2    0    0  0.35205404510E+02 -0.94370265715E+01  0.19431674550E+03  0.19770552739E+03  0.00000000000E+00 0.  1.
         11    1    1    2    0    0 -0.63439592640E+02 -0.27856116512E+02  0.38587720157E+03  0.39204816010E+03  0.00000000000E+00 0. -1.
</event>
<event>
 7    1  0.6833760E-006  0.1961640E+03  0.7561462E-02  0.1153016E+00
         -2   -1    0    0    0  501 -0.00000000000E+00  0.00000000000E+00  0.26607209331E+03  0.26607209331E+03  0.00000000000E+00 0.  1.
          2   -1    0    0  501    0  0.00000000000E+00 -0.00000000000E+00 -0.17461767491E+03  0.17461767491E+03  0.00000000000E+00 0. -1.
         23    2    1    2    0    0 -0.88506823925E+01 -0.18571141785E+03  0.50136534919E+02  0.22962603480E+03  0.12508948168E+03 0.  0.
          5    1    3    3  502    0  0.17788970009E+02 -0.44840941863E+02 -0.37763208249E+02  0.61405942859E+02  0.41800000000E+01 0.  1.
         -5    1    3    3    0  502 -0.26639652402E+02 -0.14087047598E+03  0.87899743168E+02  0.16822009194E+03  0.41800000000E+01 0.  1.
        -11    1    1    2    0    0 -0.32948116738E+02  0.96266350401E+02 -0.52891021437E+01  0.10188603053E+03  0.00000000000E+00 0. -1.
         11    1    1    2    0    0  0.41798799130E+02  0.89445067446E+02  0.46606985616E+02  0.10917770289E+03  0.00000000000E+00 0.  1.
</event>
<event>
 7    1  0.6833760E-006  0.1274016E+03  0.7561462E-02  0.1231363E+00
          1   -1    0    0  501    0  0.00000000000E+00  0.00000000000E+00  0.53503347256E+02  0.53503347256E+02  0.00000000000E+00 0. -1.
         -1   -1    0    0    0  501 -0.00000000000E+00 -0.00000000000E+00 -0.52818605479E+03  0.52818605479E+03  0.00000000000E+00 0.  1.
         23    2    1    2    0    0  0.86202448961E+02  0.39442565717E+02 -0.40072517215E+03  0.43036604581E+03  0.12509073345E+03 0.  0.
          5    1    3    3  502    0  0.50668056460E+02 -0.32128692027E+02 -0.27377460936E+03  0.28030253999E+03  0.41800000000E+01 0. -1.
         -5    1    3    3    0  502  0.35534392502E+02  0.71571257743E+02 -0.12695056279E+03  0.15006350582E+03  0.41800000000E+01 0. -1.
        -11    1    1    2    0    0 -0.60809633368E+02 -0.57339149533E+02 -0.84174148272E+02  0.11862072676E+03  0.00000000000E+00 0.  1.
         11    1    1    2    0    0 -0.25392815593E+02  0.17896583816E+02  0.10216612884E+02  0.32702629480E+02  0.00000000000E+00 0. -1.
</event>
<event>
 7    1  0.6833760E-006  0.2002264E+03  0.7561462E-02  0.1149548E+00
         -2   -1    0    0    0  501 -0.00000000000E+00  0.00000000000E+00  0.31276181746E+02  0.31276181746E+02  0.00000000000E+00 0.  1.
          2   -1    0    0  501    0  0.00000000000E+00 -0.00000000000E+00 -0.13651453344E+04  0.13651453344E+04  0.00000000000E+00 0. -1.
         23    2    1    2    0    0  0.16792645120E+03  0.48174461775E+02 -0.72227422826E+03  0.75355615461E+03  0.12508695205E+03 0.  0.
          5    1    3    3  502    0  0.15410597757E+03  0.21589755915E+01 -0.63888530552E+03  0.65722539476E+03  0.41800000000E+01 0. -1.
         -5    1    3    3    0  502  0.13820473625E+02  0.46015486184E+02 -0.83388922732E+02  0.96330759855E+02  0.41800000000E+01 0. -1.
        -11    1    1    2    0    0 -0.16934061411E+03 -0.20773557559E+02 -0.52928106864E+03  0.55609912237E+03  0.00000000000E+00 0.  1.
         11    1    1    2    0    0  0.14141629087E+01 -0.27400904216E+02 -0.82313855716E+02  0.86766239123E+02  0.00000000000E+00 0. -1.
</event>
<event>
 7    1  0.6833760E-006  0.1039042E+03  0.7561462E-02  0.1272294E+00
         -2   -1    0    0    0  501 -0.00000000000E+00  0.00000000000E+00  0.31198882462E+02  0.31198882462E+02  0.00000000000E+00 0.  1.
          2   -1    0    0  501    0  0.00000000000E+00 -0.00000000000E+00 -0.45578750712E+03  0.45578750712E+03  0.00000000000E+00 0. -1.
         23    2    1    2    0    0 -0.38062854050E+02 -0.16981314291E+02 -0.19007696977E+03  0.23132983336E+03  0.12508833467E+03 0.  0.
          5    1    3    3  502    0  0.43966233956E+02 -0.60533953389E+01 -0.96762600702E+02  0.10653706687E+03  0.41800000000E+01 0.  1.
         -5    1    3    3    0  502 -0.82029088007E+02 -0.10927918952E+02 -0.93314369068E+02  0.12479276648E+03  0.41800000000E+01 0.  1.
        -11    1    1    2    0    0  0.58087889372E+02  0.88475832781E+01 -0.22408256607E+03  0.23165810808E+03  0.00000000000E+00 0. -1.
         11    1    1    2    0    0 -0.20025035321E+02  0.81337310128E+01 -0.10429088812E+02  0.23998448143E+02  0.00000000000E+00 0.  1.
</event>
<event>
 7    1  0.6833760E-006  0.2050609E+03  0.7561462E-02  0.1145538E+00
          1   -1    0    0  501    0  0.00000000000E+00  0.00000000000E+00  0.33695548101E+03  0.33695548101E+03  0.00000000000E+00 0. -1.
         -1   -1    0    0    0  501 -0.00000000000E+00 -0.00000000000E+00 -0.13013866883E+03  0.13013866883E+03  0.00000000000E+00 0.  1.
         23    2    1    2    0    0 -0.77964546158E+02 -0.15744475513E+03  0.14829120622E+03  0.26173548323E+03  0.12509140643E+03 0.  0.
          5    1    3    3  502    0 -0.10511508830E+03 -0.78001183560E+02  0.80283818107E+02  0.15361097056E+03  0.41800000000E+01 0.  1.
         -5    1    3    3    0  502  0.27150542143E+02 -0.79443571573E+02  0.68007388116E+02  0.10812451267E+03  0.41800000000E+01 0.  1.
        -11    1    1    2    0    0  0.72645362093E+02  0.51558993234E+02  0.13192667357E+02  0.90054010954E+02  0.00000000000E+00 0.  1.
         11    1    1    2    0    0  0.53191840646E+01  0.10588576190E+03  0.45332938606E+02  0.11530465565E+03  0.00000000000E+00 0. -1.
</event>
<event>
 7    1  0.6833760E-006  0.1253992E+03  0.7561462E-02  0.1234447E+00
          1   -1    0    0  501    0  0.00000000000E+00  0.00000000000E+00  0.10668388682E+04  0.10668388682E+04  0.00000000000E+00 0. -1.
         -1   -1    0    0    0  501 -0.00000000000E+00 -0.00000000000E+00 -0.16509723999E+02  0.16509723999E+02  0.00000000000E+00 0.  1.
         23    2    1    2    0    0  0.75902874560E+02  0.31212942374E+01  0.55057197020E+03  0.56969147421E+03  0.12509153679E+03 0.  0.
          5    1    3    3  502    0  0.19170903673E+02 -0.50790828932E+02  0.35244689686E+03  0.35662798454E+03  0.41800000000E+01 0.  1.
         -5    1    3    3    0  502  0.56731970886E+02  0.53912123170E+02  0.19812507334E+03  0.21306348967E+03  0.41800000000E+01 0.  1.
        -11    1    1    2    0    0 -0.22158683674E+02  0.42205603802E+02  0.23005982730E+03  0.23494647133E+03  0.00000000000E+00 0.  1.
         11    1    1    2    0    0 -0.53744190886E+02 -0.45326898040E+02  0.26969734669E+03  0.27871064664E+03  0.00000000000E+00 0. -1.
</event>
<event>
 7    1  0.6833760E-006  0.1110029E+03  0.7561462E-02  0.1258724E+00
         -1   -1    0    0    0  501 -0.00000000000E+00  0.00000000000E+00  0.12449675333E+03  0.12449675333E+03  0.00000000000E+00 0.  1.
          1   -1    0    0  501    0  0.00000000000E+00 -0.00000000000E+00 -0.14586835455E+03  0.14586835455E+03  0.00000000000E+00 0. -1.
         23    2    1    2    0    0  0.48520876638E+02  0.56033884553E+02  0.19784579183E+02  0.14673628858E+03  0.12508412019E+03 0.  0.
          5    1    3    3  502    0  0.29002424286E+02 -0.26919818447E+02  0.42725392349E+02  0.58384491014E+02  0.41800000000E+01 0. -1.
         -5    1    3    3    0  502  0.19518452352E+02  0.82953703000E+02 -0.22940813166E+02  0.88351797561E+02  0.41800000000E+01 0. -1.
        -11    1    1    2    0    0 -0.43419714256E+02 -0.29010993012E+01  0.15116862848E+02  0.46067423475E+02  0.00000000000E+00 0.  1.
         11    1    1    2    0    0 -0.51011623821E+01 -0.53132785252E+02 -0.56273043246E+02  0.77561395826E+02  0.00000000000E+00 0. -1.
</event>
<event>
 7    1  0.6833760E-006  0.7709090E+02  0.7561462E-02  0.1337516E+00
          1   -1    0    0  501    0  0.00000000000E+00  0.00000000000E+00  0.13348309961E+03  0.13348309961E+03  0.00000000000E+00 0. -1.
         -1   -1    0    0    0  501 -0.00000000000E+00 -0.00000000000E+00 -0.15535107536E+03  0.15535107536E+03  0.00000000000E+00 0.  1.
         23    2    1    2    0    0 -0.24389745669E+02 -0.41574281340E+02 -0.93170449907E+02  0.16325258290E+03  0.12508953803E+03 0.  0.
          5    1    3    3  502    0 -0.39849755107E+00 -0.35833578597E+02  0.24070731364E+02  0.43371380700E+02  0.41800000000E+01 0. -1.
         -5    1    3    3    0  502 -0.23991248118E+02 -0.57407027431E+01 -0.11724118127E+03  0.11988120220E+03  0.41800000000E+01 0. -1.
        -11    1    1    2    0    0 -0.27044876904E+02  0.29944810346E+02  0.46880973351E+01  0.40621364945E+02  0.00000000000E+00 0.  1.
         11    1    1    2    0    0  0.51434622573E+02  0.11629470994E+02  0.66614376817E+02  0.84960227128E+02  0.00000000000E+00 0. -1.
</event>
<event>
 7    1  0.6833760E-006  0.1031406E+03  0.7561462E-02  0.1273827E+00
         -2   -1    0    0    0  501 -0.00000000000E+00  0.00000000000E+00  0.61169198349E+02  0.61169198349E+02  0.00000000000E+00 0.  1.
          2   -1    0    0  501    0  0.00000000000E+00 -0.00000000000E+00 -0.21348347827E+03  0.21348347827E+03  0.00000000000E+00 0. -1.
         23    2    1    2    0    0 -0.15409101171E+02 -0.33688981364E+02 -0.77398696714E+02  0.15169053924E+03  0.12508826315E+03 0.  0.
          5    1    3    3  502    0  0.39594141123E+02  0.13428257340E+02  0.45279172884E+01  0.42260957649E+02  0.41800000000E+01 0. -1.
         -5    1    3    3    0  502 -0.55003242293E+02 -0.47117238704E+02 -0.81926614003E+02  0.10942958159E+03  0.41800000000E+01 0. -1.
        -11    1    1    2    0    0 -0.26173621650E+02 -0.12976345786E+02 -0.45040691424E+02  0.53685267105E+02  0.00000000000E+00 0. -1.
         11    1    1    2    0    0  0.41582722820E+02  0.46665327150E+02 -0.29874891781E+02  0.69276870268E+02  0.00000000000E+00 0.  1.
</event>
<event>
 7    1  0.6833760E-006  0.1039532E+03  0.7561462E-02  0.1272196E+00
         -1   -1    0    0    0  501 -0.00000000000E+00  0.00000000000E+00  0.59853144835E+02  0.59853144835E+02  0.00000000000E+00 0.  1.
          1   -1    0    0  501    0  0.00000000000E+00 -0.00000000000E+00 -0.31523826843E+03  0.31523826843E+03  0.00000000000E+00 0. -1.
         23    2    1    2    0    0  0.67692324406E+02 -0.29574280192E+00 -0.66238419178E+02  0.15690154987E+03  0.12509288520E+03 0.  0.
          5    1    3    3  502    0  0.59411539256E+02  0.56839704814E+02 -0.25744211358E+02  0.86259607340E+02  0.41800000000E+01 0. -1.
         -5    1    3    3    0  502  0.82807851499E+01 -0.57135447616E+02 -0.40494207820E+02  0.70641942527E+02  0.41800000000E+01 0. -1.
        -11    1    1    2    0    0 -0.43170130691E+02  0.40918289552E+00 -0.18879152739E+03  0.19366483529E+03  0.00000000000E+00 0. -1.
         11    1    1    2    0    0 -0.24522193714E+02 -0.11344009361E+00 -0.35517703433E+00  0.24525028113E+02  0.00000000000E+00 0.  1.
</event>
<event>
 7    1  0.6833760E-006  0.1111111E+03  0.7561462E-02  0.1258526E+00
          2   -1    0    0  501    0  0.00000000000E+00  0.00000000000E+00  0.34329266518E+03  0.34329266518E+03  0.00000000000E+00 0. -1.
         -2   -1    0    0    0  501 -0.00000000000E+00 -0.00000000000E+00 -0.63120833993E+02  0.63120833993E+02  0.00000000000E+00 0.  1.
         23    2    1    2    0    0 -0.18068659497E+02 -0.87588087394E+02  0.20166675638E+03  0.25360494972E+03  0.12509132817E+03 0.  0.
          5    1    3    3  502    0  0.63280537608E+01 -0.88631136945E+02  0.20951523640E+03  0.22761728710E+03  0.41800000000E+01 0.  1.
         -5    1    3    3    0  502 -0.24396713258E+02  0.10430495510E+01 -0.78484800167E+01  0.25987662625E+02  0.41800000000E+01 0.  1.
        -11    1    1    2    0    0  0.41042840809E+02  0.55390912119E+02  0.47328742003E+01  0.69101867017E+02  0.00000000000E+00 0.  1.
         11    1    1    2    0    0 -0.22974181312E+02  0.32197175275E+02  0.73772200605E+02  0.83706682438E+02  0.00000000000E+00 0. -1.
</event>
<event>
 7    1  0.6833760E-006  0.1351399E+03  0.7561462E-02  0.1220022E+00
         -2   -1    0    0    0  501 -0.00000000000E+00  0.00000000000E+00  0.89001272528E+03  0.89001272528E+03  0.00000000000E+00 0.  1.
          2   -1    0    0  501    0  0.00000000000E+00 -0.00000000000E+00 -0.28687994607E+02  0.28687994607E+02  0.00000000000E+00 0. -1.
         23    2    1    2    0    0  0.10612413653E+00 -0.10988614235E+03  0.56763506175E+03  0.59155121610E+03  0.12509317486E+03 0.  0.
          5    1    3    3  502    0 -0.26848263902E+02 -0.11800864246E+02  0.23058523210E+02  0.37540079437E+02  0.41800000000E+01 0.  1.
         -5    1    3    3    0  502  0.26954388039E+02 -0.98085278103E+02  0.54457653854E+03  0.55401113666E+03  0.41800000000E+01 0.  1.
        -11    1    1    2    0    0  0.42178136796E+02  0.61724710014E+02  0.20106667108E+03  0.21451513063E+03  0.00000000000E+00 0.  1.
         11    1    1    2    0    0 -0.42284260932E+02  0.48161432336E+02  0.92622997834E+02  0.11263437315E+03  0.00000000000E+00 0. -1.
</event>
<event>
 7    1  0.6833760E-006  0.1528915E+03  0.7561462E-02  0.1196964E+00
          2   -1    0    0  501    0  0.00000000000E+00  0.00000000000E+00  0.10317965905E+03  0.10317965905E+03  0.00000000000E+00 0.  1.
         -2   -1    0    0    0  501 -0.00000000000E+00 -0.00000000000E+00 -0.24429194115E+03  0.24429194115E+03  0.00000000000E+00 0. -1.
         23    2    1    2    0    0 -0.62806255957E+02  0.70767478944E+02 -0.96551535384E+02  0.18417975863E+03  0.12508925870E+03 0.  0.
          5    1    3    3  502    0 -0.46500006099E+02 -0.24011212798E+02 -0.63520825468E+02  0.82408473929E+02  0.41800000000E+01 0.  1.
         -5    1    3    3    0  502 -0.16306249859E+02  0.94778691742E+02 -0.33030709916E+02  0.10177128470E+03  0.41800000000E+01 0.  1.
        -11    1    1    2    0    0  0.41696965721E+02 -0.10713926653E+03 -0.34825314810E+02  0.12012602522E+03  0.00000000000E+00 0.  1.
         11    1    1    2    0    0  0.21109290236E+02  0.36371787589E+02 -0.97354318983E+01  0.43165816347E+02  0.00000000000E+00 0. -1.
</event>
<event>
 7    1  0.6833760E-006  0.9338699E+02  0.7561462E-02  0.1294851E+00
         -3   -1    0    0    0  501 -0.00000000000E+00  0.00000000000E+00  0.19357460272E+03  0.19357460272E+03  0.00000000000E+00 0.  1.
          3   -1    0    0  501    0  0.00000000000E+00 -0.00000000000E+00 -0.69798102652E+02  0.69798102652E+02  0.00000000000E+00 0. -1.
         23    2    1    2    0    0  0.60146194439E+00 -0.44365302756E+02  0.41444308573E+02  0.13189010722E+03  0.11708427659E+03 0.  0.
          5    1    3    3  502    0 -0.35874660161E+02  0.13269759805E+02 -0.16909373645E+02  0.42029478750E+02  0.41800000000E+01 0. -1.
         -5    1    3    3    0  502  0.36476122105E+02 -0.57635062561E+02  0.58353682219E+02  0.89860628468E+02  0.41800000000E+01 0.  1.
        -11    1    1    2    0    0 -0.31826368438E+02  0.96256463928E+01 -0.38336513255E+01  0.33470400041E+02  0.00000000000E+00 0. -1.
         11    1    1    2    0    0  0.31224906494E+02  0.34739656363E+02  0.86165842820E+02  0.98012198112E+02  0.00000000000E+00 0.  1.
</event>
<event>
 7    1  0.6833760E-006  0.1491838E+03  0.7561462E-02  0.1201480E+00
          2   -1    0    0  501    0  0.00000000000E+00  0.00000000000E+00  0.21878514874E+03  0.21878514874E+03  0.00000000000E+00 0. -1.
         -2   -1    0    0    0  501 -0.00000000000E+00 -0.00000000000E+00 -0.15409843404E+03  0.15409843404E+03  0.00000000000E+00 0.  1.
         23    2    1    2    0    0  0.11646563759E+03  0.61985978305E+02 -0.33717034568E+02  0.18490757677E+03  0.12508983685E+03 0.  0.
          5    1    3    3  502    0  0.86474107297E+01 -0.18834686567E+02  0.29269916436E+02  0.36107112022E+02  0.41800000000E+01 0. -1.
         -5    1    3    3    0  502  0.10781822686E+03  0.80820664872E+02 -0.62986951004E+02  0.14880046475E+03  0.41800000000E+01 0. -1.
        -11    1    1    2    0    0 -0.10462844705E+03 -0.71917696695E+02  0.48793272534E+02  0.13601489063E+03  0.00000000000E+00 0.  1.
         11    1    1    2    0    0 -0.11837190541E+02  0.99317183895E+01  0.49610476729E+02  0.51961115378E+02  0.00000000000E+00 0. -1.
</event>
<event>
 7    1  0.6833760E-006  0.1894450E+03  0.7561462E-02  0.1158963E+00
         -1   -1    0    0    0  501 -0.00000000000E+00  0.00000000000E+00  0.25395800144E+03  0.25395800144E+03  0.00000000000E+00 0.  1.
          1   -1    0    0  501    0  0.00000000000E+00 -0.00000000000E+00 -0.17050029527E+03  0.17050029527E+03  0.00000000000E+00 0. -1.
         23    2    1    2    0    0  0.13516464826E+03  0.11253923005E+03  0.71879494066E+02  0.22748504731E+03  0.12509286408E+03 0.  0.
          5    1    3    3  502    0  0.13535069517E+03  0.74848953226E+02  0.10174324021E+02  0.15505858812E+03  0.41800000000E+01 0. -1.
         -5    1    3    3    0  502 -0.18604690488E+00  0.37690276825E+02  0.61705170044E+02  0.72426459190E+02  0.41800000000E+01 0. -1.
        -11    1    1    2    0    0 -0.54550817577E+02 -0.94270902744E+01  0.32849088341E+02  0.64371766592E+02  0.00000000000E+00 0. -1.
         11    1    1    2    0    0 -0.80613830685E+02 -0.10311213978E+03 -0.21270876234E+02  0.13260148281E+03  0.00000000000E+00 0.  1.
</event>
<event>
 7    1  0.6833760E-006  0.1099074E+03  0.7561462E-02  0.1260741E+00
          3   -1    0    0  501    0  0.00000000000E+00  0.00000000000E+00  0.11845250870E+03  0.11845250870E+03  0.00000000000E+00 0. -1.
         -3   -1    0    0    0  501 -0.00000000000E+00 -0.00000000000E+00 -0.11327653093E+03  0.11327653093E+03  0.00000000000E+00 0.  1.
         23    2    1    2    0    0 -0.11021147357E+02  0.43034872079E+02 -0.29514991783E+01  0.13276733692E+03  0.12507992845E+03 0.  0.
          5    1    3    3  502    0  0.52518435504E+02  0.37161469101E+02  0.15307792618E+02  0.66264332550E+02  0.41800000000E+01 0.  1.
         -5    1    3    3    0  502 -0.63539582861E+02  0.58734029778E+01 -0.18259291797E+02  0.66503004365E+02  0.41800000000E+01 0.  1.
        -11    1    1    2    0    0  0.27326454759E+02 -0.61177219959E+02 -0.11081995888E+02  0.67913165178E+02  0.00000000000E+00 0. -1.
         11    1    1    2    0    0 -0.16305307402E+02  0.18142347881E+02  0.19209472841E+02  0.31048537533E+02  0.00000000000E+00 0.  1.
</event>
<event>
 7    1  0.6833760E-006  0.9679914E+02  0.7561462E-02  0.1287175E+00
         -1   -1    0    0    0  501 -0.00000000000E+00  0.00000000000E+00  0.14133085647E+03  0.14133085647E+03  0.00000000000E+00 0.  1.
          1   -1    0    0  501    0  0.00000000000E+00 -0.00000000000E+00 -0.10689339240E+03  0.10689339240E+03  0.00000000000E+00 0. -1.
         23    2    1    2    0    0  0.18964214593E+02  0.41684235998E+02  0.51857033718E+02  0.14294748288E+03  0.12509042309E+03 0.  0.
          5    1    3    3  502    0 -0.12543016018E+02 -0.35996812321E+02 -0.88579368117E+01  0.39357758989E+02  0.41800000000E+01 0.  1.
         -5    1    3    3    0  502  0.31507230611E+02  0.77681048319E+02  0.60714970529E+02  0.10358972389E+03  0.41800000000E+01 0.  1.
        -11    1    1    2    0    0 -0.37756860834E+02 -0.20364532681E+02  0.28336770446E+02  0.51412715263E+02  0.00000000000E+00 0.  1.
         11    1    1    2    0    0  0.18792646241E+02 -0.21319703317E+02 -0.45756340098E+02  0.53864050733E+02  0.00000000000E+00 0. -1.
</event>
<event>
 7    1  0.6833760E-006  0.1120390E+03  0.7561462E-02  0.1256840E+00
          2   -1    0    0  501    0  0.00000000000E+00  0.00000000000E+00  0.11726920389E+04  0.11726920389E+04  0.00000000000E+00 0. -1.
         -2   -1    0    0    0  501 -0.00000000000E+00 -0.00000000000E+00 -0.11523825088E+02  0.11523825088E+02  0.00000000000E+00 0.  1.
         23    2    1    2    0    0  0.35743969774E+02 -0.12850881425E+02  0.75466216499E+03  0.76590121619E+03  0.12508762198E+03 0.  0.
          5    1    3    3  502    0 -0.15933624728E+02 -0.55811012121E+02  0.45871041874E+03  0.46238671059E+03  0.41800000000E+01 0.  1.
         -5    1    3    3    0  502  0.51677594502E+02  0.42960130696E+02  0.29595174625E+03  0.30351450560E+03  0.41800000000E+01 0.  1.
        -11    1    1    2    0    0 -0.66715116181E+02  0.98500269534E+01  0.28819008952E+03  0.29597543387E+03  0.00000000000E+00 0.  1.
         11    1    1    2    0    0  0.30971146407E+02  0.30008544711E+01  0.11831595926E+03  0.12233921388E+03  0.00000000000E+00 0. -1.
</event>
<event>
 7    1  0.6833760E-006  0.1570974E+03  0.7561462E-02  0.1192013E+00
          1   -1    0    0  501    0  0.00000000000E+00  0.00000000000E+00  0.14275715372E+03  0.14275715372E+03  0.00000000000E+00 0. -1.
         -1   -1    0    0    0  501 -0.00000000000E+00 -0.00000000000E+00 -0.23490509442E+03  0.23490509442E+03  0.00000000000E+00 0.  1.
         23    2    1    2    0    0 -0.12819885996E+02 -0.11754609055E+03 -0.13911669241E+03  0.22131683772E+03  0.12508499379E+03 0.  0.
          5    1    3    3  502    0  0.38016575319E+02  0.49227251591E+01 -0.41186286761E+02  0.56420526753E+02  0.41800000000E+01 0.  1.
         -5    1    3    3    0  502 -0.50836461315E+02 -0.12246881571E+03 -0.97930405650E+02  0.16489631097E+03  0.41800000000E+01 0.  1.
        -11    1    1    2    0    0  0.46621757600E+02  0.78706807787E+02  0.50937545769E+02  0.10470426659E+03  0.00000000000E+00 0. -1.
         11    1    1    2    0    0 -0.33801871604E+02  0.38839282760E+02 -0.39687940615E+01  0.51641143825E+02  0.00000000000E+00 0.  1.
</event>
<event>
 7    1  0.6833760E-006  0.7914861E+02  0.7561462E-02  0.1331485E+00
          3   -1    0    0  501    0  0.00000000000E+00  0.00000000000E+00  0.15607083448E+03  0.15607083448E+03  0.00000000000E+00 0. -1.
         -3   -1    0    0    0  501 -0.00000000000E+00 -0.00000000000E+00 -0.10212295589E+03  0.10212295589E+03  0.00000000000E+00 0.  1.
         23    2    1    2    0    0  0.30796843415E+01 -0.38757980258E+02 -0.17328066624E+02  0.13213344119E+03  0.12508924374E+03 0.  0.
          5    1    3    3  502    0 -0.35576577960E+02 -0.12815919796E+02  0.41957664445E+02  0.56637961698E+02  0.41800000000E+01 0. -1.
         -5    1    3    3    0  502  0.38656262301E+02 -0.25942060461E+02 -0.59285731070E+02  0.75495479497E+02  0.41800000000E+01 0. -1.
        -11    1    1    2    0    0  0.44550012845E+01  0.55223674099E+02  0.30660749709E+01  0.55487854825E+02  0.00000000000E+00 0.  1.
         11    1    1    2    0    0 -0.75346856259E+01 -0.16465693841E+02  0.68209870242E+02  0.70572494355E+02  0.00000000000E+00 0. -1.
</event>
<event>
 7    1  0.6833760E-006  0.1069564E+03  0.7561462E-02  0.1266312E+00
          3   -1    0    0  501    0  0.00000000000E+00  0.00000000000E+00  0.22190633173E+02  0.22190633173E+02  0.00000000000E+00 0. -1.
         -3   -1    0    0    0  501 -0.00000000000E+00 -0.00000000000E+00 -0.86616687870E+03  0.86616687870E+03  0.00000000000E+00 0.  1.
         23    2    1    2    0    0  0.34811067017E+02  0.40092612333E+02 -0.61634262103E+03  0.63114473948E+03  0.12508488205E+03 0.  0.
          5    1    3    3  502    0 -0.43579278526E+02 -0.15987195751E+01 -0.14418500627E+03  0.15069339021E+03  0.41800000000E+01 0. -1.
         -5    1    3    3    0  502  0.78390345543E+02  0.41691331908E+02 -0.47215761476E+03  0.48045134926E+03  0.41800000000E+01 0. -1.
        -11    1    1    2    0    0  0.13062080512E+02  0.63463082016E+01  0.48816605564E+01  0.15320710978E+02  0.00000000000E+00 0. -1.
         11    1    1    2    0    0 -0.47873147529E+02 -0.46438920535E+02 -0.23251528505E+03  0.24189206142E+03  0.00000000000E+00 0.  1.
</event>
<event>
 7    1  0.6833760E-006  0.1043589E+03  0.7561462E-02  0.1271388E+00
          2   -1    0    0  501    0  0.00000000000E+00  0.00000000000E+00  0.37073181452E+03  0.37073181452E+03  0.00000000000E+00 0. -1.
         -2   -1    0    0    0  501 -0.00000000000E+00 -0.00000000000E+00 -0.48773153237E+02  0.48773153237E+02  0.00000000000E+00 0.  1.
         23    2    1    2    0    0 -0.42552079833E+02  0.57720679625E+02  0.12170900570E+03  0.18869001422E+03  0.12509389690E+03 0.  0.
          5    1    3    3  502    0 -0.31952620342E+02 -0.22797185680E+02 -0.32428436322E+01  0.39606439583E+02  0.41800000000E+01 0.  1.
         -5    1    3    3    0  502 -0.10599459491E+02  0.80517865304E+02  0.12495184933E+03  0.14908357463E+03  0.41800000000E+01 0.  1.
        -11    1    1    2    0    0  0.18651158773E+02 -0.61010792240E+02  0.57013789074E+02  0.85561408578E+02  0.00000000000E+00 0.  1.
         11    1    1    2    0    0  0.23900921060E+02  0.32901126156E+01  0.14323586651E+03  0.14525354496E+03  0.00000000000E+00 0. -1.
</event>
<event>
 7    1  0.6833760E-006  0.9194660E+02  0.7561462E-02  0.1298205E+00
          2   -1    0    0  501    0  0.00000000000E+00  0.00000000000E+00  0.73467344221E+02  0.73467344221E+02  0.00000000000E+00 0. -1.
         -2   -1    0    0    0  501 -0.00000000000E+00 -0.00000000000E+00 -0.23285580084E+03  0.23285580084E+03  0.00000000000E+00 0.  1.
         23    2    1    2    0    0 -0.18564196118E+02  0.23684049979E+02 -0.16746514096E+03  0.21118150652E+03  0.12508993428E+03 0.  0.
          5    1    3    3  502    0 -0.48106964156E+02  0.40529423953E+02 -0.16522590337E+03  0.17684452423E+03  0.41800000000E+01 0. -1.
         -5    1    3    3    0  502  0.29542768039E+02 -0.16845373973E+02 -0.22392375917E+01  0.34336982288E+02  0.41800000000E+01 0. -1.
        -11    1    1    2    0    0  0.15511875385E+02  0.29492202572E+02 -0.15670929651E+02  0.36823719620E+02  0.00000000000E+00 0.  1.
         11    1    1    2    0    0  0.30523207322E+01 -0.53176252552E+02  0.23747613990E+02  0.58317918923E+02  0.00000000000E+00 0. -1.
</event>
<event>
 7    1  0.6833760E-006  0.2036012E+03  0.7561462E-02  0.1146736E+00
          2   -1    0    0  501    0  0.00000000000E+00  0.00000000000E+00  0.49683150347E+02  0.49683150347E+02  0.00000000000E+00 0. -1.
         -2   -1    0    0    0  501 -0.00000000000E+00 -0.00000000000E+00 -0.99872606435E+03  0.99872606435E+03  0.00000000000E+00 0.  1.
         23    2    1    2    0    0  0.17610127181E+03 -0.49776309761E+02 -0.64558511172E+03  0.68258170474E+03  0.12509319812E+03 0.  0.
          5    1    3    3  502    0  0.14085123551E+02 -0.57019981224E+02 -0.19404220461E+03  0.20277948253E+03  0.41800000000E+01 0.  1.
         -5    1    3    3    0  502  0.16201614826E+03  0.72436714623E+01 -0.45154290711E+03  0.47980222221E+03  0.41800000000E+01 0.  1.
        -11    1    1    2    0    0 -0.63498033836E+02  0.35040806432E+02 -0.19794439633E+03  0.21081233943E+03  0.00000000000E+00 0.  1.
         11    1    1    2    0    0 -0.11260323797E+03  0.14735503329E+02 -0.10551340595E+03  0.15501517054E+03  0.00000000000E+00 0. -1.
</event>
<event>
 6    1  0.6833760E-006  0.1077338E+03  0.7561462E-02  0.1264825E+00
          1   -1    0    0  501    0  0.00000000000E+00  0.00000000000E+00  0.28709664430E+03  0.28709664430E+03  0.00000000000E+00 0. -1.
         -1   -1    0    0    0  501 -0.00000000000E+00 -0.00000000000E+00 -0.96001033857E+02  0.96001033857E+02  0.00000000000E+00 0.  1.
          5    1    1    2  502    0  0.46364542589E+02 -0.27985339472E+02  0.13140746671E+02  0.55883822864E+02  0.41800000000E+01 0. -1.
         -5    1    1    2    0  502 -0.70919663841E+02  0.15453633319E+02 -0.45248949459E+02  0.85635000609E+02  0.41800000000E+01 0.  1.
        -11    1    1    2    0    0  0.54238088431E+02 -0.41510079335E+01  0.16927256578E+03  0.17779820761E+03  0.00000000000E+00 0. -1.
         11    1    1    2    0    0 -0.29682967179E+02  0.16682714086E+02  0.53931247456E+02  0.63780647081E+02  0.00000000000E+00 0.  1.
</event>
<event>
 7    1  0.9400063E-006  0.9090615E+02  0.7561462E-02  0.1300672E+00
         -1   -1    0    0    0  501 -0.00000000000E+00  0.00000000000E+00  0.32359059231E+02  0.32359059231E+02  0.00000000000E+00 0.  1.
          1   -1    0    0  501    0  0.00000000000E+00 -0.00000000000E+00 -0.49990445756E+03  0.49990445756E+03  0.00000000000E+00 0. -1.
         23    2    1    2    0    0  0.18496392259E+02 -0.60048622471E+02 -0.25591318823E+03  0.29169701213E+03  0.12509050079E+03 0.  0.
          5    1    3    3  502    0  0.45763542939E+02 -0.58883631830E+02 -0.65657384190E+02  0.99448219986E+02  0.41800000000E+01 0. -1.
         -5    1    3    3    0  502 -0.27267150680E+02 -0.11649906416E+01 -0.19025580404E+03  0.19224879214E+03  0.41800000000E+01 0. -1.
        -11    1    1    2    0    0 -0.31399266085E+02  0.19511112955E+02 -0.15861044558E+02  0.40226485975E+02  0.00000000000E+00 0.  1.
         11    1    1    2    0    0  0.12902873826E+02  0.40537509516E+02 -0.19577116554E+03  0.20034001869E+03  0.00000000000E+00 0. -1.
</event>
<event>
 7    1  0.6833760E-006  0.1702446E+03  0.7561462E-02  0.1177593E+00
          1   -1    0    0  501    0  0.00000000000E+00  0.00000000000E+00  0.37102802995E+03  0.37102802995E+03  0.00000000000E+00 0. -1.
         -1   -1    0    0    0  501 -0.00000000000E+00 -0.00000000000E+00 -0.13711987779E+03  0.13711987779E+03  0.00000000000E+00 0.  1.
         23    2    1    2    0    0  0.12925407046E+03 -0.90358768848E+02 -0.12391834579E+02  0.20154924117E+03  0.12488881941E+03 0.  0.
          5    1    3    3  502    0  0.43591888786E+02 -0.17930073236E+02  0.53467277917E+02  0.71400017521E+02  0.41800000000E+01 0. -1.
         -5    1    3    3    0  502  0.85662181678E+02 -0.72428695612E+02 -0.65859112496E+02  0.13014922365E+03  0.41800000000E+01 0.  1.
        -11    1    1    2    0    0 -0.90982035825E+01  0.54879218165E+02  0.95762388929E+02  0.11074719422E+03  0.00000000000E+00 0.  1.
         11    1    1    2    0    0 -0.12015586688E+03  0.35479550683E+02  0.15053759781E+03  0.19585147234E+03  0.00000000000E+00 0. -1.
</event>
<event>
 7    1  0.6833760E-006  0.9076045E+02  0.7561462E-02  0.1301021E+00
          1   -1    0    0  501    0  0.00000000000E+00  0.00000000000E+00  0.20373602345E+03  0.20373602345E+03  0.00000000000E+00 0. -1.
         -1   -1    0    0    0  501 -0.00000000000E+00 -0.00000000000E+00 -0.65774418541E+02  0.65774418541E+02  0.00000000000E+00 0.  1.
         23    2    1    2    0    0  0.17918768523E+02 -0.23773770776E+02  0.46192230657E+02  0.13662842900E+03  0.12508929210E+03 0.  0.
          5    1    3    3  502    0  0.54128329132E+02 -0.56252648055E+02  0.38714016617E+02  0.87238087499E+02  0.41800000000E+01 0. -1.
         -5    1    3    3    0  502 -0.36209560609E+02  0.32478877279E+02  0.74782140403E+01  0.49390341506E+02  0.41800000000E+01 0. -1.
        -11    1    1    2    0    0  0.27723295095E+01  0.32099665376E+02 -0.58510738679E+01  0.32746135551E+02  0.00000000000E+00 0.  1.
         11    1    1    2    0    0 -0.20691098032E+02 -0.83258946000E+01  0.97620448115E+02  0.10013587743E+03  0.00000000000E+00 0. -1.
</event>
<event>
 7    1  0.6833760E-006  0.1332097E+03  0.7561462E-02  0.1222769E+00
          1   -1    0    0  501    0  0.00000000000E+00  0.00000000000E+00  0.66515764758E+02  0.66515764758E+02  0.00000000000E+00 0. -1.
         -1   -1    0    0    0  501 -0.00000000000E+00 -0.00000000000E+00 -0.31029498178E+03  0.31029498178E+03  0.00000000000E+00 0.  1.
         23    2    1    2    0    0 -0.51938587494E+02 -0.75333420712E+02 -0.15816475048E+03  0.22144106536E+03  0.12508923209E+03 0.  0.
          5    1    3    3  502    0  0.54971639728E+01 -0.93590922955E+02 -0.85608508831E+02  0.12702664624E+03  0.41800000000E+01 0.  1.
         -5    1    3    3    0  502 -0.57435751467E+02  0.18257502243E+02 -0.72556241648E+02  0.94414419115E+02  0.41800000000E+01 0.  1.
        -11    1    1    2    0    0 -0.65380649604E+01  0.46509832684E+02 -0.76181977664E+02  0.89496394064E+02  0.00000000000E+00 0.  1.
         11    1    1    2    0    0  0.58476652454E+02  0.28823588028E+02 -0.94324888776E+01  0.65873287116E+02  0.00000000000E+00 0. -1.
</event>
<event>
 7    1  0.6833760E-006  0.1154903E+03  0.7561462E-02  0.1250728E+00
          3   -1    0    0  501    0  0.00000000000E+00  0.00000000000E+00  0.16239546645E+02  0.16239546645E+02  0.00000000000E+00 0. -1.
         -3   -1    0    0    0  501 -0.00000000000E+00 -0.00000000000E+00 -0.88851972432E+03  0.88851972432E+03  0.00000000000E+00 0.  1.
         23    2    1    2    0    0  0.19194122185E+02 -0.41769274085E+02 -0.51746093846E+03  0.53434628804E+03  0.12508815342E+03 0.  0.
          5    1    3    3  502    0 -0.51862508058E+02 -0.21764152249E+02 -0.17019254414E+03  0.17929409513E+03  0.41800000000E+01 0.  1.
         -5    1    3    3    0  502  0.71056630243E+02 -0.20005121837E+02 -0.34726839431E+03  0.35505219291E+03  0.41800000000E+01 0.  1.
        -11    1    1    2    0    0 -0.30254835487E+02  0.66770654737E+02 -0.30392765848E+03  0.31264308243E+03  0.00000000000E+00 0.  1.
         11    1    1    2    0    0  0.11060713302E+02 -0.25001380651E+02 -0.50891580740E+02  0.57769900497E+02  0.00000000000E+00 0. -1.
</event>
<event>
 7    1  0.6833760E-006  0.1693161E+03  0.7561462E-02  0.1178563E+00
         -2   -1    0    0    0  501 -0.00000000000E+00  0.00000000000E+00  0.40510162488E+03  0.40510162488E+03  0.00000000000E+00 0. -1.
          2   -1    0    0  501    0  0.00000000000E+00 -0.00000000000E+00 -0.92004658349E+02  0.92004658349E+02  0.00000000000E+00 0.  1.
         23    2    1    2    0    0 -0.60174712721E+02 -0.14193779340E+03  0.21217037645E+03  0.29057143697E+03  0.12509259807E+03 0.  0.
          5    1    3    3  502    0  0.17788888102E+02 -0.86005866537E+02  0.15664188311E+03  0.17963186122E+03  0.41800000000E+01 0. -1.
         -5    1    3    3    0  502 -0.77963600824E+02 -0.55931926864E+02  0.55528493338E+02  0.11093957575E+03  0.41800000000E+01 0. -1.
        -11    1    1    2    0    0  0.34453674149E+02  0.65405888571E+02 -0.41258910097E+01  0.74040589536E+02  0.00000000000E+00 0.  1.
         11    1    1    2    0    0  0.25721038572E+02  0.76531904829E+02  0.10505248109E+03  0.13249425673E+03  0.00000000000E+00 0. -1.
</event>
<event>
 7    1  0.6833760E-006  0.1108044E+03  0.7561462E-02  0.1259087E+00
         -2   -1    0    0    0  501 -0.00000000000E+00  0.00000000000E+00  0.32930149168E+02  0.32930149168E+02  0.00000000000E+00 0.  1.
          2   -1    0    0  501    0  0.00000000000E+00 -0.00000000000E+00 -0.45300266542E+03  0.45300266542E+03  0.00000000000E+00 0. -1.
         23    2    1    2    0    0 -0.16570482810E+02  0.26767997116E+02 -0.14227199740E+03  0.19204003155E+03  0.12508775280E+03 0.  0.
          5    1    3    3  502    0 -0.96662598952E+01 -0.50013106019E+02 -0.47216136258E+02  0.69581486598E+02  0.41800000000E+01 0. -1.
         -5    1    3    3    0  502 -0.69042229148E+01  0.76781103135E+02 -0.95055861146E+02  0.12245854495E+03  0.41800000000E+01 0. -1.
        -11    1    1    2    0    0  0.25121125394E+02 -0.56779762348E+02 -0.15010054955E+03  0.16243517885E+03  0.00000000000E+00 0.  1.
         11    1    1    2    0    0 -0.85506425841E+01  0.30011765233E+02 -0.12769996930E+03  0.13145760419E+03  0.00000000000E+00 0. -1.
</event>
<event>
 7    1  0.6833760E-006  0.7455326E+02  0.7561462E-02  0.1345260E+00
          1   -1    0    0  501    0  0.00000000000E+00  0.00000000000E+00  0.36365600952E+02  0.36365600952E+02  0.00000000000E+00 0. -1.
         -1   -1    0    0    0  501 -0.00000000000E+00 -0.00000000000E+00 -0.34446835320E+03  0.34446835320E+03  0.00000000000E+00 0.  1.
         23    2    1    2    0    0 -0.37569296006E+02  0.69808355989E+01 -0.19808065217E+03  0.23138022145E+03  0.11331671564E+03 0.  0.
          5    1    3    3  502    0 -0.35599476035E+01 -0.11367416662E+02  0.12189120824E+02  0.17548175261E+02  0.41800000000E+01 0. -1.
         -5    1    3    3    0  502 -0.34009348402E+02  0.18348252261E+02 -0.21026977300E+03  0.21383204618E+03  0.41800000000E+01 0.  1.
        -11    1    1    2    0    0  0.26095945893E+02  0.40823781389E+02 -0.74226338571E+02  0.88640447069E+02  0.00000000000E+00 0.  1.
         11    1    1    2    0    0  0.11473350112E+02 -0.47804616988E+02 -0.35795761504E+02  0.60813285636E+02  0.00000000000E+00 0. -1.
</event>
<event>
 7    1  0.6833760E-006  0.2676608E+03  0.7561462E-02  0.1102626E+00
         -1   -1    0    0    0  501 -0.00000000000E+00  0.00000000000E+00  0.44431425161E+02  0.44431425161E+02  0.00000000000E+00 0.  1.
          1   -1    0    0  501    0  0.00000000000E+00 -0.00000000000E+00 -0.17002045249E+04  0.17002045249E+04  0.00000000000E+00 0. -1.
         23    2    1    2    0    0 -0.92585511162E+02  0.23581411067E+03 -0.81579220351E+03  0.86271209087E+03  0.12072638798E+03 0.  0.
          5    1    3    3  502    0 -0.12108729673E+03  0.20210970517E+03 -0.66380128967E+03  0.70438632222E+03  0.41800000000E+01 0. -1.
         -5    1    3    3    0  502  0.28501785565E+02  0.33704405492E+02 -0.15199091384E+03  0.15832576865E+03  0.41800000000E+01 0.  1.
        -11    1    1    2    0    0  0.34591066074E+02 -0.13166627036E+03 -0.30789159523E+03  0.33664489157E+03  0.00000000000E+00 0.  1.
         11    1    1    2    0    0  0.57994445088E+02 -0.10414784030E+03 -0.53208930099E+03  0.54527896762E+03  0.00000000000E+00 0. -1.
</event>
<event>
 7    1  0.6833760E-006  0.5911201E+02  0.7561462E-02  0.1401596E+00
          3   -1    0    0  501    0  0.00000000000E+00  0.00000000000E+00  0.65161800175E+02  0.65161800175E+02  0.00000000000E+00 0. -1.
         -3   -1    0    0    0  501 -0.00000000000E+00 -0.00000000000E+00 -0.20210562334E+03  0.20210562334E+03  0.00000000000E+00 0.  1.
         23    2    1    2    0    0  0.58572309649E+01 -0.16306298704E+01 -0.12650024280E+03  0.17800679647E+03  0.12508853685E+03 0.  0.
          5    1    3    3  502    0  0.57781105189E+01  0.26001188329E+02 -0.14302258467E+03  0.14554167953E+03  0.41800000000E+01 0.  1.
         -5    1    3    3    0  502  0.79120445977E-01 -0.27631818199E+02  0.16522341864E+02  0.32465116937E+02  0.41800000000E+01 0.  1.
        -11    1    1    2    0    0 -0.27502884860E+02  0.20736763875E+02  0.25718454056E+02  0.42986752967E+02  0.00000000000E+00 0. -1.
         11    1    1    2    0    0  0.21645653895E+02 -0.19106134004E+02 -0.36162034418E+02  0.46273874080E+02  0.00000000000E+00 0.  1.
</event>
<event>
 7    1  0.6833760E-006  0.1072349E+03  0.7561462E-02  0.1265778E+00
          2   -1    0    0  501    0  0.00000000000E+00  0.00000000000E+00  0.76706988941E+03  0.76706988941E+03  0.00000000000E+00 0. -1.
         -2   -1    0    0    0  501 -0.00000000000E+00 -0.00000000000E+00 -0.17968127232E+02  0.17968127232E+02  0.00000000000E+00 0.  1.
         23    2    1    2    0    0 -0.15932954425E+02 -0.40104561993E+02  0.39551345292E+03  0.41706203459E+03  0.12509042461E+03 0.  0.
          5    1    3    3  502    0 -0.24894059473E+02 -0.81589720187E+02  0.20985427250E+03  0.22656761623E+03  0.41800000000E+01 0.  1.
         -5    1    3    3    0  502  0.89611050484E+01  0.41485158194E+02  0.18565918042E+03  0.19049441836E+03  0.41800000000E+01 0.  1.
        -11    1    1    2    0    0 -0.29477490347E+02  0.72157041945E+01  0.44626376505E+02  0.53967604210E+02  0.00000000000E+00 0.  1.
         11    1    1    2    0    0  0.45410444772E+02  0.32888857799E+02  0.30896193275E+03  0.31400837784E+03  0.00000000000E+00 0. -1.
</event>
<event>
 7    1  0.6833760E-006  0.9002969E+02  0.7561462E-02  0.1302780E+00
          3   -1    0    0  501    0  0.00000000000E+00  0.00000000000E+00  0.31512409606E+02  0.31512409606E+02  0.00000000000E+00 0. -1.
         -3   -1    0    0    0  501 -0.00000000000E+00 -0.00000000000E+00 -0.40136582190E+03  0.40136582190E+03  0.00000000000E+00 0.  1.
         23    2    1    2    0    0  0.10893148356E+02  0.74388566179E+01 -0.26666427818E+03  0.29484425439E+03  0.12509716151E+03 0.  0.
          5    1    3    3  502    0  0.42074510890E+02  0.31001161835E+02 -0.43155953697E+02  0.67906150246E+02  0.41800000000E+01 0. -1.
         -5    1    3    3    0  502 -0.31181362534E+02 -0.23562305217E+02 -0.22350832449E+03  0.22693810414E+03  0.41800000000E+01 0. -1.
        -11    1    1    2    0    0  0.18688058620E+02  0.33177016045E+02 -0.63336893177E+02  0.73902097169E+02  0.00000000000E+00 0.  1.
         11    1    1    2    0    0 -0.29581206977E+02 -0.40615872663E+02 -0.39852240931E+02  0.64131879948E+02  0.00000000000E+00 0. -1.
</event>
<event>
 7    1  0.6833760E-006  0.1049907E+03  0.7561462E-02  0.1270138E+00
         -2   -1    0    0    0  501 -0.00000000000E+00  0.00000000000E+00  0.18070267064E+03  0.18070267064E+03  0.00000000000E+00 0.  1.
          2   -1    0    0  501    0  0.00000000000E+00 -0.00000000000E+00 -0.19220988354E+03  0.19220988354E+03  0.00000000000E+00 0. -1.
         23    2    1    2    0    0  0.22214961999E+02 -0.92116597426E+02  0.11231692331E+03  0.19298271112E+03  0.12509301927E+03 0.  0.
          5    1    3    3  502    0 -0.97167697506E+01 -0.77478280796E+02  0.13131088080E+03  0.15283101591E+03  0.41800000000E+01 0.  1.
         -5    1    3    3    0  502  0.31931731750E+02 -0.14638316631E+02 -0.18993957493E+02  0.40151695202E+02  0.41800000000E+01 0.  1.
        -11    1    1    2    0    0 -0.21121749906E+02  0.49993836854E+02 -0.57667760272E+01  0.54578088536E+02  0.00000000000E+00 0.  1.
         11    1    1    2    0    0 -0.10932120935E+01  0.42122760572E+02 -0.11805736018E+03  0.12535175453E+03  0.00000000000E+00 0. -1.
</event>
<event>
 7    1  0.6833760E-006  0.1144577E+03  0.7561462E-02  0.1252531E+00
         -1   -1    0    0    0  501 -0.00000000000E+00  0.00000000000E+00  0.67081096151E+02  0.67081096151E+02  0.00000000000E+00 0.  1.
          1   -1    0    0  501    0  0.00000000000E+00 -0.00000000000E+00 -0.22214098812E+03  0.22214098812E+03  0.00000000000E+00 0. -1.
         23    2    1    2    0    0 -0.23373285703E+02  0.50591360344E+02 -0.87934403383E+02  0.16274674157E+03  0.12509295091E+03 0.  0.
          5    1    3    3  502    0  0.97788508645E+01 -0.32556873875E+02 -0.59639816768E+02  0.68774676335E+02  0.41800000000E+01 0.  1.
         -5    1    3    3    0  502 -0.33152136567E+02  0.83148234220E+02 -0.28294586615E+02  0.93972065235E+02  0.41800000000E+01 0.  1.
        -11    1    1    2    0    0 -0.34092207516E+02 -0.24263273552E+02 -0.39321407660E+02  0.57420886071E+02  0.00000000000E+00 0.  1.
         11    1    1    2    0    0  0.57465493219E+02 -0.26328086792E+02 -0.27804080930E+02  0.69054456636E+02  0.00000000000E+00 0. -1.
</event>
<event>
 7    1  0.6833760E-006  0.2099766E+03  0.7561462E-02  0.1141585E+00
         -1   -1    0    0    0  501 -0.00000000000E+00  0.00000000000E+00  0.51034957435E+02  0.51034957435E+02  0.00000000000E+00 0.  1.
          1   -1    0    0  501    0  0.00000000000E+00 -0.00000000000E+00 -0.10753404729E+04  0.10753404729E+04  0.00000000000E+00 0. -1.
         23    2    1    2    0    0  0.78285397142E+02  0.17961750764E+03 -0.36641423525E+03  0.43392711994E+03  0.12506918551E+03 0.  0.
          5    1    3    3  502    0  0.89371962221E+01  0.14657694296E+03 -0.18052353315E+03  0.23274641158E+03  0.41800000000E+01 0. -1.
         -5    1    3    3    0  502  0.69348200919E+02  0.33040564675E+02 -0.18589070210E+03  0.20118070835E+03  0.41800000000E+01 0. -1.
        -11    1    1    2    0    0 -0.29445784579E+02 -0.57740246094E+02 -0.98917399286E+02  0.11826090702E+03  0.00000000000E+00 0.  1.
         11    1    1    2    0    0 -0.48839612563E+02 -0.12187726154E+03 -0.55897388094E+03  0.57418740339E+03  0.00000000000E+00 0. -1.
</event>
<event>
 7    1  0.6833760E-006  0.1461573E+03  0.7561462E-02  0.1205276E+00
         -1   -1    0    0    0  501 -0.00000000000E+00  0.00000000000E+00  0.73404284595E+02  0.73404284595E+02  0.00000000000E+00 0.  1.
          1   -1    0    0  501    0  0.00000000000E+00 -0.00000000000E+00 -0.36421425079E+03  0.36421425079E+03  0.00000000000E+00 0. -1.
         23    2    1    2    0    0  0.29632394201E+02 -0.11772637944E+03 -0.17520345635E+03  0.24713969864E+03  0.12507677772E+03 0.  0.
          5    1    3    3  502    0  0.65870384281E+02 -0.33410437389E+02 -0.11687040349E+03  0.13831604558E+03  0.41800000000E+01 0. -1.
         -5    1    3    3    0  502 -0.36237990080E+02 -0.84315942056E+02 -0.58333052853E+02  0.10882365306E+03  0.41800000000E+01 0. -1.
        -11    1    1    2    0    0  0.82737738426E+01  0.19565379552E+02 -0.74566042952E+02  0.77532923149E+02  0.00000000000E+00 0. -1.
         11    1    1    2    0    0 -0.37906168044E+02  0.98160999893E+02 -0.41040466899E+02  0.11294591360E+03  0.00000000000E+00 0.  1.
</event>
<event>
 7    1  0.6833760E-006  0.2848931E+03  0.7561462E-02  0.1093046E+00
         -2   -1    0    0    0  501 -0.00000000000E+00  0.00000000000E+00  0.21541676111E+04  0.21541676111E+04  0.00000000000E+00 0.  1.
          2   -1    0    0  501    0  0.00000000000E+00 -0.00000000000E+00 -0.42655664553E+02  0.42655664553E+02  0.00000000000E+00 0. -1.
         23    2    1    2    0    0 -0.24709213937E+03 -0.12117508698E+03  0.13101375046E+04  0.13445615142E+04  0.12508979714E+03 0.  0.
          5    1    3    3  502    0 -0.16503721205E+03 -0.31811951263E+02  0.94314005485E+03  0.95800830741E+03  0.41800000000E+01 0.  1.
         -5    1    3    3    0  502 -0.82054927325E+02 -0.89363135721E+02  0.36699744976E+03  0.38655320676E+03  0.41800000000E+01 0.  1.
        -11    1    1    2    0    0  0.59060219497E+02  0.50720328645E+01  0.93616548853E+02  0.11080565538E+03  0.00000000000E+00 0.  1.
         11    1    1    2    0    0  0.18803191987E+03  0.11610305412E+03  0.70775789313E+03  0.74145610615E+03  0.00000000000E+00 0. -1.
</event>
<event>
 7    1  0.6833760E-006  0.1020834E+03  0.7561462E-02  0.1275975E+00
          2   -1    0    0  501    0  0.00000000000E+00  0.00000000000E+00  0.48425267332E+02  0.48425267332E+02  0.00000000000E+00 0. -1.
         -2   -1    0    0    0  501 -0.00000000000E+00 -0.00000000000E+00 -0.36843457177E+03  0.36843457177E+03  0.00000000000E+00 0.  1.
         23    2    1    2    0    0  0.73976063688E+02  0.82845156086E+01 -0.20816498445E+03  0.25401186352E+03  0.12509306480E+03 0.  0.
          5    1    3    3  502    0  0.71154216637E+02 -0.17688846064E+02 -0.21456953940E+03  0.22678927986E+03  0.41800000000E+01 0.  1.
         -5    1    3    3    0  502  0.28218470506E+01  0.25973361673E+02  0.64045549467E+01  0.27222583665E+02  0.41800000000E+01 0.  1.
        -11    1    1    2    0    0 -0.57550450834E+02  0.28325352219E+02 -0.10365276903E+03  0.12189453022E+03  0.00000000000E+00 0.  1.
         11    1    1    2    0    0 -0.16425612854E+02 -0.36609867827E+02 -0.81915509578E+01  0.40953445362E+02  0.00000000000E+00 0. -1.
</event>
<event>
 7    1  0.6833760E-006  0.1211547E+03  0.7561462E-02  0.1241204E+00
          2   -1    0    0  501    0  0.00000000000E+00  0.00000000000E+00  0.25079870457E+03  0.25079870457E+03  0.00000000000E+00 0. -1.
         -2   -1    0    0    0  501 -0.00000000000E+00 -0.00000000000E+00 -0.81135290354E+02  0.81135290354E+02  0.00000000000E+00 0.  1.
         23    2    1    2    0    0  0.77408194409E+02 -0.27076990611E+02  0.42843175803E+02  0.15558936793E+03  0.12508925501E+03 0.  0.
          5    1    3    3  502    0  0.10192916824E+03 -0.43071630846E+02  0.54967856484E+02  0.12362709399E+03  0.41800000000E+01 0. -1.
         -5    1    3    3    0  502 -0.24520973831E+02  0.15994640235E+02 -0.12124680681E+02  0.31962273941E+02  0.41800000000E+01 0. -1.
        -11    1    1    2    0    0 -0.49926217554E+02 -0.14655526186E+02  0.15449735833E+02  0.54278043299E+02  0.00000000000E+00 0. -1.
         11    1    1    2    0    0 -0.27481976855E+02  0.41732516798E+02  0.11137050258E+03  0.12206658369E+03  0.00000000000E+00 0.  1.
</event>
<event>
 7    1  0.6833760E-006  0.9029470E+02  0.7561462E-02  0.1302140E+00
         -2   -1    0    0    0  501 -0.00000000000E+00  0.00000000000E+00  0.26979623318E+02  0.26979623318E+02  0.00000000000E+00 0.  1.
          2   -1    0    0  501    0  0.00000000000E+00 -0.00000000000E+00 -0.50444257996E+03  0.50444257996E+03  0.00000000000E+00 0. -1.
         23    2    1    2    0    0 -0.19364905647E+02  0.12811151845E+02 -0.18574288667E+03  0.22514312140E+03  0.12509948034E+03 0.  0.
          5    1    3    3  502    0 -0.35730195449E+02 -0.26469635276E+02 -0.17561000593E+03  0.18120053819E+03  0.41800000000E+01 0.  1.
         -5    1    3    3    0  502  0.16365289802E+02  0.39280787120E+02 -0.10132880745E+02  0.43942583211E+02  0.41800000000E+01 0.  1.
        -11    1    1    2    0    0  0.55619863850E+02 -0.34630000631E+01 -0.16620660843E+03  0.17530030892E+03  0.00000000000E+00 0. -1.
         11    1    1    2    0    0 -0.36254958203E+02 -0.93481517818E+01 -0.12551346154E+03  0.13097877295E+03  0.00000000000E+00 0.  1.
</event>
<event>
 7    1  0.6833760E-006  0.1038511E+03  0.7561462E-02  0.1272400E+00
         -1   -1    0    0    0  501 -0.00000000000E+00  0.00000000000E+00  0.25803721579E+04  0.25803721579E+04  0.00000000000E+00 0.  1.
          1   -1    0    0  501    0  0.00000000000E+00 -0.00000000000E+00 -0.83452756219E+02  0.83452756219E+02  0.00000000000E+00 0. -1.
         23    2    1    2    0    0  0.73631822708E+01 -0.29352187825E+01  0.25539010818E+04  0.25568655196E+04  0.12283207162E+03 0.  0.
          5    1    3    3  502    0  0.69918606112E+01  0.59036161515E+02  0.14418957680E+04  0.14431268249E+04  0.41800000000E+01 0. -1.
         -5    1    3    3    0  502  0.37132165960E+00 -0.61971380298E+02  0.11120053138E+04  0.11137386947E+04  0.41800000000E+01 0.  1.
        -11    1    1    2    0    0 -0.26868844091E+02 -0.34531456381E+02 -0.12250042178E+02  0.45435886653E+02  0.00000000000E+00 0.  1.
         11    1    1    2    0    0  0.19505661820E+02  0.37466675164E+02 -0.44731637915E+02  0.61523507876E+02  0.00000000000E+00 0. -1.
</event>
<event>
 6    1  0.6833760E-006  0.1269340E+03  0.7561462E-02  0.1232077E+00
          1   -1    0    0  501    0  0.00000000000E+00  0.00000000000E+00  0.33588662279E+03  0.33588662279E+03  0.00000000000E+00 0. -1.
         -1   -1    0    0    0  501 -0.00000000000E+00 -0.00000000000E+00 -0.62137368656E+02  0.62137368656E+02  0.00000000000E+00 0.  1.
          5    1    1    2  502    0 -0.92226159314E+02  0.24028360461E+02  0.59091057231E+02  0.11221520402E+03  0.41800000000E+01 0. -1.
         -5    1    1    2    0  502  0.89879982483E+02  0.24803062534E+01  0.75220717372E+02  0.11730384432E+03  0.41800000000E+01 0.  1.
        -11    1    1    2    0    0  0.14933445490E+02 -0.44252990149E+02  0.13911642077E+03  0.14674710716E+03  0.00000000000E+00 0. -1.
         11    1    1    2    0    0 -0.12587268659E+02  0.17744323435E+02  0.32105876053E+00  0.21757835949E+02  0.00000000000E+00 0.  1.
</event>
<event>
 7    1  0.6833760E-006  0.1085431E+03  0.7561462E-02  0.1263292E+00
         -1   -1    0    0    0  501 -0.00000000000E+00  0.00000000000E+00  0.13305306213E+03  0.13305306213E+03  0.00000000000E+00 0.  1.
          1   -1    0    0  501    0  0.00000000000E+00 -0.00000000000E+00 -0.11879639318E+03  0.11879639318E+03  0.00000000000E+00 0. -1.
         23    2    1    2    0    0 -0.52175145235E+02 -0.25061792872E+02  0.34603308238E+02  0.14215080301E+03  0.12513641601E+03 0.  0.
          5    1    3    3  502    0 -0.22810799045E+02  0.40367265026E+02  0.50384642216E+02  0.68599804738E+02  0.41800000000E+01 0. -1.
         -5    1    3    3    0  502 -0.29364346191E+02 -0.65429057899E+02 -0.15781333978E+02  0.73550998272E+02  0.41800000000E+01 0. -1.
        -11    1    1    2    0    0  0.71116190108E+02  0.52890344612E+01  0.61741852740E+01  0.71579375136E+02  0.00000000000E+00 0.  1.
         11    1    1    2    0    0 -0.18941044873E+02  0.19772758411E+02 -0.26520824567E+02  0.38119277167E+02  0.00000000000E+00 0. -1.
</event>
<event>
 7    1  0.6833760E-006  0.7840462E+02  0.7561462E-02  0.1333641E+00
         -2   -1    0    0    0  501 -0.00000000000E+00  0.00000000000E+00  0.78385341838E+02  0.78385341838E+02  0.00000000000E+00 0.  1.
          2   -1    0    0  501    0  0.00000000000E+00 -0.00000000000E+00 -0.15162852654E+03  0.15162852654E+03  0.00000000000E+00 0. -1.
         23    2    1    2    0    0 -0.11733890918E+02 -0.67909096597E+01 -0.30354541039E+02  0.12943029043E+03  0.12508797412E+03 0.  0.
          5    1    3    3  502    0 -0.38511841962E+02  0.89578815743E+01 -0.69021110595E+02  0.79654200902E+02  0.41800000000E+01 0. -1.
         -5    1    3    3    0  502  0.26777951043E+02 -0.15748791234E+02  0.38666569556E+02  0.49776089528E+02  0.41800000000E+01 0. -1.
        -11    1    1    2    0    0 -0.21657071747E+02 -0.29364938694E+02 -0.35332781852E+02  0.50791080463E+02  0.00000000000E+00 0. -1.
         11    1    1    2    0    0  0.33390962666E+02  0.36155848354E+02 -0.75558618081E+01  0.49792497483E+02  0.00000000000E+00 0.  1.
</event>
<event>
 7    1  0.6833760E-006  0.2201905E+03  0.7561462E-02  0.1133741E+00
         -2   -1    0    0    0  501 -0.00000000000E+00  0.00000000000E+00  0.15043856845E+03  0.15043856845E+03  0.00000000000E+00 0.  1.
          2   -1    0    0  501    0  0.00000000000E+00 -0.00000000000E+00 -0.35740296556E+03  0.35740296556E+03  0.00000000000E+00 0. -1.
         23    2    1    2    0    0  0.89013915063E+02 -0.17814365637E+03 -0.10407231311E+03  0.25717278088E+03  0.12509257968E+03 0.  0.
          5    1    3    3  502    0  0.27712030912E+02  0.15192971066E+02 -0.89377232151E+01  0.33107979754E+02  0.41800000000E+01 0. -1.
         -5    1    3    3    0  502  0.61301884150E+02 -0.19333662744E+03 -0.95134589899E+02  0.22406480113E+03  0.41800000000E+01 0. -1.
        -11    1    1    2    0    0 -0.51185057044E+02  0.14998397618E+03 -0.26187377616E+02  0.16062652932E+03  0.00000000000E+00 0.  1.
         11    1    1    2    0    0 -0.37828858019E+02  0.28159680194E+02 -0.76704706377E+02  0.90042223806E+02  0.00000000000E+00 0. -1.
</event>
<event>
 7    1  0.6833760E-006  0.1178054E+03  0.7561462E-02  0.1246762E+00
         -2   -1    0    0    0  501 -0.00000000000E+00  0.00000000000E+00  0.69832783091E+03  0.69832783091E+03  0.00000000000E+00 0.  1.
          2   -1    0    0  501    0  0.00000000000E+00 -0.00000000000E+00 -0.59448041006E+02  0.59448041006E+02  0.00000000000E+00 0. -1.
         23    2    1    2    0    0  0.76624351287E+02 -0.90111240509E+01  0.62021102665E+03  0.63738638166E+03  0.12508873003E+03 0.  0.
          5    1    3    3  502    0  0.59537807642E+02 -0.54780935239E+02  0.22490897824E+03  0.23905485207E+03  0.41800000000E+01 0.  1.
         -5    1    3    3    0  502  0.17086543645E+02  0.45769811188E+02  0.39530204842E+03  0.39833152960E+03  0.41800000000E+01 0.  1.
        -11    1    1    2    0    0 -0.59921022511E+02  0.38817938393E+02  0.38262305973E+02  0.81002255142E+02  0.00000000000E+00 0.  1.
         11    1    1    2    0    0 -0.16703328776E+02 -0.29806814342E+02 -0.19593542721E+02  0.39387235112E+02  0.00000000000E+00 0. -1.
</event>
<event>
 7    1  0.6833760E-006  0.9892405E+02  0.7561462E-02  0.1282575E+00
          2   -1    0    0  501    0  0.00000000000E+00  0.00000000000E+00  0.17381995226E+03  0.17381995226E+03  0.00000000000E+00 0. -1.
         -2   -1    0    0    0  501 -0.00000000000E+00 -0.00000000000E+00 -0.75068095987E+02  0.75068095987E+02  0.00000000000E+00 0.  1.
         23    2    1    2    0    0 -0.59062096327E+01 -0.17491277840E+02  0.20477832831E+02  0.12809156370E+03  0.12508908402E+03 0.  0.
          5    1    3    3  502    0  0.43259977107E+02 -0.50247716079E+02  0.17918258746E+02  0.68809846585E+02  0.41800000000E+01 0.  1.
         -5    1    3    3    0  502 -0.49166186740E+02  0.32756438240E+02  0.25595740845E+01  0.59281717116E+02  0.41800000000E+01 0.  1.
        -11    1    1    2    0    0 -0.16477431153E+02  0.38256076635E+02  0.56750682879E+01  0.42038548226E+02  0.00000000000E+00 0.  1.
         11    1    1    2    0    0  0.22383640785E+02 -0.20764798795E+02  0.72598955155E+02  0.78757936320E+02  0.00000000000E+00 0. -1.
</event>
<event>
 7    1  0.6833760E-006  0.1029325E+03  0.7561462E-02  0.1274248E+00
          2   -1    0    0  501    0  0.00000000000E+00  0.00000000000E+00  0.92445181960E+02  0.92445181960E+02  0.00000000000E+00 0. -1.
         -2   -1    0    0    0  501 -0.00000000000E+00 -0.00000000000E+00 -0.18446690871E+03  0.18446690871E+03  0.00000000000E+00 0.  1.
         23    2    1    2    0    0 -0.18232394767E+01  0.49312605385E+02 -0.10789307728E+03  0.17240709080E+03  0.12509289182E+03 0.  0.
          5    1    3    3  502    0  0.41031822610E+02 -0.26065306253E+01  0.42473778560E+01  0.41544158281E+02  0.41800000000E+01 0. -1.
         -5    1    3    3    0  502 -0.42855062087E+02  0.51919136011E+02 -0.11214045514E+03  0.13086293252E+03  0.41800000000E+01 0. -1.
        -11    1    1    2    0    0 -0.28482567528E+02 -0.58796762118E+02 -0.65088041830E+01  0.65655772179E+02  0.00000000000E+00 0.  1.
         11    1    1    2    0    0  0.30305807005E+02  0.94841567323E+01  0.22380154710E+02  0.38849227688E+02  0.00000000000E+00 0. -1.
</event>
<event>
 7    1  0.6833760E-006  0.1087740E+03  0.7561462E-02  0.1262857E+00
          2   -1    0    0  501    0  0.00000000000E+00  0.00000000000E+00  0.47069945946E+03  0.47069945946E+03  0.00000000000E+00 0.  1.
         -2   -1    0    0    0  501 -0.00000000000E+00 -0.00000000000E+00 -0.29702036968E+02  0.29702036968E+02  0.00000000000E+00 0. -1.
         23    2    1    2    0    0  0.13164797840E+02 -0.45261761165E+02  0.22713068505E+03  0.26353977171E+03  0.12507167647E+03 0.  0.
          5    1    3    3  502    0 -0.50776442201E+02 -0.44357066406E+02  0.13930106557E+03  0.15481619971E+03  0.41800000000E+01 0. -1.
         -5    1    3    3    0  502  0.63941240041E+02 -0.90469475870E+00  0.87829619475E+02  0.10872357200E+03  0.41800000000E+01 0. -1.
        -11    1    1    2    0    0  0.29569450086E+02  0.12678289374E+02  0.25717268471E+02  0.41188217945E+02  0.00000000000E+00 0.  1.
         11    1    1    2    0    0 -0.42734247926E+02  0.32583471791E+02  0.18814946897E+03  0.19567350677E+03  0.00000000000E+00 0. -1.
</event>
<event>
 7    1  0.6833760E-006  0.1224630E+03  0.7561462E-02  0.1239088E+00
         -2   -1    0    0    0  501 -0.00000000000E+00  0.00000000000E+00  0.28227587123E+02  0.28227587123E+02  0.00000000000E+00 0.  1.
          2   -1    0    0  501    0  0.00000000000E+00 -0.00000000000E+00 -0.62801345720E+03  0.62801345720E+03  0.00000000000E+00 0. -1.
         23    2    1    2    0    0  0.75921043352E+02 -0.10884250596E+02 -0.33763269258E+03  0.36811659262E+03  0.12502607300E+03 0.  0.
          5    1    3    3  502    0  0.10028585345E+03 -0.86430936095E+01 -0.32501664723E+03  0.34027231572E+03  0.41800000000E+01 0.  1.
         -5    1    3    3    0  502 -0.24364810100E+02 -0.22411569862E+01 -0.12616045351E+02  0.27844276901E+02  0.41800000000E+01 0.  1.
        -11    1    1    2    0    0 -0.47006304015E+01  0.41551838241E+02 -0.99658486303E+02  0.10807620034E+03  0.00000000000E+00 0. -1.
         11    1    1    2    0    0 -0.71220412950E+02 -0.30667587646E+02 -0.16249469119E+03  0.18004825136E+03  0.00000000000E+00 0.  1.
</event>
<event>
 7    1  0.6833760E-006  0.1154759E+03  0.7561462E-02  0.1250753E+00
          2   -1    0    0  501    0  0.00000000000E+00  0.00000000000E+00  0.87795439650E+02  0.87795439650E+02  0.00000000000E+00 0. -1.
         -2   -1    0    0    0  501 -0.00000000000E+00 -0.00000000000E+00 -0.19127210750E+03  0.19127210750E+03  0.00000000000E+00 0.  1.
         23    2    1    2    0    0  0.70214479217E+01  0.58452284673E+02 -0.95830226056E+02  0.16821671241E+03  0.12508980691E+03 0.  0.
          5    1    3    3  502    0  0.55525321319E+02  0.21807385519E+02 -0.88547321249E+02  0.10684907052E+03  0.41800000000E+01 0.  1.
         -5    1    3    3    0  502 -0.48503873398E+02  0.36644899154E+02 -0.72829048072E+01  0.61367641889E+02  0.41800000000E+01 0.  1.
        -11    1    1    2    0    0 -0.18926315285E+02 -0.81826131325E+02 -0.19531191441E+01  0.84009141481E+02  0.00000000000E+00 0. -1.
         11    1    1    2    0    0  0.11904867363E+02  0.23373846653E+02 -0.56933226517E+01  0.26841693261E+02  0.00000000000E+00 0.  1.
</event>
<event>
 7    1  0.6833760E-006  0.1318613E+03  0.7561462E-02  0.1224720E+00
         -2   -1    0    0    0  501 -0.00000000000E+00  0.00000000000E+00  0.39056293365E+02  0.39056293365E+02  0.00000000000E+00 0.  1.
          2   -1    0    0  501    0  0.00000000000E+00 -0.00000000000E+00 -0.70909534252E+03  0.70909534252E+03  0.00000000000E+00 0. -1.
         23    2    1    2    0    0  0.10072863142E+03 -0.17984104828E+02 -0.19155959049E+03  0.25062375148E+03  0.12508997916E+03 0.  0.
          5    1    3    3  502    0  0.89982731831E+02 -0.66203430259E+02 -0.13887462185E+03  0.17827904869E+03  0.41800000000E+01 0.  1.
         -5    1    3    3    0  502  0.10745899593E+02  0.48219325431E+02 -0.52684968633E+02  0.72344702798E+02  0.41800000000E+01 0.  1.
        -11    1    1    2    0    0 -0.18388305430E+02  0.42807933631E+01 -0.94210455911E+01  0.21100025318E+02  0.00000000000E+00 0.  1.
         11    1    1    2    0    0 -0.82340325995E+02  0.13703311465E+02 -0.46905841308E+03  0.47642785908E+03  0.00000000000E+00 0. -1.
</event>
<event>
 7    1  0.6833760E-006  0.1344204E+03  0.7561462E-02  0.1221040E+00
          1   -1    0    0  501    0  0.00000000000E+00  0.00000000000E+00  0.29908376412E+03  0.29908376412E+03  0.00000000000E+00 0. -1.
         -1   -1    0    0    0  501 -0.00000000000E+00 -0.00000000000E+00 -0.87667874812E+02  0.87667874812E+02  0.00000000000E+00 0.  1.
         23    2    1    2    0    0  0.77121298794E+02  0.79454160690E+02  0.36705857420E+02  0.16163758357E+03  0.11188713097E+03 0.  0.
          5    1    3    3  502    0  0.36383751047E+02 -0.25024481192E+02  0.29561993007E+01  0.44454623083E+02  0.41800000000E+01 0. -1.
         -5    1    3    3    0  502  0.40737547748E+02  0.10447864188E+03  0.33749658120E+02  0.11718296049E+03  0.41800000000E+01 0.  1.
        -11    1    1    2    0    0 -0.52379371492E+02 -0.40897919947E+02  0.16555689611E+03  0.17839653657E+03  0.00000000000E+00 0. -1.
         11    1    1    2    0    0 -0.24741927302E+02 -0.38556240743E+02  0.91531357850E+01  0.46717518786E+02  0.00000000000E+00 0.  1.
</event>
<event>
 7    1  0.6833760E-006  0.1036595E+03  0.7561462E-02  0.1272784E+00
          1   -1    0    0  501    0  0.00000000000E+00  0.00000000000E+00  0.61073264171E+02  0.61073264171E+02  0.00000000000E+00 0. -1.
         -1   -1    0    0    0  501 -0.00000000000E+00 -0.00000000000E+00 -0.32290006709E+03  0.32290006709E+03  0.00000000000E+00 0.  1.
         23    2    1    2    0    0  0.33352179111E+02 -0.15936218229E+02 -0.25428596059E+03  0.28324390393E+03  0.11916135471E+03 0.  0.
          5    1    3    3  502    0  0.48394573812E+02  0.42080677420E+02 -0.14292533575E+03  0.15670973865E+03  0.41800000000E+01 0. -1.
         -5    1    3    3    0  502 -0.15042394701E+02 -0.58016895650E+02 -0.11136062484E+03  0.12653416528E+03  0.41800000000E+01 0.  1.
        -11    1    1    2    0    0 -0.34123902339E+02 -0.24827301907E+02  0.24570198152E+02  0.48831652318E+02  0.00000000000E+00 0. -1.
         11    1    1    2    0    0  0.77172322831E+00  0.40763520136E+02 -0.32111040477E+02  0.51897775012E+02  0.00000000000E+00 0.  1.
</event>
<event>
 7    1  0.6833760E-006  0.9668318E+02  0.7561462E-02  0.1287430E+00
          2   -1    0    0  501    0  0.00000000000E+00  0.00000000000E+00  0.55634841340E+03  0.55634841340E+03  0.00000000000E+00 0. -1.
         -2   -1    0    0    0  501 -0.00000000000E+00 -0.00000000000E+00 -0.21175153554E+02  0.21175153554E+02  0.00000000000E+00 0.  1.
         23    2    1    2    0    0  0.15335772593E+01  0.12661392496E+02  0.30588863260E+03  0.33072052376E+03  0.12508215925E+03 0.  0.
          5    1    3    3  502    0  0.46825828822E+02  0.40373968002E+02  0.96657973793E+02  0.11481703634E+03  0.41800000000E+01 0. -1.
         -5    1    3    3    0  502 -0.45292251562E+02 -0.27712575505E+02  0.20923065881E+03  0.21590348742E+03  0.41800000000E+01 0. -1.
        -11    1    1    2    0    0 -0.38882482189E+02 -0.12309618619E+02  0.18216881727E+03  0.18667847256E+03  0.00000000000E+00 0. -1.
         11    1    1    2    0    0  0.37348904930E+02 -0.35177387679E+00  0.47115809969E+02  0.60124570629E+02  0.00000000000E+00 0.  1.
</event>
<event>
 7    1  0.6833760E-006  0.1608113E+03  0.7561462E-02  0.1187784E+00
          2   -1    0    0  501    0  0.00000000000E+00  0.00000000000E+00  0.31454672380E+03  0.31454672380E+03  0.00000000000E+00 0. -1.
         -2   -1    0    0    0  501 -0.00000000000E+00 -0.00000000000E+00 -0.86209642217E+02  0.86209642217E+02  0.00000000000E+00 0.  1.
         23    2    1    2    0    0 -0.82559534163E+02 -0.92336041109E+02  0.11529129194E+03  0.21042937912E+03  0.12508565237E+03 0.  0.
          5    1    3    3  502    0 -0.51310550535E+02 -0.11885558325E+03  0.63508422742E+02  0.14425745882E+03  0.41800000000E+01 0.  1.
         -5    1    3    3    0  502 -0.31248983628E+02  0.26519542143E+02  0.51782869199E+02  0.66171920297E+02  0.41800000000E+01 0.  1.
        -11    1    1    2    0    0  0.77986923600E+02  0.22853644020E+02  0.44661497278E+02  0.92730246612E+02  0.00000000000E+00 0.  1.
         11    1    1    2    0    0  0.45726105628E+01  0.69482397088E+02  0.68384292359E+02  0.97596740283E+02  0.00000000000E+00 0. -1.
</event>
<event>
 7    1  0.6833760E-006  0.1492558E+03  0.7561462E-02  0.1201390E+00
          1   -1    0    0  501    0  0.00000000000E+00  0.00000000000E+00  0.51173062151E+02  0.51173062151E+02  0.00000000000E+00 0. -1.
         -1   -1    0    0    0  501 -0.00000000000E+00 -0.00000000000E+00 -0.59989489772E+03  0.59989489772E+03  0.00000000000E+00 0.  1.
         23    2    1    2    0    0 -0.11757874094E+03  0.69618337678E+02 -0.31309971223E+03  0.36380049963E+03  0.12509156833E+03 0.  0.
          5    1    3    3  502    0 -0.11146519302E+03  0.67717745436E+02 -0.14323014518E+03  0.19375894609E+03  0.41800000000E+01 0.  1.
         -5    1    3    3    0  502 -0.61135479256E+01  0.19005922424E+01 -0.16986956705E+03  0.17004155354E+03  0.41800000000E+01 0.  1.
        -11    1    1    2    0    0 -0.13444907412E+02 -0.69872194036E+01 -0.45950663229E+02  0.48384400601E+02  0.00000000000E+00 0.  1.
         11    1    1    2    0    0  0.13102364835E+03 -0.62631118275E+02 -0.18967146011E+03  0.23888305964E+03  0.00000000000E+00 0. -1.
</event>
<event>
 7    1  0.6833760E-006  0.1099544E+03  0.7561462E-02  0.1260654E+00
         -2   -1    0    0    0  501 -0.00000000000E+00  0.00000000000E+00  0.64193789201E+02  0.64193789201E+02  0.00000000000E+00 0. -1.
          2   -1    0    0  501    0  0.00000000000E+00 -0.00000000000E+00 -0.23905326000E+03  0.23905326000E+03  0.00000000000E+00 0.  1.
         23    2    1    2    0    0 -0.15639015798E+02 -0.34289847664E+02 -0.40489009116E+02  0.13677494128E+03  0.12509057612E+03 0.  0.
          5    1    3    3  502    0 -0.70617748394E+02 -0.16279847910E+02 -0.20624720930E+02  0.75463576311E+02  0.41800000000E+01 0. -1.
         -5    1    3    3    0  502  0.54978732596E+02 -0.18009999754E+02 -0.19864288186E+02  0.61311364967E+02  0.41800000000E+01 0. -1.
        -11    1    1    2    0    0 -0.31854300898E+02  0.25966519132E+02 -0.28130595422E+02  0.49802479862E+02  0.00000000000E+00 0. -1.
         11    1    1    2    0    0  0.47493316696E+02  0.83233285325E+01 -0.10623986626E+03  0.11666962806E+03  0.00000000000E+00 0.  1.
</event>
<event>
 7    1  0.6833760E-006  0.2511652E+03  0.7561462E-02  0.1112571E+00
         -1   -1    0    0    0  501 -0.00000000000E+00  0.00000000000E+00  0.48059223952E+03  0.48059223952E+03  0.00000000000E+00 0.  1.
          1   -1    0    0  501    0  0.00000000000E+00 -0.00000000000E+00 -0.16307983535E+03  0.16307983535E+03  0.00000000000E+00 0. -1.
         23    2    1    2    0    0  0.15547119782E+03 -0.16966701691E+03  0.29648969098E+03  0.39560844008E+03  0.12506682625E+03 0.  0.
          5    1    3    3  502    0 -0.18690728608E+02 -0.17693521520E+02  0.57313251882E+02  0.62965746886E+02  0.41800000000E+01 0. -1.
         -5    1    3    3    0  502  0.17416192642E+03 -0.15197349539E+03  0.23917643910E+03  0.33264269320E+03  0.41800000000E+01 0. -1.
        -11    1    1    2    0    0 -0.35890920229E+02  0.10098115191E+03 -0.67879440815E+01  0.10738448389E+03  0.00000000000E+00 0.  1.
         11    1    1    2    0    0 -0.11958027759E+03  0.68685865000E+02  0.27810657272E+02  0.14067915089E+03  0.00000000000E+00 0. -1.
</event>
<event>
 7    1  0.6833760E-006  0.7650313E+02  0.7561462E-02  0.1339279E+00
         -2   -1    0    0    0  501 -0.00000000000E+00  0.00000000000E+00  0.35110894858E+02  0.35110894858E+02  0.00000000000E+00 0.  1.
          2   -1    0    0  501    0  0.00000000000E+00 -0.00000000000E+00 -0.31129707384E+03  0.31129707384E+03  0.00000000000E+00 0. -1.
         23    2    1    2    0    0 -0.50749731306E+01  0.13075341064E+02 -0.79916945624E+02  0.14227575745E+03  0.11687152375E+03 0.  0.
          5    1    3    3  502    0 -0.51492176137E+02  0.19098936126E+02 -0.77685858885E+02  0.95230135121E+02  0.41800000000E+01 0. -1.
         -5    1    3    3    0  502  0.46417203006E+02 -0.60235950625E+01 -0.22310867395E+01  0.47045622330E+02  0.41800000000E+01 0.  1.
        -11    1    1    2    0    0  0.18462215905E+02 -0.26289247801E+02 -0.16086515093E+03  0.16404138121E+03  0.00000000000E+00 0. -1.
         11    1    1    2    0    0 -0.13387242775E+02  0.13213906737E+02 -0.35404082435E+02  0.40090830041E+02  0.00000000000E+00 0.  1.
</event>
<event>
 7    1  0.6833760E-006  0.5022786E+02  0.7561462E-02  0.1444116E+00
         -1   -1    0    0    0  501 -0.00000000000E+00  0.00000000000E+00  0.32541586971E+02  0.32541586971E+02  0.00000000000E+00 0.  1.
          1   -1    0    0  501    0  0.00000000000E+00 -0.00000000000E+00 -0.39815466747E+03  0.39815466747E+03  0.00000000000E+00 0. -1.
         23    2    1    2    0    0  0.47420188702E+01  0.22282358535E+02 -0.12078768315E+03  0.17537372378E+03  0.12508912162E+03 0.  0.
          5    1    3    3  502    0 -0.31346364024E+01  0.16763897938E+02  0.24259780189E+02  0.29947680283E+02  0.41800000000E+01 0. -1.
         -5    1    3    3    0  502  0.78766552726E+01  0.55184605970E+01 -0.14504746334E+03  0.14542604350E+03  0.41800000000E+01 0. -1.
        -11    1    1    2    0    0  0.30818254863E+02 -0.20077490000E+02 -0.12899273900E+03  0.13413425049E+03  0.00000000000E+00 0.  1.
         11    1    1    2    0    0 -0.35560273733E+02 -0.22048685354E+01 -0.11583265834E+03  0.12118828018E+03  0.00000000000E+00 0. -1.
</event>
<event>
 7    1  0.6833760E-006  0.1261460E+03  0.7561462E-02  0.1233289E+00
         -1   -1    0    0    0  501 -0.00000000000E+00  0.00000000000E+00  0.29808750595E+03  0.29808750595E+03  0.00000000000E+00 0.  1.
          1   -1    0    0  501    0  0.00000000000E+00 -0.00000000000E+00 -0.78162436628E+02  0.78162436628E+02  0.00000000000E+00 0. -1.
         23    2    1    2    0    0 -0.62355005783E+02 -0.36331348582E+02  0.21526231239E+03  0.25921783464E+03  0.12509160252E+03 0.  0.
          5    1    3    3  502    0  0.33913945419E+02 -0.33509290673E+02  0.77164945266E+02  0.90801593781E+02  0.41800000000E+01 0.  1.
         -5    1    3    3    0  502 -0.96268951202E+02 -0.28220579090E+01  0.13809736713E+03  0.16841624086E+03  0.41800000000E+01 0.  1.
        -11    1    1    2    0    0  0.78550641736E+02  0.12983072552E+02  0.23413357348E+02  0.82987642408E+02  0.00000000000E+00 0.  1.
         11    1    1    2    0    0 -0.16195635953E+02  0.23348276030E+02 -0.18750600419E+02  0.34044465535E+02  0.00000000000E+00 0. -1.
</event>
<event>
 7    1  0.6833760E-006  0.9650414E+02  0.7561462E-02  0.1287824E+00
         -1   -1    0    0    0  501 -0.00000000000E+00  0.00000000000E+00  0.85543583996E+02  0.85543583996E+02  0.00000000000E+00 0.  1.
          1   -1    0    0  501    0  0.00000000000E+00 -0.00000000000E+00 -0.18356859195E+03  0.18356859195E+03  0.00000000000E+00 0. -1.
         23    2    1    2    0    0  0.18948794462E+02  0.60572567108E+02 -0.51207109136E+02  0.14932781297E+03  0.12509410459E+03 0.  0.
          5    1    3    3  502    0 -0.21694228071E+02  0.33427498989E+02  0.32977657255E+02  0.51894465006E+02  0.41800000000E+01 0. -1.
         -5    1    3    3    0  502  0.40643022533E+02  0.27145068120E+02 -0.84184766390E+02  0.97433347967E+02  0.41800000000E+01 0. -1.
        -11    1    1    2    0    0 -0.40996773599E+02 -0.17123558662E+01  0.62126621176E+00  0.41037221883E+02  0.00000000000E+00 0.  1.
         11    1    1    2    0    0  0.22047979138E+02 -0.58860211242E+02 -0.47439165035E+02  0.78747141095E+02  0.00000000000E+00 0. -1.
</event>
<event>
 7    1  0.6833760E-006  0.8831513E+02  0.7561462E-02  0.1306984E+00
         -2   -1    0    0    0  501 -0.00000000000E+00  0.00000000000E+00  0.11403472384E+03  0.11403472384E+03  0.00000000000E+00 0.  1.
          2   -1    0    0  501    0  0.00000000000E+00 -0.00000000000E+00 -0.13814495917E+03  0.13814495917E+03  0.00000000000E+00 0. -1.
         23    2    1    2    0    0  0.26911975422E+02 -0.58237523477E+02 -0.69881641278E+01  0.14076487762E+03  0.12510017094E+03 0.  0.
          5    1    3    3  502    0  0.36490627127E+02  0.45471985567E+01 -0.51266592925E+02  0.63229572456E+02  0.41800000000E+01 0.  1.
         -5    1    3    3    0  502 -0.95786517050E+01 -0.62784722034E+02  0.44278428797E+02  0.77535305159E+02  0.41800000000E+01 0.  1.
        -11    1    1    2    0    0  0.10706204901E+02  0.17559475273E+02  0.31553636848E+02  0.37664173874E+02  0.00000000000E+00 0.  1.
         11    1    1    2    0    0 -0.37618180323E+02  0.40678048204E+02 -0.48675708044E+02  0.73750631523E+02  0.00000000000E+00 0. -1.
</event>
<event>
 7    1  0.6833760E-006  0.1407844E+03  0.7561462E-02  0.1212277E+00
          2   -1    0    0  501    0  0.00000000000E+00  0.00000000000E+00  0.10587898609E+02  0.10587898609E+02  0.00000000000E+00 0. -1.
         -2   -1    0    0    0  501 -0.00000000000E+00 -0.00000000000E+00 -0.31832903377E+04  0.31832903377E+04  0.00000000000E+00 0.  1.
         23    2    1    2    0    0  0.64621058469E+01 -0.12666777561E+03 -0.24459048738E+04  0.24523833612E+04  0.12508802773E+03 0.  0.
          5    1    3    3  502    0 -0.20341692499E+02 -0.73000491642E+02 -0.51698522402E+03  0.52252660266E+03  0.41800000000E+01 0. -1.
         -5    1    3    3    0  502  0.26803798346E+02 -0.53667283969E+02 -0.19289196497E+04  0.19298567586E+04  0.41800000000E+01 0. -1.
        -11    1    1    2    0    0 -0.36738214364E+02  0.42978506540E+02 -0.23471032654E+03  0.24142449297E+03  0.00000000000E+00 0. -1.
         11    1    1    2    0    0  0.30276108517E+02  0.83689269071E+02 -0.49208723882E+03  0.50007038216E+03  0.00000000000E+00 0.  1.
</event>
<event>
 6    1  0.6833760E-006  0.1786226E+03  0.7561462E-02  0.1169143E+00
          1   -1    0    0  501    0  0.00000000000E+00  0.00000000000E+00  0.28391408306E+03  0.28391408306E+03  0.00000000000E+00 0. -1.
         -1   -1    0    0    0  501 -0.00000000000E+00 -0.00000000000E+00 -0.12965321057E+03  0.12965321057E+03  0.00000000000E+00 0.  1.
          5    1    1    2  502    0  0.98614246238E+02 -0.98627020892E+02  0.54261709101E+02  0.14971260563E+03  0.41800000000E+01 0. -1.
         -5    1    1    2    0  502 -0.84755106897E+02  0.10017366401E+03  0.46431151155E+01  0.13136674627E+03  0.41800000000E+01 0.  1.
        -11    1    1    2    0    0  0.19548595579E+02  0.33008835447E+02  0.20411889622E+02  0.43455448964E+02  0.00000000000E+00 0.  1.
         11    1    1    2    0    0 -0.33407734920E+02 -0.34555478566E+02  0.74944158654E+02  0.89032492764E+02  0.00000000000E+00 0. -1.
</event>
<event>
 7    1  0.6833760E-006  0.1024284E+03  0.7561462E-02  0.1275271E+00
         -2   -1    0    0    0  501 -0.00000000000E+00  0.00000000000E+00  0.14901854817E+03  0.14901854817E+03  0.00000000000E+00 0.  1.
          2   -1    0    0  501    0  0.00000000000E+00 -0.00000000000E+00 -0.10346441977E+03  0.10346441977E+03  0.00000000000E+00 0. -1.
         23    2    1    2    0    0  0.32512717376E+02  0.50736176085E+02  0.29209506304E+02  0.14192418684E+03  0.12513210298E+03 0.  0.
          5    1    3    3  502    0  0.67437798977E+02  0.70343912700E+02  0.12541285694E+02  0.98340627574E+02  0.41800000000E+01 0. -1.
         -5    1    3    3    0  502 -0.34925081601E+02 -0.19607736615E+02  0.16668220610E+02  0.43583559266E+02  0.41800000000E+01 0. -1.
        -11    1    1    2    0    0 -0.16238140294E+02 -0.28675790794E+01  0.48104076161E+02  0.50851768439E+02  0.00000000000E+00 0.  1.
         11    1    1    2    0    0 -0.16274577082E+02 -0.47868597005E+02 -0.31759454068E+02  0.59707012663E+02  0.00000000000E+00 0. -1.
</event>
<event>
 7    1  0.6833760E-006  0.1223749E+03  0.7561462E-02  0.1239230E+00
         -3   -1    0    0    0  501 -0.00000000000E+00  0.00000000000E+00  0.67047162392E+03  0.67047162392E+03  0.00000000000E+00 0.  1.
          3   -1    0    0  501    0  0.00000000000E+00 -0.00000000000E+00 -0.29461959115E+02  0.29461959115E+02  0.00000000000E+00 0. -1.
         23    2    1    2    0    0 -0.10365021846E+02 -0.86272043826E+02  0.40206798845E+03  0.42994952300E+03  0.12509047032E+03 0.  0.
          5    1    3    3  502    0 -0.60434490468E+02 -0.77784158200E+02  0.22405737694E+03  0.24478946764E+03  0.41800000000E+01 0. -1.
         -5    1    3    3    0  502  0.50069468622E+02 -0.84878856256E+01  0.17801061151E+03  0.18516005536E+03  0.41800000000E+01 0. -1.
        -11    1    1    2    0    0 -0.14610032313E+02  0.40599490501E+02  0.25142758412E+02  0.49939262847E+02  0.00000000000E+00 0. -1.
         11    1    1    2    0    0  0.24975054159E+02  0.45672553325E+02  0.21379891794E+03  0.22004479719E+03  0.00000000000E+00 0.  1.
</event>
<event>
 7    1  0.7670955E-006  0.1597897E+03  0.7561462E-02  0.1188934E+00
          1   -1    0    0  501    0  0.00000000000E+00  0.00000000000E+00  0.13921338326E+04  0.13921338326E+04  0.00000000000E+00 0. -1.
         -1   -1    0    0    0  501 -0.00000000000E+00 -0.00000000000E+00 -0.19592171202E+02  0.19592171202E+02  0.00000000000E+00 0.  1.
         23    2    1    2    0    0 -0.11408377388E+03 -0.30805209646E+02  0.56983030143E+03  0.59524609861E+03  0.12508907659E+03 0.  0.
          5    1    3    3  502    0 -0.13014672870E+03  0.58946338048E+01  0.46567672166E+03  0.48357543278E+03  0.41800000000E+01 0.  1.
         -5    1    3    3    0  502  0.16062954825E+02 -0.36699843450E+02  0.10415357978E+03  0.11167066583E+03  0.41800000000E+01 0.  1.
        -11    1    1    2    0    0  0.11201148225E+03  0.54919257030E+02  0.69187012097E+03  0.70302699894E+03  0.00000000000E+00 0.  1.
         11    1    1    2    0    0  0.20722916238E+01 -0.24114047384E+02  0.11084123901E+03  0.11345290626E+03  0.00000000000E+00 0. -1.
</event>
<event>
 7    1  0.6833760E-006  0.3049219E+03  0.7561462E-02  0.1082806E+00
          2   -1    0    0  501    0  0.00000000000E+00  0.00000000000E+00  0.58108920072E+03  0.58108920072E+03  0.00000000000E+00 0.  1.
         -2   -1    0    0    0  501 -0.00000000000E+00 -0.00000000000E+00 -0.21881634568E+03  0.21881634568E+03  0.00000000000E+00 0. -1.
         23    2    1    2    0    0 -0.24697567156E+03 -0.14855506930E+03 -0.17629596731E+02  0.31467733440E+03  0.12508169789E+03 0.  0.
          5    1    3    3  502    0 -0.21964588058E+03 -0.16595132020E+03 -0.35240566866E+02  0.27756715131E+03  0.41800000000E+01 0.  1.
         -5    1    3    3    0  502 -0.27329790976E+02  0.17396250894E+02  0.17610970135E+02  0.37110183091E+02  0.41800000000E+01 0.  1.
        -11    1    1    2    0    0  0.42311751019E+02 -0.93823906465E+01  0.53643415904E+02  0.68963248172E+02  0.00000000000E+00 0.  1.
         11    1    1    2    0    0  0.20466392054E+03  0.15793745995E+03  0.32625903587E+03  0.41626496383E+03  0.00000000000E+00 0. -1.
</event>
<event>
 7    1  0.6833760E-006  0.1400831E+03  0.7561462E-02  0.1213217E+00
         -3   -1    0    0    0  501 -0.00000000000E+00  0.00000000000E+00  0.43183305668E+03  0.43183305668E+03  0.00000000000E+00 0.  1.
          3   -1    0    0  501    0  0.00000000000E+00 -0.00000000000E+00 -0.61478892345E+02  0.61478892345E+02  0.00000000000E+00 0. -1.
         23    2    1    2    0    0  0.44352647068E+02  0.11236013724E+03  0.17627066301E+03  0.24761031974E+03  0.12509023167E+03 0.  0.
          5    1    3    3  502    0  0.46835005430E+02  0.33162370205E+01  0.91746177558E+01  0.48022506938E+02  0.41800000000E+01 0.  1.
         -5    1    3    3    0  502 -0.24823583624E+01  0.10904390022E+03  0.16709604526E+03  0.19958781280E+03  0.41800000000E+01 0.  1.
        -11    1    1    2    0    0 -0.18462069130E+02 -0.17115390547E+02 -0.29318798616E+01  0.25345226566E+02  0.00000000000E+00 0. -1.
         11    1    1    2    0    0 -0.25890577939E+02 -0.95244746689E+02  0.19701538119E+03  0.22035640272E+03  0.00000000000E+00 0.  1.
</event>
<event>
 7    1  0.6833760E-006  0.1276212E+03  0.7561462E-02  0.1231029E+00
          2   -1    0    0  501    0  0.00000000000E+00  0.00000000000E+00  0.14620972430E+03  0.14620972430E+03  0.00000000000E+00 0. -1.
         -2   -1    0    0    0  501 -0.00000000000E+00 -0.00000000000E+00 -0.17074504685E+03  0.17074504685E+03  0.00000000000E+00 0.  1.
         23    2    1    2    0    0  0.50449886715E+02  0.89031105252E+02 -0.64774627288E+02  0.17411497339E+03  0.12509413594E+03 0.  0.
          5    1    3    3  502    0 -0.58496920569E+01  0.53436769119E+02 -0.88207783192E+02  0.10338178083E+03  0.41800000000E+01 0.  1.
         -5    1    3    3    0  502  0.56299578772E+02  0.35594336133E+02  0.23433155904E+02  0.70733192564E+02  0.41800000000E+01 0.  1.
        -11    1    1    2    0    0 -0.24009425735E+02  0.14286246284E+02  0.19822486914E+02  0.34256099376E+02  0.00000000000E+00 0. -1.
         11    1    1    2    0    0 -0.26440460980E+02 -0.10331735154E+03  0.20416817821E+02  0.10858369839E+03  0.00000000000E+00 0.  1.
</event>
<event>
 7    1  0.6833760E-006  0.8452084E+02  0.7561462E-02  0.1316690E+00
         -1   -1    0    0    0  501 -0.00000000000E+00  0.00000000000E+00  0.74369130700E+03  0.74369130700E+03  0.00000000000E+00 0.  1.
          1   -1    0    0  501    0  0.00000000000E+00 -0.00000000000E+00 -0.28285111494E+02  0.28285111494E+02  0.00000000000E+00 0. -1.
         23    2    1    2    0    0 -0.29614921705E+02 -0.16665962695E+02  0.66515300611E+03  0.67653397011E+03  0.11880611636E+03 0.  0.
          5    1    3    3  502    0  0.39691065443E+02  0.66652438325E+01  0.12371865296E+03  0.13016752146E+03  0.41800000000E+01 0. -1.
         -5    1    3    3    0  502 -0.69305987148E+02 -0.23331206528E+02  0.54143435314E+03  0.54636644866E+03  0.41800000000E+01 0.  1.
        -11    1    1    2    0    0 -0.11348316585E+02  0.71112592063E+00  0.50210333763E+02  0.51481721086E+02  0.00000000000E+00 0.  1.
         11    1    1    2    0    0  0.40963238290E+02  0.15954836775E+02  0.42855637382E-01  0.43960727295E+02  0.00000000000E+00 0. -1.
</event>
<event>
 7    1  0.6833760E-006  0.1105897E+03  0.7561462E-02  0.1259482E+00
          2   -1    0    0  501    0  0.00000000000E+00  0.00000000000E+00  0.13314123369E+03  0.13314123369E+03  0.00000000000E+00 0. -1.
         -2   -1    0    0    0  501 -0.00000000000E+00 -0.00000000000E+00 -0.10376424923E+03  0.10376424923E+03  0.00000000000E+00 0.  1.
         23    2    1    2    0    0  0.18102821506E+02 -0.34282411081E+02 -0.58663124496E+01  0.13109614492E+03  0.12509512274E+03 0.  0.
          5    1    3    3  502    0  0.21891822922E+02  0.41338021918E+02 -0.24556752331E+02  0.52996136199E+02  0.41800000000E+01 0. -1.
         -5    1    3    3    0  502 -0.37890014155E+01 -0.75620432999E+02  0.18690439881E+02  0.78100008718E+02  0.41800000000E+01 0. -1.
        -11    1    1    2    0    0  0.36450290803E+02  0.21628018988E+02  0.65569262797E+01  0.42888089107E+02  0.00000000000E+00 0. -1.
         11    1    1    2    0    0 -0.54553112310E+02  0.12654392093E+02  0.28686370629E+02  0.62921248889E+02  0.00000000000E+00 0.  1.
</event>
<event>
 7    1  0.6833760E-006  0.9175408E+02  0.7561462E-02  0.1298659E+00
          1   -1    0    0  501    0  0.00000000000E+00  0.00000000000E+00  0.36636770637E+03  0.36636770637E+03  0.00000000000E+00 0. -1.
         -1   -1    0    0    0  501 -0.00000000000E+00 -0.00000000000E+00 -0.57675362171E+02  0.57675362171E+02  0.00000000000E+00 0.  1.
         23    2    1    2    0    0 -0.11680167576E+02 -0.14367989084E+02  0.36958254065E+02  0.13419448271E+03  0.12766903000E+03 0.  0.
          5    1    3    3  502    0 -0.88565164294E+01 -0.55474346497E+02  0.63592377550E+02  0.84954716673E+02  0.41800000000E+01 0. -1.
         -5    1    3    3    0  502 -0.28236511467E+01  0.41106357413E+02 -0.26634123485E+02  0.49239766037E+02  0.41800000000E+01 0.  1.
        -11    1    1    2    0    0 -0.89472978014E+01  0.46623398471E+02  0.22234682609E+03  0.22735854173E+03  0.00000000000E+00 0.  1.
         11    1    1    2    0    0  0.20627465378E+02 -0.32255409387E+02  0.49387264043E+02  0.62490044105E+02  0.00000000000E+00 0. -1.
</event>
<event>
 7    1  0.6833760E-006  0.1190751E+03  0.7561462E-02  0.1244631E+00
         -2   -1    0    0    0  501 -0.00000000000E+00  0.00000000000E+00  0.45365946734E+02  0.45365946734E+02  0.00000000000E+00 0.  1.
          2   -1    0    0  501    0  0.00000000000E+00 -0.00000000000E+00 -0.33072745872E+03  0.33072745872E+03  0.00000000000E+00 0. -1.
         23    2    1    2    0    0 -0.11590372761E+02  0.67815202868E+02 -0.16053171248E+03  0.21482758105E+03  0.12508884997E+03 0.  0.
          5    1    3    3  502    0 -0.63172299343E+02  0.58924140753E+02 -0.12266051479E+03  0.15008620208E+03  0.41800000000E+01 0.  1.
         -5    1    3    3    0  502  0.51581926583E+02  0.88910621150E+01 -0.37871197693E+02  0.64741378964E+02  0.41800000000E+01 0.  1.
        -11    1    1    2    0    0 -0.35212993590E+00 -0.81207710541E+02 -0.11506824840E+03  0.14083862410E+03  0.00000000000E+00 0.  1.
         11    1    1    2    0    0  0.11942502696E+02  0.13392507673E+02 -0.97615510952E+01  0.20427200303E+02  0.00000000000E+00 0. -1.
</event>
<event>
 7    1  0.6833760E-006  0.1540354E+03  0.7561462E-02  0.1195600E+00
         -2   -1    0    0    0  501 -0.00000000000E+00  0.00000000000E+00  0.18134570145E+02  0.18134570145E+02  0.00000000000E+00 0.  1.
          2   -1    0    0  501    0  0.00000000000E+00 -0.00000000000E+00 -0.14024214291E+04  0.14024214291E+04  0.00000000000E+00 0. -1.
         23    2    1    2    0    0  0.87901232180E+02  0.71014762596E+02 -0.60738564070E+03  0.63034467940E+03  0.12508946880E+03 0.  0.
          5    1    3    3  502    0  0.19456111766E+02 -0.33889419443E+02 -0.21063584383E+03  0.21427077295E+03  0.41800000000E+01 0.  1.
         -5    1    3    3    0  502  0.68445120414E+02  0.10490418204E+03 -0.39674979686E+03  0.41607390645E+03  0.41800000000E+01 0.  1.
        -11    1    1    2    0    0 -0.62681376621E+02  0.54580645213E+01 -0.29577141554E+03  0.30238960910E+03  0.00000000000E+00 0. -1.
         11    1    1    2    0    0 -0.25219855559E+02 -0.76472827117E+02 -0.48112980274E+03  0.48782171075E+03  0.00000000000E+00 0.  1.
</event>
<event>
 7    1  0.6833760E-006  0.1787069E+03  0.7561462E-02  0.1169060E+00
          2   -1    0    0  501    0  0.00000000000E+00  0.00000000000E+00  0.10904608003E+04  0.10904608003E+04  0.00000000000E+00 0. -1.
         -2   -1    0    0    0  501 -0.00000000000E+00 -0.00000000000E+00 -0.41850105984E+02  0.41850105984E+02  0.00000000000E+00 0.  1.
         23    2    1    2    0    0  0.12953902213E+03 -0.79597577406E+02  0.27347884918E+03  0.33697747834E+03  0.12508799854E+03 0.  0.
          5    1    3    3  502    0  0.14350975362E+03 -0.61698002650E+02  0.27218524174E+03  0.31385342301E+03  0.41800000000E+01 0. -1.
         -5    1    3    3    0  502 -0.13970731489E+02 -0.17899574756E+02  0.12936074364E+01  0.23124055331E+02  0.41800000000E+01 0. -1.
        -11    1    1    2    0    0 -0.96806329609E+01  0.54818412313E+02  0.23301369967E+03  0.23957077705E+03  0.00000000000E+00 0.  1.
         11    1    1    2    0    0 -0.11985838917E+03  0.24779165093E+02  0.54211814546E+03  0.55576265088E+03  0.00000000000E+00 0. -1.
</event>
<event>
 7    1  0.6833760E-006  0.7546981E+02  0.7561462E-02  0.1342422E+00
          1   -1    0    0  501    0  0.00000000000E+00  0.00000000000E+00  0.36377502515E+02  0.36377502515E+02  0.00000000000E+00 0. -1.
         -1   -1    0    0    0  501 -0.00000000000E+00 -0.00000000000E+00 -0.37938329790E+03  0.37938329790E+03  0.00000000000E+00 0.  1.
         23    2    1    2    0    0 -0.34777878344E+02 -0.13259678725E+02 -0.23160442494E+03  0.26584252739E+03  0.12508525020E+03 0.  0.
          5    1    3    3  502    0  0.24781426548E+02  0.10018521070E+02 -0.18408660974E+03  0.18606408076E+03  0.41800000000E+01 0. -1.
         -5    1    3    3    0  502 -0.59559304892E+02 -0.23278199795E+02 -0.47517815203E+02  0.79778446629E+02  0.41800000000E+01 0. -1.
        -11    1    1    2    0    0  0.43715217365E+02  0.20515446535E+02 -0.12386887115E+03  0.13294886617E+03  0.00000000000E+00 0.  1.
         11    1    1    2    0    0 -0.89373390218E+01 -0.72557678102E+01  0.12467500701E+02  0.16969406856E+02  0.00000000000E+00 0. -1.
</event>
<event>
 7    1  0.6833760E-006  0.5323279E+02  0.7561462E-02  0.1428646E+00
          2   -1    0    0  501    0  0.00000000000E+00  0.00000000000E+00  0.30195635803E+03  0.30195635803E+03  0.00000000000E+00 0.  1.
         -2   -1    0    0    0  501 -0.00000000000E+00 -0.00000000000E+00 -0.45911080922E+02  0.45911080922E+02  0.00000000000E+00 0. -1.
         23    2    1    2    0    0 -0.38008215771E+02  0.22526645501E+02  0.12269004905E+03  0.18070113939E+03  0.12509188389E+03 0.  0.
          5    1    3    3  502    0  0.21448354959E+01  0.64207353766E+01 -0.25268098682E+02  0.26491043262E+02  0.41800000000E+01 0. -1.
         -5    1    3    3    0  502 -0.40153051267E+02  0.16105910124E+02  0.14795814773E+03  0.15421009612E+03  0.41800000000E+01 0. -1.
        -11    1    1    2    0    0  0.29056682684E+02 -0.31162297742E+02  0.14438612501E+03  0.15054146507E+03  0.00000000000E+00 0.  1.
         11    1    1    2    0    0  0.89515330873E+01  0.86356522407E+01 -0.11030896957E+02  0.16624834493E+02  0.00000000000E+00 0. -1.
</event>
<event>
 6    1  0.6833760E-006  0.1150417E+03  0.7561462E-02  0.1251508E+00
          2   -1    0    0  501    0  0.00000000000E+00  0.00000000000E+00  0.38655539266E+03  0.38655539266E+03  0.00000000000E+00 0. -1.
         -2   -1    0    0    0  501 -0.00000000000E+00 -0.00000000000E+00 -0.53687751451E+02  0.53687751451E+02  0.00000000000E+00 0.  1.
          5    1    1    2  502    0 -0.40139196709E+02 -0.90248987144E+02  0.12943654274E+03  0.16287211483E+03  0.41800000000E+01 0. -1.
         -5    1    1    2    0  502  0.29348297929E+02  0.25539334029E+02  0.32281146255E+01  0.39261600808E+02  0.41800000000E+01 0.  1.
        -11    1    1    2    0    0 -0.24241251732E+02  0.46899760153E+02  0.24747645132E+02  0.58306703967E+02  0.00000000000E+00 0.  1.
         11    1    1    2    0    0  0.35032150512E+02  0.17809892963E+02  0.17545533871E+03  0.17980272450E+03  0.00000000000E+00 0. -1.
</event>
<event>
 7    1  0.6833760E-006  0.1407627E+03  0.7561462E-02  0.1212306E+00
         -1   -1    0    0    0  501 -0.00000000000E+00  0.00000000000E+00  0.12987506357E+03  0.12987506357E+03  0.00000000000E+00 0.  1.
          1   -1    0    0  501    0  0.00000000000E+00 -0.00000000000E+00 -0.32720555064E+03  0.32720555064E+03  0.00000000000E+00 0. -1.
         23    2    1    2    0    0  0.41737874502E+01 -0.12611979247E+03  0.31274211399E+02  0.18039931224E+03  0.12506883307E+03 0.  0.
          5    1    3    3  502    0  0.21634197421E+01 -0.13971127391E+03 -0.65465631690E+01  0.13994373988E+03  0.41800000000E+01 0. -1.
         -5    1    3    3    0  502  0.20103677081E+01  0.13591481442E+02  0.37820774568E+02  0.40455572361E+02  0.41800000000E+01 0. -1.
        -11    1    1    2    0    0 -0.10488504904E+02  0.97672919499E+02 -0.22717776510E+03  0.24750706029E+03  0.00000000000E+00 0. -1.
         11    1    1    2    0    0  0.63147174543E+01  0.28446872971E+02 -0.14269333750E+01  0.29174241674E+02  0.00000000000E+00 0.  1.
</event>
<event>
 7    1  0.6833760E-006  0.1080498E+03  0.7561462E-02  0.1264225E+00
          2   -1    0    0  501    0  0.00000000000E+00  0.00000000000E+00  0.89306350237E+02  0.89306350237E+02  0.00000000000E+00 0.  1.
         -2   -1    0    0    0  501 -0.00000000000E+00 -0.00000000000E+00 -0.18886662366E+03  0.18886662366E+03  0.00000000000E+00 0. -1.
         23    2    1    2    0    0 -0.47332147428E+02 -0.53547365470E+02 -0.54448252200E+02  0.15401131100E+03  0.12508884531E+03 0.  0.
          5    1    3    3  502    0  0.17043954478E+02 -0.59252773422E+02 -0.63513856496E+02  0.88616420089E+02  0.41800000000E+01 0.  1.
         -5    1    3    3    0  502 -0.64376101906E+02  0.57054079525E+01  0.90656042957E+01  0.65394890915E+02  0.41800000000E+01 0.  1.
        -11    1    1    2    0    0  0.58702723276E+02  0.36757336778E+02 -0.65556382844E+02  0.95366403197E+02  0.00000000000E+00 0. -1.
         11    1    1    2    0    0 -0.11370575848E+02  0.16790028692E+02  0.20444361624E+02  0.28795259693E+02  0.00000000000E+00 0.  1.
</event>
<event>
 7    1  0.6833760E-006  0.1479702E+03  0.7561462E-02  0.1202990E+00
          1   -1    0    0  501    0  0.00000000000E+00  0.00000000000E+00  0.39689685953E+03  0.39689685953E+03  0.00000000000E+00 0. -1.
         -1   -1    0    0    0  501 -0.00000000000E+00 -0.00000000000E+00 -0.59215607436E+02  0.59215607436E+02  0.00000000000E+00 0.  1.
         23    2    1    2    0    0  0.37254416437E+02 -0.10291892941E+03  0.17474277851E+03  0.24117019848E+03  0.12509128035E+03 0.  0.
          5    1    3    3  502    0  0.36833528373E+02  0.19835737578E+02  0.31862690739E+02  0.52752902847E+02  0.41800000000E+01 0.  1.
         -5    1    3    3    0  502  0.42088806407E+00 -0.12275466699E+03  0.14288008777E+03  0.18841729563E+03  0.41800000000E+01 0.  1.
        -11    1    1    2    0    0 -0.59003700831E+02  0.80795765278E+02  0.85800914732E+02  0.13179980792E+03  0.00000000000E+00 0.  1.
         11    1    1    2    0    0  0.21749284394E+02  0.22123164129E+02  0.77137558860E+02  0.83142460570E+02  0.00000000000E+00 0. -1.
</event>
<event>
 7    1  0.6833760E-006  0.1876113E+03  0.7561462E-02  0.1160634E+00
          4   -1    0    0  501    0  0.00000000000E+00  0.00000000000E+00  0.21725930473E+03  0.21725930473E+03  0.00000000000E+00 0. -1.
         -4   -1    0    0    0  501 -0.00000000000E+00 -0.00000000000E+00 -0.18840226561E+03  0.18840226561E+03  0.00000000000E+00 0.  1.
         23    2    1    2    0    0 -0.12008426717E+03  0.95173673451E+02 -0.59914886343E+02  0.20667772228E+03  0.12509047902E+03 0.  0.
          5    1    3    3  502    0 -0.70764741341E+01 -0.28543375300E+02 -0.14314628586E+02  0.32972439268E+02  0.41800000000E+01 0.  1.
         -5    1    3    3    0  502 -0.11300779304E+03  0.12371704875E+03 -0.45600257757E+02  0.17370528301E+03  0.41800000000E+01 0.  1.
        -11    1    1    2    0    0  0.94837257891E+02 -0.17767706410E+02  0.43706059206E+02  0.10592457924E+03  0.00000000000E+00 0.  1.
         11    1    1    2    0    0  0.25247009283E+02 -0.77405967041E+02  0.45065866263E+02  0.93059268820E+02  0.00000000000E+00 0. -1.
</event>
<event>
 7    1  0.6833760E-006  0.1008889E+03  0.7561462E-02  0.1278438E+00
         -1   -1    0    0    0  501 -0.00000000000E+00  0.00000000000E+00  0.34979866428E+03  0.34979866428E+03  0.00000000000E+00 0.  1.
          1   -1    0    0  501    0  0.00000000000E+00 -0.00000000000E+00 -0.60847357820E+02  0.60847357820E+02  0.00000000000E+00 0. -1.
         23    2    1    2    0    0  0.14787607982E+02 -0.62226389384E+01  0.29548384097E+03  0.31745282131E+03  0.11492692851E+03 0.  0.
          5    1    3    3  502    0 -0.47372168673E+02 -0.85358368576E+01  0.83282799442E+02  0.96283331675E+02  0.41800000000E+01 0. -1.
         -5    1    3    3    0  502  0.62159776655E+02  0.23131979191E+01  0.21220104153E+03  0.22116948964E+03  0.41800000000E+01 0.  1.
        -11    1    1    2    0    0 -0.49180563679E+02 -0.14110242915E+02 -0.12823494833E+02  0.52747216217E+02  0.00000000000E+00 0. -1.
         11    1    1    2    0    0  0.34392955697E+02  0.20332881854E+02  0.62909603161E+01  0.40445984569E+02  0.00000000000E+00 0.  1.
</event>
<event>
 7    1  0.6833760E-006  0.1324244E+03  0.7561462E-02  0.1223902E+00
          1   -1    0    0  501    0  0.00000000000E+00  0.00000000000E+00  0.40587784693E+03  0.40587784693E+03  0.00000000000E+00 0.  1.
         -1   -1    0    0    0  501 -0.00000000000E+00 -0.00000000000E+00 -0.53729719947E+02  0.53729719947E+02  0.00000000000E+00 0. -1.
         23    2    1    2    0    0 -0.20840436228E+02  0.89683915291E+02  0.13978117554E+03  0.20895750892E+03  0.12508770945E+03 0.  0.
          5    1    3    3  502    0 -0.24954025655E+02 -0.25906830733E+02  0.16291823729E+02  0.39708477627E+02  0.41800000000E+01 0.  1.
         -5    1    3    3    0  502  0.41135894271E+01  0.11559074602E+03  0.12348935181E+03  0.16924903129E+03  0.41800000000E+01 0.  1.
        -11    1    1    2    0    0  0.42505995540E+02 -0.38634446180E+02  0.17394553607E+03  0.18318414125E+03  0.00000000000E+00 0.  1.
         11    1    1    2    0    0 -0.21665559312E+02 -0.51049469111E+02  0.38421415377E+02  0.67465916701E+02  0.00000000000E+00 0. -1.
</event>
<event>
 7    1  0.6833760E-006  0.1331604E+03  0.7561462E-02  0.1222840E+00
          2   -1    0    0  501    0  0.00000000000E+00  0.00000000000E+00  0.96593002613E+03  0.96593002613E+03  0.00000000000E+00 0. -1.
         -2   -1    0    0    0  501 -0.00000000000E+00 -0.00000000000E+00 -0.24710133112E+02  0.24710133112E+02  0.00000000000E+00 0.  1.
         23    2    1    2    0    0 -0.10749135005E+03  0.16952656121E+02  0.54202223409E+03  0.56681327827E+03  0.12508959705E+03 0.  0.
          5    1    3    3  502    0 -0.34854713963E+02 -0.34170056031E+02  0.36939945945E+03  0.37263370333E+03  0.41800000000E+01 0.  1.
         -5    1    3    3    0  502 -0.72636636089E+02  0.51122712152E+02  0.17262277464E+03  0.19417957494E+03  0.41800000000E+01 0.  1.
        -11    1    1    2    0    0  0.90803133100E+02 -0.40600611430E+02  0.36827955082E+03  0.38147535462E+03  0.00000000000E+00 0. -1.
         11    1    1    2    0    0  0.16688216952E+02  0.23647955309E+02  0.30918108106E+02  0.42351526350E+02  0.00000000000E+00 0.  1.
</event>
<event>
 7    1  0.6833760E-006  0.1657991E+03  0.7561462E-02  0.1182301E+00
          1   -1    0    0  501    0  0.00000000000E+00  0.00000000000E+00  0.95766890018E+02  0.95766890018E+02  0.00000000000E+00 0. -1.
         -1   -1    0    0    0  501 -0.00000000000E+00 -0.00000000000E+00 -0.30617685889E+03  0.30617685889E+03  0.00000000000E+00 0.  1.
         23    2    1    2    0    0  0.88786021725E+02 -0.96080327035E+02 -0.13449502076E+03  0.22550856312E+03  0.12510321552E+03 0.  0.
          5    1    3    3  502    0  0.33393448384E+02  0.28405259444E+02 -0.41332904634E+02  0.60397537736E+02  0.41800000000E+01 0. -1.
         -5    1    3    3    0  502  0.55392573341E+02 -0.12448558648E+03 -0.93162116123E+02  0.16511102538E+03  0.41800000000E+01 0. -1.
        -11    1    1    2    0    0  0.24315994537E+01  0.48124818641E+02 -0.51499188223E+02  0.70527138271E+02  0.00000000000E+00 0. -1.
         11    1    1    2    0    0 -0.91217621179E+02  0.47955508394E+02 -0.24415759895E+02  0.10590804752E+03  0.00000000000E+00 0.  1.
</event>
<event>
 7    1  0.6833760E-006  0.2443650E+03  0.7561462E-02  0.1116919E+00
          2   -1    0    0  501    0  0.00000000000E+00  0.00000000000E+00  0.13984092366E+03  0.13984092366E+03  0.00000000000E+00 0.  1.
         -2   -1    0    0    0  501 -0.00000000000E+00 -0.00000000000E+00 -0.49428088030E+03  0.49428088030E+03  0.00000000000E+00 0. -1.
         23    2    1    2    0    0  0.34905549619E+02 -0.23456643656E+03 -0.22346918291E+03  0.34903536124E+03  0.12508955646E+03 0.  0.
          5    1    3    3  502    0  0.49206837194E+02 -0.20595102549E+03 -0.12616043023E+03  0.24651787822E+03  0.41800000000E+01 0. -1.
         -5    1    3    3    0  502 -0.14301287576E+02 -0.28615411069E+02 -0.97308752683E+02  0.10251748302E+03  0.41800000000E+01 0. -1.
        -11    1    1    2    0    0 -0.42697674830E+02  0.87059171212E+02 -0.16837547339E+02  0.98416938219E+02  0.00000000000E+00 0.  1.
         11    1    1    2    0    0  0.77921252111E+01  0.14750726535E+03 -0.11413322638E+03  0.18666950450E+03  0.00000000000E+00 0. -1.
</event>
<event>
 7    1  0.6833760E-006  0.1044985E+03  0.7561462E-02  0.1271111E+00
          2   -1    0    0  501    0  0.00000000000E+00  0.00000000000E+00  0.24675240596E+03  0.24675240596E+03  0.00000000000E+00 0.  1.
         -2   -1    0    0    0  501 -0.00000000000E+00 -0.00000000000E+00 -0.62296880592E+02  0.62296880592E+02  0.00000000000E+00 0. -1.
         23    2    1    2    0    0 -0.66548777466E+01 -0.35216508746E+02  0.63318470700E+02  0.14470783129E+03  0.12508652133E+03 0.  0.
          5    1    3    3  502    0 -0.53707865469E+02  0.39317692880E+01 -0.33355030792E+01  0.54116463334E+02  0.41800000000E+01 0. -1.
         -5    1    3    3    0  502  0.47052987723E+02 -0.39148278034E+02  0.66653973779E+02  0.90591367951E+02  0.41800000000E+01 0. -1.
        -11    1    1    2    0    0 -0.23720429744E+02 -0.19726529945E+02  0.88211313741E+02  0.93450685620E+02  0.00000000000E+00 0.  1.
         11    1    1    2    0    0  0.30375307491E+02  0.54943038690E+02  0.32925740928E+02  0.70890769649E+02  0.00000000000E+00 0. -1.
</event>
<event>
 7    1  0.6833760E-006  0.8048108E+02  0.7561462E-02  0.1327692E+00
          2   -1    0    0  501    0  0.00000000000E+00  0.00000000000E+00  0.72171108300E+03  0.72171108300E+03  0.00000000000E+00 0.  1.
         -2   -1    0    0    0  501 -0.00000000000E+00 -0.00000000000E+00 -0.13657326634E+02  0.13657326634E+02  0.00000000000E+00 0. -1.
         23    2    1    2    0    0  0.63119724559E+00  0.76870867764E+01  0.49824398930E+03  0.51376544447E+03  0.12509344247E+03 0.  0.
          5    1    3    3  502    0 -0.36886410529E+02 -0.28942512045E+02  0.39596828291E+03  0.39875635387E+03  0.41800000000E+01 0.  1.
         -5    1    3    3    0  502  0.37517607775E+02  0.36629598821E+02  0.10227570639E+03  0.11500909060E+03  0.41800000000E+01 0.  1.
        -11    1    1    2    0    0  0.72913610956E+01  0.25835285269E+02  0.15165328611E+03  0.15401086033E+03  0.00000000000E+00 0.  1.
         11    1    1    2    0    0 -0.79225583412E+01 -0.33522372046E+02  0.58156480957E+02  0.67592104831E+02  0.00000000000E+00 0. -1.
</event>
<event>
 7    1  0.6833760E-006  0.1301386E+03  0.7561462E-02  0.1227250E+00
         -1   -1    0    0    0  501 -0.00000000000E+00  0.00000000000E+00  0.85551943996E+02  0.85551943996E+02  0.00000000000E+00 0.  1.
          1   -1    0    0  501    0  0.00000000000E+00 -0.00000000000E+00 -0.28760675639E+03  0.28760675639E+03  0.00000000000E+00 0. -1.
         23    2    1    2    0    0 -0.88568485269E+02 -0.48475028466E+02 -0.73015313570E+02  0.17655976561E+03  0.12509160583E+03 0.  0.
          5    1    3    3  502    0 -0.27380276480E+02 -0.43906898872E+02 -0.97424279238E+02  0.11039229092E+03  0.41800000000E+01 0.  1.
         -5    1    3    3    0  502 -0.61188208789E+02 -0.45681295947E+01  0.24408965668E+02  0.66167474697E+02  0.41800000000E+01 0.  1.
        -11    1    1    2    0    0 -0.13590419680E+02 -0.19781486745E+02 -0.32196078064E+02  0.40157118517E+02  0.00000000000E+00 0. -1.
         11    1    1    2    0    0  0.10215890495E+03  0.68256515211E+02 -0.96843420764E+02  0.15644181626E+03  0.00000000000E+00 0.  1.
</event>
<event>
 7    1  0.6833760E-006  0.8485957E+02  0.7561462E-02  0.1315800E+00
         -1   -1    0    0    0  501 -0.00000000000E+00  0.00000000000E+00  0.27758331203E+03  0.27758331203E+03  0.00000000000E+00 0.  1.
          1   -1    0    0  501    0  0.00000000000E+00 -0.00000000000E+00 -0.43373216012E+02  0.43373216012E+02  0.00000000000E+00 0. -1.
         23    2    1    2    0    0  0.34072022820E+01 -0.16589193549E+02  0.19287937461E+03  0.23042488607E+03  0.12492543616E+03 0.  0.
          5    1    3    3  502    0 -0.72286501719E+01  0.35191154911E+02  0.66259252948E+01  0.36770178859E+02  0.41800000000E+01 0.  1.
         -5    1    3    3    0  502  0.10635852454E+02 -0.51780348459E+02  0.18625344931E+03  0.19365470721E+03  0.41800000000E+01 0.  1.
        -11    1    1    2    0    0 -0.41078058143E+02  0.72457567838E+01  0.20349940677E+02  0.46411506523E+02  0.00000000000E+00 0.  1.
         11    1    1    2    0    0  0.37670855861E+02  0.93434367647E+01  0.20980780736E+02  0.44120135451E+02  0.00000000000E+00 0. -1.
</event>
<event>
 7    1  0.6833760E-006  0.9053680E+02  0.7561462E-02  0.1301557E+00
          1   -1    0    0  501    0  0.00000000000E+00  0.00000000000E+00  0.48323822472E+02  0.48323822472E+02  0.00000000000E+00 0. -1.
         -1   -1    0    0    0  501 -0.00000000000E+00 -0.00000000000E+00 -0.26606365597E+03  0.26606365597E+03  0.00000000000E+00 0.  1.
         23    2    1    2    0    0  0.27584797497E+02  0.73575553508E+01 -0.97559979045E+02  0.16117993247E+03  0.12508383767E+03 0.  0.
          5    1    3    3  502    0 -0.44394754249E+02 -0.16088694606E+02 -0.60297315695E+02  0.76700580043E+02  0.41800000000E+01 0. -1.
         -5    1    3    3    0  502  0.71979551747E+02  0.23446249957E+02 -0.37262663350E+02  0.84479352428E+02  0.41800000000E+01 0. -1.
        -11    1    1    2    0    0 -0.12706205631E+02  0.21734205945E+02 -0.11778348585E+03  0.12044406548E+03  0.00000000000E+00 0.  1.
         11    1    1    2    0    0 -0.14878591867E+02 -0.29091761296E+02 -0.23963685961E+01  0.32763480488E+02  0.00000000000E+00 0. -1.
</event>
<event>
 7    1  0.6833760E-006  0.1338555E+03  0.7561462E-02  0.1221845E+00
         -2   -1    0    0    0  501 -0.00000000000E+00  0.00000000000E+00  0.83073907500E+02  0.83073907500E+02  0.00000000000E+00 0.  1.
          2   -1    0    0  501    0  0.00000000000E+00 -0.00000000000E+00 -0.27446209037E+03  0.27446209037E+03  0.00000000000E+00 0. -1.
         23    2    1    2    0    0  0.93702846753E+02  0.48105581163E+02 -0.10398380653E+03  0.19378971161E+03  0.12508976728E+03 0.  0.
          5    1    3    3  502    0  0.67325354624E+02  0.86740270608E+02 -0.96479717076E+02  0.14622717301E+03  0.41800000000E+01 0.  1.
         -5    1    3    3    0  502  0.26377492129E+02 -0.38634689445E+02 -0.75040894543E+01  0.47562538599E+02  0.41800000000E+01 0.  1.
        -11    1    1    2    0    0 -0.79234971023E+02 -0.24073970216E+02 -0.12484321131E+02  0.83747208604E+02  0.00000000000E+00 0.  1.
         11    1    1    2    0    0 -0.14467875730E+02 -0.24031610947E+02 -0.74920055208E+02  0.79999077653E+02  0.00000000000E+00 0. -1.
</event>
<event>
 7    1  0.6833760E-006  0.1120649E+03  0.7561462E-02  0.1256793E+00
          2   -1    0    0  501    0  0.00000000000E+00  0.00000000000E+00  0.27088374609E+03  0.27088374609E+03  0.00000000000E+00 0. -1.
         -2   -1    0    0    0  501 -0.00000000000E+00 -0.00000000000E+00 -0.53947770226E+02  0.53947770226E+02  0.00000000000E+00 0.  1.
         23    2    1    2    0    0 -0.11473779030E+02  0.48528136007E+02  0.14562894574E+03  0.19834976569E+03  0.12509281404E+03 0.  0.
          5    1    3    3  502    0 -0.21183892273E+02 -0.32055102762E+02  0.94916404529E+01  0.39797619821E+02  0.41800000000E+01 0.  1.
         -5    1    3    3    0  502  0.97101132424E+01  0.80583238770E+02  0.13613730528E+03  0.15855214587E+03  0.41800000000E+01 0.  1.
        -11    1    1    2    0    0 -0.24786908946E+02  0.16483057522E+02  0.16429032826E+02  0.33999928823E+02  0.00000000000E+00 0.  1.
         11    1    1    2    0    0  0.36260687976E+02 -0.65011193530E+02  0.54877997307E+02  0.92481821809E+02  0.00000000000E+00 0. -1.
</event>
<event>
 6    1  0.6833760E-006  0.2433414E+03  0.7561462E-02  0.1117587E+00
         -3   -1    0    0    0  501 -0.00000000000E+00  0.00000000000E+00  0.39041384807E+03  0.39041384807E+03  0.00000000000E+00 0.  1.
          3   -1    0    0  501    0  0.00000000000E+00 -0.00000000000E+00 -0.16269809779E+03  0.16269809779E+03  0.00000000000E+00 0. -1.
          5    1    1    2  502    0  0.58784825030E+02  0.71139115060E+02  0.34926335682E+02  0.98761078717E+02  0.41800000000E+01 0. -1.
         -5    1    1    2    0  502  0.86294340734E+02 -0.17443980121E+03  0.15963920188E+03  0.25175008374E+03  0.41800000000E+01 0.  1.
        -11    1    1    2    0    0 -0.15747220057E+02  0.61859082356E+02  0.15136078831E+02  0.65601996096E+02  0.00000000000E+00 0. -1.
         11    1    1    2    0    0 -0.12933194571E+03  0.41441603789E+02  0.18014133887E+02  0.13699878731E+03  0.00000000000E+00 0.  1.
</event>
<event>
 7    1  0.6833760E-006  0.1051968E+03  0.7561462E-02  0.1269732E+00
         -2   -1    0    0    0  501 -0.00000000000E+00  0.00000000000E+00  0.21221226095E+02  0.21221226095E+02  0.00000000000E+00 0.  1.
          2   -1    0    0  501    0  0.00000000000E+00 -0.00000000000E+00 -0.71872262138E+03  0.71872262138E+03  0.00000000000E+00 0. -1.
         23    2    1    2    0    0  0.28760489062E+02  0.27675021974E+01 -0.21463090172E+03  0.24412233050E+03  0.11266970966E+03 0.  0.
          5    1    3    3  502    0  0.50346466066E+02 -0.34493320979E+02 -0.17524787253E+03  0.18561746971E+03  0.41800000000E+01 0. -1.
         -5    1    3    3    0  502 -0.21585977004E+02  0.37260823176E+02 -0.39383029195E+02  0.58504860786E+02  0.41800000000E+01 0.  1.
        -11    1    1    2    0    0 -0.66328541596E+02 -0.11673312444E+02 -0.38045847113E+03  0.38637338147E+03  0.00000000000E+00 0.  1.
         11    1    1    2    0    0  0.37568052534E+02  0.89058102470E+01 -0.10241202243E+03  0.10944813551E+03  0.00000000000E+00 0. -1.
</event>
<event>
 7    1  0.6833760E-006  0.1207713E+03  0.7561462E-02  0.1241830E+00
         -2   -1    0    0    0  501 -0.00000000000E+00  0.00000000000E+00  0.57282518819E+02  0.57282518819E+02  0.00000000000E+00 0.  1.
          2   -1    0    0  501    0  0.00000000000E+00 -0.00000000000E+00 -0.40488630732E+03  0.40488630732E+03  0.00000000000E+00 0. -1.
         23    2    1    2    0    0 -0.57719081265E+02 -0.80651603045E+02 -0.12802236595E+03  0.20462924274E+03  0.12508887795E+03 0.  0.
          5    1    3    3  502    0 -0.82450376078E+02 -0.83056914113E+02 -0.13477308926E+03  0.17854347786E+03  0.41800000000E+01 0. -1.
         -5    1    3    3    0  502  0.24731294813E+02  0.24053110683E+01  0.67507233058E+01  0.26085764885E+02  0.41800000000E+01 0. -1.
        -11    1    1    2    0    0  0.28437415121E+02  0.42731617291E+02 -0.24900338223E+02  0.57050017868E+02  0.00000000000E+00 0.  1.
         11    1    1    2    0    0  0.29281666144E+02  0.37919985754E+02 -0.19468108433E+03  0.20048956553E+03  0.00000000000E+00 0. -1.
</event>
<event>
 7    1  0.6833760E-006  0.1142745E+03  0.7561462E-02  0.1252853E+00
          3   -1    0    0  501    0  0.00000000000E+00  0.00000000000E+00  0.19061735754E+04  0.19061735754E+04  0.00000000000E+00 0. -1.
         -3   -1    0    0    0  501 -0.00000000000E+00 -0.00000000000E+00 -0.11514300476E+02  0.11514300476E+02  0.00000000000E+00 0.  1.
         23    2    1    2    0    0  0.83728053889E+02  0.38944526250E+02  0.12991195528E+04  0.13083906218E+04  0.12508934325E+03 0.  0.
          5    1    3    3  502    0  0.21431942016E+02 -0.68844939917E+01  0.97040333731E+03  0.97067339196E+03  0.41800000000E+01 0.  1.
         -5    1    3    3    0  502  0.62296111873E+02  0.45829020242E+02  0.32871621544E+03  0.33771722986E+03  0.41800000000E+01 0.  1.
        -11    1    1    2    0    0 -0.22374501316E+01 -0.46325068178E+02  0.18926685199E+03  0.19486651684E+03  0.00000000000E+00 0. -1.
         11    1    1    2    0    0 -0.81490603757E+02  0.73805419276E+01  0.40627287021E+03  0.41443073724E+03  0.00000000000E+00 0.  1.
</event>
<event>
 7    1  0.6833760E-006  0.1262498E+03  0.7561462E-02  0.1233129E+00
         -2   -1    0    0    0  501 -0.00000000000E+00  0.00000000000E+00  0.33734649115E+02  0.33734649115E+02  0.00000000000E+00 0.  1.
          2   -1    0    0  501    0  0.00000000000E+00 -0.00000000000E+00 -0.64529241469E+03  0.64529241469E+03  0.00000000000E+00 0. -1.
         23    2    1    2    0    0 -0.59705620945E+02  0.48476474742E+02 -0.18582115560E+03  0.23683625051E+03  0.12508868018E+03 0.  0.
          5    1    3    3  502    0 -0.84241270964E+02  0.53078146912E+01 -0.15944173646E+03  0.18045471553E+03  0.41800000000E+01 0.  1.
         -5    1    3    3    0  502  0.24535650018E+02  0.43168660051E+02 -0.26379419136E+02  0.56381534977E+02  0.41800000000E+01 0.  1.
        -11    1    1    2    0    0 -0.21355612894E+02 -0.26762975510E+02 -0.15545763300E+03  0.15918352527E+03  0.00000000000E+00 0.  1.
         11    1    1    2    0    0  0.81061233839E+02 -0.21713499232E+02 -0.27027897698E+03  0.28300728803E+03  0.00000000000E+00 0. -1.
</event>
<event>
 7    1  0.6833760E-006  0.9580708E+02  0.7561462E-02  0.1289369E+00
         -3   -1    0    0    0  501 -0.00000000000E+00  0.00000000000E+00  0.52609957590E+03  0.52609957590E+03  0.00000000000E+00 0.  1.
          3   -1    0    0  501    0  0.00000000000E+00 -0.00000000000E+00 -0.23122071118E+02  0.23122071118E+02  0.00000000000E+00 0. -1.
         23    2    1    2    0    0  0.14523930825E+02 -0.17142309748E+02  0.29717318862E+03  0.32320926835E+03  0.12509006260E+03 0.  0.
          5    1    3    3  502    0  0.65474050132E+01 -0.70938787860E+02  0.14625184229E+03  0.16273369015E+03  0.41800000000E+01 0.  1.
         -5    1    3    3    0  502  0.79765258122E+01  0.53796478112E+02  0.15092134633E+03  0.16047557820E+03  0.41800000000E+01 0.  1.
        -11    1    1    2    0    0  0.54006218356E+01 -0.21533239775E+02  0.81853378015E+01  0.23661083794E+02  0.00000000000E+00 0. -1.
         11    1    1    2    0    0 -0.19924552661E+02  0.38675549523E+02  0.19761897836E+03  0.20235129488E+03  0.00000000000E+00 0.  1.
</event>
<event>
 7    1  0.6833760E-006  0.8424133E+02  0.7561462E-02  0.1317429E+00
          1   -1    0    0  501    0  0.00000000000E+00  0.00000000000E+00  0.12170344183E+02  0.12170344183E+02  0.00000000000E+00 0. -1.
         -1   -1    0    0    0  501 -0.00000000000E+00 -0.00000000000E+00 -0.14589770368E+04  0.14589770368E+04  0.00000000000E+00 0.  1.
         23    2    1    2    0    0  0.34546918333E+02 -0.40141090200E+02 -0.10992391484E+04  0.11076007207E+04  0.12509138382E+03 0.  0.
          5    1    3    3  502    0  0.43293160327E+02 -0.41413589750E+02 -0.10954815616E+04  0.10971265686E+04  0.41800000000E+01 0.  1.
         -5    1    3    3    0  502 -0.87462419946E+01  0.12724995500E+01 -0.37575868002E+01  0.10474152123E+02  0.41800000000E+01 0.  1.
        -11    1    1    2    0    0 -0.19358919373E+02 -0.25080043844E+02 -0.55557053125E+02  0.63955941948E+02  0.00000000000E+00 0. -1.
         11    1    1    2    0    0 -0.15187998960E+02  0.65221134044E+02 -0.29201049104E+03  0.29959071834E+03  0.00000000000E+00 0.  1.
</event>
<event>
 7    1  0.6833760E-006  0.1270065E+03  0.7561462E-02  0.1231966E+00
          1   -1    0    0  501    0  0.00000000000E+00  0.00000000000E+00  0.11040752457E+03  0.11040752457E+03  0.00000000000E+00 0. -1.
         -1   -1    0    0    0  501 -0.00000000000E+00 -0.00000000000E+00 -0.32934471267E+03  0.32934471267E+03  0.00000000000E+00 0.  1.
         23    2    1    2    0    0  0.23043725075E+02 -0.12216344400E+03 -0.22864093770E+03  0.28486270125E+03  0.11582383112E+03 0.  0.
          5    1    3    3  502    0  0.26522842014E+02 -0.63549016354E+02 -0.21308669974E+03  0.22397623230E+03  0.41800000000E+01 0. -1.
         -5    1    3    3    0  502 -0.34791169393E+01 -0.58614427644E+02 -0.15554237961E+02  0.60886468950E+02  0.41800000000E+01 0.  1.
        -11    1    1    2    0    0  0.39025465304E+01  0.25984067359E+02 -0.36389491572E+02  0.44884259188E+02  0.00000000000E+00 0.  1.
         11    1    1    2    0    0 -0.26946271605E+02  0.96179376639E+02  0.46093241175E+02  0.11000527681E+03  0.00000000000E+00 0. -1.
</event>
<event>
 7    1  0.6833760E-006  0.1253062E+03  0.7561462E-02  0.1234591E+00
         -2   -1    0    0    0  501 -0.00000000000E+00  0.00000000000E+00  0.20026502147E+02  0.20026502147E+02  0.00000000000E+00 0. -1.
          2   -1    0    0  501    0  0.00000000000E+00 -0.00000000000E+00 -0.84291835021E+03  0.84291835021E+03  0.00000000000E+00 0.  1.
         23    2    1    2    0    0 -0.31385665165E+02  0.62029730785E+02 -0.49569684587E+03  0.51593813474E+03  0.12507617038E+03 0.  0.
          5    1    3    3  502    0 -0.63979054055E+02  0.79639719978E+02 -0.30649660118E+03  0.32309974202E+03  0.41800000000E+01 0.  1.
         -5    1    3    3    0  502  0.32593388890E+02 -0.17609989192E+02 -0.18920024469E+03  0.19283839273E+03  0.41800000000E+01 0.  1.
        -11    1    1    2    0    0  0.59962576177E+02 -0.55654361112E+02 -0.19244537383E+03  0.20911274557E+03  0.00000000000E+00 0. -1.
         11    1    1    2    0    0 -0.28576911012E+02 -0.63753696731E+01 -0.13474962837E+03  0.13789397205E+03  0.00000000000E+00 0.  1.
</event>
<event>
 7    1  0.6833760E-006  0.1047327E+03  0.7561462E-02  0.1270647E+00
         -1   -1    0    0    0  501 -0.00000000000E+00  0.00000000000E+00  0.26838589815E+02  0.26838589815E+02  0.00000000000E+00 0.  1.
          1   -1    0    0  501    0  0.00000000000E+00 -0.00000000000E+00 -0.55305396363E+03  0.55305396363E+03  0.00000000000E+00 0. -1.
         23    2    1    2    0    0 -0.17515435081E+02  0.26788136579E+02 -0.19146309081E+03  0.23093134123E+03  0.12508706765E+03 0.  0.
          5    1    3    3  502    0 -0.27783775176E+01 -0.41318420751E+02 -0.20772834294E+02  0.46517892467E+02  0.41800000000E+01 0.  1.
         -5    1    3    3    0  502 -0.14737057563E+02  0.68106557330E+02 -0.17069025651E+03  0.18441344876E+03  0.41800000000E+01 0.  1.
        -11    1    1    2    0    0 -0.10915111202E+02  0.31416182714E+02 -0.97039810918E+02  0.10258090023E+03  0.00000000000E+00 0.  1.
         11    1    1    2    0    0  0.28430546283E+02 -0.58204319293E+02 -0.23771247209E+03  0.24638031198E+03  0.00000000000E+00 0. -1.
</event>
<event>
 7    1  0.6833760E-006  0.8985905E+02  0.7561462E-02  0.1303193E+00
          3   -1    0    0  501    0  0.00000000000E+00  0.00000000000E+00  0.11409489435E+03  0.11409489435E+03  0.00000000000E+00 0. -1.
         -3   -1    0    0    0  501 -0.00000000000E+00 -0.00000000000E+00 -0.15180759536E+03  0.15180759536E+03  0.00000000000E+00 0.  1.
         23    2    1    2    0    0  0.59805432553E+02 -0.14847646434E+01 -0.57646358103E+02  0.15016562919E+03  0.12509084418E+03 0.  0.
          5    1    3    3  502    0  0.60553295447E+02 -0.39260806622E+01 -0.94830316286E+02  0.11266044996E+03  0.41800000000E+01 0.  1.
         -5    1    3    3    0  502 -0.74786289378E+00  0.24413160189E+01  0.37183958183E+02  0.37505179228E+02  0.41800000000E+01 0.  1.
        -11    1    1    2    0    0 -0.39841643151E+02  0.48589292228E+02  0.11808154264E+02  0.63935188709E+02  0.00000000000E+00 0. -1.
         11    1    1    2    0    0 -0.19963789403E+02 -0.47104527585E+02  0.81255028354E+01  0.51801671813E+02  0.00000000000E+00 0.  1.
</event>
<event>
 7    1  0.6833760E-006  0.1045474E+03  0.7561462E-02  0.1271014E+00
          2   -1    0    0  501    0  0.00000000000E+00  0.00000000000E+00  0.53032842995E+03  0.53032842995E+03  0.00000000000E+00 0. -1.
         -2   -1    0    0    0  501 -0.00000000000E+00 -0.00000000000E+00 -0.31366982862E+02  0.31366982862E+02  0.00000000000E+00 0.  1.
         23    2    1    2    0    0  0.75254263966E+02  0.21490071394E+01  0.28306023750E+03  0.31849332101E+03  0.12508826883E+03 0.  0.
          5    1    3    3  502    0 -0.17161371644E+02  0.29783081882E+02  0.24286475304E+02  0.42294797857E+02  0.41800000000E+01 0. -1.
         -5    1    3    3    0  502  0.92415635610E+02 -0.27634074742E+02  0.25877376219E+03  0.27619852315E+03  0.41800000000E+01 0. -1.
        -11    1    1    2    0    0 -0.52522988349E+02 -0.10755099722E+02  0.21189006268E+03  0.21856746130E+03  0.00000000000E+00 0. -1.
         11    1    1    2    0    0 -0.22731275618E+02  0.86060925825E+01  0.40111469138E+01  0.24634630509E+02  0.00000000000E+00 0.  1.
</event>
<event>
 7    1  0.6833760E-006  0.1040209E+03  0.7561462E-02  0.1272061E+00
          1   -1    0    0  501    0  0.00000000000E+00  0.00000000000E+00  0.23039638742E+03  0.23039638742E+03  0.00000000000E+00 0. -1.
         -1   -1    0    0    0  501 -0.00000000000E+00 -0.00000000000E+00 -0.85360899484E+02  0.85360899484E+02  0.00000000000E+00 0.  1.
         23    2    1    2    0    0 -0.12563686827E+02  0.71989277665E+01 -0.99895956029E+01  0.11831417055E+03  0.11699906044E+03 0.  0.
          5    1    3    3  502    0 -0.59287711142E+02  0.27064455189E+02 -0.15358300668E+02  0.67088502938E+02  0.41800000000E+01 0. -1.
         -5    1    3    3    0  502  0.46724024315E+02 -0.19865527422E+02  0.53687050648E+01  0.51225667609E+02  0.41800000000E+01 0.  1.
        -11    1    1    2    0    0 -0.88519544412E+01 -0.46338224157E+02  0.14393670021E+03  0.15147066310E+03  0.00000000000E+00 0.  1.
         11    1    1    2    0    0  0.21415641268E+02  0.39139296391E+02  0.11088383332E+02  0.45972453250E+02  0.00000000000E+00 0. -1.
</event>
<event>
 7    1  0.6833760E-006  0.1238561E+03  0.7561462E-02  0.1236868E+00
         -1   -1    0    0    0  501 -0.00000000000E+00  0.00000000000E+00  0.41525129407E+03  0.41525129407E+03  0.00000000000E+00 0.  1.
          1   -1    0    0  501    0  0.00000000000E+00 -0.00000000000E+00 -0.37957532479E+02  0.37957532479E+02  0.00000000000E+00 0. -1.
         23    2    1    2    0    0  0.53981035161E+02  0.26652678461E+02  0.24537780625E+03  0.28193026936E+03  0.12510032596E+03 0.  0.
          5    1    3    3  502    0  0.54765280503E+02 -0.42394355721E+02  0.13168122843E+03  0.14884198220E+03  0.41800000000E+01 0.  1.
         -5    1    3    3    0  502 -0.78424534239E+00  0.69047034182E+02  0.11369657782E+03  0.13308828716E+03  0.41800000000E+01 0.  1.
        -11    1    1    2    0    0  0.24430637069E+02 -0.17829659195E+02  0.33425423425E+02  0.45077840518E+02  0.00000000000E+00 0.  1.
         11    1    1    2    0    0 -0.78411672230E+02 -0.88230192658E+01  0.98490531910E+02  0.12620071667E+03  0.00000000000E+00 0. -1.
</event>
<event>
 6    1  0.6833760E-006  0.1287183E+03  0.7561462E-02  0.1229370E+00
          2   -1    0    0  501    0  0.00000000000E+00  0.00000000000E+00  0.11399690262E+04  0.11399690262E+04  0.00000000000E+00 0. -1.
         -2   -1    0    0    0  501 -0.00000000000E+00 -0.00000000000E+00 -0.70189327010E+02  0.70189327010E+02  0.00000000000E+00 0.  1.
          5    1    1    2  502    0  0.13193902886E+02  0.10809798816E+03  0.70861163645E+03  0.71694293903E+03  0.41800000000E+01 0. -1.
         -5    1    1    2    0  502 -0.23877716532E+01 -0.42140567684E+02 -0.51492072791E+02  0.66711579644E+02  0.41800000000E+01 0.  1.
        -11    1    1    2    0    0  0.16507238062E+02 -0.75366416556E+02  0.33136611066E+03  0.34022945925E+03  0.00000000000E+00 0. -1.
         11    1    1    2    0    0 -0.27313369295E+02  0.94089960774E+01  0.81294024898E+02  0.86274375301E+02  0.00000000000E+00 0.  1.
</event>
<event>
 7    1  0.6833760E-006  0.9145912E+02  0.7561462E-02  0.1299356E+00
          1   -1    0    0  501    0  0.00000000000E+00  0.00000000000E+00  0.33897195141E+03  0.33897195141E+03  0.00000000000E+00 0. -1.
         -1   -1    0    0    0  501 -0.00000000000E+00 -0.00000000000E+00 -0.37984097502E+02  0.37984097502E+02  0.00000000000E+00 0.  1.
         23    2    1    2    0    0  0.30779127918E+02 -0.13494028458E+02  0.16674899569E+03  0.21114806258E+03  0.12509529667E+03 0.  0.
          5    1    3    3  502    0 -0.29530112442E+02 -0.31694408577E+02  0.13219911340E+03  0.13917845042E+03  0.41800000000E+01 0.  1.
         -5    1    3    3    0  502  0.60309240361E+02  0.18200380119E+02  0.34549882284E+02  0.71969612165E+02  0.41800000000E+01 0.  1.
        -11    1    1    2    0    0 -0.25813068643E+02  0.40925537856E+02  0.27852729211E+02  0.55829998084E+02  0.00000000000E+00 0.  1.
         11    1    1    2    0    0 -0.49660592750E+01 -0.27431509398E+02  0.10638612901E+03  0.10997798824E+03  0.00000000000E+00 0. -1.
</event>
<event>
 7    1  0.6833760E-006  0.1276039E+03  0.7561462E-02  0.1231055E+00
          2   -1    0    0  501    0  0.00000000000E+00  0.00000000000E+00  0.20162475599E+03  0.20162475599E+03  0.00000000000E+00 0. -1.
         -2   -1    0    0    0  501 -0.00000000000E+00 -0.00000000000E+00 -0.14743285907E+03  0.14743285907E+03  0.00000000000E+00 0.  1.
         23    2    1    2    0    0  0.91406978762E+02 -0.36600345871E+02 -0.63121692194E+02  0.17125059856E+03  0.12509036092E+03 0.  0.
          5    1    3    3  502    0  0.19796519119E+02  0.21329025315E+02 -0.72828359260E+02  0.78538346065E+02  0.41800000000E+01 0.  1.
         -5    1    3    3    0  502  0.71610459643E+02 -0.57929371187E+02  0.97066670659E+01  0.92712252490E+02  0.41800000000E+01 0.  1.
        -11    1    1    2    0    0  0.10761024248E+02  0.29258415611E+02  0.28227217983E+02  0.42055087231E+02  0.00000000000E+00 0. -1.
         11    1    1    2    0    0 -0.10216800301E+03  0.73419302605E+01  0.89086371137E+02  0.13575192927E+03  0.00000000000E+00 0.  1.
</event>
<event>
 7    1  0.8311188E-006  0.1890578E+03  0.7561462E-02  0.1159314E+00
         -1   -1    0    0    0  501 -0.00000000000E+00  0.00000000000E+00  0.29529347305E+03  0.29529347305E+03  0.00000000000E+00 0.  1.
          1   -1    0    0  501    0  0.00000000000E+00 -0.00000000000E+00 -0.16538369725E+03  0.16538369725E+03  0.00000000000E+00 0. -1.
         23    2    1    2    0    0  0.30986584787E+02 -0.18049452615E+03  0.12793863414E+03  0.25603608220E+03  0.12509092244E+03 0.  0.
          5    1    3    3  502    0  0.37329523783E+02 -0.42609854826E+02 -0.13476350203E+02  0.58379598225E+02  0.41800000000E+01 0. -1.
         -5    1    3    3    0  502 -0.63429389963E+01 -0.13788467132E+03  0.14141498435E+03  0.19765648398E+03  0.41800000000E+01 0. -1.
        -11    1    1    2    0    0 -0.23534685416E+02  0.12176360480E+03  0.44486614811E+02  0.13175475615E+03  0.00000000000E+00 0. -1.
         11    1    1    2    0    0 -0.74518993703E+01  0.58730921351E+02 -0.42515473163E+02  0.72886331951E+02  0.00000000000E+00 0.  1.
</event>
<event>
 7    1  0.6833760E-006  0.1016076E+03  0.7561462E-02  0.1276951E+00
          1   -1    0    0  501    0  0.00000000000E+00  0.00000000000E+00  0.35236186027E+03  0.35236186027E+03  0.00000000000E+00 0. -1.
         -1   -1    0    0    0  501 -0.00000000000E+00 -0.00000000000E+00 -0.35885434872E+02  0.35885434872E+02  0.00000000000E+00 0.  1.
         23    2    1    2    0    0 -0.37053270623E+01  0.25569727863E+02  0.15680704494E+03  0.20223629817E+03  0.12507410013E+03 0.  0.
          5    1    3    3  502    0 -0.26225291082E+02 -0.34487966166E+02  0.14154432528E+02  0.45771236195E+02  0.41800000000E+01 0. -1.
         -5    1    3    3    0  502  0.22519964019E+02  0.60057694029E+02  0.14265261241E+03  0.15646506197E+03  0.41800000000E+01 0. -1.
        -11    1    1    2    0    0  0.32487061700E+01  0.34843885170E+02  0.60098554368E+02  0.69544853603E+02  0.00000000000E+00 0.  1.
         11    1    1    2    0    0  0.45662089233E+00 -0.60413613033E+02  0.99570826088E+02  0.11646614336E+03  0.00000000000E+00 0. -1.
</event>
<event>
 7    1  0.6833760E-006  0.1431394E+03  0.7561462E-02  0.1209166E+00
         -1   -1    0    0    0  501 -0.00000000000E+00  0.00000000000E+00  0.22523301365E+03  0.22523301365E+03  0.00000000000E+00 0. -1.
          1   -1    0    0  501    0  0.00000000000E+00 -0.00000000000E+00 -0.14373158168E+03  0.14373158168E+03  0.00000000000E+00 0.  1.
         23    2    1    2    0    0 -0.54952616790E+01 -0.95202495485E+02  0.15205603217E+03  0.21877519833E+03  0.12509131640E+03 0.  0.
          5    1    3    3  502    0  0.55977167400E+02 -0.21123062072E+02  0.46784439097E+02  0.76064993020E+02  0.41800000000E+01 0.  1.
         -5    1    3    3    0  502 -0.61472429079E+02 -0.74079433412E+02  0.10527159307E+03  0.14271020531E+03  0.41800000000E+01 0.  1.
        -11    1    1    2    0    0 -0.25471623394E+02 -0.42171032832E+01 -0.28310286933E+01  0.25973106897E+02  0.00000000000E+00 0. -1.
         11    1    1    2    0    0  0.30966885073E+02  0.99419598768E+02 -0.67723571510E+02  0.12421629011E+03  0.00000000000E+00 0.  1.
</event>
<event>
 7    1  0.6833760E-006  0.9895527E+02  0.7561462E-02  0.1282508E+00
         -1   -1    0    0    0  501 -0.00000000000E+00  0.00000000000E+00  0.80118387569E+02  0.80118387569E+02  0.00000000000E+00 0.  1.
          1   -1    0    0  501    0  0.00000000000E+00 -0.00000000000E+00 -0.20314541004E+03  0.20314541004E+03  0.00000000000E+00 0. -1.
         23    2    1    2    0    0 -0.13782288013E+02  0.65409538984E+02 -0.78977364336E+02  0.16233736430E+03  0.12509051330E+03 0.  0.
          5    1    3    3  502    0  0.38407594993E+02  0.47930605351E+02 -0.86980650182E+02  0.10656262097E+03  0.41800000000E+01 0. -1.
         -5    1    3    3    0  502 -0.52189883006E+02  0.17478933633E+02  0.80032858459E+01  0.55774743329E+02  0.41800000000E+01 0. -1.
        -11    1    1    2    0    0  0.29545510917E+02 -0.28657840511E+02  0.19731332142E+02  0.45645750144E+02  0.00000000000E+00 0.  1.
         11    1    1    2    0    0 -0.15763222904E+02 -0.36751698472E+02 -0.63780990280E+02  0.75280683166E+02  0.00000000000E+00 0. -1.
</event>
<event>
 6    1  0.6833760E-006  0.1015400E+03  0.7561462E-02  0.1277090E+00
          2   -1    0    0  501    0  0.00000000000E+00  0.00000000000E+00  0.32928744803E+03  0.32928744803E+03  0.00000000000E+00 0. -1.
         -2   -1    0    0    0  501 -0.00000000000E+00 -0.00000000000E+00 -0.41330171368E+02  0.41330171368E+02  0.00000000000E+00 0.  1.
          5    1    1    2  502    0 -0.59384013662E+02 -0.13914827929E+02  0.36907214886E+02  0.71412172811E+02  0.41800000000E+01 0. -1.
         -5    1    1    2    0  502  0.70919340227E+02 -0.34221639535E+02  0.97766124445E+02  0.12560398449E+03  0.41800000000E+01 0.  1.
        -11    1    1    2    0    0  0.93721335890E+01  0.39281301215E+02  0.14314980961E+03  0.14873710198E+03  0.00000000000E+00 0. -1.
         11    1    1    2    0    0 -0.20907460154E+02  0.88551662485E+01  0.10134127716E+02  0.24864360115E+02  0.00000000000E+00 0.  1.
</event>
<event>
 7    1  0.6833760E-006  0.2030904E+03  0.7561462E-02  0.1147157E+00
         -1   -1    0    0    0  501 -0.00000000000E+00  0.00000000000E+00  0.46935408364E+03  0.46935408364E+03  0.00000000000E+00 0.  1.
          1   -1    0    0  501    0  0.00000000000E+00 -0.00000000000E+00 -0.11955698908E+03  0.11955698908E+03  0.00000000000E+00 0. -1.
         23    2    1    2    0    0 -0.32937461828E+02  0.18477445843E+03  0.29760897317E+03  0.37342467634E+03  0.12509360937E+03 0.  0.
          5    1    3    3  502    0 -0.25663091852E+02 -0.66817981491E+01  0.75157853698E+02  0.79808621605E+02  0.41800000000E+01 0.  1.
         -5    1    3    3    0  502 -0.72743699762E+01  0.19145625658E+03  0.22245111947E+03  0.29361605473E+03  0.41800000000E+01 0.  1.
        -11    1    1    2    0    0  0.66315881194E+01 -0.33491211145E+02 -0.26243322086E+02  0.43062177593E+02  0.00000000000E+00 0. -1.
         11    1    1    2    0    0  0.26305873709E+02 -0.15128324728E+03  0.78431443480E+02  0.17242421879E+03  0.00000000000E+00 0.  1.
</event>
<event>
 7    1  0.6833760E-006  0.1327071E+03  0.7561462E-02  0.1223493E+00
         -2   -1    0    0    0  501 -0.00000000000E+00  0.00000000000E+00  0.12334348602E+02  0.12334348602E+02  0.00000000000E+00 0.  1.
          2   -1    0    0  501    0  0.00000000000E+00 -0.00000000000E+00 -0.15404766369E+04  0.15404766369E+04  0.00000000000E+00 0. -1.
         23    2    1    2    0    0  0.53313197770E+02  0.66012959852E+02 -0.85765092983E+03  0.87086896316E+03  0.12509046979E+03 0.  0.
          5    1    3    3  502    0  0.21661320787E+02  0.95447337093E+02 -0.71716091797E+03  0.72382087676E+03  0.41800000000E+01 0.  1.
         -5    1    3    3    0  502  0.31651876983E+02 -0.29434377241E+02 -0.14049001186E+03  0.14704808640E+03  0.41800000000E+01 0.  1.
        -11    1    1    2    0    0 -0.77688848645E+02 -0.36755777832E+02 -0.48952839728E+03  0.49701569004E+03  0.00000000000E+00 0.  1.
         11    1    1    2    0    0  0.24375650875E+02 -0.29257182020E+02 -0.18096296123E+03  0.18492633234E+03  0.00000000000E+00 0. -1.
</event>
<event>
 7    1  0.6833760E-006  0.1164830E+03  0.7561462E-02  0.1249014E+00
          2   -1    0    0  501    0  0.00000000000E+00  0.00000000000E+00  0.46587460819E+02  0.46587460819E+02  0.00000000000E+00 0.  1.
         -2   -1    0    0    0  501 -0.00000000000E+00 -0.00000000000E+00 -0.37273991221E+03  0.37273991221E+03  0.00000000000E+00 0. -1.
         23    2    1    2    0    0  0.28682275181E+02 -0.67488068597E+02 -0.18719796190E+03  0.23681227499E+03  0.12513858051E+03 0.  0.
          5    1    3    3  502    0 -0.48731841764E+02 -0.38182105927E+02 -0.84746095772E+02  0.10503351257E+03  0.41800000000E+01 0. -1.
         -5    1    3    3    0  502  0.77414116946E+02 -0.29305962669E+02 -0.10245186613E+03  0.13177876241E+03  0.41800000000E+01 0. -1.
        -11    1    1    2    0    0  0.21953634650E+01  0.54489063130E+02 -0.18652079603E+02  0.57634865273E+02  0.00000000000E+00 0.  1.
         11    1    1    2    0    0 -0.30877638646E+02  0.12999005466E+02 -0.12030240989E+03  0.12488023277E+03  0.00000000000E+00 0. -1.
</event>
<event>
 7    1  0.6833760E-006  0.1464279E+03  0.7561462E-02  0.1204932E+00
          1   -1    0    0  501    0  0.00000000000E+00  0.00000000000E+00  0.43506268072E+03  0.43506268072E+03  0.00000000000E+00 0. -1.
         -1   -1    0    0    0  501 -0.00000000000E+00 -0.00000000000E+00 -0.67708254405E+02  0.67708254405E+02  0.00000000000E+00 0.  1.
         23    2    1    2    0    0  0.42420527613E+02  0.12580900045E+03  0.15333702643E+03  0.23829767940E+03  0.12508450973E+03 0.  0.
          5    1    3    3  502    0  0.47126754374E+02  0.13825595567E+03  0.16479198872E+03  0.22024875074E+03  0.41800000000E+01 0. -1.
         -5    1    3    3    0  502 -0.47062267611E+01 -0.12446955219E+02 -0.11454962293E+02  0.18048928657E+02  0.41800000000E+01 0. -1.
        -11    1    1    2    0    0 -0.21830478173E+02 -0.67583500145E+02  0.43904872789E+02  0.83496928828E+02  0.00000000000E+00 0.  1.
         11    1    1    2    0    0 -0.20590049440E+02 -0.58225500307E+02  0.17011252710E+03  0.18097632690E+03  0.00000000000E+00 0. -1.
</event>
<event>
 7    1  0.6833760E-006  0.1019164E+03  0.7561462E-02  0.1276317E+00
         -1   -1    0    0    0  501 -0.00000000000E+00  0.00000000000E+00  0.12712725848E+03  0.12712725848E+03  0.00000000000E+00 0.  1.
          1   -1    0    0  501    0  0.00000000000E+00 -0.00000000000E+00 -0.20764764965E+03  0.20764764965E+03  0.00000000000E+00 0. -1.
         23    2    1    2    0    0  0.30584057829E+02  0.87037660489E+02  0.45594740526E+02  0.15424171569E+03  0.11489424511E+03 0.  0.
          5    1    3    3  502    0  0.18492395614E+02  0.14482671464E+02 -0.36708567657E+02  0.43780221650E+02  0.41800000000E+01 0. -1.
         -5    1    3    3    0  502  0.12091662215E+02  0.72554989025E+02  0.82303308183E+02  0.11046149404E+03  0.41800000000E+01 0.  1.
        -11    1    1    2    0    0 -0.40250072999E+02 -0.34896473354E+02 -0.11444332239E+03  0.12623433079E+03  0.00000000000E+00 0. -1.
         11    1    1    2    0    0  0.96660151691E+01 -0.52141187135E+02 -0.11671809304E+02  0.54298861660E+02  0.00000000000E+00 0.  1.
</event>
<event>
 7    1  0.6833760E-006  0.1252473E+03  0.7561462E-02  0.1234683E+00
         -3   -1    0    0    0  501 -0.00000000000E+00  0.00000000000E+00  0.54690527147E+02  0.54690527147E+02  0.00000000000E+00 0.  1.
          3   -1    0    0  501    0  0.00000000000E+00 -0.00000000000E+00 -0.42839337567E+03  0.42839337567E+03  0.00000000000E+00 0. -1.
         23    2    1    2    0    0 -0.42102968828E+02  0.66183551818E+02 -0.86442149826E+02  0.17110071635E+03  0.12510110853E+03 0.  0.
          5    1    3    3  502    0 -0.24150211562E+02  0.10293429888E+03 -0.69716320239E+02  0.12671440452E+03  0.41800000000E+01 0. -1.
         -5    1    3    3    0  502 -0.17952757266E+02 -0.36750747062E+02 -0.16725829588E+02  0.44386311837E+02  0.41800000000E+01 0. -1.
        -11    1    1    2    0    0  0.60849622398E+02 -0.48772656566E+02 -0.27020820326E+03  0.28123641600E+03  0.00000000000E+00 0. -1.
         11    1    1    2    0    0 -0.18746653570E+02 -0.17410895252E+02 -0.17052495439E+02  0.30746770469E+02  0.00000000000E+00 0.  1.
</event>
<event>
 7    1  0.6833760E-006  0.1088722E+03  0.7561462E-02  0.1262673E+00
         -1   -1    0    0    0  501 -0.00000000000E+00  0.00000000000E+00  0.50236855261E+02  0.50236855261E+02  0.00000000000E+00 0.  1.
          1   -1    0    0  501    0  0.00000000000E+00 -0.00000000000E+00 -0.46775564731E+03  0.46775564731E+03  0.00000000000E+00 0. -1.
         23    2    1    2    0    0 -0.77433230930E+02  0.43365316403E+02 -0.12054826034E+03  0.19511156584E+03  0.12514065740E+03 0.  0.
          5    1    3    3  502    0 -0.20659882595E+02 -0.18659049638E+02  0.17695429599E+02  0.33250436252E+02  0.41800000000E+01 0.  1.
         -5    1    3    3    0  502 -0.56773348335E+02  0.62024366041E+02 -0.13824368994E+03  0.16186112959E+03  0.41800000000E+01 0.  1.
        -11    1    1    2    0    0 -0.83869842785E+01 -0.10661052503E+02 -0.17164220034E+01  0.13672806964E+02  0.00000000000E+00 0.  1.
         11    1    1    2    0    0  0.85820215208E+02 -0.32704263899E+02 -0.29525410970E+03  0.30920812976E+03  0.00000000000E+00 0. -1.
</event>
<event>
 7    1  0.6833760E-006  0.3080356E+03  0.7561462E-02  0.1081291E+00
          2   -1    0    0  501    0  0.00000000000E+00  0.00000000000E+00  0.11631466522E+04  0.11631466522E+04  0.00000000000E+00 0.  1.
         -2   -1    0    0    0  501 -0.00000000000E+00 -0.00000000000E+00 -0.13711010884E+03  0.13711010884E+03  0.00000000000E+00 0. -1.
         23    2    1    2    0    0 -0.10409985652E+02 -0.30012094911E+03  0.12917465080E+03  0.35002038809E+03  0.12508888749E+03 0.  0.
          5    1    3    3  502    0  0.50212027868E+01  0.60226975726E+01 -0.99735298642E+01  0.13357734143E+02  0.41800000000E+01 0. -1.
         -5    1    3    3    0  502 -0.15431188438E+02 -0.30614364668E+03  0.13914818066E+03  0.33666265394E+03  0.41800000000E+01 0. -1.
        -11    1    1    2    0    0  0.10708430541E+02  0.11362656362E+03  0.21604074879E+03  0.24433434385E+03  0.00000000000E+00 0. -1.
         11    1    1    2    0    0 -0.29844488949E+00  0.18649438549E+03  0.68082114374E+03  0.70590202908E+03  0.00000000000E+00 0.  1.
</event>
<event>
 7    1  0.6833760E-006  0.9845219E+02  0.7561462E-02  0.1283585E+00
         -1   -1    0    0    0  501 -0.00000000000E+00  0.00000000000E+00  0.46089100480E+03  0.46089100480E+03  0.00000000000E+00 0.  1.
          1   -1    0    0  501    0  0.00000000000E+00 -0.00000000000E+00 -0.37255862938E+02  0.37255862938E+02  0.00000000000E+00 0. -1.
         23    2    1    2    0    0 -0.74076638522E+01 -0.67638002603E+01  0.37231328690E+03  0.39288838810E+03  0.12507389583E+03 0.  0.
          5    1    3    3  502    0  0.36268532853E+02  0.38495322897E+02  0.24676692161E+03  0.25240578908E+03  0.41800000000E+01 0.  1.
         -5    1    3    3    0  502 -0.43676196705E+02 -0.45259123157E+02  0.12554636529E+03  0.14048259902E+03  0.41800000000E+01 0.  1.
        -11    1    1    2    0    0  0.26608237696E+01 -0.36848604542E+02 -0.10257700392E+01  0.36958785748E+02  0.00000000000E+00 0. -1.
         11    1    1    2    0    0  0.47468400826E+01  0.43612404802E+02  0.52347624998E+02  0.68299693896E+02  0.00000000000E+00 0.  1.
</event>
<event>
 7    1  0.6833760E-006  0.6564424E+02  0.7561462E-02  0.1375564E+00
          2   -1    0    0  501    0  0.00000000000E+00  0.00000000000E+00  0.11950204624E+03  0.11950204624E+03  0.00000000000E+00 0. -1.
         -2   -1    0    0    0  501 -0.00000000000E+00 -0.00000000000E+00 -0.11195514831E+03  0.11195514831E+03  0.00000000000E+00 0.  1.
         23    2    1    2    0    0 -0.36753725478E+02  0.14847736041E+02 -0.39464474202E+01  0.13127628911E+03  0.12508636230E+03 0.  0.
          5    1    3    3  502    0 -0.76430473985E+01  0.36931403669E+01 -0.63353565863E+02  0.64056242216E+02  0.41800000000E+01 0.  1.
         -5    1    3    3    0  502 -0.29110678079E+02  0.11154595674E+02  0.59407118443E+02  0.67220046895E+02  0.41800000000E+01 0.  1.
        -11    1    1    2    0    0 -0.25530350216E+02 -0.11494731221E+02  0.23629251872E+02  0.36636991852E+02  0.00000000000E+00 0. -1.
         11    1    1    2    0    0  0.62284075693E+02 -0.33530048200E+01 -0.12135906523E+02  0.63543913583E+02  0.00000000000E+00 0.  1.
</event>
<event>
 7    1  0.6833760E-006  0.7450016E+02  0.7561462E-02  0.1345426E+00
          1   -1    0    0  501    0  0.00000000000E+00  0.00000000000E+00  0.10256788603E+03  0.10256788603E+03  0.00000000000E+00 0. -1.
         -1   -1    0    0    0  501 -0.00000000000E+00 -0.00000000000E+00 -0.13290597624E+03  0.13290597624E+03  0.00000000000E+00 0.  1.
         23    2    1    2    0    0 -0.22563345132E+02  0.37697353380E+02 -0.16082425012E+02  0.13354887679E+03  0.12508582295E+03 0.  0.
          5    1    3    3  502    0 -0.20545351773E+02  0.48938958095E+02 -0.64495339566E+02  0.83631658627E+02  0.41800000000E+01 0.  1.
         -5    1    3    3    0  502 -0.20179933588E+01 -0.11241604716E+02  0.48412914554E+02  0.49917218166E+02  0.41800000000E+01 0.  1.
        -11    1    1    2    0    0 -0.37560738641E+01  0.19910510011E+02 -0.30428548410E+02  0.36557257256E+02  0.00000000000E+00 0.  1.
         11    1    1    2    0    0  0.26319418996E+02 -0.57607863390E+02  0.16172883215E+02  0.65367728216E+02  0.00000000000E+00 0. -1.
</event>
<event>
 7    1  0.6833760E-006  0.9082132E+02  0.7561462E-02  0.1300875E+00
          2   -1    0    0  501    0  0.00000000000E+00  0.00000000000E+00  0.74491817632E+02  0.74491817632E+02  0.00000000000E+00 0. -1.
         -2   -1    0    0    0  501 -0.00000000000E+00 -0.00000000000E+00 -0.22998036912E+03  0.22998036912E+03  0.00000000000E+00 0.  1.
         23    2    1    2    0    0 -0.58355876900E+02  0.10319101046E+02 -0.13805014876E+03  0.19549134738E+03  0.12508849314E+03 0.  0.
          5    1    3    3  502    0 -0.46133669380E+02 -0.35862147091E+02 -0.10884926724E+02  0.59584923213E+02  0.41800000000E+01 0. -1.
         -5    1    3    3    0  502 -0.12222207520E+02  0.46181248137E+02 -0.12716522203E+03  0.13590642417E+03  0.41800000000E+01 0. -1.
        -11    1    1    2    0    0  0.18489837605E+02 -0.26306442865E+02 -0.46922665573E+02  0.56882682561E+02  0.00000000000E+00 0.  1.
         11    1    1    2    0    0  0.39866039295E+02  0.15987341820E+02  0.29484262840E+02  0.52098156808E+02  0.00000000000E+00 0. -1.
</event>
<event>
 7    1  0.6833760E-006  0.1126528E+03  0.7561462E-02  0.1255735E+00
          1   -1    0    0  501    0  0.00000000000E+00  0.00000000000E+00  0.93225783874E+02  0.93225783874E+02  0.00000000000E+00 0. -1.
         -1   -1    0    0    0  501 -0.00000000000E+00 -0.00000000000E+00 -0.15500180748E+03  0.15500180748E+03  0.00000000000E+00 0.  1.
         23    2    1    2    0    0  0.37258426093E+02  0.33461581235E+02 -0.39476516637E+02  0.14040683603E+03  0.12509123273E+03 0.  0.
          5    1    3    3  502    0  0.61961188589E+02 -0.27978141595E+02 -0.15488991040E+02  0.69852319517E+02  0.41800000000E+01 0. -1.
         -5    1    3    3    0  502 -0.24702762495E+02  0.61439722830E+02 -0.23987525597E+02  0.70554516515E+02  0.41800000000E+01 0. -1.
        -11    1    1    2    0    0 -0.54063415290E+01  0.24291719084E+02 -0.32656445396E+02  0.41058002517E+02  0.00000000000E+00 0.  1.
         11    1    1    2    0    0 -0.31852084564E+02 -0.57753300319E+02  0.10356938426E+02  0.66762752807E+02  0.00000000000E+00 0. -1.
</event>
<event>
 6    1  0.6833760E-006  0.1286664E+03  0.7561462E-02  0.1229448E+00
         -2   -1    0    0    0  501 -0.00000000000E+00  0.00000000000E+00  0.52993090135E+02  0.52993090135E+02  0.00000000000E+00 0.  1.
          2   -1    0    0  501    0  0.00000000000E+00 -0.00000000000E+00 -0.83725362037E+03  0.83725362037E+03  0.00000000000E+00 0. -1.
          5    1    1    2  502    0 -0.10016908374E+03  0.36843811255E+02 -0.54694433878E+03  0.55727631736E+03  0.41800000000E+01 0. -1.
         -5    1    1    2    0  502  0.30466215145E+02 -0.17387331705E+02  0.26985744763E+02  0.44454610442E+02  0.41800000000E+01 0.  1.
        -11    1    1    2    0    0 -0.86677740675E+01  0.24045104943E+02 -0.70470372890E+02  0.74962462834E+02  0.00000000000E+00 0. -1.
         11    1    1    2    0    0  0.78370642664E+02 -0.43501584493E+02 -0.19383156333E+03  0.21355331987E+03  0.00000000000E+00 0.  1.
</event>
<event>
 7    1  0.6833760E-006  0.7096915E+02  0.7561462E-02  0.1356828E+00
         -2   -1    0    0    0  501 -0.00000000000E+00  0.00000000000E+00  0.11448827208E+03  0.11448827208E+03  0.00000000000E+00 0.  1.
          2   -1    0    0  501    0  0.00000000000E+00 -0.00000000000E+00 -0.13326779286E+03  0.13326779286E+03  0.00000000000E+00 0. -1.
         23    2    1    2    0    0  0.13491978851E+02  0.10211375395E+01  0.46230551234E+02  0.13404358947E+03  0.12508934325E+03 0.  0.
          5    1    3    3  502    0  0.39440722165E+02 -0.25106495581E+02  0.74070355038E+02  0.87691485224E+02  0.41800000000E+01 0.  1.
         -5    1    3    3    0  502 -0.25948743314E+02  0.26127633121E+02 -0.27839803803E+02  0.46352104245E+02  0.41800000000E+01 0.  1.
        -11    1    1    2    0    0  0.17476348426E+02  0.15035876742E+02  0.14258847118E+02  0.27107472490E+02  0.00000000000E+00 0.  1.
         11    1    1    2    0    0 -0.30968327277E+02 -0.16057014281E+02 -0.79268919130E+02  0.86605002985E+02  0.00000000000E+00 0. -1.
</event>
<event>
 7    1  0.6833760E-006  0.1252516E+03  0.7561462E-02  0.1234677E+00
          1   -1    0    0  501    0  0.00000000000E+00  0.00000000000E+00  0.80478454614E+02  0.80478454614E+02  0.00000000000E+00 0. -1.
         -1   -1    0    0    0  501 -0.00000000000E+00 -0.00000000000E+00 -0.24549690069E+03  0.24549690069E+03  0.00000000000E+00 0.  1.
         23    2    1    2    0    0  0.69797756993E+02 -0.27939713417E+01 -0.15063374336E+03  0.20789555702E+03  0.12510197773E+03 0.  0.
          5    1    3    3  502    0  0.72191572319E+02 -0.49685990205E+02 -0.61760257737E+02  0.10729455984E+03  0.41800000000E+01 0.  1.
         -5    1    3    3    0  502 -0.23938153264E+01  0.46892018863E+02 -0.88873485627E+02  0.10060099717E+03  0.41800000000E+01 0.  1.
        -11    1    1    2    0    0  0.13088324510E+02  0.26382046298E+02 -0.12193721337E+02  0.31874808946E+02  0.00000000000E+00 0.  1.
         11    1    1    2    0    0 -0.82886081503E+02 -0.23588074956E+02 -0.21909813720E+01  0.86204989336E+02  0.00000000000E+00 0. -1.
</event>
<event>
 7    1  0.6833760E-006  0.1038468E+03  0.7561462E-02  0.1272408E+00
         -1   -1    0    0    0  501 -0.00000000000E+00  0.00000000000E+00  0.40230632727E+03  0.40230632727E+03  0.00000000000E+00 0.  1.
          1   -1    0    0  501    0  0.00000000000E+00 -0.00000000000E+00 -0.57103911737E+02  0.57103911737E+02  0.00000000000E+00 0. -1.
         23    2    1    2    0    0 -0.65123420796E+02 -0.32191255148E+02  0.29946333145E+03  0.33257465143E+03  0.12510105932E+03 0.  0.
          5    1    3    3  502    0  0.54145895118E+00  0.31236005191E+02  0.17246796023E+02  0.35929174374E+02  0.41800000000E+01 0.  1.
         -5    1    3    3    0  502 -0.65664879748E+02 -0.63427260340E+02  0.28221653543E+03  0.29664547705E+03  0.41800000000E+01 0.  1.
        -11    1    1    2    0    0  0.59284783127E+02  0.79102793540E+01 -0.14571038675E+02  0.61559509403E+02  0.00000000000E+00 0. -1.
         11    1    1    2    0    0  0.58386376694E+01  0.24280975794E+02  0.60310122753E+02  0.65276078175E+02  0.00000000000E+00 0.  1.
</event>
<event>
 7    1  0.6833760E-006  0.1321208E+03  0.7561462E-02  0.1224342E+00
         -2   -1    0    0    0  501 -0.00000000000E+00  0.00000000000E+00  0.47940216914E+02  0.47940216914E+02  0.00000000000E+00 0.  1.
          2   -1    0    0  501    0  0.00000000000E+00 -0.00000000000E+00 -0.46113455140E+03  0.46113455140E+03  0.00000000000E+00 0. -1.
         23    2    1    2    0    0 -0.21703125651E+02 -0.90378770462E+02 -0.15405108803E+03  0.21913538345E+03  0.12509688542E+03 0.  0.
          5    1    3    3  502    0 -0.48909720608E+02  0.70219982437E+01 -0.26244862431E+02  0.56104673899E+02  0.41800000000E+01 0.  1.
         -5    1    3    3    0  502  0.27206594957E+02 -0.97400768706E+02 -0.12780622560E+03  0.16303070955E+03  0.41800000000E+01 0.  1.
        -11    1    1    2    0    0  0.59986204145E+01  0.96424011229E+02 -0.25488642185E+03  0.27258147668E+03  0.00000000000E+00 0. -1.
         11    1    1    2    0    0  0.15704505236E+02 -0.60452407669E+01 -0.42568246012E+01  0.17357908179E+02  0.00000000000E+00 0.  1.
</event>
<event>
 7    1  0.6833760E-006  0.9216601E+02  0.7561462E-02  0.1297690E+00
          1   -1    0    0  501    0  0.00000000000E+00  0.00000000000E+00  0.51944134516E+02  0.51944134516E+02  0.00000000000E+00 0. -1.
         -1   -1    0    0    0  501 -0.00000000000E+00 -0.00000000000E+00 -0.27090908331E+03  0.27090908331E+03  0.00000000000E+00 0.  1.
         23    2    1    2    0    0 -0.35539390307E+02 -0.32485998563E+02 -0.13587268998E+03  0.19085979686E+03  0.12509071032E+03 0.  0.
          5    1    3    3  502    0 -0.28363999376E+01 -0.58780163482E+02 -0.12267243235E+02  0.60258695971E+02  0.41800000000E+01 0.  1.
         -5    1    3    3    0  502 -0.32702990369E+02  0.26294164919E+02 -0.12360544675E+03  0.13060110089E+03  0.41800000000E+01 0.  1.
        -11    1    1    2    0    0  0.36476135138E+02 -0.12205091647E+02 -0.78044846564E+02  0.87008452302E+02  0.00000000000E+00 0.  1.
         11    1    1    2    0    0 -0.93674483066E+00  0.44691090210E+02 -0.50474122447E+01  0.44984968661E+02  0.00000000000E+00 0. -1.
</event>
<event>
 7    1  0.6833760E-006  0.1247431E+03  0.7561462E-02  0.1235471E+00
          1   -1    0    0  501    0  0.00000000000E+00  0.00000000000E+00  0.32604276301E+03  0.32604276301E+03  0.00000000000E+00 0. -1.
         -1   -1    0    0    0  501 -0.00000000000E+00 -0.00000000000E+00 -0.58417291630E+02  0.58417291630E+02  0.00000000000E+00 0.  1.
         23    2    1    2    0    0  0.15116402569E+02  0.83964236837E+02  0.13920709315E+03  0.20568195713E+03  0.12509178236E+03 0.  0.
          5    1    3    3  502    0 -0.31553767629E+02  0.86567319185E+02  0.12741369140E+03  0.15729355409E+03  0.41800000000E+01 0. -1.
         -5    1    3    3    0  502  0.46670170198E+02 -0.26030823478E+01  0.11793401745E+02  0.48388403040E+02  0.41800000000E+01 0. -1.
        -11    1    1    2    0    0 -0.37182501789E+02 -0.79563086827E+02  0.58991606613E+02  0.10579618554E+03  0.00000000000E+00 0. -1.
         11    1    1    2    0    0  0.22066099220E+02 -0.44011500104E+01  0.69426771622E+02  0.72981911965E+02  0.00000000000E+00 0.  1.
</event>
<event>
 7    1  0.6833760E-006  0.6555838E+02  0.7561462E-02  0.1375883E+00
         -1   -1    0    0    0  501 -0.00000000000E+00  0.00000000000E+00  0.94117817698E+02  0.94117817698E+02  0.00000000000E+00 0.  1.
          1   -1    0    0  501    0  0.00000000000E+00 -0.00000000000E+00 -0.15257640366E+03  0.15257640366E+03  0.00000000000E+00 0. -1.
         23    2    1    2    0    0 -0.44504734171E+02 -0.49410713158E+01 -0.16767896142E+02  0.13391724038E+03  0.12509028492E+03 0.  0.
          5    1    3    3  502    0 -0.24688179832E+02  0.16344697136E+02  0.51524549252E+02  0.59572702838E+02  0.41800000000E+01 0. -1.
         -5    1    3    3    0  502 -0.19816554339E+02 -0.21285768452E+02 -0.68292445394E+02  0.74344537542E+02  0.41800000000E+01 0. -1.
        -11    1    1    2    0    0  0.39478916991E+02 -0.21476347621E+02  0.17133520837E+02  0.48097566780E+02  0.00000000000E+00 0.  1.
         11    1    1    2    0    0  0.50258171801E+01  0.26417418937E+02 -0.58824210654E+02  0.64679414195E+02  0.00000000000E+00 0. -1.
</event>
<event>
 7    1  0.6833760E-006  0.9891463E+02  0.7561462E-02  0.1282595E+00
          1   -1    0    0  501    0  0.00000000000E+00  0.00000000000E+00  0.21376244835E+03  0.21376244835E+03  0.00000000000E+00 0. -1.
         -1   -1    0    0    0  501 -0.00000000000E+00 -0.00000000000E+00 -0.67423220583E+02  0.67423220583E+02  0.00000000000E+00 0.  1.
         23    2    1    2    0    0  0.26546533553E+02 -0.12159106966E+02  0.34316091347E+02  0.13295169136E+03  0.12508395495E+03 0.  0.
          5    1    3    3  502    0 -0.26546482444E+02 -0.34527712539E+02  0.56162915875E+02  0.71194270717E+02  0.41800000000E+01 0.  1.
         -5    1    3    3    0  502  0.53093015996E+02  0.22368605574E+02 -0.21846824529E+02  0.61757420646E+02  0.41800000000E+01 0.  1.
        -11    1    1    2    0    0  0.33679249693E+02 -0.41052826115E+01  0.30838429953E+02  0.45849252635E+02  0.00000000000E+00 0.  1.
         11    1    1    2    0    0 -0.60225783245E+02  0.16264389577E+02  0.81184706469E+02  0.10238472494E+03  0.00000000000E+00 0. -1.
</event>
<event>
 7    1  0.6833760E-006  0.9657893E+02  0.7561462E-02  0.1287659E+00
         -2   -1    0    0    0  501 -0.00000000000E+00  0.00000000000E+00  0.22746492041E+03  0.22746492041E+03  0.00000000000E+00 0.  1.
          2   -1    0    0  501    0  0.00000000000E+00 -0.00000000000E+00 -0.65653004437E+02  0.65653004437E+02  0.00000000000E+00 0. -1.
         23    2    1    2    0    0 -0.40113581507E+02  0.28466266022E+02  0.13508772635E+03  0.19056601802E+03  0.12508911100E+03 0.  0.
          5    1    3    3  502    0  0.45304268002E+01  0.70313283796E+02  0.90341498665E+02  0.11464528523E+03  0.41800000000E+01 0.  1.
         -5    1    3    3    0  502 -0.44644008307E+02 -0.41847017775E+02  0.44746227683E+02  0.75920732782E+02  0.41800000000E+01 0.  1.
        -11    1    1    2    0    0 -0.52939797066E+01 -0.11692695883E+02 -0.27207082841E+02  0.30082731174E+02  0.00000000000E+00 0. -1.
         11    1    1    2    0    0  0.45407561213E+02 -0.16773570138E+02  0.53931272462E+02  0.72469175653E+02  0.00000000000E+00 0.  1.
</event>
<event>
 7    1  0.6833760E-006  0.9481639E+02  0.7561462E-02  0.1291590E+00
          2   -1    0    0  501    0  0.00000000000E+00  0.00000000000E+00  0.17210564587E+03  0.17210564587E+03  0.00000000000E+00 0. -1.
         -2   -1    0    0    0  501 -0.00000000000E+00 -0.00000000000E+00 -0.97759157595E+02  0.97759157595E+02  0.00000000000E+00 0.  1.
         23    2    1    2    0    0  0.30559880121E+02 -0.44375117876E+02 -0.82771819284E+01  0.13645051732E+03  0.12508866686E+03 0.  0.
          5    1    3    3  502    0  0.54974511375E+02  0.24568289103E+02  0.94072815337E+01  0.61088190972E+02  0.41800000000E+01 0.  1.
         -5    1    3    3    0  502 -0.24414631254E+02 -0.68943406979E+02 -0.17684463462E+02  0.75362326352E+02  0.41800000000E+01 0.  1.
        -11    1    1    2    0    0 -0.29252555720E+02  0.31174320920E+02  0.10161925681E+03  0.11024528859E+03  0.00000000000E+00 0. -1.
         11    1    1    2    0    0 -0.13073244005E+01  0.13200796956E+02 -0.18995586604E+02  0.23168997557E+02  0.00000000000E+00 0.  1.
</event>
<event>
 7    1  0.6833760E-006  0.8972470E+02  0.7561462E-02  0.1303520E+00
          2   -1    0    0  501    0  0.00000000000E+00  0.00000000000E+00  0.29978425871E+03  0.29978425871E+03  0.00000000000E+00 0. -1.
         -2   -1    0    0    0  501 -0.00000000000E+00 -0.00000000000E+00 -0.48769858114E+02  0.48769858114E+02  0.00000000000E+00 0.  1.
         23    2    1    2    0    0  0.39678657613E+02  0.36602980562E+02  0.13747007054E+03  0.19354068747E+03  0.12508318574E+03 0.  0.
          5    1    3    3  502    0  0.28240125185E+02 -0.17360127786E+02 -0.10938542090E+02  0.35156831630E+02  0.41800000000E+01 0.  1.
         -5    1    3    3    0  502  0.11438532428E+02  0.53963108348E+02  0.14840861263E+03  0.15838385584E+03  0.41800000000E+01 0.  1.
        -11    1    1    2    0    0  0.30430316479E+01  0.19760030030E+02  0.68035812764E+02  0.70912556341E+02  0.00000000000E+00 0. -1.
         11    1    1    2    0    0 -0.42721689261E+02 -0.56363010592E+02  0.45508517294E+02  0.84100873019E+02  0.00000000000E+00 0.  1.
</event>
<event>
 7    1  0.6833760E-006  0.1166170E+03  0.7561462E-02  0.1248785E+00
         -2   -1    0    0    0  501 -0.00000000000E+00  0.00000000000E+00  0.25254616996E+02  0.25254616996E+02  0.00000000000E+00 0.  1.
          2   -1    0    0  501    0  0.00000000000E+00 -0.00000000000E+00 -0.59556812274E+03  0.59556812274E+03  0.00000000000E+00 0. -1.
         23    2    1    2    0    0  0.32295015692E+02 -0.51561547984E+02 -0.31560411352E+03  0.34308915720E+03  0.12001104970E+03 0.  0.
          5    1    3    3  502    0  0.60716129351E+02  0.85810596083E+01 -0.20440048677E+03  0.21344112617E+03  0.41800000000E+01 0. -1.
         -5    1    3    3    0  502 -0.28421113659E+02 -0.60142607592E+02 -0.11120362675E+03  0.12964803104E+03  0.41800000000E+01 0.  1.
        -11    1    1    2    0    0 -0.16643125187E+02 -0.23304063821E+02 -0.35781383085E+02  0.45829907070E+02  0.00000000000E+00 0. -1.
         11    1    1    2    0    0 -0.15651890505E+02  0.74865611804E+02 -0.21892800915E+03  0.23190367547E+03  0.00000000000E+00 0.  1.
</event>
<event>
 7    1  0.6833760E-006  0.3059263E+03  0.7561462E-02  0.1082315E+00
         -2   -1    0    0    0  501 -0.00000000000E+00  0.00000000000E+00  0.80514462004E+02  0.80514462004E+02  0.00000000000E+00 0.  1.
          2   -1    0    0  501    0  0.00000000000E+00 -0.00000000000E+00 -0.14618232175E+04  0.14618232175E+04  0.00000000000E+00 0. -1.
         23    2    1    2    0    0  0.72904573774E+02  0.29398082489E+03 -0.43576267185E+03  0.54523036116E+03  0.12508892145E+03 0.  0.
          5    1    3    3  502    0  0.97767951343E+01  0.14013463207E+02  0.58489877847E+01  0.18537689507E+02  0.41800000000E+01 0. -1.
         -5    1    3    3    0  502  0.63127778640E+02  0.27996736169E+03 -0.44161165963E+03  0.52669267165E+03  0.41800000000E+01 0. -1.
        -11    1    1    2    0    0 -0.21705167638E+02 -0.19099566426E+03 -0.46868032468E+03  0.50656855885E+03  0.00000000000E+00 0.  1.
         11    1    1    2    0    0 -0.51199406137E+02 -0.10298516063E+03 -0.47686575901E+03  0.49053875955E+03  0.00000000000E+00 0. -1.
</event>
<event>
 7    1  0.6833760E-006  0.7008412E+02  0.7561462E-02  0.1359807E+00
          2   -1    0    0  501    0  0.00000000000E+00  0.00000000000E+00  0.89129469818E+02  0.89129469818E+02  0.00000000000E+00 0. -1.
         -2   -1    0    0    0  501 -0.00000000000E+00 -0.00000000000E+00 -0.21475545563E+03  0.21475545563E+03  0.00000000000E+00 0.  1.
         23    2    1    2    0    0  0.16762993577E+02 -0.67503013190E+02 -0.12380619114E+03  0.18925097743E+03  0.12510117805E+03 0.  0.
          5    1    3    3  502    0  0.11110523519E+02 -0.52468661587E+02  0.97468527343E+01  0.54670629407E+02  0.41800000000E+01 0. -1.
         -5    1    3    3    0  502  0.56524700580E+01 -0.15034351603E+02 -0.13355304387E+03  0.13458034802E+03  0.41800000000E+01 0. -1.
        -11    1    1    2    0    0 -0.10649952784E+02  0.31327291947E+02 -0.46342391219E+02  0.56942408967E+02  0.00000000000E+00 0.  1.
         11    1    1    2    0    0 -0.61130407931E+01  0.36175721243E+02  0.44522596545E+02  0.57691539053E+02  0.00000000000E+00 0. -1.
</event>
<event>
 7    1  0.6833760E-006  0.6079969E+02  0.7561462E-02  0.1394506E+00
         -2   -1    0    0    0  501 -0.00000000000E+00  0.00000000000E+00  0.30813118898E+03  0.30813118898E+03  0.00000000000E+00 0. -1.
          2   -1    0    0  501    0  0.00000000000E+00 -0.00000000000E+00 -0.52804317422E+02  0.52804317422E+02  0.00000000000E+00 0.  1.
         23    2    1    2    0    0  0.42327755396E+02  0.32688475836E+02  0.18204403930E+03  0.22725743828E+03  0.12508291523E+03 0.  0.
          5    1    3    3  502    0  0.21932724895E+02  0.11143595973E+02  0.19355877994E+03  0.19516069749E+03  0.41800000000E+01 0. -1.
         -5    1    3    3    0  502  0.20395030501E+02  0.21544879864E+02 -0.11514740644E+02  0.32096740794E+02  0.41800000000E+01 0. -1.
        -11    1    1    2    0    0  0.16190765502E+01 -0.21199912246E+02 -0.20461686009E+02  0.29508274813E+02  0.00000000000E+00 0.  1.
         11    1    1    2    0    0 -0.43946831946E+02 -0.11488563591E+02  0.93744518273E+02  0.10416979331E+03  0.00000000000E+00 0. -1.
</event>
<event>
 7    1  0.6833760E-006  0.1132082E+03  0.7561462E-02  0.1254741E+00
         -3   -1    0    0    0  501 -0.00000000000E+00  0.00000000000E+00  0.58481109570E+02  0.58481109570E+02  0.00000000000E+00 0.  1.
          3   -1    0    0  501    0  0.00000000000E+00 -0.00000000000E+00 -0.27618064838E+03  0.27618064838E+03  0.00000000000E+00 0. -1.
         23    2    1    2    0    0  0.21885886116E+02 -0.36681700237E+02 -0.55392836687E+02  0.14331953833E+03  0.12509030565E+03 0.  0.
          5    1    3    3  502    0  0.67853124864E+02 -0.39908254227E+02 -0.56582227603E+02  0.97034716415E+02  0.41800000000E+01 0.  1.
         -5    1    3    3    0  502 -0.45967238747E+02  0.32265539903E+01  0.11893909160E+01  0.46284821912E+02  0.41800000000E+01 0.  1.
        -11    1    1    2    0    0 -0.58072145862E+02  0.25665492057E+02 -0.10004977864E+03  0.11849493581E+03  0.00000000000E+00 0. -1.
         11    1    1    2    0    0  0.36186259745E+02  0.11016208180E+02 -0.62256923487E+02  0.72847283814E+02  0.00000000000E+00 0.  1.
</event>
<event>
 7    1  0.6833760E-006  0.9450913E+02  0.7561462E-02  0.1292285E+00
          1   -1    0    0  501    0  0.00000000000E+00  0.00000000000E+00  0.92412828641E+03  0.92412828641E+03  0.00000000000E+00 0. -1.
         -1   -1    0    0    0  501 -0.00000000000E+00 -0.00000000000E+00 -0.20106610577E+02  0.20106610577E+02  0.00000000000E+00 0.  1.
         23    2    1    2    0    0  0.74792362452E+02  0.59730392981E+01  0.39296442652E+03  0.41916333666E+03  0.12508911866E+03 0.  0.
          5    1    3    3  502    0  0.41318593730E+02  0.15480930195E+02  0.27794407975E+02  0.52315264524E+02  0.41800000000E+01 0. -1.
         -5    1    3    3    0  502  0.33473768721E+02 -0.95078908972E+01  0.36517001855E+03  0.36684807213E+03  0.41800000000E+01 0. -1.
        -11    1    1    2    0    0  0.80861427023E+01 -0.23574014354E+02  0.45603523407E+02  0.51969233241E+02  0.00000000000E+00 0.  1.
         11    1    1    2    0    0 -0.82878505154E+02  0.17600975056E+02  0.46545372590E+03  0.47310232709E+03  0.00000000000E+00 0. -1.
</event>
<event>
 7    1  0.6833760E-006  0.1590299E+03  0.7561462E-02  0.1189796E+00
          2   -1    0    0  501    0  0.00000000000E+00  0.00000000000E+00  0.22196929364E+03  0.22196929364E+03  0.00000000000E+00 0. -1.
         -2   -1    0    0    0  501 -0.00000000000E+00 -0.00000000000E+00 -0.17449299245E+03  0.17449299245E+03  0.00000000000E+00 0.  1.
         23    2    1    2    0    0 -0.12804667898E+02 -0.14522656030E+03 -0.79004864668E+02  0.20078310960E+03  0.11321384688E+03 0.  0.
          5    1    3    3  502    0  0.29048521399E+02 -0.11922283772E+03 -0.21007526596E+02  0.12456600742E+03  0.41800000000E+01 0. -1.
         -5    1    3    3    0  502 -0.41853189297E+02 -0.26003722574E+02 -0.57997338072E+02  0.76217102185E+02  0.41800000000E+01 0.  1.
        -11    1    1    2    0    0  0.25621119511E+01  0.16944061775E+02  0.31051749243E+02  0.35466558589E+02  0.00000000000E+00 0.  1.
         11    1    1    2    0    0  0.10242555947E+02  0.12828249852E+03  0.95429416613E+02  0.16021261790E+03  0.00000000000E+00 0. -1.
</event>
<event>
 7    1  0.6833760E-006  0.1595821E+03  0.7561462E-02  0.1189169E+00
         -1   -1    0    0    0  501 -0.00000000000E+00  0.00000000000E+00  0.11221629211E+03  0.11221629211E+03  0.00000000000E+00 0.  1.
          1   -1    0    0  501    0  0.00000000000E+00 -0.00000000000E+00 -0.32646859077E+03  0.32646859077E+03  0.00000000000E+00 0. -1.
         23    2    1    2    0    0 -0.14484670970E+03  0.63059585513E+02 -0.95648848905E+02  0.22305496485E+03  0.12509090460E+03 0.  0.
          5    1    3    3  502    0 -0.89046433152E+02  0.32448842744E+02 -0.12157225933E+03  0.15420597035E+03  0.41800000000E+01 0. -1.
         -5    1    3    3    0  502 -0.55800276550E+02  0.30610742769E+02  0.25923410429E+02  0.68848994504E+02  0.41800000000E+01 0. -1.
        -11    1    1    2    0    0  0.84336561052E+02 -0.51777845660E+02 -0.11809097621E+03  0.15407491520E+03  0.00000000000E+00 0. -1.
         11    1    1    2    0    0  0.60510148650E+02 -0.11281739853E+02 -0.51247353879E+00  0.61555002826E+02  0.00000000000E+00 0.  1.
</event>
<event>
 7    1  0.6833760E-006  0.1086121E+03  0.7561462E-02  0.1263162E+00
         -2   -1    0    0    0  501 -0.00000000000E+00  0.00000000000E+00  0.16138271070E+03  0.16138271070E+03  0.00000000000E+00 0.  1.
          2   -1    0    0  501    0  0.00000000000E+00 -0.00000000000E+00 -0.15245270709E+03  0.15245270709E+03  0.00000000000E+00 0. -1.
         23    2    1    2    0    0  0.94899742300E+02 -0.37977730283E+02  0.53842477267E+02  0.17027705901E+03  0.12508795058E+03 0.  0.
          5    1    3    3  502    0  0.20317680437E+02 -0.31369463208E+02 -0.36812060500E+02  0.52625578938E+02  0.41800000000E+01 0. -1.
         -5    1    3    3    0  502  0.74582061863E+02 -0.66082670748E+01  0.90654537767E+02  0.11765148007E+03  0.41800000000E+01 0. -1.
        -11    1    1    2    0    0 -0.46460095574E+02  0.30589630781E+02  0.22681219613E+02  0.60072487174E+02  0.00000000000E+00 0.  1.
         11    1    1    2    0    0 -0.48439646726E+02  0.73880995019E+01 -0.67593693262E+02  0.83485871607E+02  0.00000000000E+00 0. -1.
</event>
<event>
 7    1  0.6833760E-006  0.1092707E+03  0.7561462E-02  0.1261926E+00
          2   -1    0    0  501    0  0.00000000000E+00  0.00000000000E+00  0.10239640331E+03  0.10239640331E+03  0.00000000000E+00 0. -1.
         -2   -1    0    0    0  501 -0.00000000000E+00 -0.00000000000E+00 -0.14086038692E+03  0.14086038692E+03  0.00000000000E+00 0.  1.
         23    2    1    2    0    0  0.36409107621E+02 -0.45403685480E+02 -0.26501787159E+02  0.14047713578E+03  0.12507742875E+03 0.  0.
          5    1    3    3  502    0  0.54335356963E+02  0.12591735475E+02 -0.50222119800E+02  0.75170582915E+02  0.41800000000E+01 0. -1.
         -5    1    3    3    0  502 -0.17926249341E+02 -0.57995420955E+02  0.23720332641E+02  0.65306552870E+02  0.41800000000E+01 0. -1.
        -11    1    1    2    0    0 -0.61730074201E+02  0.17670399553E+02 -0.11450535416E+02  0.65222387587E+02  0.00000000000E+00 0.  1.
         11    1    1    2    0    0  0.25320966580E+02  0.27733285927E+02 -0.51166104069E+00  0.37557266859E+02  0.00000000000E+00 0. -1.
</event>
<event>
 7    1  0.6833760E-006  0.6225303E+02  0.7561462E-02  0.1388613E+00
         -3   -1    0    0    0  501 -0.00000000000E+00  0.00000000000E+00  0.20021187698E+03  0.20021187698E+03  0.00000000000E+00 0.  1.
          3   -1    0    0  501    0  0.00000000000E+00 -0.00000000000E+00 -0.73747209343E+02  0.73747209343E+02  0.00000000000E+00 0. -1.
         23    2    1    2    0    0  0.76979035274E+01  0.52062549429E+01  0.12786292670E+03  0.17911536513E+03  0.12508806175E+03 0.  0.
          5    1    3    3  502    0  0.16197951656E+02  0.10163151481E+02 -0.21669601647E+02  0.29201152741E+02  0.41800000000E+01 0. -1.
         -5    1    3    3    0  502 -0.85000481287E+01 -0.49568965379E+01  0.14953252835E+03  0.14991421239E+03  0.41800000000E+01 0. -1.
        -11    1    1    2    0    0 -0.31329205095E+02  0.35391940396E+02 -0.59919078188E+01  0.47644637644E+02  0.00000000000E+00 0.  1.
         11    1    1    2    0    0  0.23631301568E+02 -0.40598195339E+02  0.45936487499E+01  0.47199083545E+02  0.00000000000E+00 0. -1.
</event>
<event>
 7    1  0.6833760E-006  0.1046573E+03  0.7561462E-02  0.1270796E+00
         -4   -1    0    0    0  501 -0.00000000000E+00  0.00000000000E+00  0.24819117741E+03  0.24819117741E+03  0.00000000000E+00 0.  1.
          4   -1    0    0  501    0  0.00000000000E+00 -0.00000000000E+00 -0.56361122283E+02  0.56361122283E+02  0.00000000000E+00 0. -1.
         23    2    1    2    0    0 -0.18654429907E+02 -0.33799078476E+02  0.14239777774E+03  0.19342961848E+03  0.12509006651E+03 0.  0.
          5    1    3    3  502    0 -0.12868708684E+02  0.44060512676E+02  0.25157690632E+02  0.52510134626E+02  0.41800000000E+01 0. -1.
         -5    1    3    3    0  502 -0.57857212229E+01 -0.77859591152E+02  0.11724008711E+03  0.14091948386E+03  0.41800000000E+01 0. -1.
        -11    1    1    2    0    0  0.20073067213E+02 -0.21676692035E+02 -0.86577150575E+01  0.30785760262E+02  0.00000000000E+00 0. -1.
         11    1    1    2    0    0 -0.14186373056E+01  0.55475770511E+02  0.58089992438E+02  0.80336920946E+02  0.00000000000E+00 0.  1.
</event>
<event>
 7    1  0.6833760E-006  0.1561354E+03  0.7561462E-02  0.1193130E+00
         -2   -1    0    0    0  501 -0.00000000000E+00  0.00000000000E+00  0.20471866204E+03  0.20471866204E+03  0.00000000000E+00 0.  1.
          2   -1    0    0  501    0  0.00000000000E+00 -0.00000000000E+00 -0.16737259207E+03  0.16737259207E+03  0.00000000000E+00 0. -1.
         23    2    1    2    0    0  0.78519399087E+02 -0.10127157679E+03  0.97916374727E+02  0.20412540722E+03  0.12513327749E+03 0.  0.
          5    1    3    3  502    0  0.26231461097E+02 -0.11018623500E+03  0.28879115841E+02  0.11696397593E+03  0.41800000000E+01 0. -1.
         -5    1    3    3    0  502  0.52287937989E+02  0.89146582096E+01  0.69037258885E+02  0.87161431290E+02  0.41800000000E+01 0. -1.
        -11    1    1    2    0    0 -0.69905299732E+01  0.65269949969E+02  0.30162670805E+01  0.65712493069E+02  0.00000000000E+00 0. -1.
         11    1    1    2    0    0 -0.71528869113E+02  0.36001626819E+02 -0.63586571833E+02  0.10225335382E+03  0.00000000000E+00 0.  1.
</event>
<event>
 7    1  0.6833760E-006  0.9279525E+02  0.7561462E-02  0.1296220E+00
          1   -1    0    0  501    0  0.00000000000E+00  0.00000000000E+00  0.32504362173E+03  0.32504362173E+03  0.00000000000E+00 0. -1.
         -1   -1    0    0    0  501 -0.00000000000E+00 -0.00000000000E+00 -0.63150832865E+02  0.63150832865E+02  0.00000000000E+00 0.  1.
         23    2    1    2    0    0  0.58015765136E+01  0.79285946773E+02  0.77140418556E+02  0.16710210759E+03  0.12511015362E+03 0.  0.
          5    1    3    3  502    0 -0.10044205002E+01  0.63050396003E+02  0.11155997708E+03  0.12821646611E+03  0.41800000000E+01 0. -1.
         -5    1    3    3    0  502  0.68059970138E+01  0.16235550770E+02 -0.34419558521E+02  0.38885641475E+02  0.41800000000E+01 0. -1.
        -11    1    1    2    0    0  0.30982049074E+02 -0.36346965509E+02  0.30161404029E+02  0.56486277622E+02  0.00000000000E+00 0.  1.
         11    1    1    2    0    0 -0.36783625588E+02 -0.42938981264E+02  0.15459096628E+03  0.16460606938E+03  0.00000000000E+00 0. -1.
</event>
<event>
 6    1  0.6833760E-006  0.1253987E+03  0.7561462E-02  0.1234448E+00
         -2   -1    0    0    0  501 -0.00000000000E+00  0.00000000000E+00  0.84493822376E+02  0.84493822376E+02  0.00000000000E+00 0.  1.
          2   -1    0    0  501    0  0.00000000000E+00 -0.00000000000E+00 -0.48150953199E+03  0.48150953199E+03  0.00000000000E+00 0. -1.
          5    1    1    2  502    0 -0.36076526831E+02 -0.90272048259E+01 -0.31584900588E+02  0.48970241579E+02  0.41800000000E+01 0. -1.
         -5    1    1    2    0  502  0.96328254093E+02 -0.26104262584E+02  0.30293223202E+02  0.10438255043E+03  0.41800000000E+01 0.  1.
        -11    1    1    2    0    0 -0.72408646592E+02  0.54492737914E+02 -0.26828480063E+03  0.28317698501E+03  0.00000000000E+00 0. -1.
         11    1    1    2    0    0  0.12156919330E+02 -0.19361270504E+02 -0.12743923159E+03  0.12947357735E+03  0.00000000000E+00 0.  1.
</event>
<event>
 7    1  0.6833760E-006  0.1409856E+03  0.7561462E-02  0.1212009E+00
         -1   -1    0    0    0  501 -0.00000000000E+00  0.00000000000E+00  0.15478345208E+03  0.15478345208E+03  0.00000000000E+00 0.  1.
          1   -1    0    0  501    0  0.00000000000E+00 -0.00000000000E+00 -0.14820321103E+03  0.14820321103E+03  0.00000000000E+00 0. -1.
         23    2    1    2    0    0 -0.92869665106E+02 -0.53024996800E+02  0.14872329128E+01  0.16457638821E+03  0.12508697259E+03 0.  0.
          5    1    3    3  502    0 -0.91285756427E+02  0.13411673518E+02  0.21918413703E+02  0.94925505383E+02  0.41800000000E+01 0.  1.
         -5    1    3    3    0  502 -0.15839086791E+01 -0.66436670318E+02 -0.20431180790E+02  0.69650882824E+02  0.41800000000E+01 0.  1.
        -11    1    1    2    0    0  0.98818977635E+01  0.37264897483E+02  0.31631428276E+02  0.49868544621E+02  0.00000000000E+00 0.  1.
         11    1    1    2    0    0  0.82987767342E+02  0.15760099317E+02 -0.26538420137E+02  0.88541730288E+02  0.00000000000E+00 0. -1.
</event>
<event>
 7    1  0.6833760E-006  0.1605948E+03  0.7561462E-02  0.1188027E+00
          1   -1    0    0  501    0  0.00000000000E+00  0.00000000000E+00  0.84575992161E+02  0.84575992161E+02  0.00000000000E+00 0. -1.
         -1   -1    0    0    0  501 -0.00000000000E+00 -0.00000000000E+00 -0.40038711706E+03  0.40038711706E+03  0.00000000000E+00 0.  1.
         23    2    1    2    0    0  0.71033123518E+02 -0.11823517255E+03 -0.23700485835E+03  0.30140305206E+03  0.12508891336E+03 0.  0.
          5    1    3    3  502    0  0.84383260685E+02 -0.13629694791E+03 -0.22277594045E+03  0.27448858763E+03  0.41800000000E+01 0.  1.
         -5    1    3    3    0  502 -0.13350137168E+02  0.18061775353E+02 -0.14228917894E+02  0.26914464433E+02  0.41800000000E+01 0.  1.
        -11    1    1    2    0    0 -0.24097029041E+02  0.36646901368E+02  0.19018410196E+02  0.47805461140E+02  0.00000000000E+00 0. -1.
         11    1    1    2    0    0 -0.46936094477E+02  0.81588271186E+02 -0.97824676744E+02  0.13575459602E+03  0.00000000000E+00 0.  1.
</event>
<event>
 7    1  0.6833760E-006  0.8037923E+02  0.7561462E-02  0.1327979E+00
          2   -1    0    0  501    0  0.00000000000E+00  0.00000000000E+00  0.24964027754E+03  0.24964027754E+03  0.00000000000E+00 0.  1.
         -2   -1    0    0    0  501 -0.00000000000E+00 -0.00000000000E+00 -0.60651971865E+02  0.60651971865E+02  0.00000000000E+00 0. -1.
         23    2    1    2    0    0 -0.29629750085E+02  0.25900705272E+01  0.42664280973E+02  0.13547131916E+03  0.12509039487E+03 0.  0.
          5    1    3    3  502    0  0.46657036897E+01  0.30917998984E+02 -0.34223800412E+02  0.46544949960E+02  0.41800000000E+01 0. -1.
         -5    1    3    3    0  502 -0.34295453775E+02 -0.28327928457E+02  0.76888081385E+02  0.88926369202E+02  0.41800000000E+01 0. -1.
        -11    1    1    2    0    0 -0.82695816427E+01  0.32104600840E+02  0.10101295285E+03  0.10631419481E+03  0.00000000000E+00 0.  1.
         11    1    1    2    0    0  0.37899331728E+02 -0.34694671368E+02  0.45311071851E+02  0.68506735428E+02  0.00000000000E+00 0. -1.
</event>
<event>
 7    1  0.6833760E-006  0.9782511E+02  0.7561462E-02  0.1284937E+00
          2   -1    0    0  501    0  0.00000000000E+00  0.00000000000E+00  0.11249082471E+03  0.11249082471E+03  0.00000000000E+00 0. -1.
         -2   -1    0    0    0  501 -0.00000000000E+00 -0.00000000000E+00 -0.15312109644E+03  0.15312109644E+03  0.00000000000E+00 0.  1.
         23    2    1    2    0    0  0.54446913766E+02 -0.11168913009E+01 -0.75978477260E+02  0.15615741562E+03  0.12508675222E+03 0.  0.
          5    1    3    3  502    0 -0.20118894729E+02 -0.62701499519E+00 -0.78782190606E+02  0.81420323198E+02  0.41800000000E+01 0. -1.
         -5    1    3    3    0  502  0.74565808495E+02 -0.48987630576E+00  0.28037133466E+01  0.74737092423E+02  0.41800000000E+01 0. -1.
        -11    1    1    2    0    0 -0.19553202852E+02 -0.41173301472E+02  0.29551091640E+02  0.54321593432E+02  0.00000000000E+00 0. -1.
         11    1    1    2    0    0 -0.34893710914E+02  0.42290192773E+02  0.57971138899E+01  0.55132912090E+02  0.00000000000E+00 0.  1.
</event>
<event>
 7    1  0.6833760E-006  0.1379214E+03  0.7561462E-02  0.1216154E+00
         -1   -1    0    0    0  501 -0.00000000000E+00  0.00000000000E+00  0.21164785529E+03  0.21164785529E+03  0.00000000000E+00 0.  1.
          1   -1    0    0  501    0  0.00000000000E+00 -0.00000000000E+00 -0.23817332031E+03  0.23817332031E+03  0.00000000000E+00 0. -1.
         23    2    1    2    0    0 -0.95855820874E+02  0.64871720439E+02  0.15013345302E+03  0.21996960098E+03  0.11157908913E+03 0.  0.
          5    1    3    3  502    0 -0.32016129249E+02 -0.31050808271E+02  0.51318279915E+02  0.68119185843E+02  0.41800000000E+01 0. -1.
         -5    1    3    3    0  502 -0.63839691625E+02  0.95922528710E+02  0.98815173105E+02  0.15185041513E+03  0.41800000000E+01 0.  1.
        -11    1    1    2    0    0  0.84668059357E+02 -0.56980755455E+02 -0.18676828086E+03  0.21283298030E+03  0.00000000000E+00 0. -1.
         11    1    1    2    0    0  0.11187761517E+02 -0.78909649840E+01  0.10109362820E+02  0.17018594324E+02  0.00000000000E+00 0.  1.
</event>
<event>
 7    1  0.6833760E-006  0.1400273E+03  0.7561462E-02  0.1213292E+00
         -2   -1    0    0    0  501 -0.00000000000E+00  0.00000000000E+00  0.13746054393E+03  0.13746054393E+03  0.00000000000E+00 0.  1.
          2   -1    0    0  501    0  0.00000000000E+00 -0.00000000000E+00 -0.24882166431E+03  0.24882166431E+03  0.00000000000E+00 0. -1.
         23    2    1    2    0    0 -0.19126330951E+02  0.12476494899E+03  0.24805081050E+02  0.17942940113E+03  0.12509000325E+03 0.  0.
          5    1    3    3  502    0 -0.21719865458E+02  0.12930138590E+03 -0.21251009366E+02  0.13288972402E+03  0.41800000000E+01 0. -1.
         -5    1    3    3    0  502  0.25935345079E+01 -0.45364369138E+01  0.46056090416E+02  0.46539677110E+02  0.41800000000E+01 0. -1.
        -11    1    1    2    0    0  0.43551548750E+02 -0.74438525024E+02 -0.38817892704E+02  0.94576213713E+02  0.00000000000E+00 0.  1.
         11    1    1    2    0    0 -0.24425217799E+02 -0.50326423961E+02 -0.97348308722E+02  0.11227659339E+03  0.00000000000E+00 0. -1.
</event>
<event>
 7    1  0.6833760E-006  0.2130316E+03  0.7561462E-02  0.1139188E+00
         -2   -1    0    0    0  501 -0.00000000000E+00  0.00000000000E+00  0.89322300434E+02  0.89322300434E+02  0.00000000000E+00 0.  1.
          2   -1    0    0  501    0  0.00000000000E+00 -0.00000000000E+00 -0.89387258582E+03  0.89387258582E+03  0.00000000000E+00 0. -1.
         23    2    1    2    0    0 -0.16189060786E+03  0.11841446331E+03 -0.12198829855E+03  0.26600333685E+03  0.12508427639E+03 0.  0.
          5    1    3    3  502    0 -0.16572559365E+03  0.11422951211E+03 -0.69406195075E+02  0.21295080686E+03  0.41800000000E+01 0. -1.
         -5    1    3    3    0  502  0.38349857904E+01  0.41849512014E+01 -0.52582103476E+02  0.53052529992E+02  0.41800000000E+01 0. -1.
        -11    1    1    2    0    0  0.15034348737E+03 -0.13185449229E+03 -0.59054069026E+03  0.62347981377E+03  0.00000000000E+00 0.  1.
         11    1    1    2    0    0  0.11547120492E+02  0.13440028978E+02 -0.92021296576E+02  0.93711735626E+02  0.00000000000E+00 0. -1.
</event>
<event>
 7    1  0.6833760E-006  0.1045515E+03  0.7561462E-02  0.1271006E+00
         -1   -1    0    0    0  501 -0.00000000000E+00  0.00000000000E+00  0.88703560133E+02  0.88703560133E+02  0.00000000000E+00 0.  1.
          1   -1    0    0  501    0  0.00000000000E+00 -0.00000000000E+00 -0.14870342735E+03  0.14870342735E+03  0.00000000000E+00 0. -1.
         23    2    1    2    0    0 -0.55414813122E+01  0.48324371483E+01  0.72256323435E+01  0.12551316679E+03  0.12508910749E+03 0.  0.
          5    1    3    3  502    0  0.22494179264E+02  0.59483607811E+02  0.43974019029E+01  0.63883466112E+02  0.41800000000E+01 0. -1.
         -5    1    3    3    0  502 -0.28035660576E+02 -0.54651170663E+02  0.28282304406E+01  0.61629700682E+02  0.41800000000E+01 0. -1.
        -11    1    1    2    0    0  0.44045585685E+02  0.42353810762E+01 -0.15736305219E+02  0.46963638841E+02  0.00000000000E+00 0.  1.
         11    1    1    2    0    0 -0.38504104373E+02 -0.90678182245E+01 -0.51489194345E+02  0.64930181851E+02  0.00000000000E+00 0. -1.
</event>
<event>
 6    1  0.6833760E-006  0.1761593E+03  0.7561462E-02  0.1171573E+00
          1   -1    0    0  501    0  0.00000000000E+00  0.00000000000E+00  0.21479325593E+03  0.21479325593E+03  0.00000000000E+00 0. -1.
         -1   -1    0    0    0  501 -0.00000000000E+00 -0.00000000000E+00 -0.30060973315E+03  0.30060973315E+03  0.00000000000E+00 0.  1.
          5    1    1    2  502    0 -0.89878428574E+02 -0.10228754269E+01  0.17498665145E+02  0.91667081763E+02  0.41800000000E+01 0. -1.
         -5    1    1    2    0  502  0.18291685719E+02  0.10528830096E+03 -0.20899361621E+03  0.23476800485E+03  0.41800000000E+01 0.  1.
        -11    1    1    2    0    0  0.34409160172E+01  0.16429530683E+02  0.19617223527E+02  0.25818691686E+02  0.00000000000E+00 0.  1.
         11    1    1    2    0    0  0.68145826838E+02 -0.12069495621E+03  0.86061250326E+02  0.16314921078E+03  0.00000000000E+00 0. -1.
</event>
<event>
 7    1  0.6833760E-006  0.2367435E+03  0.7561462E-02  0.1121981E+00
         -2   -1    0    0    0  501 -0.00000000000E+00  0.00000000000E+00  0.16669617718E+03  0.16669617718E+03  0.00000000000E+00 0.  1.
          2   -1    0    0  501    0  0.00000000000E+00 -0.00000000000E+00 -0.42361054875E+03  0.42361054875E+03  0.00000000000E+00 0. -1.
         23    2    1    2    0    0  0.17119740618E+03 -0.13102895044E+03 -0.93080458139E+01  0.24942832435E+03  0.12510280387E+03 0.  0.
          5    1    3    3  502    0  0.36720724840E+02  0.17403910665E+02  0.22417808250E+02  0.46597620819E+02  0.41800000000E+01 0. -1.
         -5    1    3    3    0  502  0.13447668134E+03 -0.14843286110E+03 -0.31725854064E+02  0.20283070353E+03  0.41800000000E+01 0. -1.
        -11    1    1    2    0    0 -0.61909860780E+02  0.10184402675E+03 -0.10486549261E+03  0.15875077381E+03  0.00000000000E+00 0. -1.
         11    1    1    2    0    0 -0.10928754540E+03  0.29184923691E+02 -0.14274083315E+03  0.18212762777E+03  0.00000000000E+00 0.  1.
</event>
<event>
 7    1  0.6833760E-006  0.1206541E+03  0.7561462E-02  0.1242022E+00
          3   -1    0    0  501    0  0.00000000000E+00  0.00000000000E+00  0.27120838821E+03  0.27120838821E+03  0.00000000000E+00 0. -1.
         -3   -1    0    0    0  501 -0.00000000000E+00 -0.00000000000E+00 -0.87953358120E+02  0.87953358120E+02  0.00000000000E+00 0.  1.
         23    2    1    2    0    0 -0.43311362794E+02 -0.93437634050E+02  0.55732038417E+02  0.17134714176E+03  0.12508923727E+03 0.  0.
          5    1    3    3  502    0 -0.40722727714E+02 -0.72944181575E+02  0.95125246798E+02  0.12667075099E+03  0.41800000000E+01 0.  1.
         -5    1    3    3    0  502 -0.25886350800E+01 -0.20493452475E+02 -0.39393208381E+02  0.44676390773E+02  0.41800000000E+01 0.  1.
        -11    1    1    2    0    0 -0.89798451185E+01  0.82723593859E+02  0.89975700643E+02  0.12255389551E+03  0.00000000000E+00 0. -1.
         11    1    1    2    0    0  0.52291207913E+02  0.10714040190E+02  0.37547291028E+02  0.65260709050E+02  0.00000000000E+00 0.  1.
</event>
<event>
 6    1  0.6833760E-006  0.1456919E+03  0.7561462E-02  0.1205869E+00
          1   -1    0    0  501    0  0.00000000000E+00  0.00000000000E+00  0.97110228829E+03  0.97110228829E+03  0.00000000000E+00 0. -1.
         -1   -1    0    0    0  501 -0.00000000000E+00 -0.00000000000E+00 -0.23217844245E+02  0.23217844245E+02  0.00000000000E+00 0.  1.
          5    1    1    2  502    0  0.62637149619E+02 -0.86650481085E+02  0.30113050791E+03  0.31957592772E+03  0.41800000000E+01 0. -1.
         -5    1    1    2    0  502 -0.65479172373E+02  0.15660528313E+02  0.15263751406E+03  0.16687857041E+03  0.41800000000E+01 0.  1.
        -11    1    1    2    0    0 -0.35251813586E+02  0.70509336748E+02  0.31173704689E+03  0.32154975251E+03  0.00000000000E+00 0.  1.
         11    1    1    2    0    0  0.38093836340E+02  0.48061602282E+00  0.18237937517E+03  0.18631588190E+03  0.00000000000E+00 0. -1.
</event>
<event>
 7    1  0.6833760E-006  0.1263995E+03  0.7561462E-02  0.1232898E+00
         -2   -1    0    0    0  501 -0.00000000000E+00  0.00000000000E+00  0.48180249540E+02  0.48180249540E+02  0.00000000000E+00 0.  1.
          2   -1    0    0  501    0  0.00000000000E+00 -0.00000000000E+00 -0.49991780570E+03  0.49991780570E+03  0.00000000000E+00 0. -1.
         23    2    1    2    0    0 -0.10665246047E+03  0.39593185806E+02 -0.26428380644E+03  0.31374516360E+03  0.12509088555E+03 0.  0.
          5    1    3    3  502    0 -0.29360499690E+02  0.54840630656E+01 -0.21236400069E+03  0.21449488358E+03  0.41800000000E+01 0.  1.
         -5    1    3    3    0  502 -0.77291960782E+02  0.34109122741E+02 -0.51919805747E+02  0.99250280022E+02  0.41800000000E+01 0.  1.
        -11    1    1    2    0    0  0.45678001600E+02 -0.58493900055E+02 -0.78162980612E+02  0.10778435746E+03  0.00000000000E+00 0.  1.
         11    1    1    2    0    0  0.60974458873E+02  0.18900714249E+02 -0.10929076910E+03  0.12656853418E+03  0.00000000000E+00 0. -1.
</event>
<event>
 7    1  0.6833760E-006  0.8793319E+02  0.7561462E-02  0.1307935E+00
         -2   -1    0    0    0  501 -0.00000000000E+00  0.00000000000E+00  0.28855648083E+02  0.28855648083E+02  0.00000000000E+00 0.  1.
          2   -1    0    0  501    0  0.00000000000E+00 -0.00000000000E+00 -0.52556746929E+03  0.52556746929E+03  0.00000000000E+00 0. -1.
         23    2    1    2    0    0  0.29888974982E+02  0.42071041094E+02 -0.22042139501E+03  0.25864280097E+03  0.12508870370E+03 0.  0.
          5    1    3    3  502    0 -0.11897914999E+02  0.12446259212E+00 -0.19273512544E+03  0.19314729315E+03  0.41800000000E+01 0. -1.
         -5    1    3    3    0  502  0.41786889982E+02  0.41946578502E+02 -0.27686269566E+02  0.65495507822E+02  0.41800000000E+01 0. -1.
        -11    1    1    2    0    0  0.32370759867E+02 -0.10097390634E+02 -0.66910719727E+02  0.75012451009E+02  0.00000000000E+00 0.  1.
         11    1    1    2    0    0 -0.62259734849E+02 -0.31973650460E+02 -0.20937970647E+03  0.22076786539E+03  0.00000000000E+00 0. -1.
</event>
<event>
 7    1  0.6833760E-006  0.9604611E+02  0.7561462E-02  0.1288837E+00
          4   -1    0    0  501    0  0.00000000000E+00  0.00000000000E+00  0.28536209943E+03  0.28536209943E+03  0.00000000000E+00 0. -1.
         -4   -1    0    0    0  501 -0.00000000000E+00 -0.00000000000E+00 -0.56009607861E+02  0.56009607861E+02  0.00000000000E+00 0.  1.
         23    2    1    2    0    0 -0.12123871572E+01  0.48759001154E+02  0.69899131076E+02  0.15139551040E+03  0.12512314721E+03 0.  0.
          5    1    3    3  502    0 -0.61314487862E+02  0.19679163333E+02  0.49895400413E+02  0.81570578480E+02  0.41800000000E+01 0.  1.
         -5    1    3    3    0  502  0.60102100705E+02  0.29079837821E+02  0.20003730663E+02  0.69824931917E+02  0.41800000000E+01 0.  1.
        -11    1    1    2    0    0 -0.17323236609E+02 -0.27002324713E+02  0.15814305314E+03  0.16136432482E+03  0.00000000000E+00 0. -1.
         11    1    1    2    0    0  0.18535623766E+02 -0.21756676442E+02  0.13103073481E+01  0.28611872073E+02  0.00000000000E+00 0.  1.
</event>
<event>
 7    1  0.6833760E-006  0.8818438E+02  0.7561462E-02  0.1307309E+00
         -1   -1    0    0    0  501 -0.00000000000E+00  0.00000000000E+00  0.60177884067E+02  0.60177884067E+02  0.00000000000E+00 0.  1.
          1   -1    0    0  501    0  0.00000000000E+00 -0.00000000000E+00 -0.22459793011E+03  0.22459793011E+03  0.00000000000E+00 0. -1.
         23    2    1    2    0    0 -0.37761770386E+02  0.20402592130E+02 -0.89937455314E+02  0.15993126134E+03  0.12508815059E+03 0.  0.
          5    1    3    3  502    0  0.68123908761E+01  0.67081184453E+02 -0.47089934504E+02  0.82348213756E+02  0.41800000000E+01 0.  1.
         -5    1    3    3    0  502 -0.44574161263E+02 -0.46678592323E+02 -0.42847520809E+02  0.77583047588E+02  0.41800000000E+01 0.  1.
        -11    1    1    2    0    0  0.18403612718E+02 -0.15756836957E+02 -0.93936054594E+02  0.97010067646E+02  0.00000000000E+00 0. -1.
         11    1    1    2    0    0  0.19358157669E+02 -0.46457551731E+01  0.19453463863E+02  0.27834485189E+02  0.00000000000E+00 0.  1.
</event>
<event>
 7    1  0.6833760E-006  0.9544661E+02  0.7561462E-02  0.1290173E+00
          2   -1    0    0  501    0  0.00000000000E+00  0.00000000000E+00  0.32314180233E+03  0.32314180233E+03  0.00000000000E+00 0. -1.
         -2   -1    0    0    0  501 -0.00000000000E+00 -0.00000000000E+00 -0.45447453664E+02  0.45447453664E+02  0.00000000000E+00 0.  1.
         23    2    1    2    0    0 -0.45572152337E+02 -0.43457959840E+00  0.11461340160E+03  0.17566957915E+03  0.12508620741E+03 0.  0.
          5    1    3    3  502    0  0.20265030173E+02 -0.65833692167E+01  0.10676500001E+03  0.10895067612E+03  0.41800000000E+01 0.  1.
         -5    1    3    3    0  502 -0.65837182510E+02  0.61487896183E+01  0.78484015876E+01  0.66718903034E+02  0.41800000000E+01 0.  1.
        -11    1    1    2    0    0  0.26001589715E+02 -0.45828870809E+02  0.88546444656E+02  0.10303805573E+03  0.00000000000E+00 0.  1.
         11    1    1    2    0    0  0.19570562622E+02  0.46263450407E+02  0.74534502409E+02  0.89881621115E+02  0.00000000000E+00 0. -1.
</event>
<event>
 7    1  0.6833760E-006  0.1469830E+03  0.7561462E-02  0.1204230E+00
          1   -1    0    0  501    0  0.00000000000E+00  0.00000000000E+00  0.11362526420E+03  0.11362526420E+03  0.00000000000E+00 0. -1.
         -1   -1    0    0    0  501 -0.00000000000E+00 -0.00000000000E+00 -0.33912402755E+03  0.33912402755E+03  0.00000000000E+00 0.  1.
         23    2    1    2    0    0  0.92556624624E+02  0.37822391578E+02 -0.26699620929E+03  0.30991678089E+03  0.12150791428E+03 0.  0.
          5    1    3    3  502    0 -0.28026270614E+01 -0.36209997774E+02 -0.62931859320E+02  0.72779873418E+02  0.41800000000E+01 0. -1.
         -5    1    3    3    0  502  0.95359251685E+02  0.74032389353E+02 -0.20406434997E+03  0.23713690747E+03  0.41800000000E+01 0.  1.
        -11    1    1    2    0    0 -0.37922013473E+02  0.30830173678E+02  0.12831338070E+02  0.50529416695E+02  0.00000000000E+00 0.  1.
         11    1    1    2    0    0 -0.54634611150E+02 -0.68652565256E+02  0.28666107868E+02  0.92303094163E+02  0.00000000000E+00 0. -1.
</event>
<event>
 7    1  0.6833760E-006  0.1391821E+03  0.7561462E-02  0.1214434E+00
         -1   -1    0    0    0  501 -0.00000000000E+00  0.00000000000E+00  0.14825266411E+03  0.14825266411E+03  0.00000000000E+00 0.  1.
          1   -1    0    0  501    0  0.00000000000E+00 -0.00000000000E+00 -0.17020545920E+03  0.17020545920E+03  0.00000000000E+00 0. -1.
         23    2    1    2    0    0  0.69744025640E+02 -0.73895638235E+02  0.44698442650E+02  0.16724293118E+03  0.12508977893E+03 0.  0.
          5    1    3    3  502    0  0.10157375019E+03 -0.77197441129E+02  0.43813648864E+02  0.13495843757E+03  0.41800000000E+01 0. -1.
         -5    1    3    3    0  502 -0.31829724554E+02  0.33018028933E+01  0.88479378608E+00  0.32284493609E+02  0.41800000000E+01 0. -1.
        -11    1    1    2    0    0 -0.60632077657E+01  0.50094194405E+02 -0.66189607013E+02  0.83230132032E+02  0.00000000000E+00 0. -1.
         11    1    1    2    0    0 -0.63680817874E+02  0.23801443830E+02 -0.46163072447E+00  0.67985060097E+02  0.00000000000E+00 0.  1.
</event>
<event>
 7    1  0.6833760E-006  0.1424854E+03  0.7561462E-02  0.1210023E+00
          1   -1    0    0  501    0  0.00000000000E+00  0.00000000000E+00  0.63417091145E+03  0.63417091145E+03  0.00000000000E+00 0. -1.
         -1   -1    0    0    0  501 -0.00000000000E+00 -0.00000000000E+00 -0.48374681511E+02  0.48374681511E+02  0.00000000000E+00 0.  1.
         23    2    1    2    0    0  0.99594804293E+02 -0.94242382045E+02  0.35523181412E+03  0.40079711454E+03  0.12509170094E+03 0.  0.
          5    1    3    3  502    0  0.19739309891E+02 -0.77981842098E+01  0.22172355346E+03  0.22277625231E+03  0.41800000000E+01 0.  1.
         -5    1    3    3    0  502  0.79855494402E+02 -0.86444197835E+02  0.13350826066E+03  0.17802086223E+03  0.41800000000E+01 0.  1.
        -11    1    1    2    0    0 -0.65808353796E+01  0.34299483800E+02  0.12134013820E+03  0.12626634992E+03  0.00000000000E+00 0. -1.
         11    1    1    2    0    0 -0.93013968913E+02  0.59942898245E+02  0.10922427761E+03  0.15548212850E+03  0.00000000000E+00 0.  1.
</event>
<event>
 7    1  0.6833760E-006  0.2055089E+03  0.7561462E-02  0.1145173E+00
         -1   -1    0    0    0  501 -0.00000000000E+00  0.00000000000E+00  0.28605770214E+03  0.28605770214E+03  0.00000000000E+00 0.  1.
          1   -1    0    0  501    0  0.00000000000E+00 -0.00000000000E+00 -0.20997451140E+03  0.20997451140E+03  0.00000000000E+00 0. -1.
         23    2    1    2    0    0 -0.53652562776E+02  0.15952344347E+03  0.94439128037E+02  0.22998760579E+03  0.12509685609E+03 0.  0.
          5    1    3    3  502    0 -0.33973318136E+02  0.23754854595E+01  0.58049320694E+02  0.67431634337E+02  0.41800000000E+01 0.  1.
         -5    1    3    3    0  502 -0.19679244639E+02  0.15714795801E+03  0.36389807343E+02  0.16255597145E+03  0.41800000000E+01 0.  1.
        -11    1    1    2    0    0  0.10240129661E+01 -0.16532490361E+03  0.56183763376E+02  0.17461382426E+03  0.00000000000E+00 0.  1.
         11    1    1    2    0    0  0.52628549810E+02  0.58014601393E+01 -0.74539700671E+02  0.91430783498E+02  0.00000000000E+00 0. -1.
</event>
<event>
 7    1  0.6833760E-006  0.1071075E+03  0.7561462E-02  0.1266022E+00
         -2   -1    0    0    0  501 -0.00000000000E+00  0.00000000000E+00  0.51877018972E+03  0.51877018972E+03  0.00000000000E+00 0.  1.
          2   -1    0    0  501    0  0.00000000000E+00 -0.00000000000E+00 -0.44240050207E+02  0.44240050207E+02  0.00000000000E+00 0. -1.
         23    2    1    2    0    0  0.91618724349E+01 -0.43532460694E+02  0.43494335510E+03  0.45408443241E+03  0.12262925657E+03 0.  0.
          5    1    3    3  502    0  0.39881395270E+02 -0.64335430689E+02  0.38107655964E+03  0.38854393579E+03  0.41800000000E+01 0. -1.
         -5    1    3    3    0  502 -0.30719522835E+02  0.20802969995E+02  0.53866795460E+02  0.65540496618E+02  0.41800000000E+01 0.  1.
        -11    1    1    2    0    0 -0.46230158414E+00  0.71643021342E+02  0.32427527488E+02  0.78641469778E+02  0.00000000000E+00 0.  1.
         11    1    1    2    0    0 -0.86995708508E+01 -0.28110560648E+02  0.71592569268E+01  0.30284337745E+02  0.00000000000E+00 0. -1.
</event>
<event>
 7    1  0.6833760E-006  0.1182625E+03  0.7561462E-02  0.1245991E+00
         -1   -1    0    0    0  501 -0.00000000000E+00  0.00000000000E+00  0.96521206675E+02  0.96521206675E+02  0.00000000000E+00 0.  1.
          1   -1    0    0  501    0  0.00000000000E+00 -0.00000000000E+00 -0.22174145945E+03  0.22174145945E+03  0.00000000000E+00 0. -1.
         23    2    1    2    0    0  0.87750311513E+02  0.33738556351E+02 -0.40046973988E+02  0.16152143710E+03  0.12508799768E+03 0.  0.
          5    1    3    3  502    0  0.75757661206E+02  0.53335423044E+02  0.21921339520E+02  0.95299045688E+02  0.41800000000E+01 0. -1.
         -5    1    3    3    0  502  0.11992650307E+02 -0.19596866693E+02 -0.61968313508E+02  0.66222391414E+02  0.41800000000E+01 0. -1.
        -11    1    1    2    0    0 -0.88032885974E+02 -0.51948051626E+02 -0.43169701627E+02  0.11095950712E+03  0.00000000000E+00 0.  1.
         11    1    1    2    0    0  0.28257446081E+00  0.18209495275E+02 -0.42003577158E+02  0.45781721905E+02  0.00000000000E+00 0. -1.
</event>
<event>
 6    1  0.6833760E-006  0.1891649E+03  0.7561462E-02  0.1159217E+00
          1   -1    0    0  501    0  0.00000000000E+00  0.00000000000E+00  0.25513851471E+03  0.25513851471E+03  0.00000000000E+00 0. -1.
         -1   -1    0    0    0  501 -0.00000000000E+00 -0.00000000000E+00 -0.35105108531E+03  0.35105108531E+03  0.00000000000E+00 0.  1.
          5    1    1    2  502    0  0.64759279967E+01  0.60682442164E+02  0.29494650742E+01  0.61241066080E+02  0.41800000000E+01 0. -1.
         -5    1    1    2    0  502 -0.12962378221E+03  0.38265779468E+02 -0.26544872352E+03  0.29790450150E+03  0.41800000000E+01 0.  1.
        -11    1    1    2    0    0  0.63009885719E+02 -0.10399220371E+03  0.11966790231E+03  0.17060196650E+03  0.00000000000E+00 0. -1.
         11    1    1    2    0    0  0.60137968493E+02  0.50439820818E+01  0.46918785537E+02  0.76442065946E+02  0.00000000000E+00 0.  1.
</event>
<event>
 7    1  0.6833760E-006  0.1414160E+03  0.7561462E-02  0.1211436E+00
          1   -1    0    0  501    0  0.00000000000E+00  0.00000000000E+00  0.12612989598E+03  0.12612989598E+03  0.00000000000E+00 0. -1.
         -1   -1    0    0    0  501 -0.00000000000E+00 -0.00000000000E+00 -0.22100627383E+03  0.22100627383E+03  0.00000000000E+00 0.  1.
         23    2    1    2    0    0 -0.35666499986E+02  0.10331641930E+03 -0.11790681073E+03  0.20370452058E+03  0.12508850455E+03 0.  0.
          5    1    3    3  502    0 -0.38381316512E+02  0.12729460879E+03 -0.11996695311E+03  0.17912728748E+03  0.41800000000E+01 0.  1.
         -5    1    3    3    0  502  0.27148165258E+01 -0.23978189487E+02  0.20601423827E+01  0.24577233092E+02  0.41800000000E+01 0.  1.
        -11    1    1    2    0    0  0.43893576228E+01 -0.91930664548E+02 -0.14607224920E+02  0.93187362687E+02  0.00000000000E+00 0.  1.
         11    1    1    2    0    0  0.31277142363E+02 -0.11385754751E+02  0.37637657795E+02  0.50244286540E+02  0.00000000000E+00 0. -1.
</event>
<event>
 7    1  0.6833760E-006  0.1523367E+03  0.7561462E-02  0.1197631E+00
         -2   -1    0    0    0  501 -0.00000000000E+00  0.00000000000E+00  0.55051002776E+02  0.55051002776E+02  0.00000000000E+00 0. -1.
          2   -1    0    0  501    0  0.00000000000E+00 -0.00000000000E+00 -0.52565450629E+03  0.52565450629E+03  0.00000000000E+00 0.  1.
         23    2    1    2    0    0 -0.73510460674E+02  0.10526678408E+03 -0.20837184049E+03  0.27486535116E+03  0.12508898313E+03 0.  0.
          5    1    3    3  502    0 -0.19854341673E+02 -0.11698487874E+02 -0.11098578792E+03  0.11343000935E+03  0.41800000000E+01 0. -1.
         -5    1    3    3    0  502 -0.53656119001E+02  0.11696527195E+03 -0.97386052575E+02  0.16143534181E+03  0.41800000000E+01 0. -1.
        -11    1    1    2    0    0  0.32385654519E+01 -0.76498901054E+02 -0.16946423065E+03  0.18595885470E+03  0.00000000000E+00 0.  1.
         11    1    1    2    0    0  0.70271895222E+02 -0.28767883021E+02 -0.92767432366E+02  0.11988130321E+03  0.00000000000E+00 0. -1.
</event>
<event>
 7    1  0.6833760E-006  0.1241124E+03  0.7561462E-02  0.1236463E+00
         -2   -1    0    0    0  501 -0.00000000000E+00  0.00000000000E+00  0.15662695484E+03  0.15662695484E+03  0.00000000000E+00 0.  1.
          2   -1    0    0  501    0  0.00000000000E+00 -0.00000000000E+00 -0.14192903837E+03  0.14192903837E+03  0.00000000000E+00 0. -1.
         23    2    1    2    0    0 -0.31838354917E+02  0.96180414948E+02  0.23333116749E+02  0.16265518556E+03  0.12509165435E+03 0.  0.
          5    1    3    3  502    0 -0.44882924770E+02  0.59560865107E+02  0.69589481328E+02  0.10208889215E+03  0.41800000000E+01 0. -1.
         -5    1    3    3    0  502  0.13044569853E+02  0.36619549841E+02 -0.46256364579E+02  0.60566293409E+02  0.41800000000E+01 0. -1.
        -11    1    1    2    0    0 -0.15690057006E+02 -0.83883271304E+02  0.32105686852E+01  0.85398412425E+02  0.00000000000E+00 0.  1.
         11    1    1    2    0    0  0.47528411923E+02 -0.12297143645E+02 -0.11845768966E+02  0.50502395232E+02  0.00000000000E+00 0. -1.
</event>
<event>
 6    1  0.6833760E-006  0.2418705E+03  0.7561462E-02  0.1118553E+00
         -1   -1    0    0    0  501 -0.00000000000E+00  0.00000000000E+00  0.30542945277E+03  0.30542945277E+03  0.00000000000E+00 0.  1.
          1   -1    0    0  501    0  0.00000000000E+00 -0.00000000000E+00 -0.35330568968E+03  0.35330568968E+03  0.00000000000E+00 0. -1.
          5    1    1    2  502    0  0.47148165559E+02  0.69873136793E+02  0.16847468197E+03  0.18843140828E+03  0.41800000000E+01 0. -1.
         -5    1    1    2    0  502  0.63229190591E+02  0.13483293232E+03 -0.16496008516E+02  0.14989143030E+03  0.41800000000E+01 0.  1.
        -11    1    1    2    0    0 -0.12726083129E+03 -0.18067925193E+03 -0.17896629128E+03  0.28437518294E+03  0.00000000000E+00 0. -1.
         11    1    1    2    0    0  0.16883475143E+02 -0.24026817192E+02 -0.20888619095E+02  0.36037120931E+02  0.00000000000E+00 0.  1.
</event>
<event>
 7    1  0.6833760E-006  0.9780122E+02  0.7561462E-02  0.1284989E+00
         -1   -1    0    0    0  501 -0.00000000000E+00  0.00000000000E+00  0.36513670116E+03  0.36513670116E+03  0.00000000000E+00 0.  1.
          1   -1    0    0  501    0  0.00000000000E+00 -0.00000000000E+00 -0.45753094117E+02  0.45753094117E+02  0.00000000000E+00 0. -1.
         23    2    1    2    0    0  0.27785176903E+02 -0.32372038439E+02  0.26357161313E+03  0.29480299073E+03  0.12497537025E+03 0.  0.
          5    1    3    3  502    0 -0.26328101918E+02 -0.32470858524E+02  0.22330455397E+03  0.22722218603E+03  0.41800000000E+01 0. -1.
         -5    1    3    3    0  502  0.54113278821E+02  0.98820085464E-01  0.40267059165E+02  0.67580804701E+02  0.41800000000E+01 0. -1.
        -11    1    1    2    0    0 -0.14538474032E+02 -0.31177437417E+02  0.31877386924E+02  0.46899548273E+02  0.00000000000E+00 0.  1.
         11    1    1    2    0    0 -0.13246702871E+02  0.63549475856E+02  0.23934606989E+02  0.69187256271E+02  0.00000000000E+00 0. -1.
</event>
<event>
 7    1  0.6833760E-006  0.8982422E+02  0.7561462E-02  0.1303278E+00
          2   -1    0    0  501    0  0.00000000000E+00  0.00000000000E+00  0.71795634505E+02  0.71795634505E+02  0.00000000000E+00 0. -1.
         -2   -1    0    0    0  501 -0.00000000000E+00 -0.00000000000E+00 -0.20219772543E+03  0.20219772543E+03  0.00000000000E+00 0.  1.
         23    2    1    2    0    0  0.27636661484E+02 -0.46648104082E+00 -0.13188622738E+03  0.17812689979E+03  0.11649554839E+03 0.  0.
          5    1    3    3  502    0  0.32407134990E+02 -0.49595853315E+02 -0.34040100112E+02  0.68455619783E+02  0.41800000000E+01 0. -1.
         -5    1    3    3    0  502 -0.47704735060E+01  0.49129372274E+02 -0.97846127265E+02  0.10967128001E+03  0.41800000000E+01 0.  1.
        -11    1    1    2    0    0 -0.21537629581E+02 -0.31509298563E+02  0.33075939478E+02  0.50504684498E+02  0.00000000000E+00 0. -1.
         11    1    1    2    0    0 -0.60990319026E+01  0.31975779604E+02 -0.31591803029E+02  0.45361775649E+02  0.00000000000E+00 0.  1.
</event>
<event>
 7    1  0.6833760E-006  0.1168001E+03  0.7561462E-02  0.1248471E+00
          1   -1    0    0  501    0  0.00000000000E+00  0.00000000000E+00  0.35884175466E+03  0.35884175466E+03  0.00000000000E+00 0. -1.
         -1   -1    0    0    0  501 -0.00000000000E+00 -0.00000000000E+00 -0.44738615329E+02  0.44738615329E+02  0.00000000000E+00 0.  1.
         23    2    1    2    0    0  0.51161561624E+02 -0.34646413567E+01  0.11125237168E+03  0.17508131256E+03  0.12508743613E+03 0.  0.
          5    1    3    3  502    0  0.15706620787E+01  0.55227878309E+02  0.29355495524E+02  0.62704091089E+02  0.41800000000E+01 0. -1.
         -5    1    3    3    0  502  0.49590899545E+02 -0.58692519666E+02  0.81896876156E+02  0.11237722148E+03  0.41800000000E+01 0. -1.
        -11    1    1    2    0    0  0.24977196692E+02  0.24263977222E+01  0.81133393644E+02  0.84925704735E+02  0.00000000000E+00 0. -1.
         11    1    1    2    0    0 -0.76138758316E+02  0.10382436346E+01  0.12171737401E+03  0.14357335269E+03  0.00000000000E+00 0.  1.
</event>
<event>
 7    1  0.6833760E-006  0.1081450E+03  0.7561462E-02  0.1264044E+00
          1   -1    0    0  501    0  0.00000000000E+00  0.00000000000E+00  0.34546766728E+03  0.34546766728E+03  0.00000000000E+00 0. -1.
         -1   -1    0    0    0  501 -0.00000000000E+00 -0.00000000000E+00 -0.46223978344E+02  0.46223978344E+02  0.00000000000E+00 0.  1.
         23    2    1    2    0    0  0.89444250442E+00  0.25187103142E+02  0.75235643045E+02  0.14809755912E+03  0.12504916970E+03 0.  0.
          5    1    3    3  502    0  0.41874654278E+02 -0.30168238363E+02  0.56417846017E+02  0.76577118162E+02  0.41800000000E+01 0. -1.
         -5    1    3    3    0  502 -0.40980211773E+02  0.55355341506E+02  0.18817797027E+02  0.71520440960E+02  0.41800000000E+01 0. -1.
        -11    1    1    2    0    0  0.41578430050E+02 -0.32036019336E+02  0.13068763336E+03  0.14083440593E+03  0.00000000000E+00 0. -1.
         11    1    1    2    0    0 -0.42472872554E+02  0.68489161936E+01  0.93320412529E+02  0.10275968057E+03  0.00000000000E+00 0.  1.
</event>
<event>
 7    1  0.6833760E-006  0.1039897E+03  0.7561462E-02  0.1272123E+00
          1   -1    0    0  501    0  0.00000000000E+00  0.00000000000E+00  0.73681694746E+02  0.73681694746E+02  0.00000000000E+00 0. -1.
         -1   -1    0    0    0  501 -0.00000000000E+00 -0.00000000000E+00 -0.20690820065E+03  0.20690820065E+03  0.00000000000E+00 0.  1.
         23    2    1    2    0    0 -0.40447554127E+02  0.36067153321E+02 -0.10749780106E+03  0.17361189715E+03  0.12509384243E+03 0.  0.
          5    1    3    3  502    0 -0.52574607482E+02 -0.29237376309E+02 -0.83216212212E+02  0.10276830202E+03  0.41800000000E+01 0.  1.
         -5    1    3    3    0  502  0.12127053355E+02  0.65304529630E+02 -0.24281588846E+02  0.70843595124E+02  0.41800000000E+01 0.  1.
        -11    1    1    2    0    0  0.13251474188E+01 -0.41592777159E+02  0.20313295701E+02  0.46307074078E+02  0.00000000000E+00 0. -1.
         11    1    1    2    0    0  0.39122406709E+02  0.55256238381E+01 -0.46042000549E+02  0.60670924173E+02  0.00000000000E+00 0.  1.
</event>
<event>
 7    1  0.7216876E-006  0.1753722E+03  0.7561462E-02  0.1172359E+00
          3   -1    0    0  501    0  0.00000000000E+00  0.00000000000E+00  0.12055580553E+04  0.12055580553E+04  0.00000000000E+00 0. -1.
         -3   -1    0    0    0  501 -0.00000000000E+00 -0.00000000000E+00 -0.32229776743E+02  0.32229776743E+02  0.00000000000E+00 0.  1.
         23    2    1    2    0    0  0.59181466586E+01  0.16267056965E+03  0.53828834486E+03  0.57610651697E+03  0.12509051922E+03 0.  0.
          5    1    3    3  502    0 -0.22491241233E+02  0.10232625705E+03  0.15562527349E+03  0.18765185042E+03  0.41800000000E+01 0.  1.
         -5    1    3    3    0  502  0.28409387892E+02  0.60344312597E+02  0.38266307136E+03  0.38845466656E+03  0.41800000000E+01 0.  1.
        -11    1    1    2    0    0 -0.31841976146E+02 -0.29543962903E+02  0.88783948981E+02  0.98840005998E+02  0.00000000000E+00 0. -1.
         11    1    1    2    0    0  0.25923829488E+02 -0.13312660675E+03  0.54625598476E+03  0.56284130911E+03  0.00000000000E+00 0.  1.
</event>
<event>
 7    1  0.6833760E-006  0.1278215E+03  0.7561462E-02  0.1230724E+00
         -1   -1    0    0    0  501 -0.00000000000E+00  0.00000000000E+00  0.80859439338E+03  0.80859439338E+03  0.00000000000E+00 0.  1.
          1   -1    0    0  501    0  0.00000000000E+00 -0.00000000000E+00 -0.31359400723E+02  0.31359400723E+02  0.00000000000E+00 0. -1.
         23    2    1    2    0    0  0.59698105557E+02 -0.82979921771E+02  0.57573449781E+03  0.59621310098E+03  0.11640583574E+03 0.  0.
          5    1    3    3  502    0  0.87850406302E+02 -0.30331877685E+02  0.30165364410E+03  0.31567405673E+03  0.41800000000E+01 0. -1.
         -5    1    3    3    0  502 -0.28152300745E+02 -0.52648044087E+02  0.27408085370E+03  0.28053904425E+03  0.41800000000E+01 0.  1.
        -11    1    1    2    0    0 -0.40871549558E+02  0.48055862796E+02  0.34119281812E+02  0.71721509352E+02  0.00000000000E+00 0. -1.
         11    1    1    2    0    0 -0.18826555998E+02  0.34924058976E+02  0.16738121304E+03  0.17201918377E+03  0.00000000000E+00 0.  1.
</event>
<event>
 7    1  0.6833760E-006  0.8440084E+02  0.7561462E-02  0.1317007E+00
          1   -1    0    0  501    0  0.00000000000E+00  0.00000000000E+00  0.49260321023E+03  0.49260321023E+03  0.00000000000E+00 0. -1.
         -1   -1    0    0    0  501 -0.00000000000E+00 -0.00000000000E+00 -0.19447150294E+02  0.19447150294E+02  0.00000000000E+00 0.  1.
         23    2    1    2    0    0 -0.16222185849E+02  0.31947214777E+02  0.30784671200E+03  0.33421577563E+03  0.12508718057E+03 0.  0.
          5    1    3    3  502    0 -0.46787810639E+02 -0.32407484750E+02  0.11060729538E+03  0.12446200418E+03  0.41800000000E+01 0.  1.
         -5    1    3    3    0  502  0.30565624790E+02  0.64354699527E+02  0.19723941662E+03  0.20975377145E+03  0.41800000000E+01 0.  1.
        -11    1    1    2    0    0  0.19829564708E+02 -0.21194741305E+02  0.16384852832E+03  0.16639942587E+03  0.00000000000E+00 0. -1.
         11    1    1    2    0    0 -0.36073788592E+01 -0.10752473472E+02  0.14608196102E+01  0.11435159025E+02  0.00000000000E+00 0.  1.
</event>
<event>
 7    1  0.6833760E-006  0.1059377E+03  0.7561462E-02  0.1268283E+00
         -1   -1    0    0    0  501 -0.00000000000E+00  0.00000000000E+00  0.32868265232E+02  0.32868265232E+02  0.00000000000E+00 0.  1.
          1   -1    0    0  501    0  0.00000000000E+00 -0.00000000000E+00 -0.38435617512E+03  0.38435617512E+03  0.00000000000E+00 0. -1.
         23    2    1    2    0    0 -0.35060536975E+02 -0.33849716903E+02 -0.18852416157E+03  0.23144354461E+03  0.12509880198E+03 0.  0.
          5    1    3    3  502    0  0.45891623681E+02 -0.76284795858E+00 -0.54753743736E+02  0.71568623811E+02  0.41800000000E+01 0. -1.
         -5    1    3    3    0  502 -0.80952160656E+02 -0.33086868944E+02 -0.13377041784E+03  0.15987492080E+03  0.41800000000E+01 0. -1.
        -11    1    1    2    0    0 -0.15823851727E+02  0.19993289945E+02 -0.10215565239E+03  0.10528961602E+03  0.00000000000E+00 0. -1.
         11    1    1    2    0    0  0.50884388702E+02  0.13856426958E+02 -0.60808095927E+02  0.80491279726E+02  0.00000000000E+00 0.  1.
</event>
<event>
 7    1  0.6833760E-006  0.9427584E+02  0.7561462E-02  0.1292815E+00
          1   -1    0    0  501    0  0.00000000000E+00  0.00000000000E+00  0.46576019179E+02  0.46576019179E+02  0.00000000000E+00 0. -1.
         -1   -1    0    0    0  501 -0.00000000000E+00 -0.00000000000E+00 -0.27897450429E+03  0.27897450429E+03  0.00000000000E+00 0.  1.
         23    2    1    2    0    0  0.28926635312E+02 -0.18466733877E+02 -0.15042983243E+03  0.19864480992E+03  0.12511137252E+03 0.  0.
          5    1    3    3  502    0  0.48489765212E+02  0.19568211506E+02 -0.12155337271E+02  0.53846047729E+02  0.41800000000E+01 0. -1.
         -5    1    3    3    0  502 -0.19563129899E+02 -0.38034945383E+02 -0.13827449516E+03  0.14479876219E+03  0.41800000000E+01 0. -1.
        -11    1    1    2    0    0 -0.58434042331E+02  0.23872072078E+02 -0.70907361760E+02  0.94932960979E+02  0.00000000000E+00 0.  1.
         11    1    1    2    0    0  0.29507407019E+02 -0.54053382010E+01 -0.11061290927E+02  0.31972752572E+02  0.00000000000E+00 0. -1.
</event>
<event>
 7    1  0.6833760E-006  0.1094687E+03  0.7561462E-02  0.1261557E+00
          2   -1    0    0  501    0  0.00000000000E+00  0.00000000000E+00  0.73275813752E+03  0.73275813752E+03  0.00000000000E+00 0.  1.
         -2   -1    0    0    0  501 -0.00000000000E+00 -0.00000000000E+00 -0.16675658243E+02  0.16675658243E+02  0.00000000000E+00 0. -1.
         23    2    1    2    0    0  0.92708731734E+01  0.36130702773E+01  0.36237038094E+03  0.38348448383E+03  0.12509617495E+03 0.  0.
          5    1    3    3  502    0  0.66231177236E+02  0.12005438079E+02  0.20890877271E+03  0.21952459337E+03  0.41800000000E+01 0. -1.
         -5    1    3    3    0  502 -0.56960304063E+02 -0.83923678022E+01  0.15346160823E+03  0.16395989045E+03  0.41800000000E+01 0. -1.
        -11    1    1    2    0    0 -0.50906241507E+02  0.53330507634E+01  0.20024848296E+03  0.20668657862E+03  0.00000000000E+00 0. -1.
         11    1    1    2    0    0  0.41635368334E+02 -0.89461210407E+01  0.15346361538E+03  0.15926273332E+03  0.00000000000E+00 0.  1.
</event>
<event>
 7    1  0.6833760E-006  0.1083822E+03  0.7561462E-02  0.1263595E+00
         -3   -1    0    0    0  501 -0.00000000000E+00  0.00000000000E+00  0.27313353308E+03  0.27313353308E+03  0.00000000000E+00 0.  1.
          3   -1    0    0  501    0  0.00000000000E+00 -0.00000000000E+00 -0.61425320950E+02  0.61425320950E+02  0.00000000000E+00 0. -1.
         23    2    1    2    0    0 -0.68137963879E+02 -0.16627678561E+02  0.13749453509E+03  0.19867315945E+03  0.12508803017E+03 0.  0.
          5    1    3    3  502    0  0.12297449846E+02  0.15837625246E+02 -0.13469089738E+02  0.24514208625E+02  0.41800000000E+01 0.  1.
         -5    1    3    3    0  502 -0.80435413724E+02 -0.32465303807E+02  0.15096362483E+03  0.17415895083E+03  0.41800000000E+01 0.  1.
        -11    1    1    2    0    0  0.60226789165E+02  0.48045241265E+02  0.68286281363E+02  0.10294963605E+03  0.00000000000E+00 0.  1.
         11    1    1    2    0    0  0.79111747140E+01 -0.31417562704E+02  0.59273956776E+01  0.32936058525E+02  0.00000000000E+00 0. -1.
</event>
<event>
 7    1  0.6833760E-006  0.1087523E+03  0.7561462E-02  0.1262898E+00
         -2   -1    0    0    0  501 -0.00000000000E+00  0.00000000000E+00  0.22855753463E+03  0.22855753463E+03  0.00000000000E+00 0.  1.
          2   -1    0    0  501    0  0.00000000000E+00 -0.00000000000E+00 -0.13627781850E+03  0.13627781850E+03  0.00000000000E+00 0. -1.
         23    2    1    2    0    0 -0.47419025569E+01 -0.38943466716E+02  0.18598669886E+03  0.22754702912E+03  0.12509004384E+03 0.  0.
          5    1    3    3  502    0  0.18782361977E+02  0.34767274101E+02  0.20267108094E+02  0.44606821679E+02  0.41800000000E+01 0. -1.
         -5    1    3    3    0  502 -0.23524264534E+02 -0.73710740817E+02  0.16571959077E+03  0.18294020744E+03  0.41800000000E+01 0. -1.
        -11    1    1    2    0    0  0.30467158845E+02 -0.19674144607E+02 -0.36054646266E+02  0.51139585953E+02  0.00000000000E+00 0.  1.
         11    1    1    2    0    0 -0.25725256288E+02  0.58617611323E+02 -0.57652336467E+02  0.86148738054E+02  0.00000000000E+00 0. -1.
</event>
<event>
 7    1  0.6833760E-006  0.1472115E+03  0.7561462E-02  0.1203942E+00
          3   -1    0    0  501    0  0.00000000000E+00  0.00000000000E+00  0.10345381265E+03  0.10345381265E+03  0.00000000000E+00 0. -1.
         -3   -1    0    0    0  501 -0.00000000000E+00 -0.00000000000E+00 -0.24737732498E+03  0.24737732498E+03  0.00000000000E+00 0.  1.
         23    2    1    2    0    0 -0.82267518757E+02  0.53354573393E+02 -0.14352422025E+03  0.21414884302E+03  0.12508345224E+03 0.  0.
          5    1    3    3  502    0 -0.11384315128E+03  0.27347836553E+02 -0.11450670266E+03  0.16382131916E+03  0.41800000000E+01 0.  1.
         -5    1    3    3    0  502  0.31575632524E+02  0.26006736840E+02 -0.29017517583E+02  0.50327523851E+02  0.41800000000E+01 0.  1.
        -11    1    1    2    0    0  0.21407163118E+02  0.27560895479E+02  0.51783643045E+01  0.35280094235E+02  0.00000000000E+00 0.  1.
         11    1    1    2    0    0  0.60860355639E+02 -0.80915468872E+02 -0.55776563851E+01  0.10140220038E+03  0.00000000000E+00 0. -1.
</event>
<event>
 7    1  0.6833760E-006  0.9682314E+02  0.7561462E-02  0.1287122E+00
         -2   -1    0    0    0  501 -0.00000000000E+00  0.00000000000E+00  0.51439029177E+02  0.51439029177E+02  0.00000000000E+00 0.  1.
          2   -1    0    0  501    0  0.00000000000E+00 -0.00000000000E+00 -0.31956677211E+03  0.31956677211E+03  0.00000000000E+00 0. -1.
         23    2    1    2    0    0 -0.44865506928E+02  0.76077946328E+01 -0.61070110327E+02  0.14001292490E+03  0.11748731213E+03 0.  0.
          5    1    3    3  502    0 -0.59660552043E+01 -0.35623749000E+02 -0.72028480779E+02  0.80685932794E+02  0.41800000000E+01 0. -1.
         -5    1    3    3    0  502 -0.38899451724E+02  0.43231543633E+02  0.10958370452E+02  0.59326992105E+02  0.41800000000E+01 0.  1.
        -11    1    1    2    0    0 -0.24799950439E+02 -0.14902190414E+02 -0.90442682594E+02  0.94957841465E+02  0.00000000000E+00 0.  1.
         11    1    1    2    0    0  0.69665457368E+02  0.72943957811E+01 -0.11661495002E+03  0.13603503493E+03  0.00000000000E+00 0. -1.
</event>
<event>
 7    1  0.6833760E-006  0.1010298E+03  0.7561462E-02  0.1278145E+00
          1   -1    0    0  501    0  0.00000000000E+00  0.00000000000E+00  0.73891064762E+02  0.73891064762E+02  0.00000000000E+00 0. -1.
         -1   -1    0    0    0  501 -0.00000000000E+00 -0.00000000000E+00 -0.25910155850E+03  0.25910155850E+03  0.00000000000E+00 0.  1.
         23    2    1    2    0    0 -0.36896745157E+02  0.75057307697E+02 -0.11837684221E+03  0.19145725644E+03  0.12509130677E+03 0.  0.
          5    1    3    3  502    0  0.19147452878E+02  0.32370211823E+02  0.14883762069E+02  0.40662689760E+02  0.41800000000E+01 0.  1.
         -5    1    3    3    0  502 -0.56044198034E+02  0.42687095874E+02 -0.13326060428E+03  0.15079456668E+03  0.41800000000E+01 0.  1.
        -11    1    1    2    0    0 -0.92818125850E+01 -0.17911337483E+02 -0.64980664519E+02  0.68040097124E+02  0.00000000000E+00 0.  1.
         11    1    1    2    0    0  0.46178557742E+02 -0.57145970214E+02 -0.18529870063E+01  0.73495269695E+02  0.00000000000E+00 0. -1.
</event>
<event>
 7    1  0.6833760E-006  0.1720285E+03  0.7561462E-02  0.1175749E+00
          2   -1    0    0  501    0  0.00000000000E+00  0.00000000000E+00  0.15855879500E+03  0.15855879500E+03  0.00000000000E+00 0.  1.
         -2   -1    0    0    0  501 -0.00000000000E+00 -0.00000000000E+00 -0.24029783376E+03  0.24029783376E+03  0.00000000000E+00 0. -1.
         23    2    1    2    0    0  0.16146113149E+03  0.15139092720E+02 -0.39836902563E+02  0.20864909984E+03  0.12509428024E+03 0.  0.
          5    1    3    3  502    0  0.87702729608E+02 -0.12942213065E+02 -0.80453494114E+02  0.11978942681E+03  0.41800000000E+01 0. -1.
         -5    1    3    3    0  502  0.73758401883E+02  0.28081305785E+02  0.40616591550E+02  0.88859673036E+02  0.41800000000E+01 0. -1.
        -11    1    1    2    0    0 -0.12850448974E+03  0.17735447173E+02 -0.56399331700E+02  0.14145258777E+03  0.00000000000E+00 0. -1.
         11    1    1    2    0    0 -0.32956641752E+02 -0.32874539893E+02  0.14497195512E+02  0.48754941149E+02  0.00000000000E+00 0.  1.
</event>
<event>
 7    1  0.6833760E-006  0.6883582E+02  0.7561462E-02  0.1364097E+00
         -1   -1    0    0    0  501 -0.00000000000E+00  0.00000000000E+00  0.48819182067E+02  0.48819182067E+02  0.00000000000E+00 0.  1.
          1   -1    0    0  501    0  0.00000000000E+00 -0.00000000000E+00 -0.30541586448E+03  0.30541586448E+03  0.00000000000E+00 0. -1.
         23    2    1    2    0    0  0.36767177670E+02  0.28877033606E+02 -0.10169950219E+03  0.16785423386E+03  0.12508615692E+03 0.  0.
          5    1    3    3  502    0  0.21742356960E+02  0.30415585506E+02  0.21722269790E+02  0.43441539253E+02  0.41800000000E+01 0. -1.
         -5    1    3    3    0  502  0.15024820709E+02 -0.15385519006E+01 -0.12342177198E+03  0.12441269460E+03  0.41800000000E+01 0. -1.
        -11    1    1    2    0    0  0.14475665722E+02 -0.29798818438E+02 -0.11971922756E+03  0.12421838803E+03  0.00000000000E+00 0. -1.
         11    1    1    2    0    0 -0.51242843391E+02  0.92178483256E+00 -0.35177952667E+02  0.62162424663E+02  0.00000000000E+00 0.  1.
</event>
<event>
 7    1  0.6833760E-006  0.1283569E+03  0.7561462E-02  0.1229914E+00
          3   -1    0    0  501    0  0.00000000000E+00  0.00000000000E+00  0.22115075681E+03  0.22115075681E+03  0.00000000000E+00 0. -1.
         -3   -1    0    0    0  501 -0.00000000000E+00 -0.00000000000E+00 -0.10870506170E+03  0.10870506170E+03  0.00000000000E+00 0.  1.
         23    2    1    2    0    0  0.50481825225E+02 -0.98398126856E+02  0.56537778176E+02  0.17628230824E+03  0.12509326837E+03 0.  0.
          5    1    3    3  502    0  0.20511355032E+02 -0.10482677125E+03  0.83187026595E+02  0.13545080822E+03  0.41800000000E+01 0. -1.
         -5    1    3    3    0  502  0.29970470193E+02  0.64286443895E+01 -0.26649248419E+02  0.40831500017E+02  0.41800000000E+01 0. -1.
        -11    1    1    2    0    0 -0.10921582393E-01  0.46459744696E+02 -0.18252904928E+02  0.49916695952E+02  0.00000000000E+00 0.  1.
         11    1    1    2    0    0 -0.50470903643E+02  0.51938382160E+02  0.74160821864E+02  0.10365681432E+03  0.00000000000E+00 0. -1.
</event>
<event>
 7    1  0.6833760E-006  0.1130670E+03  0.7561462E-02  0.1254993E+00
          3   -1    0    0  501    0  0.00000000000E+00  0.00000000000E+00  0.37109896287E+02  0.37109896287E+02  0.00000000000E+00 0. -1.
         -3   -1    0    0    0  501 -0.00000000000E+00 -0.00000000000E+00 -0.37686492508E+03  0.37686492508E+03  0.00000000000E+00 0.  1.
         23    2    1    2    0    0 -0.37611452622E+02  0.24541358806E+02 -0.21050886382E+03  0.24895665854E+03  0.12509411028E+03 0.  0.
          5    1    3    3  502    0  0.23047918115E+02 -0.32622062970E+02 -0.11660763230E+03  0.12332971188E+03  0.41800000000E+01 0. -1.
         -5    1    3    3    0  502 -0.60659370737E+02  0.57163421776E+02 -0.93901231514E+02  0.12562694666E+03  0.41800000000E+01 0. -1.
        -11    1    1    2    0    0 -0.30808610554E+02 -0.11386669906E+02 -0.38410025926E+02  0.50538666657E+02  0.00000000000E+00 0. -1.
         11    1    1    2    0    0  0.68420063176E+02 -0.13154688900E+02 -0.90836139044E+02  0.11447949616E+03  0.00000000000E+00 0.  1.
</event>
<event>
 7    1  0.6833760E-006  0.1162374E+03  0.7561462E-02  0.1249437E+00
         -2   -1    0    0    0  501 -0.00000000000E+00  0.00000000000E+00  0.72239861038E+02  0.72239861038E+02  0.00000000000E+00 0.  1.
          2   -1    0    0  501    0  0.00000000000E+00 -0.00000000000E+00 -0.27897612608E+03  0.27897612608E+03  0.00000000000E+00 0. -1.
         23    2    1    2    0    0 -0.75830189618E+02  0.43242549294E+02 -0.14703693976E+03  0.21186947389E+03  0.12509467049E+03 0.  0.
          5    1    3    3  502    0 -0.49569114723E+02  0.69978232337E+02 -0.33375908326E+02  0.92116631463E+02  0.41800000000E+01 0. -1.
         -5    1    3    3    0  502 -0.26261074895E+02 -0.26735683044E+02 -0.11366103144E+03  0.11975284243E+03  0.41800000000E+01 0. -1.
        -11    1    1    2    0    0  0.59473555420E+02 -0.60704233162E+02 -0.72947551020E+02  0.11199755764E+03  0.00000000000E+00 0. -1.
         11    1    1    2    0    0  0.16356634198E+02  0.17461683869E+02  0.13248225746E+02  0.27348955579E+02  0.00000000000E+00 0.  1.
</event>
<event>
 7    1  0.6833760E-006  0.1631032E+03  0.7561462E-02  0.1185237E+00
         -1   -1    0    0    0  501 -0.00000000000E+00  0.00000000000E+00  0.43521679563E+02  0.43521679563E+02  0.00000000000E+00 0.  1.
          1   -1    0    0  501    0  0.00000000000E+00 -0.00000000000E+00 -0.10403313469E+04  0.10403313469E+04  0.00000000000E+00 0. -1.
         23    2    1    2    0    0  0.64711419576E+02 -0.10775582020E+03 -0.18567760219E+03  0.25675447255E+03  0.12509117717E+03 0.  0.
          5    1    3    3  502    0  0.50432725877E+02 -0.13122895629E+03 -0.11799592442E+03  0.18358924093E+03  0.41800000000E+01 0. -1.
         -5    1    3    3    0  502  0.14278693698E+02  0.23473136080E+02 -0.67681677770E+02  0.73165231613E+02  0.41800000000E+01 0. -1.
        -11    1    1    2    0    0 -0.46244236035E+02 -0.21753652134E+01 -0.16285240035E+03  0.16930494937E+03  0.00000000000E+00 0.  1.
         11    1    1    2    0    0 -0.18467183541E+02  0.10993118542E+03 -0.64827966479E+03  0.65779360454E+03  0.00000000000E+00 0. -1.
</event>
<event>
 7    1  0.6833760E-006  0.7610946E+02  0.7561462E-02  0.1340469E+00
          2   -1    0    0  501    0  0.00000000000E+00  0.00000000000E+00  0.58935866260E+03  0.58935866260E+03  0.00000000000E+00 0. -1.
         -2   -1    0    0    0  501 -0.00000000000E+00 -0.00000000000E+00 -0.26704236128E+02  0.26704236128E+02  0.00000000000E+00 0.  1.
         23    2    1    2    0    0 -0.19843447501E+02 -0.56195017589E+02  0.26017468535E+03  0.29477144627E+03  0.12509075199E+03 0.  0.
          5    1    3    3  502    0  0.45121355301E+01 -0.40637464860E+02  0.92177018897E+01  0.42121269514E+02  0.41800000000E+01 0.  1.
         -5    1    3    3    0  502 -0.24355583031E+02 -0.15557552728E+02  0.25095698346E+03  0.25265017676E+03  0.41800000000E+01 0.  1.
        -11    1    1    2    0    0  0.73775710767E+01 -0.11182284354E+02  0.25537941802E+01  0.13637958172E+02  0.00000000000E+00 0.  1.
         11    1    1    2    0    0  0.12465876424E+02  0.67377301943E+02  0.29992594695E+03  0.30765349428E+03  0.00000000000E+00 0. -1.
</event>
<event>
 7    1  0.6833760E-006  0.1970535E+03  0.7561462E-02  0.1152249E+00
         -1   -1    0    0    0  501 -0.00000000000E+00  0.00000000000E+00  0.17009467727E+03  0.17009467727E+03  0.00000000000E+00 0.  1.
          1   -1    0    0  501    0  0.00000000000E+00 -0.00000000000E+00 -0.23825430870E+03  0.23825430870E+03  0.00000000000E+00 0. -1.
         23    2    1    2    0    0 -0.15216064192E+03 -0.60841546350E+02  0.60748993684E+01  0.20624937316E+03  0.12508934733E+03 0.  0.
          5    1    3    3  502    0 -0.12043117641E+03 -0.99270863576E+02  0.58863499815E+01  0.15623858078E+03  0.41800000000E+01 0.  1.
         -5    1    3    3    0  502 -0.31729465507E+02  0.38429317226E+02  0.18854938686E+00  0.50010792382E+02  0.41800000000E+01 0.  1.
        -11    1    1    2    0    0  0.53598271880E+02 -0.23235339738E+02 -0.23607961541E+02  0.63007869425E+02  0.00000000000E+00 0.  1.
         11    1    1    2    0    0  0.98562370038E+02  0.84076886088E+02 -0.50626569259E+02  0.13909174338E+03  0.00000000000E+00 0. -1.
</event>
<event>
 7    1  0.6833760E-006  0.1473709E+03  0.7561462E-02  0.1203741E+00
          1   -1    0    0  501    0  0.00000000000E+00  0.00000000000E+00  0.80965947296E+02  0.80965947296E+02  0.00000000000E+00 0. -1.
         -1   -1    0    0    0  501 -0.00000000000E+00 -0.00000000000E+00 -0.30733036211E+03  0.30733036211E+03  0.00000000000E+00 0.  1.
         23    2    1    2    0    0  0.11584457889E+03  0.25244696231E+02 -0.12115944737E+03  0.21043203632E+03  0.12467866329E+03 0.  0.
          5    1    3    3  502    0  0.13655773446E+03 -0.27843498784E+01 -0.91254207537E+02  0.16431850242E+03  0.41800000000E+01 0. -1.
         -5    1    3    3    0  502 -0.20713155571E+02  0.28029046110E+02 -0.29905239830E+02  0.46113533900E+02  0.41800000000E+01 0. -1.
        -11    1    1    2    0    0 -0.54567240972E+02  0.47343061117E+01 -0.93913174448E+02  0.10871835989E+03  0.00000000000E+00 0.  1.
         11    1    1    2    0    0 -0.61277337915E+02 -0.29979002343E+02 -0.11291793004E+02  0.69145913203E+02  0.00000000000E+00 0. -1.
</event>
<event>
 7    1  0.6833760E-006  0.9577306E+02  0.7561462E-02  0.1289444E+00
         -2   -1    0    0    0  501 -0.00000000000E+00  0.00000000000E+00  0.53754111977E+02  0.53754111977E+02  0.00000000000E+00 0. -1.
          2   -1    0    0  501    0  0.00000000000E+00 -0.00000000000E+00 -0.22830948633E+03  0.22830948633E+03  0.00000000000E+00 0.  1.
         23    2    1    2    0    0  0.29946017420E+01  0.11777704759E+02 -0.82729731186E+02  0.15047689032E+03  0.12510557193E+03 0.  0.
          5    1    3    3  502    0  0.25488681853E+02  0.57987972375E+02 -0.14781496054E+02  0.65178546074E+02  0.41800000000E+01 0. -1.
         -5    1    3    3    0  502 -0.22494080111E+02 -0.46210267616E+02 -0.67948235132E+02  0.85298344244E+02  0.41800000000E+01 0. -1.
        -11    1    1    2    0    0 -0.11473227581E+02 -0.42815872739E+02 -0.12608798609E+02  0.46084875088E+02  0.00000000000E+00 0. -1.
         11    1    1    2    0    0  0.84786258387E+01  0.31038167980E+02 -0.79216844560E+02  0.85501832903E+02  0.00000000000E+00 0.  1.
</event>
<event>
 7    1  0.6833760E-006  0.1103600E+03  0.7561462E-02  0.1259905E+00
          1   -1    0    0  501    0  0.00000000000E+00  0.00000000000E+00  0.64334028469E+02  0.64334028469E+02  0.00000000000E+00 0. -1.
         -1   -1    0    0    0  501 -0.00000000000E+00 -0.00000000000E+00 -0.34535439463E+03  0.34535439463E+03  0.00000000000E+00 0.  1.
         23    2    1    2    0    0  0.87758201468E+02 -0.82662123105E+01 -0.24398289118E+03  0.28800030882E+03  0.12508674790E+03 0.  0.
          5    1    3    3  502    0  0.50274641808E+02 -0.53119371202E+02 -0.20479217596E+03  0.21750060906E+03  0.41800000000E+01 0. -1.
         -5    1    3    3    0  502  0.37483559659E+02  0.44853158891E+02 -0.39190715221E+02  0.70499699764E+02  0.41800000000E+01 0. -1.
        -11    1    1    2    0    0 -0.25278814741E+02 -0.27086145593E+01  0.23046142193E+02  0.34314424628E+02  0.00000000000E+00 0. -1.
         11    1    1    2    0    0 -0.62479386726E+02  0.10974826870E+02 -0.60083617175E+02  0.87373689652E+02  0.00000000000E+00 0.  1.
</event>
<event>
 7    1  0.6833760E-006  0.1165623E+03  0.7561462E-02  0.1248878E+00
         -2   -1    0    0    0  501 -0.00000000000E+00  0.00000000000E+00  0.29287919095E+02  0.29287919095E+02  0.00000000000E+00 0.  1.
          2   -1    0    0  501    0  0.00000000000E+00 -0.00000000000E+00 -0.78845924572E+03  0.78845924572E+03  0.00000000000E+00 0. -1.
         23    2    1    2    0    0  0.69268395435E+02  0.77430768791E+02 -0.35507315005E+03  0.39052938260E+03  0.12507046902E+03 0.  0.
          5    1    3    3  502    0  0.52261925437E+02  0.48499574823E+01 -0.38385985540E+02  0.65159705523E+02  0.41800000000E+01 0. -1.
         -5    1    3    3    0  502  0.17006469998E+02  0.72580811308E+02 -0.31668716451E+03  0.32536967707E+03  0.41800000000E+01 0. -1.
        -11    1    1    2    0    0 -0.37436636516E+02 -0.26945568512E+02 -0.49608138467E+02  0.67738709895E+02  0.00000000000E+00 0.  1.
         11    1    1    2    0    0 -0.31831758920E+02 -0.50485200279E+02 -0.35449003810E+03  0.35947907232E+03  0.00000000000E+00 0. -1.
</event>
<event>
 6    1  0.6833760E-006  0.2544296E+03  0.7561462E-02  0.1110537E+00
          1   -1    0    0  501    0  0.00000000000E+00  0.00000000000E+00  0.11909016642E+03  0.11909016642E+03  0.00000000000E+00 0. -1.
         -1   -1    0    0    0  501 -0.00000000000E+00 -0.00000000000E+00 -0.58525278420E+03  0.58525278420E+03  0.00000000000E+00 0.  1.
          5    1    1    2  502    0 -0.21101132863E+03 -0.93180309176E+01 -0.25802672709E+03  0.33347844129E+03  0.41800000000E+01 0. -1.
         -5    1    1    2    0  502  0.20967579453E+03 -0.43691791689E+01 -0.11340721012E+03  0.23845690648E+03  0.41800000000E+01 0.  1.
        -11    1    1    2    0    0 -0.34479808716E+02 -0.18983247686E+02 -0.22258273875E+02  0.45217824557E+02  0.00000000000E+00 0. -1.
         11    1    1    2    0    0  0.35815342812E+02  0.32670457772E+02 -0.72470406696E+02  0.87189778291E+02  0.00000000000E+00 0.  1.
</event>
<event>
 7    1  0.6833760E-006  0.1314810E+03  0.7561462E-02  0.1225275E+00
         -2   -1    0    0    0  501 -0.00000000000E+00  0.00000000000E+00  0.47021652674E+02  0.47021652674E+02  0.00000000000E+00 0.  1.
          2   -1    0    0  501    0  0.00000000000E+00 -0.00000000000E+00 -0.45591648258E+03  0.45591648258E+03  0.00000000000E+00 0. -1.
         23    2    1    2    0    0  0.16739053229E+02 -0.96179040672E+02 -0.23419760796E+03  0.28289046068E+03  0.12509152409E+03 0.  0.
          5    1    3    3  502    0  0.48344645428E+02 -0.11274139676E+03 -0.18250756871E+03  0.21994161116E+03  0.41800000000E+01 0. -1.
         -5    1    3    3    0  502 -0.31605592199E+02  0.16562356083E+02 -0.51690039254E+02  0.62948849516E+02  0.41800000000E+01 0. -1.
        -11    1    1    2    0    0  0.68683713252E+01  0.64092820609E+02 -0.32137360355E+02  0.72026898509E+02  0.00000000000E+00 0.  1.
         11    1    1    2    0    0 -0.23607424554E+02  0.32086220064E+02 -0.14255986158E+03  0.14802077606E+03  0.00000000000E+00 0. -1.
</event>
<event>
 7    1  0.6833760E-006  0.9218946E+02  0.7561462E-02  0.1297635E+00
          1   -1    0    0  501    0  0.00000000000E+00  0.00000000000E+00  0.80511347454E+02  0.80511347454E+02  0.00000000000E+00 0. -1.
         -1   -1    0    0    0  501 -0.00000000000E+00 -0.00000000000E+00 -0.17486381747E+03  0.17486381747E+03  0.00000000000E+00 0.  1.
         23    2    1    2    0    0  0.44568076881E+02  0.12605295369E+02 -0.63215900263E+02  0.14761089626E+03  0.12509004637E+03 0.  0.
          5    1    3    3  502    0  0.80640153354E+02  0.81405230043E+01 -0.73619342645E+02  0.10957363944E+03  0.41800000000E+01 0.  1.
         -5    1    3    3    0  502 -0.36072076472E+02  0.44647723652E+01  0.10403442382E+02  0.38037256824E+02  0.41800000000E+01 0.  1.
        -11    1    1    2    0    0 -0.34265982521E+02 -0.30573180880E+02 -0.57914016884E+02  0.73911503157E+02  0.00000000000E+00 0.  1.
         11    1    1    2    0    0 -0.10302094361E+02  0.17967885511E+02  0.26777447130E+02  0.33852765511E+02  0.00000000000E+00 0. -1.
</event>
<event>
 6    1  0.6833760E-006  0.1335153E+03  0.7561462E-02  0.1222331E+00
         -2   -1    0    0    0  501 -0.00000000000E+00  0.00000000000E+00  0.42019219644E+02  0.42019219644E+02  0.00000000000E+00 0.  1.
          2   -1    0    0  501    0  0.00000000000E+00 -0.00000000000E+00 -0.74834128191E+03  0.74834128191E+03  0.00000000000E+00 0. -1.
          5    1    1    2  502    0 -0.82974072530E+01 -0.45137300793E+02 -0.21445954924E+03  0.21935494877E+03  0.41800000000E+01 0. -1.
         -5    1    1    2    0  502  0.54328242775E+02  0.11215795488E+03 -0.99146055072E+02  0.15930592406E+03  0.41800000000E+01 0.  1.
        -11    1    1    2    0    0 -0.54486921906E+02 -0.39056636967E+02 -0.36607098878E+03  0.37215885638E+03  0.00000000000E+00 0.  1.
         11    1    1    2    0    0  0.84560863844E+01 -0.27964017117E+02 -0.26645469171E+02  0.39540772345E+02  0.00000000000E+00 0. -1.
</event>
<event>
 7    1  0.6833760E-006  0.1796184E+03  0.7561462E-02  0.1168173E+00
          2   -1    0    0  501    0  0.00000000000E+00  0.00000000000E+00  0.83725551055E+03  0.83725551055E+03  0.00000000000E+00 0. -1.
         -2   -1    0    0    0  501 -0.00000000000E+00 -0.00000000000E+00 -0.40883765052E+02  0.40883765052E+02  0.00000000000E+00 0.  1.
         23    2    1    2    0    0  0.14263490167E+03  0.31983187083E+02  0.34959126177E+03  0.39903520181E+03  0.12508957809E+03 0.  0.
          5    1    3    3  502    0  0.88421730055E+02  0.76144453299E+02  0.16972955934E+03  0.20601450392E+03  0.41800000000E+01 0. -1.
         -5    1    3    3    0  502  0.54213171617E+02 -0.44161266216E+02  0.17986170244E+03  0.19302069789E+03  0.41800000000E+01 0. -1.
        -11    1    1    2    0    0 -0.15063716868E+03 -0.12254636089E+02  0.37763856088E+03  0.40675866968E+03  0.00000000000E+00 0.  1.
         11    1    1    2    0    0  0.80022670080E+01 -0.19728550994E+02  0.69141922844E+02  0.72345404112E+02  0.00000000000E+00 0. -1.
</event>
<event>
 7    1  0.6833760E-006  0.9220246E+02  0.7561462E-02  0.1297604E+00
          1   -1    0    0  501    0  0.00000000000E+00  0.00000000000E+00  0.12458513339E+03  0.12458513339E+03  0.00000000000E+00 0. -1.
         -1   -1    0    0    0  501 -0.00000000000E+00 -0.00000000000E+00 -0.12478344877E+03  0.12478344877E+03  0.00000000000E+00 0.  1.
         23    2    1    2    0    0 -0.10402296632E+02 -0.30198534995E+02 -0.51565281126E+02  0.13901859234E+03  0.12508809499E+03 0.  0.
          5    1    3    3  502    0 -0.84186051170E+01  0.28375785934E+02  0.27428237153E+02  0.40568938029E+02  0.41800000000E+01 0. -1.
         -5    1    3    3    0  502 -0.19836915149E+01 -0.58574320929E+02 -0.78993518279E+02  0.98449654313E+02  0.41800000000E+01 0. -1.
        -11    1    1    2    0    0 -0.34983718450E+02 -0.86241262451E+01  0.90420031708E+01  0.37148269561E+02  0.00000000000E+00 0.  1.
         11    1    1    2    0    0  0.45386015081E+02  0.38822661240E+02  0.42324962583E+02  0.73201720256E+02  0.00000000000E+00 0. -1.
</event>
<event>
 7    1  0.6833760E-006  0.1004190E+03  0.7561462E-02  0.1279417E+00
         -2   -1    0    0    0  501 -0.00000000000E+00  0.00000000000E+00  0.11809518090E+03  0.11809518090E+03  0.00000000000E+00 0. -1.
          2   -1    0    0  501    0  0.00000000000E+00 -0.00000000000E+00 -0.14350251169E+03  0.14350251169E+03  0.00000000000E+00 0.  1.
         23    2    1    2    0    0  0.29920328880E+02 -0.60060647614E+02  0.12440186049E+02  0.14253027386E+03  0.12513038506E+03 0.  0.
          5    1    3    3  502    0  0.49081371083E+02  0.85623851663E+01 -0.31143906929E+02  0.58904250831E+02  0.41800000000E+01 0.  1.
         -5    1    3    3    0  502 -0.19161042202E+02 -0.68623032781E+02  0.43584092979E+02  0.83626023026E+02  0.41800000000E+01 0.  1.
        -11    1    1    2    0    0 -0.48693848328E+01  0.53301050793E+02  0.18825374757E+02  0.56737180570E+02  0.00000000000E+00 0. -1.
         11    1    1    2    0    0 -0.25050944048E+02  0.67595968218E+01 -0.56672891601E+02  0.62330238162E+02  0.00000000000E+00 0.  1.
</event>
<event>
 7    1  0.6833760E-006  0.1285541E+03  0.7561462E-02  0.1229617E+00
         -2   -1    0    0    0  501 -0.00000000000E+00  0.00000000000E+00  0.50731134088E+02  0.50731134088E+02  0.00000000000E+00 0.  1.
          2   -1    0    0  501    0  0.00000000000E+00 -0.00000000000E+00 -0.42672303178E+03  0.42672303178E+03  0.00000000000E+00 0. -1.
         23    2    1    2    0    0  0.84653348460E+02 -0.48317000016E+02 -0.17683943094E+03  0.23753014815E+03  0.12509062734E+03 0.  0.
          5    1    3    3  502    0  0.11231058064E+03 -0.59408084273E+02 -0.12974033048E+03  0.18163978846E+03  0.41800000000E+01 0.  1.
         -5    1    3    3    0  502 -0.27657232176E+02  0.11091084258E+02 -0.47099100462E+02  0.55890359687E+02  0.41800000000E+01 0.  1.
        -11    1    1    2    0    0 -0.58348123914E+02  0.44353951929E+02 -0.20030913677E+03  0.21329680468E+03  0.00000000000E+00 0. -1.
         11    1    1    2    0    0 -0.26305224546E+02  0.39630480872E+01  0.11566700125E+01  0.26627213036E+02  0.00000000000E+00 0.  1.
</event>
<event>
 7    1  0.6833760E-006  0.1340639E+03  0.7561462E-02  0.1221547E+00
          1   -1    0    0  501    0  0.00000000000E+00  0.00000000000E+00  0.66244398069E+03  0.66244398069E+03  0.00000000000E+00 0. -1.
         -1   -1    0    0    0  501 -0.00000000000E+00 -0.00000000000E+00 -0.43976716295E+02  0.43976716295E+02  0.00000000000E+00 0.  1.
         23    2    1    2    0    0  0.79866210760E+02 -0.25276864319E+02  0.11893324833E+03  0.19185697612E+03  0.12508577151E+03 0.  0.
          5    1    3    3  502    0 -0.25645725482E+02  0.17031882238E+02  0.49936499841E+02  0.58812538327E+02  0.41800000000E+01 0. -1.
         -5    1    3    3    0  502  0.10551193624E+03 -0.42308746557E+02  0.68996748491E+02  0.13304443779E+03  0.41800000000E+01 0. -1.
        -11    1    1    2    0    0 -0.40239166748E+02 -0.33539285347E+02  0.22497074855E+03  0.23098898654E+03  0.00000000000E+00 0.  1.
         11    1    1    2    0    0 -0.39627044012E+02  0.58816149665E+02  0.27456326752E+03  0.28357473433E+03  0.00000000000E+00 0. -1.
</event>
<event>
 7    1  0.6833760E-006  0.2043025E+03  0.7561462E-02  0.1146159E+00
         -2   -1    0    0    0  501 -0.00000000000E+00  0.00000000000E+00  0.26421060643E+03  0.26421060643E+03  0.00000000000E+00 0. -1.
          2   -1    0    0  501    0  0.00000000000E+00 -0.00000000000E+00 -0.21734934182E+03  0.21734934182E+03  0.00000000000E+00 0.  1.
         23    2    1    2    0    0 -0.59481536444E+02 -0.16645137088E+03  0.14427029989E+03  0.26020066344E+03  0.12508538595E+03 0.  0.
          5    1    3    3  502    0 -0.93679237265E+02 -0.15191905001E+03  0.12648440206E+03  0.21879436376E+03  0.41800000000E+01 0. -1.
         -5    1    3    3    0  502  0.34197700821E+02 -0.14532320875E+02  0.17785897826E+02  0.41406299677E+02  0.41800000000E+01 0. -1.
        -11    1    1    2    0    0 -0.17181660937E+02  0.53353969144E+02 -0.54419664745E+02  0.78123974598E+02  0.00000000000E+00 0.  1.
         11    1    1    2    0    0  0.76663197381E+02  0.11309740174E+03 -0.42989370528E+02  0.14323531021E+03  0.00000000000E+00 0. -1.
</event>
<event>
 7    1  0.6833760E-006  0.1431679E+03  0.7561462E-02  0.1209129E+00
          2   -1    0    0  501    0  0.00000000000E+00  0.00000000000E+00  0.55900560466E+03  0.55900560466E+03  0.00000000000E+00 0. -1.
         -2   -1    0    0    0  501 -0.00000000000E+00 -0.00000000000E+00 -0.54438093276E+02  0.54438093276E+02  0.00000000000E+00 0.  1.
         23    2    1    2    0    0  0.33566877935E+01  0.12327082160E+03  0.15822936182E+03  0.23641350846E+03  0.12509137951E+03 0.  0.
          5    1    3    3  502    0  0.15742489057E+02  0.12672263388E+03  0.67150869611E+02  0.14433697929E+03  0.41800000000E+01 0.  1.
         -5    1    3    3    0  502 -0.12385801264E+02 -0.34518122779E+01  0.91078492212E+02  0.92076529173E+02  0.41800000000E+01 0.  1.
        -11    1    1    2    0    0 -0.33695240976E+02 -0.24325280117E+02  0.14232437829E+03  0.14826772127E+03  0.00000000000E+00 0. -1.
         11    1    1    2    0    0  0.30338553183E+02 -0.98945541487E+02  0.20401377128E+03  0.22876246821E+03  0.00000000000E+00 0.  1.
</event>
<event>
 7    1  0.6833760E-006  0.1909924E+03  0.7561462E-02  0.1157569E+00
         -1   -1    0    0    0  501 -0.00000000000E+00  0.00000000000E+00  0.70733752420E+03  0.70733752420E+03  0.00000000000E+00 0.  1.
          1   -1    0    0  501    0  0.00000000000E+00 -0.00000000000E+00 -0.64262304558E+02  0.64262304558E+02  0.00000000000E+00 0. -1.
         23    2    1    2    0    0 -0.71912809002E+02  0.16548394344E+03  0.38541547554E+03  0.44356483999E+03  0.12509312875E+03 0.  0.
          5    1    3    3  502    0 -0.91173963037E+02  0.14877714739E+03  0.37851847180E+03  0.41682254859E+03  0.41800000000E+01 0. -1.
         -5    1    3    3    0  502  0.19261154034E+02  0.16706796043E+02  0.68970037392E+01  0.26742291400E+02  0.41800000000E+01 0. -1.
        -11    1    1    2    0    0 -0.56516446556E+00 -0.10461721929E+02 -0.71917197428E+01  0.12707787748E+02  0.00000000000E+00 0. -1.
         11    1    1    2    0    0  0.72477973468E+02 -0.15502222151E+03  0.26485146384E+03  0.31532720101E+03  0.00000000000E+00 0.  1.
</event>
<event>
 7    1  0.6833760E-006  0.1118873E+03  0.7561462E-02  0.1257114E+00
         -1   -1    0    0    0  501 -0.00000000000E+00  0.00000000000E+00  0.87028588811E+02  0.87028588811E+02  0.00000000000E+00 0.  1.
          1   -1    0    0  501    0  0.00000000000E+00 -0.00000000000E+00 -0.20308484057E+03  0.20308484057E+03  0.00000000000E+00 0. -1.
         23    2    1    2    0    0  0.26775228313E+02  0.23006539332E+02  0.10332088649E+02  0.13038646965E+03  0.12509062998E+03 0.  0.
          5    1    3    3  502    0 -0.24290517758E+02  0.59824473606E+02 -0.66612820292E+01  0.65044922734E+02  0.41800000000E+01 0. -1.
         -5    1    3    3    0  502  0.51065746071E+02 -0.36817934273E+02  0.16993370678E+02  0.65341546913E+02  0.41800000000E+01 0. -1.
        -11    1    1    2    0    0 -0.20348345089E+02 -0.57446609005E+02 -0.65416152594E+02  0.89406045960E+02  0.00000000000E+00 0.  1.
         11    1    1    2    0    0 -0.64268832239E+01  0.34440069673E+02 -0.60972187810E+02  0.70320913769E+02  0.00000000000E+00 0. -1.
</event>
<event>
 7    1  0.6833760E-006  0.1093396E+03  0.7561462E-02  0.1261798E+00
         -1   -1    0    0    0  501 -0.00000000000E+00  0.00000000000E+00  0.11249695057E+03  0.11249695057E+03  0.00000000000E+00 0.  1.
          1   -1    0    0  501    0  0.00000000000E+00 -0.00000000000E+00 -0.23775791317E+03  0.23775791317E+03  0.00000000000E+00 0. -1.
         23    2    1    2    0    0 -0.22740471888E+02 -0.39425570101E+02  0.53180010728E+02  0.14334505544E+03  0.12509271258E+03 0.  0.
          5    1    3    3  502    0 -0.19532915565E+02  0.34935729817E+02 -0.14383083361E+02  0.42736231646E+02  0.41800000000E+01 0.  1.
         -5    1    3    3    0  502 -0.32075563234E+01 -0.74361299918E+02  0.67563094089E+02  0.10060882380E+03  0.41800000000E+01 0.  1.
        -11    1    1    2    0    0  0.33116148353E+02  0.66830194635E+02 -0.13935275540E+03  0.15805740930E+03  0.00000000000E+00 0.  1.
         11    1    1    2    0    0 -0.10375676464E+02 -0.27404624534E+02 -0.39088217930E+02  0.48852399008E+02  0.00000000000E+00 0. -1.
</event>
<event>
 7    1  0.6833760E-006  0.9819125E+02  0.7561462E-02  0.1284146E+00
          1   -1    0    0  501    0  0.00000000000E+00  0.00000000000E+00  0.63339464190E+02  0.63339464190E+02  0.00000000000E+00 0. -1.
         -1   -1    0    0    0  501 -0.00000000000E+00 -0.00000000000E+00 -0.22086503222E+03  0.22086503222E+03  0.00000000000E+00 0.  1.
         23    2    1    2    0    0  0.47320706741E+02  0.77873137929E+01 -0.93642485472E+02  0.16344854662E+03  0.12508645315E+03 0.  0.
          5    1    3    3  502    0 -0.57831385401E+01  0.37064941596E+02  0.13647227485E+02  0.40136938161E+02  0.41800000000E+01 0. -1.
         -5    1    3    3    0  502  0.53103845281E+02 -0.29277627803E+02 -0.10728971296E+03  0.12331160846E+03  0.41800000000E+01 0. -1.
        -11    1    1    2    0    0 -0.62004436141E+02  0.21060286752E+02 -0.58762778629E+02  0.87983804938E+02  0.00000000000E+00 0.  1.
         11    1    1    2    0    0  0.14683729400E+02 -0.28847600545E+02 -0.51203039315E+01  0.32772144859E+02  0.00000000000E+00 0. -1.
</event>
<event>
 7    1  0.6833760E-006  0.1065882E+03  0.7561462E-02  0.1267022E+00
         -1   -1    0    0    0  501 -0.00000000000E+00  0.00000000000E+00  0.37460583999E+02  0.37460583999E+02  0.00000000000E+00 0.  1.
          1   -1    0    0  501    0  0.00000000000E+00 -0.00000000000E+00 -0.34107788943E+03  0.34107788943E+03  0.00000000000E+00 0. -1.
         23    2    1    2    0    0 -0.28915173916E+02  0.58003803525E+01 -0.14855393235E+03  0.19643296227E+03  0.12509159106E+03 0.  0.
          5    1    3    3  502    0  0.43097386491E+02 -0.87716427967E+01 -0.96981051572E+02  0.10656980437E+03  0.41800000000E+01 0. -1.
         -5    1    3    3    0  502 -0.72012560407E+02  0.14572023149E+02 -0.51572880779E+02  0.89863157895E+02  0.41800000000E+01 0. -1.
        -11    1    1    2    0    0 -0.56630328224E+01  0.38665519353E+02 -0.67219299827E+02  0.77752984488E+02  0.00000000000E+00 0. -1.
         11    1    1    2    0    0  0.34578206738E+02 -0.44465899706E+02 -0.87844073257E+02  0.10435252668E+03  0.00000000000E+00 0.  1.
</event>
<event>
 7    1  0.6833760E-006  0.1494679E+03  0.7561462E-02  0.1201128E+00
          1   -1    0    0  501    0  0.00000000000E+00  0.00000000000E+00  0.22521566195E+03  0.22521566195E+03  0.00000000000E+00 0. -1.
         -1   -1    0    0    0  501 -0.00000000000E+00 -0.00000000000E+00 -0.14457643887E+03  0.14457643887E+03  0.00000000000E+00 0.  1.
         23    2    1    2    0    0  0.99404004491E+02  0.90555220546E+02 -0.78567518307E+01  0.18382240140E+03  0.12509013802E+03 0.  0.
          5    1    3    3  502    0  0.52028754096E+02  0.11963663718E+01 -0.51729269193E+02  0.73497021957E+02  0.41800000000E+01 0.  1.
         -5    1    3    3    0  502  0.47375250395E+02  0.89358854174E+02  0.43872517363E+02  0.11032537944E+03  0.41800000000E+01 0.  1.
        -11    1    1    2    0    0 -0.59920881803E+02 -0.87294413769E+02  0.21357443393E+02  0.10801373588E+03  0.00000000000E+00 0.  1.
         11    1    1    2    0    0 -0.39483122688E+02 -0.32608067778E+01  0.67138531517E+02  0.77955963546E+02  0.00000000000E+00 0. -1.
</event>
<event>
 7    1  0.6833760E-006  0.1405702E+03  0.7561462E-02  0.1212564E+00
         -1   -1    0    0    0  501 -0.00000000000E+00  0.00000000000E+00  0.25453973478E+02  0.25453973478E+02  0.00000000000E+00 0.  1.
          1   -1    0    0  501    0  0.00000000000E+00 -0.00000000000E+00 -0.79289677931E+03  0.79289677931E+03  0.00000000000E+00 0. -1.
         23    2    1    2    0    0  0.10539604179E+02 -0.89081890099E+02 -0.41978004072E+03  0.44711447446E+03  0.12509757904E+03 0.  0.
          5    1    3    3  502    0  0.45334265326E+02 -0.10409498418E+03 -0.27857047216E+03  0.30084870235E+03  0.41800000000E+01 0. -1.
         -5    1    3    3    0  502 -0.34794661148E+02  0.15013094082E+02 -0.14120956855E+03  0.14626577210E+03  0.41800000000E+01 0. -1.
        -11    1    1    2    0    0 -0.51988920142E+02  0.55572286447E+02 -0.22407596785E+03  0.23664565537E+03  0.00000000000E+00 0. -1.
         11    1    1    2    0    0  0.41449315963E+02  0.33509603653E+02 -0.12358679727E+03  0.13459062296E+03  0.00000000000E+00 0.  1.
</event>
<event>
 7    1  0.6833760E-006  0.1339859E+03  0.7561462E-02  0.1221658E+00
          1   -1    0    0  501    0  0.00000000000E+00  0.00000000000E+00  0.74034499841E+02  0.74034499841E+02  0.00000000000E+00 0. -1.
         -1   -1    0    0    0  501 -0.00000000000E+00 -0.00000000000E+00 -0.32099280104E+03  0.32099280104E+03  0.00000000000E+00 0.  1.
         23    2    1    2    0    0 -0.99191866309E+02 -0.22917175786E+02 -0.17575669233E+03  0.23854290645E+03  0.12509228606E+03 0.  0.
          5    1    3    3  502    0 -0.83541468512E+02 -0.55656633175E+02 -0.17525526170E+03  0.20201167523E+03  0.41800000000E+01 0.  1.
         -5    1    3    3    0  502 -0.15650397798E+02  0.32739457389E+02 -0.50143062565E+00  0.36531231215E+02  0.41800000000E+01 0.  1.
        -11    1    1    2    0    0  0.22200903384E+02 -0.30167159316E+02  0.23183884486E+01  0.37527490421E+02  0.00000000000E+00 0. -1.
         11    1    1    2    0    0  0.76990962925E+02  0.53084335102E+02 -0.73519997317E+02  0.11895690401E+03  0.00000000000E+00 0.  1.
</event>
<event>
 7    1  0.6833760E-006  0.6397498E+02  0.7561462E-02  0.1381869E+00
          1   -1    0    0  501    0  0.00000000000E+00  0.00000000000E+00  0.21706579574E+03  0.21706579574E+03  0.00000000000E+00 0. -1.
         -1   -1    0    0    0  501 -0.00000000000E+00 -0.00000000000E+00 -0.61632252613E+02  0.61632252613E+02  0.00000000000E+00 0.  1.
         23    2    1    2    0    0  0.20960985123E+02  0.28451412941E+02  0.75663654482E+02  0.15040171535E+03  0.12508733579E+03 0.  0.
          5    1    3    3  502    0  0.27745958898E+02  0.23233288404E+02 -0.28220735930E+02  0.46081517571E+02  0.41800000000E+01 0. -1.
         -5    1    3    3    0  502 -0.67849737743E+01  0.52181245369E+01  0.10388439041E+03  0.10432019778E+03  0.41800000000E+01 0. -1.
        -11    1    1    2    0    0  0.65234844637E+01  0.22867435323E+02  0.63565453765E+02  0.67867830083E+02  0.00000000000E+00 0. -1.
         11    1    1    2    0    0 -0.27484469587E+02 -0.51318848264E+02  0.16204434879E+02  0.60428502922E+02  0.00000000000E+00 0.  1.
</event>
<event>
 7    1  0.6833760E-006  0.7888767E+02  0.7561462E-02  0.1332238E+00
          3   -1    0    0  501    0  0.00000000000E+00  0.00000000000E+00  0.13317109420E+03  0.13317109420E+03  0.00000000000E+00 0. -1.
         -3   -1    0    0    0  501 -0.00000000000E+00 -0.00000000000E+00 -0.93914103595E+02  0.93914103595E+02  0.00000000000E+00 0.  1.
         23    2    1    2    0    0  0.25952525960E+02  0.10245490382E+02  0.23976480366E+02  0.13038906073E+03  0.12509169385E+03 0.  0.
          5    1    3    3  502    0  0.68396790694E+02 -0.10713193303E+02  0.40212224826E+02  0.80170997957E+02  0.41800000000E+01 0.  1.
         -5    1    3    3    0  502 -0.42444264734E+02  0.20958683685E+02 -0.16235744460E+02  0.50218062774E+02  0.41800000000E+01 0.  1.
        -11    1    1    2    0    0 -0.42203843199E+01  0.10212942789E+02  0.49829530210E+02  0.51040159925E+02  0.00000000000E+00 0. -1.
         11    1    1    2    0    0 -0.21732141640E+02 -0.20458433170E+02 -0.34549019968E+02  0.45655977142E+02  0.00000000000E+00 0.  1.
</event>
<event>
 7    1  0.6833760E-006  0.3609843E+03  0.7561462E-02  0.1058195E+00
          1   -1    0    0  501    0  0.00000000000E+00  0.00000000000E+00  0.20113345250E+03  0.20113345250E+03  0.00000000000E+00 0. -1.
         -1   -1    0    0    0  501 -0.00000000000E+00 -0.00000000000E+00 -0.10391663381E+04  0.10391663381E+04  0.00000000000E+00 0.  1.
         23    2    1    2    0    0  0.10418875308E+03  0.33977473531E+03 -0.78431128895E+03  0.86975414590E+03  0.12258021582E+03 0.  0.
          5    1    3    3  502    0  0.19480057819E+02  0.40984379324E+01 -0.12579173379E+02  0.23916058392E+02  0.41800000000E+01 0. -1.
         -5    1    3    3    0  502  0.84708695259E+02  0.33567629737E+03 -0.77173211557E+03  0.84583808750E+03  0.41800000000E+01 0.  1.
        -11    1    1    2    0    0 -0.20681249172E+02 -0.71661331878E+02 -0.49832737901E+02  0.89701517939E+02  0.00000000000E+00 0.  1.
         11    1    1    2    0    0 -0.83507503906E+02 -0.26811340343E+03 -0.38888587291E+01  0.28084412675E+03  0.00000000000E+00 0. -1.
</event>
<event>
 7    1  0.6833760E-006  0.8689394E+02  0.7561462E-02  0.1310553E+00
          1   -1    0    0  501    0  0.00000000000E+00  0.00000000000E+00  0.20272288939E+03  0.20272288939E+03  0.00000000000E+00 0. -1.
         -1   -1    0    0    0  501 -0.00000000000E+00 -0.00000000000E+00 -0.57847700256E+02  0.57847700256E+02  0.00000000000E+00 0.  1.
         23    2    1    2    0    0  0.10309082078E+02  0.12133831034E+01  0.83660879090E+02  0.15084382160E+03  0.12508783456E+03 0.  0.
          5    1    3    3  502    0 -0.18492975618E+02  0.34427879747E+02 -0.15534831744E+02  0.42261950362E+02  0.41800000000E+01 0.  1.
         -5    1    3    3    0  502  0.28802057696E+02 -0.33214496644E+02  0.99195710833E+02  0.10858187124E+03  0.41800000000E+01 0.  1.
        -11    1    1    2    0    0 -0.38207702821E+02  0.29912629748E+02  0.39816725073E+02  0.62769145038E+02  0.00000000000E+00 0.  1.
         11    1    1    2    0    0  0.27898620743E+02 -0.31126012851E+02  0.21397584969E+02  0.46957623001E+02  0.00000000000E+00 0. -1.
</event>
<event>
 7    1  0.6833760E-006  0.1092945E+03  0.7561462E-02  0.1261882E+00
         -1   -1    0    0    0  501 -0.00000000000E+00  0.00000000000E+00  0.36820334387E+03  0.36820334387E+03  0.00000000000E+00 0.  1.
          1   -1    0    0  501    0  0.00000000000E+00 -0.00000000000E+00 -0.39849808857E+02  0.39849808857E+02  0.00000000000E+00 0. -1.
         23    2    1    2    0    0 -0.52519124381E+02  0.32138477028E+01  0.16045629078E+03  0.21014851058E+03  0.12509031939E+03 0.  0.
          5    1    3    3  502    0 -0.86014275459E+02  0.19888266472E+02  0.71945368302E+02  0.11396318329E+03  0.41800000000E+01 0. -1.
         -5    1    3    3    0  502  0.33495151077E+02 -0.16674418770E+02  0.88510922481E+02  0.96185327288E+02  0.41800000000E+01 0. -1.
        -11    1    1    2    0    0  0.15371095843E+02  0.35633429901E+02  0.11926143235E+03  0.12541651071E+03  0.00000000000E+00 0.  1.
         11    1    1    2    0    0  0.37148028539E+02 -0.38847277603E+02  0.48635811884E+02  0.72488131436E+02  0.00000000000E+00 0. -1.
</event>
<event>
 7    1  0.6833760E-006  0.1756709E+03  0.7561462E-02  0.1172060E+00
         -1   -1    0    0    0  501 -0.00000000000E+00  0.00000000000E+00  0.77850236198E+03  0.77850236198E+03  0.00000000000E+00 0. -1.
          1   -1    0    0  501    0  0.00000000000E+00 -0.00000000000E+00 -0.43430687258E+02  0.43430687258E+02  0.00000000000E+00 0.  1.
         23    2    1    2    0    0 -0.60290880376E+02 -0.12419577023E+03  0.50900258254E+03  0.54202276356E+03  0.12508184355E+03 0.  0.
          5    1    3    3  502    0  0.17526987444E+02 -0.10432019298E+03  0.28764681448E+03  0.30650947821E+03  0.41800000000E+01 0. -1.
         -5    1    3    3    0  502 -0.77817867819E+02 -0.19875577246E+02  0.22135576806E+03  0.23551328535E+03  0.41800000000E+01 0. -1.
        -11    1    1    2    0    0 -0.32448865814E+01  0.95127282469E+02  0.12992719998E+03  0.16106149898E+03  0.00000000000E+00 0. -1.
         11    1    1    2    0    0  0.63535766957E+02  0.29068487757E+02  0.96141892195E+02  0.11884878669E+03  0.00000000000E+00 0.  1.
</event>
<event>
 7    1  0.6833760E-006  0.1593890E+03  0.7561462E-02  0.1189388E+00
          4   -1    0    0  501    0  0.00000000000E+00  0.00000000000E+00  0.60330025496E+03  0.60330025496E+03  0.00000000000E+00 0. -1.
         -4   -1    0    0    0  501 -0.00000000000E+00 -0.00000000000E+00 -0.59230684463E+02  0.59230684463E+02  0.00000000000E+00 0.  1.
         23    2    1    2    0    0  0.14437969316E+03  0.92595663687E+01  0.19067401748E+03  0.27006547046E+03  0.12509013561E+03 0.  0.
          5    1    3    3  502    0  0.46376793833E+02 -0.14287340934E+02  0.15594757630E+03  0.16337703042E+03  0.41800000000E+01 0.  1.
         -5    1    3    3    0  502  0.98002899327E+02  0.23546907303E+02  0.34726441181E+02  0.10668844003E+03  0.41800000000E+01 0.  1.
        -11    1    1    2    0    0 -0.91211317979E+02 -0.48318181067E+02  0.24036173182E+03  0.26158729570E+03  0.00000000000E+00 0.  1.
         11    1    1    2    0    0 -0.53168375181E+02  0.39058614698E+02  0.11303382120E+03  0.13087817326E+03  0.00000000000E+00 0. -1.
</event>
<event>
 7    1  0.6833760E-006  0.1578122E+03  0.7561462E-02  0.1191189E+00
         -1   -1    0    0    0  501 -0.00000000000E+00  0.00000000000E+00  0.18486504152E+03  0.18486504152E+03  0.00000000000E+00 0.  1.
          1   -1    0    0  501    0  0.00000000000E+00 -0.00000000000E+00 -0.23381265212E+03  0.23381265212E+03  0.00000000000E+00 0. -1.
         23    2    1    2    0    0  0.12639885625E+03  0.11970269886E+02  0.99130100627E+02  0.20393943402E+03  0.12507820623E+03 0.  0.
          5    1    3    3  502    0  0.12374749603E+03 -0.36825893161E+02  0.71540336974E+02  0.14766543738E+03  0.41800000000E+01 0.  1.
         -5    1    3    3    0  502  0.26513602216E+01  0.48796163047E+02  0.27589763653E+02  0.56273996637E+02  0.41800000000E+01 0.  1.
        -11    1    1    2    0    0 -0.31520634944E+02 -0.26794210796E+02 -0.39620837857E+01  0.41559334299E+02  0.00000000000E+00 0.  1.
         11    1    1    2    0    0 -0.94878221311E+02  0.14823940910E+02 -0.14411562744E+03  0.17317892532E+03  0.00000000000E+00 0. -1.
</event>
<event>
 7    1  0.6833760E-006  0.1106496E+03  0.7561462E-02  0.1259372E+00
         -1   -1    0    0    0  501 -0.00000000000E+00  0.00000000000E+00  0.11142512751E+03  0.11142512751E+03  0.00000000000E+00 0.  1.
          1   -1    0    0  501    0  0.00000000000E+00 -0.00000000000E+00 -0.17980742233E+03  0.17980742233E+03  0.00000000000E+00 0. -1.
         23    2    1    2    0    0  0.57484434601E+02 -0.66925146505E+02 -0.11265471785E+02  0.15347566366E+03  0.12507770795E+03 0.  0.
          5    1    3    3  502    0  0.11924480626E+02 -0.82088440260E+02 -0.45172859397E+02  0.94545041587E+02  0.41800000000E+01 0.  1.
         -5    1    3    3    0  502  0.45559953975E+02  0.15163293756E+02  0.33907387611E+02  0.58930622077E+02  0.41800000000E+01 0.  1.
        -11    1    1    2    0    0 -0.31124613767E+01  0.13368852640E+02 -0.59835247771E+02  0.61389498390E+02  0.00000000000E+00 0. -1.
         11    1    1    2    0    0 -0.54371973224E+02  0.53556293864E+02  0.27184247325E+01  0.76367387790E+02  0.00000000000E+00 0.  1.
</event>
<event>
 7    1  0.6833760E-006  0.1719715E+03  0.7561462E-02  0.1175807E+00
         -2   -1    0    0    0  501 -0.00000000000E+00  0.00000000000E+00  0.32618652105E+03  0.32618652105E+03  0.00000000000E+00 0.  1.
          2   -1    0    0  501    0  0.00000000000E+00 -0.00000000000E+00 -0.15979867087E+03  0.15979867087E+03  0.00000000000E+00 0. -1.
         23    2    1    2    0    0 -0.15966832028E+03  0.91567432227E+01  0.21446474774E+03  0.29533075208E+03  0.12508919478E+03 0.  0.
          5    1    3    3  502    0 -0.92657728626E+02  0.25370737432E+02  0.20392607973E+03  0.22546052290E+03  0.41800000000E+01 0. -1.
         -5    1    3    3    0  502 -0.67010591652E+02 -0.16213994209E+02  0.10538668013E+02  0.69870229177E+02  0.41800000000E+01 0. -1.
        -11    1    1    2    0    0  0.10774472874E+03  0.32066203520E+02 -0.52782289591E+02  0.12418992743E+03  0.00000000000E+00 0. -1.
         11    1    1    2    0    0  0.51923591539E+02 -0.41222946742E+02  0.47053920322E+01  0.66464512415E+02  0.00000000000E+00 0.  1.
</event>
<event>
 7    1  0.6833760E-006  0.1066328E+03  0.7561462E-02  0.1266936E+00
         -3   -1    0    0    0  501 -0.00000000000E+00  0.00000000000E+00  0.13539068660E+03  0.13539068660E+03  0.00000000000E+00 0.  1.
          3   -1    0    0  501    0  0.00000000000E+00 -0.00000000000E+00 -0.12024228742E+03  0.12024228742E+03  0.00000000000E+00 0. -1.
         23    2    1    2    0    0  0.36040880653E+01  0.61952022916E+02  0.29243540980E+02  0.14266543338E+03  0.12508876288E+03 0.  0.
          5    1    3    3  502    0 -0.52389438502E+01 -0.36723933838E+02  0.21793492438E+02  0.43226410466E+02  0.41800000000E+01 0.  1.
         -5    1    3    3    0  502  0.88430319155E+01  0.98675956753E+02  0.74500485420E+01  0.99439022913E+02  0.41800000000E+01 0.  1.
        -11    1    1    2    0    0  0.18424826415E+02 -0.46071861933E+02 -0.48332185584E+02  0.69268252856E+02  0.00000000000E+00 0. -1.
         11    1    1    2    0    0 -0.22028914480E+02 -0.15880160983E+02  0.34237043785E+02  0.43699287788E+02  0.00000000000E+00 0.  1.
</event>
<event>
 7    1  0.6833760E-006  0.1884775E+03  0.7561462E-02  0.1159842E+00
         -2   -1    0    0    0  501 -0.00000000000E+00  0.00000000000E+00  0.67700127681E+02  0.67700127681E+02  0.00000000000E+00 0.  1.
          2   -1    0    0  501    0  0.00000000000E+00 -0.00000000000E+00 -0.59096593184E+03  0.59096593184E+03  0.00000000000E+00 0. -1.
         23    2    1    2    0    0  0.10824810219E+03  0.12521203512E+03 -0.23347965924E+03  0.31233752094E+03  0.12508505243E+03 0.  0.
          5    1    3    3  502    0  0.64304139967E+02  0.14398200220E+03 -0.16079411265E+03  0.22525110085E+03  0.41800000000E+01 0.  1.
         -5    1    3    3    0  502  0.43943962219E+02 -0.18769967075E+02 -0.72685546595E+02  0.87086420086E+02  0.41800000000E+01 0.  1.
        -11    1    1    2    0    0 -0.56413458877E+02 -0.32716785222E+02 -0.44060361331E+02  0.78703124578E+02  0.00000000000E+00 0.  1.
         11    1    1    2    0    0 -0.51834643309E+02 -0.92495249902E+02 -0.24572578359E+03  0.26762541400E+03  0.00000000000E+00 0. -1.
</event>
<event>
 7    1  0.6833760E-006  0.9652185E+02  0.7561462E-02  0.1287785E+00
          2   -1    0    0  501    0  0.00000000000E+00  0.00000000000E+00  0.56232031006E+02  0.56232031006E+02  0.00000000000E+00 0.  1.
         -2   -1    0    0    0  501 -0.00000000000E+00 -0.00000000000E+00 -0.24953569554E+03  0.24953569554E+03  0.00000000000E+00 0. -1.
         23    2    1    2    0    0 -0.45022273380E+02  0.23062182968E+02 -0.11444410792E+03  0.17692677353E+03  0.12508700960E+03 0.  0.
          5    1    3    3  502    0 -0.58746316014E+02 -0.32560497090E+02 -0.94718712170E+02  0.11619131831E+03  0.41800000000E+01 0. -1.
         -5    1    3    3    0  502  0.13724042633E+02  0.55622680057E+02 -0.19725395752E+02  0.60735455218E+02  0.41800000000E+01 0. -1.
        -11    1    1    2    0    0  0.16077752093E+02  0.13972357869E+02  0.13493201554E+02  0.25214824706E+02  0.00000000000E+00 0.  1.
         11    1    1    2    0    0  0.28944521287E+02 -0.37034540837E+02 -0.92352758165E+02  0.10362612831E+03  0.00000000000E+00 0. -1.
</event>
<event>
 7    1  0.6833760E-006  0.9556634E+02  0.7561462E-02  0.1289906E+00
         -2   -1    0    0    0  501 -0.00000000000E+00  0.00000000000E+00  0.12358769302E+03  0.12358769302E+03  0.00000000000E+00 0. -1.
          2   -1    0    0  501    0  0.00000000000E+00 -0.00000000000E+00 -0.16493699636E+03  0.16493699636E+03  0.00000000000E+00 0.  1.
         23    2    1    2    0    0 -0.13437663585E+02 -0.73964791056E+02  0.35112355283E+02  0.15010918026E+03  0.12509407415E+03 0.  0.
          5    1    3    3  502    0 -0.31327585839E+02 -0.45125690994E+02 -0.39664012199E+02  0.67885579366E+02  0.41800000000E+01 0. -1.
         -5    1    3    3    0  502  0.17889922254E+02 -0.28839100063E+02  0.74776367482E+02  0.82223600897E+02  0.41800000000E+01 0. -1.
        -11    1    1    2    0    0 -0.25972485183E+02  0.48226842562E+02 -0.80344396243E+01  0.55361995540E+02  0.00000000000E+00 0. -1.
         11    1    1    2    0    0  0.39410148768E+02  0.25737948495E+02 -0.68427218991E+02  0.83053513577E+02  0.00000000000E+00 0.  1.
</event>
<event>
 7    1  0.6833760E-006  0.2010164E+03  0.7561462E-02  0.1148884E+00
         -2   -1    0    0    0  501 -0.00000000000E+00  0.00000000000E+00  0.52658422840E+02  0.52658422840E+02  0.00000000000E+00 0.  1.
          2   -1    0    0  501    0  0.00000000000E+00 -0.00000000000E+00 -0.10400390425E+04  0.10400390425E+04  0.00000000000E+00 0. -1.
         23    2    1    2    0    0 -0.15769540987E+03  0.11586487309E+03 -0.35947919531E+03  0.42797831383E+03  0.12509050378E+03 0.  0.
          5    1    3    3  502    0 -0.93963868514E+02  0.41378670357E+02 -0.75458151498E+02  0.12748650114E+03  0.41800000000E+01 0. -1.
         -5    1    3    3    0  502 -0.63731541360E+02  0.74486202736E+02 -0.28402104381E+03  0.30049181268E+03  0.41800000000E+01 0. -1.
        -11    1    1    2    0    0  0.93212876032E+02 -0.39573751790E+02 -0.44438938554E+03  0.45578135995E+03  0.00000000000E+00 0. -1.
         11    1    1    2    0    0  0.64482533842E+02 -0.76291121303E+02 -0.18351203886E+03  0.20893779162E+03  0.00000000000E+00 0.  1.
</event>
<event>
 7    1  0.6833760E-006  0.9197511E+02  0.7561462E-02  0.1298138E+00
          1   -1    0    0  501    0  0.00000000000E+00  0.00000000000E+00  0.31866480478E+03  0.31866480478E+03  0.00000000000E+00 0. -1.
         -1   -1    0    0    0  501 -0.00000000000E+00 -0.00000000000E+00 -0.49390732208E+02  0.49390732208E+02  0.00000000000E+00 0.  1.
         23    2    1    2    0    0 -0.60285423231E+02  0.10161346771E+02  0.14248899380E+03  0.19921655614E+03  0.12508612099E+03 0.  0.
          5    1    3    3  502    0 -0.80357281725E+01 -0.16781126060E+02  0.13886653663E+03  0.14016977747E+03  0.41800000000E+01 0.  1.
         -5    1    3    3    0  502 -0.52249695058E+02  0.26942472831E+02  0.36224571655E+01  0.59046778675E+02  0.41800000000E+01 0.  1.
        -11    1    1    2    0    0  0.27774255224E+02 -0.48369754536E+02  0.92701809564E+02  0.10818811350E+03  0.00000000000E+00 0. -1.
         11    1    1    2    0    0  0.32511168007E+02  0.38208407764E+02  0.34083269205E+02  0.60650867337E+02  0.00000000000E+00 0.  1.
</event>
<event>
 7    1  0.6833760E-006  0.7485461E+02  0.7561462E-02  0.1344322E+00
         -1   -1    0    0    0  501 -0.00000000000E+00  0.00000000000E+00  0.13803731080E+03  0.13803731080E+03  0.00000000000E+00 0.  1.
          1   -1    0    0  501    0  0.00000000000E+00 -0.00000000000E+00 -0.10580379651E+03  0.10580379651E+03  0.00000000000E+00 0. -1.
         23    2    1    2    0    0  0.51177069186E+01 -0.90562045135E+01  0.72026346859E+02  0.14472044917E+03  0.12509199815E+03 0.  0.
          5    1    3    3  502    0  0.50647860430E+02 -0.89755004629E+01  0.82967424221E+02  0.97707887382E+02  0.41800000000E+01 0. -1.
         -5    1    3    3    0  502 -0.45530153511E+02 -0.80704050652E-01 -0.10941077362E+02  0.47012561787E+02  0.41800000000E+01 0. -1.
        -11    1    1    2    0    0 -0.22030528932E+02 -0.12226961829E+02  0.20823654437E+02  0.32687419364E+02  0.00000000000E+00 0.  1.
         11    1    1    2    0    0  0.16912822013E+02  0.21283166343E+02 -0.60616487007E+02  0.66433238782E+02  0.00000000000E+00 0. -1.
</event>
<event>
 7    1  0.6833760E-006  0.1251452E+03  0.7561462E-02  0.1234843E+00
          3   -1    0    0  501    0  0.00000000000E+00  0.00000000000E+00  0.96493606048E+02  0.96493606048E+02  0.00000000000E+00 0. -1.
         -3   -1    0    0    0  501 -0.00000000000E+00 -0.00000000000E+00 -0.20754767745E+03  0.20754767745E+03  0.00000000000E+00 0.  1.
         23    2    1    2    0    0  0.76737049315E+02  0.25779991061E+02 -0.10489122969E+03  0.18221509228E+03  0.12508791754E+03 0.  0.
          5    1    3    3  502    0  0.67524140909E+02  0.64726633786E+02 -0.31986469427E+02  0.98942677107E+02  0.41800000000E+01 0.  1.
         -5    1    3    3    0  502  0.92129084057E+01 -0.38946642725E+02 -0.72904760260E+02  0.83272415177E+02  0.41800000000E+01 0.  1.
        -11    1    1    2    0    0  0.69834231684E+01 -0.31730444048E+02  0.14203569544E+02  0.35458858786E+02  0.00000000000E+00 0.  1.
         11    1    1    2    0    0 -0.83720472483E+02  0.59504529877E+01 -0.20366411262E+02  0.86367332431E+02  0.00000000000E+00 0. -1.
</event>
<event>
 7    1  0.6833760E-006  0.1139942E+03  0.7561462E-02  0.1253347E+00
         -2   -1    0    0    0  501 -0.00000000000E+00  0.00000000000E+00  0.57267744101E+03  0.57267744101E+03  0.00000000000E+00 0.  1.
          2   -1    0    0  501    0  0.00000000000E+00 -0.00000000000E+00 -0.27691649733E+02  0.27691649733E+02  0.00000000000E+00 0. -1.
         23    2    1    2    0    0  0.71087988378E+02 -0.96319358910E+01  0.33336047312E+03  0.35903841618E+03  0.11239707726E+03 0.  0.
          5    1    3    3  502    0  0.53215728761E+02 -0.51672580976E+02  0.12268113859E+03  0.14342281401E+03  0.41800000000E+01 0. -1.
         -5    1    3    3    0  502  0.17872259617E+02  0.42040645085E+02  0.21067933453E+03  0.21561560218E+03  0.41800000000E+01 0.  1.
        -11    1    1    2    0    0  0.18087438613E+02 -0.34659537166E+00  0.80059920748E+02  0.82078416615E+02  0.00000000000E+00 0.  1.
         11    1    1    2    0    0 -0.89175426991E+02  0.99785312627E+01  0.13156539741E+03  0.15925225795E+03  0.00000000000E+00 0. -1.
</event>
<event>
 7    1  0.6833760E-006  0.7772961E+02  0.7561462E-02  0.1335621E+00
          2   -1    0    0  501    0  0.00000000000E+00  0.00000000000E+00  0.18143138111E+03  0.18143138111E+03  0.00000000000E+00 0.  1.
         -2   -1    0    0    0  501 -0.00000000000E+00 -0.00000000000E+00 -0.85702553922E+02  0.85702553922E+02  0.00000000000E+00 0. -1.
         23    2    1    2    0    0 -0.44741550262E+02  0.36237139232E+02  0.44560686585E+02  0.14474790603E+03  0.12510541528E+03 0.  0.
          5    1    3    3  502    0 -0.30056087286E+02  0.35922984698E+01  0.85150598080E+02  0.90467506568E+02  0.41800000000E+01 0.  1.
         -5    1    3    3    0  502 -0.14685462975E+02  0.32644840762E+02 -0.40589911494E+02  0.54280399467E+02  0.41800000000E+01 0.  1.
        -11    1    1    2    0    0  0.32004156763E+02  0.15514762322E+02 -0.13979580745E+02  0.38215213958E+02  0.00000000000E+00 0. -1.
         11    1    1    2    0    0  0.12737393499E+02 -0.51751901554E+02  0.65147721344E+02  0.84170815037E+02  0.00000000000E+00 0.  1.
</event>
<event>
 7    1  0.6833760E-006  0.9610270E+02  0.7561462E-02  0.1288712E+00
          2   -1    0    0  501    0  0.00000000000E+00  0.00000000000E+00  0.44296097886E+03  0.44296097886E+03  0.00000000000E+00 0.  1.
         -2   -1    0    0    0  501 -0.00000000000E+00 -0.00000000000E+00 -0.34524650966E+02  0.34524650966E+02  0.00000000000E+00 0. -1.
         23    2    1    2    0    0  0.56666934885E+02 -0.55065841626E+01  0.19566033317E+03  0.23910677607E+03  0.12509044891E+03 0.  0.
          5    1    3    3  502    0 -0.13070984992E+02  0.38470878200E+01  0.15903587608E+03  0.15967320694E+03  0.41800000000E+01 0. -1.
         -5    1    3    3    0  502  0.69737919876E+02 -0.93536719826E+01  0.36624457094E+02  0.79433569136E+02  0.41800000000E+01 0. -1.
        -11    1    1    2    0    0 -0.27405177226E+02  0.48354421072E+02  0.10858319765E+03  0.12198157479E+03  0.00000000000E+00 0.  1.
         11    1    1    2    0    0 -0.29261757659E+02 -0.42847836910E+02  0.10419279708E+03  0.11639727897E+03  0.00000000000E+00 0. -1.
</event>
<event>
 6    1  0.6833760E-006  0.1493844E+03  0.7561462E-02  0.1201231E+00
          2   -1    0    0  501    0  0.00000000000E+00  0.00000000000E+00  0.37409154555E+03  0.37409154555E+03  0.00000000000E+00 0. -1.
         -2   -1    0    0    0  501 -0.00000000000E+00 -0.00000000000E+00 -0.10131148612E+03  0.10131148612E+03  0.00000000000E+00 0.  1.
          5    1    1    2  502    0  0.13063225678E+03 -0.21555336510E+02  0.41592289277E+01  0.13252996125E+03  0.41800000000E+01 0. -1.
         -5    1    1    2    0  502 -0.22813585421E+02  0.18520472284E+02  0.15013673780E+03  0.15304241246E+03  0.41800000000E+01 0.  1.
        -11    1    1    2    0    0 -0.12019837270E+03 -0.74095389663E+01  0.12387074423E+03  0.17276142898E+03  0.00000000000E+00 0.  1.
         11    1    1    2    0    0  0.12379701343E+02  0.10444403192E+02 -0.53866515335E+01  0.17069228984E+02  0.00000000000E+00 0. -1.
</event>
<event>
 6    1  0.6833760E-006  0.2462373E+03  0.7561462E-02  0.1115706E+00
         -2   -1    0    0    0  501 -0.00000000000E+00  0.00000000000E+00  0.58702884620E+03  0.58702884620E+03  0.00000000000E+00 0.  1.
          2   -1    0    0  501    0  0.00000000000E+00 -0.00000000000E+00 -0.25832741973E+03  0.25832741973E+03  0.00000000000E+00 0. -1.
          5    1    1    2  502    0 -0.92483185535E+02 -0.88341341304E+02 -0.37191580759E+02  0.13325921458E+03  0.41800000000E+01 0. -1.
         -5    1    1    2    0  502 -0.71712511959E+02 -0.84049219074E+02  0.43387678921E+03  0.44774266740E+03  0.41800000000E+01 0.  1.
        -11    1    1    2    0    0  0.99800356273E+02  0.41523638396E+02 -0.14773410747E+02  0.10909893365E+03  0.00000000000E+00 0.  1.
         11    1    1    2    0    0  0.64395341221E+02  0.13086692198E+03 -0.53210371239E+02  0.15525545030E+03  0.00000000000E+00 0. -1.
</event>
<event>
 7    1  0.6833760E-006  0.9109850E+02  0.7561462E-02  0.1300213E+00
          1   -1    0    0  501    0  0.00000000000E+00  0.00000000000E+00  0.93918562321E+02  0.93918562321E+02  0.00000000000E+00 0. -1.
         -1   -1    0    0    0  501 -0.00000000000E+00 -0.00000000000E+00 -0.16966507550E+03  0.16966507550E+03  0.00000000000E+00 0.  1.
         23    2    1    2    0    0  0.45256646097E+02 -0.45086217636E+02 -0.55574413903E+02  0.15105424183E+03  0.12509171619E+03 0.  0.
          5    1    3    3  502    0  0.19624948014E+00 -0.52568457707E+02 -0.82464947956E+02  0.97884734769E+02  0.41800000000E+01 0. -1.
         -5    1    3    3    0  502  0.45060396617E+02  0.74822400706E+01  0.26890534053E+02  0.53169507063E+02  0.41800000000E+01 0. -1.
        -11    1    1    2    0    0 -0.30887687057E+02 -0.51758753321E+01  0.27576682824E+02  0.41729034649E+02  0.00000000000E+00 0.  1.
         11    1    1    2    0    0 -0.14368959040E+02  0.50262092968E+02 -0.47748782096E+02  0.70800361334E+02  0.00000000000E+00 0. -1.
</event>
<event>
 6    1  0.6833760E-006  0.1279646E+03  0.7561462E-02  0.1230508E+00
          2   -1    0    0  501    0  0.00000000000E+00  0.00000000000E+00  0.15574770667E+03  0.15574770667E+03  0.00000000000E+00 0. -1.
         -2   -1    0    0    0  501 -0.00000000000E+00 -0.00000000000E+00 -0.10867070285E+03  0.10867070285E+03  0.00000000000E+00 0.  1.
          5    1    1    2  502    0 -0.43380066070E+02 -0.69297368649E+02  0.23981345970E+02  0.85302595438E+02  0.41800000000E+01 0. -1.
         -5    1    1    2    0  502  0.60953053690E+02  0.36040443549E+01 -0.59551652658E+01  0.61491465125E+02  0.41800000000E+01 0.  1.
        -11    1    1    2    0    0  0.33498555541E+02  0.48564410896E+02  0.69716005471E+01  0.59407562172E+02  0.00000000000E+00 0.  1.
         11    1    1    2    0    0 -0.51071543161E+02  0.17128913398E+02  0.22079222568E+02  0.58216786791E+02  0.00000000000E+00 0. -1.
</event>
<event>
 7    1  0.6833760E-006  0.1118691E+03  0.7561462E-02  0.1257147E+00
          2   -1    0    0  501    0  0.00000000000E+00  0.00000000000E+00  0.44494533912E+03  0.44494533912E+03  0.00000000000E+00 0.  1.
         -2   -1    0    0    0  501 -0.00000000000E+00 -0.00000000000E+00 -0.48978722899E+02  0.48978722899E+02  0.00000000000E+00 0. -1.
         23    2    1    2    0    0 -0.83912555500E+02  0.61008417831E+01  0.13217837624E+03  0.20048910534E+03  0.12508485509E+03 0.  0.
          5    1    3    3  502    0 -0.25451798560E+02 -0.24777063449E+02 -0.15234527687E+02  0.38874929670E+02  0.41800000000E+01 0.  1.
         -5    1    3    3    0  502 -0.58460756940E+02  0.30877905232E+02  0.14741290392E+03  0.16161417567E+03  0.41800000000E+01 0.  1.
        -11    1    1    2    0    0 -0.26563368668E+01 -0.31419096115E+02  0.11678875339E+03  0.12097036268E+03  0.00000000000E+00 0.  1.
         11    1    1    2    0    0  0.86568892367E+02  0.25318254332E+02  0.14699948658E+03  0.17246459400E+03  0.00000000000E+00 0. -1.
</event>
<event>
 7    1  0.6833760E-006  0.1623349E+03  0.7561462E-02  0.1186086E+00
          1   -1    0    0  501    0  0.00000000000E+00  0.00000000000E+00  0.41061568345E+02  0.41061568345E+02  0.00000000000E+00 0. -1.
         -1   -1    0    0    0  501 -0.00000000000E+00 -0.00000000000E+00 -0.68172793164E+03  0.68172793164E+03  0.00000000000E+00 0.  1.
         23    2    1    2    0    0  0.48168446724E+02  0.11127411765E+03 -0.41606586916E+03  0.45106587751E+03  0.12508992707E+03 0.  0.
          5    1    3    3  502    0  0.12026801903E+01  0.12341648827E+03 -0.26532592961E+03  0.29265747443E+03  0.41800000000E+01 0. -1.
         -5    1    3    3    0  502  0.46965766534E+02 -0.12142370620E+02 -0.15073993956E+03  0.15840840309E+03  0.41800000000E+01 0. -1.
        -11    1    1    2    0    0 -0.30306810935E+02 -0.12584061161E+03 -0.18275135052E+03  0.22394735640E+03  0.00000000000E+00 0.  1.
         11    1    1    2    0    0 -0.17861635790E+02  0.14566493958E+02 -0.41849143609E+02  0.47776266076E+02  0.00000000000E+00 0. -1.
</event>
<event>
 7    1  0.6833760E-006  0.1024503E+03  0.7561462E-02  0.1275226E+00
          1   -1    0    0  501    0  0.00000000000E+00  0.00000000000E+00  0.43226282124E+03  0.43226282124E+03  0.00000000000E+00 0. -1.
         -1   -1    0    0    0  501 -0.00000000000E+00 -0.00000000000E+00 -0.35342708239E+02  0.35342708239E+02  0.00000000000E+00 0.  1.
         23    2    1    2    0    0 -0.16198355535E+02 -0.59371101338E+02  0.18227982307E+03  0.22643191421E+03  0.11940755201E+03 0.  0.
          5    1    3    3  502    0 -0.40305861436E+02  0.79144735658E+01  0.13365031276E+03  0.13988237866E+03  0.41800000000E+01 0. -1.
         -5    1    3    3    0  502  0.24107505901E+02 -0.67285574904E+02  0.48629510313E+02  0.86549535551E+02  0.41800000000E+01 0.  1.
        -11    1    1    2    0    0  0.22025399915E+02  0.73502356128E+02  0.21226062246E+03  0.22570397968E+03  0.00000000000E+00 0. -1.
         11    1    1    2    0    0 -0.58270443796E+01 -0.14131254790E+02  0.23796674751E+01  0.15469635595E+02  0.00000000000E+00 0.  1.
</event>
<event>
 7    1  0.6833760E-006  0.1039695E+03  0.7561462E-02  0.1272163E+00
          1   -1    0    0  501    0  0.00000000000E+00  0.00000000000E+00  0.45942417713E+02  0.45942417713E+02  0.00000000000E+00 0. -1.
         -1   -1    0    0    0  501 -0.00000000000E+00 -0.00000000000E+00 -0.31245642275E+03  0.31245642275E+03  0.00000000000E+00 0.  1.
         23    2    1    2    0    0 -0.12298410198E+02 -0.26590838023E+02 -0.20892513851E+03  0.24527047030E+03  0.12509822758E+03 0.  0.
          5    1    3    3  502    0  0.52837403223E+02 -0.30374920113E+02 -0.12264765398E+03  0.13701951094E+03  0.41800000000E+01 0. -1.
         -5    1    3    3    0  502 -0.65135813421E+02  0.37840820898E+01 -0.86277484522E+02  0.10825095936E+03  0.41800000000E+01 0. -1.
        -11    1    1    2    0    0  0.62132254719E+01 -0.26913309691E+02 -0.52139989994E+02  0.59004313112E+02  0.00000000000E+00 0.  1.
         11    1    1    2    0    0  0.60851847259E+01  0.53504147714E+02 -0.54488765394E+01  0.54124057048E+02  0.00000000000E+00 0. -1.
</event>
<event>
 7    1  0.6833760E-006  0.1321942E+03  0.7561462E-02  0.1224236E+00
          2   -1    0    0  501    0  0.00000000000E+00  0.00000000000E+00  0.27873873289E+02  0.27873873289E+02  0.00000000000E+00 0. -1.
         -2   -1    0    0    0  501 -0.00000000000E+00 -0.00000000000E+00 -0.84430590070E+03  0.84430590070E+03  0.00000000000E+00 0.  1.
         23    2    1    2    0    0 -0.45884020094E+02 -0.98237591991E+02 -0.40772194165E+03  0.44004238930E+03  0.12507659613E+03 0.  0.
          5    1    3    3  502    0 -0.63506479420E+02 -0.50550522376E+02 -0.36367486506E+03  0.37264635799E+03  0.41800000000E+01 0. -1.
         -5    1    3    3    0  502  0.17622459326E+02 -0.47687069614E+02 -0.44047076581E+02  0.67396031310E+02  0.41800000000E+01 0. -1.
        -11    1    1    2    0    0 -0.24910914726E+01  0.80558193296E+02 -0.31563037150E+03  0.32575813030E+03  0.00000000000E+00 0.  1.
         11    1    1    2    0    0  0.48375111567E+02  0.17679398694E+02 -0.93079714270E+02  0.10637925440E+03  0.00000000000E+00 0. -1.
</event>
<event>
 7    1  0.6833760E-006  0.1047340E+03  0.7561462E-02  0.1270645E+00
         -2   -1    0    0    0  501 -0.00000000000E+00  0.00000000000E+00  0.46805749214E+02  0.46805749214E+02  0.00000000000E+00 0.  1.
          2   -1    0    0  501    0  0.00000000000E+00 -0.00000000000E+00 -0.34543890732E+03  0.34543890732E+03  0.00000000000E+00 0. -1.
         23    2    1    2    0    0 -0.72443817255E+02 -0.27567924127E+02 -0.17078044399E+03  0.21764895450E+03  0.11044007538E+03 0.  0.
          5    1    3    3  502    0  0.54533687546E+01 -0.18725210781E+02 -0.12538291217E+03  0.12695952038E+03  0.41800000000E+01 0. -1.
         -5    1    3    3    0  502 -0.77897186010E+02 -0.88427133468E+01 -0.45397531815E+02  0.90689434128E+02  0.41800000000E+01 0.  1.
        -11    1    1    2    0    0 -0.17515321222E+02  0.31200275599E+01 -0.18928982129E+01  0.17891453633E+02  0.00000000000E+00 0.  1.
         11    1    1    2    0    0  0.89959138477E+02  0.24447896568E+02 -0.12595981590E+03  0.15670424839E+03  0.00000000000E+00 0. -1.
</event>
<event>
 7    1  0.6833760E-006  0.1038470E+03  0.7561462E-02  0.1272408E+00
          2   -1    0    0  501    0  0.00000000000E+00  0.00000000000E+00  0.26147270910E+03  0.26147270910E+03  0.00000000000E+00 0. -1.
         -2   -1    0    0    0  501 -0.00000000000E+00 -0.00000000000E+00 -0.50216077288E+02  0.50216077288E+02  0.00000000000E+00 0.  1.
         23    2    1    2    0    0  0.17168852775E+02 -0.29417727113E+02  0.10630059822E+03  0.16766952023E+03  0.12511226423E+03 0.  0.
          5    1    3    3  502    0 -0.46411223103E+02  0.30308677120E+01  0.77710079063E+02  0.90661549606E+02  0.41800000000E+01 0.  1.
         -5    1    3    3    0  502  0.63580075878E+02 -0.32448594825E+02  0.28590519154E+02  0.77007970628E+02  0.41800000000E+01 0.  1.
        -11    1    1    2    0    0 -0.36110163954E+02 -0.16589570640E+02  0.17543202437E+02  0.43438712533E+02  0.00000000000E+00 0.  1.
         11    1    1    2    0    0  0.18941311179E+02  0.46007297753E+02  0.87412831160E+02  0.10058055362E+03  0.00000000000E+00 0. -1.
</event>
<event>
 7    1  0.6833760E-006  0.9473389E+02  0.7561462E-02  0.1291777E+00
          3   -1    0    0  501    0  0.00000000000E+00  0.00000000000E+00  0.79105662084E+02  0.79105662084E+02  0.00000000000E+00 0. -1.
         -3   -1    0    0    0  501 -0.00000000000E+00 -0.00000000000E+00 -0.19385310560E+03  0.19385310560E+03  0.00000000000E+00 0.  1.
         23    2    1    2    0    0  0.25668022096E+02  0.13475265858E+01 -0.12223670700E+03  0.17679258777E+03  0.12511252282E+03 0.  0.
          5    1    3    3  502    0  0.49207751390E+01 -0.60130404170E+02 -0.42544871605E+02  0.73941991004E+02  0.41800000000E+01 0.  1.
         -5    1    3    3    0  502  0.20747246957E+02  0.61477930756E+02 -0.79691835400E+02  0.10285059677E+03  0.41800000000E+01 0.  1.
        -11    1    1    2    0    0 -0.13595260825E+02  0.28609040517E+02 -0.32084379279E+02  0.45085648602E+02  0.00000000000E+00 0.  1.
         11    1    1    2    0    0 -0.12072761271E+02 -0.29956567103E+02  0.39573642766E+02  0.51080531311E+02  0.00000000000E+00 0. -1.
</event>
<event>
 7    1  0.6833760E-006  0.1113434E+03  0.7561462E-02  0.1258102E+00
          1   -1    0    0  501    0  0.00000000000E+00  0.00000000000E+00  0.99990110007E+03  0.99990110007E+03  0.00000000000E+00 0. -1.
         -1   -1    0    0    0  501 -0.00000000000E+00 -0.00000000000E+00 -0.16504629519E+02  0.16504629519E+02  0.00000000000E+00 0.  1.
         23    2    1    2    0    0  0.49959005347E+02 -0.47403984723E+02  0.55164446177E+03  0.56982707681E+03  0.12509294659E+03 0.  0.
          5    1    3    3  502    0  0.54686274902E+02 -0.67913814944E+02  0.53651704251E+03  0.54357233579E+03  0.41800000000E+01 0. -1.
         -5    1    3    3    0  502 -0.47272695551E+01  0.20509830221E+02  0.15127419252E+02  0.26254741026E+02  0.41800000000E+01 0. -1.
        -11    1    1    2    0    0  0.14719572426E+02  0.47002874801E+02  0.17420289865E+03  0.18103200255E+03  0.00000000000E+00 0. -1.
         11    1    1    2    0    0 -0.64678577773E+02  0.40110992223E+00  0.25754911014E+03  0.26554665022E+03  0.00000000000E+00 0.  1.
</event>
<event>
 7    1  0.6833760E-006  0.1410248E+03  0.7561462E-02  0.1211957E+00
         -2   -1    0    0    0  501 -0.00000000000E+00  0.00000000000E+00  0.82290622968E+02  0.82290622968E+02  0.00000000000E+00 0.  1.
          2   -1    0    0  501    0  0.00000000000E+00 -0.00000000000E+00 -0.37931381011E+03  0.37931381011E+03  0.00000000000E+00 0. -1.
         23    2    1    2    0    0  0.37065402057E+02 -0.83309664827E+02 -0.20215393085E+02  0.15609878637E+03  0.12507527615E+03 0.  0.
          5    1    3    3  502    0  0.72886067491E+02 -0.92227703836E+02 -0.16064073524E+02  0.11871754313E+03  0.41800000000E+01 0. -1.
         -5    1    3    3    0  502 -0.35820665434E+02  0.89180390084E+01 -0.41513195609E+01  0.37381243238E+02  0.41800000000E+01 0. -1.
        -11    1    1    2    0    0 -0.49033040070E+02  0.97243510533E+02 -0.25293413049E+03  0.27538375720E+03  0.00000000000E+00 0.  1.
         11    1    1    2    0    0  0.11967638014E+02 -0.13933845706E+02 -0.23873663559E+02  0.30121889508E+02  0.00000000000E+00 0. -1.
</event>
<event>
 7    1  0.6833760E-006  0.1446736E+03  0.7561462E-02  0.1207175E+00
         -1   -1    0    0    0  501 -0.00000000000E+00  0.00000000000E+00  0.67834739880E+02  0.67834739880E+02  0.00000000000E+00 0.  1.
          1   -1    0    0  501    0  0.00000000000E+00 -0.00000000000E+00 -0.34239247983E+03  0.34239247983E+03  0.00000000000E+00 0. -1.
         23    2    1    2    0    0  0.93375972147E+02  0.19984435896E+02 -0.85269839625E+02  0.17899162214E+03  0.12509438594E+03 0.  0.
          5    1    3    3  502    0  0.37701505156E+02  0.71440520036E+02 -0.51529688856E+02  0.95905852937E+02  0.41800000000E+01 0. -1.
         -5    1    3    3    0  502  0.55674466991E+02 -0.51456084140E+02 -0.33740150769E+02  0.83085769200E+02  0.41800000000E+01 0. -1.
        -11    1    1    2    0    0 -0.33648211974E+02  0.36979961797E+02 -0.64211276277E+02  0.81380634948E+02  0.00000000000E+00 0. -1.
         11    1    1    2    0    0 -0.59727760173E+02 -0.56964397692E+02 -0.12507662405E+03  0.14985496263E+03  0.00000000000E+00 0.  1.
</event>
<event>
 7    1  0.6833760E-006  0.1036816E+03  0.7561462E-02  0.1272739E+00
         -2   -1    0    0    0  501 -0.00000000000E+00  0.00000000000E+00  0.41428719290E+02  0.41428719290E+02  0.00000000000E+00 0. -1.
          2   -1    0    0  501    0  0.00000000000E+00 -0.00000000000E+00 -0.26586612596E+03  0.26586612596E+03  0.00000000000E+00 0.  1.
         23    2    1    2    0    0  0.21597189855E+01  0.10677816276E+02 -0.11984450406E+03  0.17357841286E+03  0.12509228637E+03 0.  0.
          5    1    3    3  502    0  0.38256223658E+02  0.54785109850E+02 -0.77733098079E+02  0.10259071033E+03  0.41800000000E+01 0.  1.
         -5    1    3    3    0  502 -0.36096504673E+02 -0.44107293574E+02 -0.42111405984E+02  0.70987702527E+02  0.41800000000E+01 0.  1.
        -11    1    1    2    0    0 -0.42281560844E+02 -0.81744598082E+01 -0.51904124704E+02  0.67443237925E+02  0.00000000000E+00 0.  1.
         11    1    1    2    0    0  0.40121841858E+02 -0.25033564674E+01 -0.52688777906E+02  0.66273194468E+02  0.00000000000E+00 0. -1.
</event>
<event>
 6    1  0.6833760E-006  0.1289918E+03  0.7561462E-02  0.1228959E+00
         -2   -1    0    0    0  501 -0.00000000000E+00  0.00000000000E+00  0.42805540350E+03  0.42805540350E+03  0.00000000000E+00 0.  1.
          2   -1    0    0  501    0  0.00000000000E+00 -0.00000000000E+00 -0.45989750062E+02  0.45989750062E+02  0.00000000000E+00 0. -1.
          5    1    1    2  502    0 -0.82339403113E+02 -0.31754369317E+02  0.16171823587E+03  0.18427798970E+03  0.41800000000E+01 0. -1.
         -5    1    1    2    0  502  0.78411331344E+02 -0.11695746448E+01  0.13852566990E+03  0.15923736499E+03  0.41800000000E+01 0.  1.
        -11    1    1    2    0    0  0.35769914052E+01 -0.28979039231E+02  0.56594291635E+02  0.63682756127E+02  0.00000000000E+00 0. -1.
         11    1    1    2    0    0  0.35108036364E+00  0.61902983193E+02  0.25227456034E+02  0.66847042743E+02  0.00000000000E+00 0.  1.
</event>
<event>
 7    1  0.6833760E-006  0.1419411E+03  0.7561462E-02  0.1210741E+00
         -1   -1    0    0    0  501 -0.00000000000E+00  0.00000000000E+00  0.16134929119E+02  0.16134929119E+02  0.00000000000E+00 0.  1.
          1   -1    0    0  501    0  0.00000000000E+00 -0.00000000000E+00 -0.14410831635E+04  0.14410831635E+04  0.00000000000E+00 0. -1.
         23    2    1    2    0    0 -0.10965725942E+03 -0.14869081992E+02 -0.81201608432E+03  0.82757870496E+03  0.11519803637E+03 0.  0.
          5    1    3    3  502    0 -0.11802983761E+03 -0.31616551730E+02 -0.49111958065E+03  0.50610924098E+03  0.41800000000E+01 0. -1.
         -5    1    3    3    0  502  0.83725781957E+01  0.16747469738E+02 -0.32089650367E+03  0.32146946399E+03  0.41800000000E+01 0.  1.
        -11    1    1    2    0    0  0.12356732675E+03  0.23890492951E+02 -0.56718485776E+03  0.58098046677E+03  0.00000000000E+00 0.  1.
         11    1    1    2    0    0 -0.13910067327E+02 -0.90214109590E+01 -0.45747292330E+02  0.48658920912E+02  0.00000000000E+00 0. -1.
</event>
<event>
 6    1  0.6833760E-006  0.1736747E+03  0.7561462E-02  0.1174069E+00
          1   -1    0    0  501    0  0.00000000000E+00  0.00000000000E+00  0.80682217316E+03  0.80682217316E+03  0.00000000000E+00 0. -1.
         -1   -1    0    0    0  501 -0.00000000000E+00 -0.00000000000E+00 -0.42538896752E+02  0.42538896752E+02  0.00000000000E+00 0.  1.
          5    1    1    2  502    0 -0.58021097593E+02  0.64916277532E+02  0.28520521032E+03  0.29822819325E+03  0.41800000000E+01 0. -1.
         -5    1    1    2    0  502  0.12884856875E+03 -0.85929996823E+02  0.28513788633E+03  0.32451040761E+03  0.41800000000E+01 0. -1.
        -11    1    1    2    0    0 -0.43723572075E+02  0.49422987727E+02  0.16541144639E+03  0.17808798126E+03  0.00000000000E+00 0.  1.
         11    1    1    2    0    0 -0.27103899084E+02 -0.28409268435E+02  0.28528733364E+02  0.48534487799E+02  0.00000000000E+00 0. -1.
</event>
<event>
 7    1  0.6833760E-006  0.1124004E+03  0.7561462E-02  0.1256188E+00
          2   -1    0    0  501    0  0.00000000000E+00  0.00000000000E+00  0.60992459901E+03  0.60992459901E+03  0.00000000000E+00 0. -1.
         -2   -1    0    0    0  501 -0.00000000000E+00 -0.00000000000E+00 -0.29431918060E+02  0.29431918060E+02  0.00000000000E+00 0.  1.
         23    2    1    2    0    0  0.50551189233E+00  0.52883633037E+02  0.18051945367E+03  0.22590278000E+03  0.12509140127E+03 0.  0.
          5    1    3    3  502    0  0.47731992497E+02  0.56400902463E+02  0.15542526283E+03  0.17214496691E+03  0.41800000000E+01 0.  1.
         -5    1    3    3    0  502 -0.47226480604E+02 -0.35172694260E+01  0.25094190845E+02  0.53757813094E+02  0.41800000000E+01 0.  1.
        -11    1    1    2    0    0  0.44084167340E+02 -0.25569190148E+02  0.16305967951E+03  0.17083809990E+03  0.00000000000E+00 0.  1.
         11    1    1    2    0    0 -0.44589679232E+02 -0.27314442889E+02  0.23691354777E+03  0.24261563717E+03  0.00000000000E+00 0. -1.
</event>
<event>
 7    1  0.6833760E-006  0.9155506E+02  0.7561462E-02  0.1299129E+00
         -1   -1    0    0    0  501 -0.00000000000E+00  0.00000000000E+00  0.55283220081E+02  0.55283220081E+02  0.00000000000E+00 0.  1.
          1   -1    0    0  501    0  0.00000000000E+00 -0.00000000000E+00 -0.22337194446E+03  0.22337194446E+03  0.00000000000E+00 0. -1.
         23    2    1    2    0    0  0.22245710544E+02  0.42859948075E+01 -0.85069007267E+02  0.15296413970E+03  0.12509216861E+03 0.  0.
          5    1    3    3  502    0  0.34953945415E+01 -0.40268125652E+02 -0.95101005310E+02  0.10341863148E+03  0.41800000000E+01 0.  1.
         -5    1    3    3    0  502  0.18750316003E+02  0.44554120459E+02  0.10031998043E+02  0.49545508221E+02  0.41800000000E+01 0.  1.
        -11    1    1    2    0    0 -0.56979281765E+02 -0.12340997784E+02 -0.45706984962E+02  0.74081490610E+02  0.00000000000E+00 0.  1.
         11    1    1    2    0    0  0.34733571221E+02  0.80550029764E+01 -0.37312732146E+02  0.51609534225E+02  0.00000000000E+00 0. -1.
</event>
<event>
 7    1  0.6833760E-006  0.1575722E+03  0.7561462E-02  0.1191465E+00
         -3   -1    0    0    0  501 -0.00000000000E+00  0.00000000000E+00  0.69474868942E+02  0.69474868942E+02  0.00000000000E+00 0.  1.
          3   -1    0    0  501    0  0.00000000000E+00 -0.00000000000E+00 -0.36207779564E+03  0.36207779564E+03  0.00000000000E+00 0. -1.
         23    2    1    2    0    0  0.10105360787E+03 -0.54837104982E+02 -0.14447728692E+03  0.22302894624E+03  0.12509710100E+03 0.  0.
          5    1    3    3  502    0 -0.29443072754E+02 -0.15272798589E+02 -0.30593245268E+02  0.45316354288E+02  0.41800000000E+01 0. -1.
         -5    1    3    3    0  502  0.13049668063E+03 -0.39564306394E+02 -0.11388404165E+03  0.17771259195E+03  0.41800000000E+01 0. -1.
        -11    1    1    2    0    0 -0.18885992728E+02  0.60054235481E+02 -0.49735798951E+02  0.80229929689E+02  0.00000000000E+00 0.  1.
         11    1    1    2    0    0 -0.82167615143E+02 -0.52171304988E+01 -0.98389840827E+02  0.12829378865E+03  0.00000000000E+00 0. -1.
</event>
<event>
 7    1  0.6833760E-006  0.1125446E+03  0.7561462E-02  0.1255929E+00
         -2   -1    0    0    0  501 -0.00000000000E+00  0.00000000000E+00  0.68560214393E+02  0.68560214393E+02  0.00000000000E+00 0.  1.
          2   -1    0    0  501    0  0.00000000000E+00 -0.00000000000E+00 -0.28710867655E+03  0.28710867655E+03  0.00000000000E+00 0. -1.
         23    2    1    2    0    0  0.35177494539E+00  0.64458344558E+02 -0.38876431408E+02  0.14599237918E+03  0.12508955164E+03 0.  0.
          5    1    3    3  502    0 -0.48016030094E+02  0.66409740690E+02 -0.50078105555E+02  0.96130545929E+02  0.41800000000E+01 0.  1.
         -5    1    3    3    0  502  0.48367805039E+02 -0.19513961325E+01  0.11201674148E+02  0.49861833249E+02  0.41800000000E+01 0.  1.
        -11    1    1    2    0    0 -0.34554700884E+02 -0.36579136273E+02 -0.14522948577E+03  0.15369991575E+03  0.00000000000E+00 0. -1.
         11    1    1    2    0    0  0.34202925939E+02 -0.27879208285E+02 -0.34442544983E+02  0.55976596023E+02  0.00000000000E+00 0.  1.
</event>
<event>
 7    1  0.6833760E-006  0.1017016E+03  0.7561462E-02  0.1276758E+00
          4   -1    0    0  501    0  0.00000000000E+00  0.00000000000E+00  0.64242345530E+03  0.64242345530E+03  0.00000000000E+00 0. -1.
         -4   -1    0    0    0  501 -0.00000000000E+00 -0.00000000000E+00 -0.30453573742E+02  0.30453573742E+02  0.00000000000E+00 0.  1.
         23    2    1    2    0    0 -0.78189201681E+02 -0.40282053611E+02  0.32079522691E+03  0.35537693136E+03  0.12508793162E+03 0.  0.
          5    1    3    3  502    0 -0.29706654273E+02 -0.24968644640E+01  0.27970862673E+03  0.28132384881E+03  0.41800000000E+01 0.  1.
         -5    1    3    3    0  502 -0.48482547408E+02 -0.37785189147E+02  0.41086600174E+02  0.74053082555E+02  0.41800000000E+01 0.  1.
        -11    1    1    2    0    0  0.14092367238E+02 -0.19488349513E+02  0.16456904596E+02  0.29141384490E+02  0.00000000000E+00 0.  1.
         11    1    1    2    0    0  0.64096834443E+02  0.59770403125E+02  0.27471775006E+03  0.28835871319E+03  0.00000000000E+00 0. -1.
</event>
<event>
 7    1  0.6833760E-006  0.2536928E+03  0.7561462E-02  0.1110993E+00
          1   -1    0    0  501    0  0.00000000000E+00  0.00000000000E+00  0.96434138423E+03  0.96434138423E+03  0.00000000000E+00 0. -1.
         -1   -1    0    0    0  501 -0.00000000000E+00 -0.00000000000E+00 -0.71911902046E+02  0.71911902046E+02  0.00000000000E+00 0.  1.
         23    2    1    2    0    0 -0.16559069107E+01  0.23973097285E+03  0.45903948509E+03  0.53276416598E+03  0.12508687505E+03 0.  0.
          5    1    3    3  502    0 -0.19680197658E+02  0.22869646260E+03  0.45661971820E+03  0.51108553260E+03  0.41800000000E+01 0. -1.
         -5    1    3    3    0  502  0.18024290748E+02  0.11034510259E+02  0.24197668914E+01  0.21678633384E+02  0.41800000000E+01 0. -1.
        -11    1    1    2    0    0  0.43730945298E+02 -0.16287311444E+03  0.28701816408E+03  0.33289558948E+03  0.00000000000E+00 0. -1.
         11    1    1    2    0    0 -0.42075038388E+02 -0.76857858419E+02  0.14637183302E+03  0.17059353082E+03  0.00000000000E+00 0.  1.
</event>
<event>
 7    1  0.6833760E-006  0.1238183E+03  0.7561462E-02  0.1236928E+00
         -1   -1    0    0    0  501 -0.00000000000E+00  0.00000000000E+00  0.66442133810E+02  0.66442133810E+02  0.00000000000E+00 0.  1.
          1   -1    0    0  501    0  0.00000000000E+00 -0.00000000000E+00 -0.25273181078E+03  0.25273181078E+03  0.00000000000E+00 0. -1.
         23    2    1    2    0    0  0.44312281617E+02 -0.68463079736E+01 -0.94814846719E+02  0.16323776030E+03  0.12508501507E+03 0.  0.
          5    1    3    3  502    0 -0.38297682442E+02  0.39825669236E+01 -0.24950287603E+01  0.38810705846E+02  0.41800000000E+01 0. -1.
         -5    1    3    3    0  502  0.82609964059E+02 -0.10828874897E+02 -0.92319817959E+02  0.12442705446E+03  0.41800000000E+01 0. -1.
        -11    1    1    2    0    0 -0.21390660725E+02  0.62091642835E+02 -0.39080488336E+02  0.76421312765E+02  0.00000000000E+00 0.  1.
         11    1    1    2    0    0 -0.22921620891E+02 -0.55245334861E+02 -0.52394341914E+02  0.79514871520E+02  0.00000000000E+00 0. -1.
</event>
<event>
 7    1  0.6833760E-006  0.1174025E+03  0.7561462E-02  0.1247445E+00
         -3   -1    0    0    0  501 -0.00000000000E+00  0.00000000000E+00  0.16202833819E+02  0.16202833819E+02  0.00000000000E+00 0.  1.
          3   -1    0    0  501    0  0.00000000000E+00 -0.00000000000E+00 -0.89968500013E+03  0.89968500013E+03  0.00000000000E+00 0. -1.
         23    2    1    2    0    0 -0.44574467022E+01 -0.47130143871E+02 -0.40140685545E+03  0.42310236930E+03  0.12508809699E+03 0.  0.
          5    1    3    3  502    0  0.18409298172E+02 -0.86066113850E+02 -0.25161017066E+03  0.26659225156E+03  0.41800000000E+01 0. -1.
         -5    1    3    3    0  502 -0.22866744874E+02  0.38935969979E+02 -0.14979668479E+03  0.15651011773E+03  0.41800000000E+01 0. -1.
        -11    1    1    2    0    0  0.43004391596E+02  0.35299842690E+01 -0.17473630395E+03  0.17998503939E+03  0.00000000000E+00 0. -1.
         11    1    1    2    0    0 -0.38546944894E+02  0.43600159602E+02 -0.30733900691E+03  0.31280042527E+03  0.00000000000E+00 0.  1.
</event>
<event>
 7    1  0.6833760E-006  0.1248726E+03  0.7561462E-02  0.1235269E+00
         -1   -1    0    0    0  501 -0.00000000000E+00  0.00000000000E+00  0.19162389645E+03  0.19162389645E+03  0.00000000000E+00 0.  1.
          1   -1    0    0  501    0  0.00000000000E+00 -0.00000000000E+00 -0.25375345368E+03  0.25375345368E+03  0.00000000000E+00 0. -1.
         23    2    1    2    0    0  0.57697095217E+02  0.90371189662E+02  0.13331549852E+03  0.20416690256E+03  0.11142349501E+03 0.  0.
          5    1    3    3  502    0  0.63005453009E+02  0.97863786519E+02  0.14675996832E+03  0.18735786218E+03  0.41800000000E+01 0. -1.
         -5    1    3    3    0  502 -0.53083577916E+01 -0.74925968569E+01 -0.13444469804E+02  0.16809040378E+02  0.41800000000E+01 0.  1.
        -11    1    1    2    0    0 -0.30366836236E+02 -0.90916374663E+02 -0.19074307722E+03  0.21347330848E+03  0.00000000000E+00 0.  1.
         11    1    1    2    0    0 -0.27330258982E+02  0.54518500071E+00 -0.47019785241E+01  0.27737139087E+02  0.00000000000E+00 0. -1.
</event>
<event>
 7    1  0.6833760E-006  0.1530374E+03  0.7561462E-02  0.1196790E+00
         -2   -1    0    0    0  501 -0.00000000000E+00  0.00000000000E+00  0.34406775703E+03  0.34406775703E+03  0.00000000000E+00 0. -1.
          2   -1    0    0  501    0  0.00000000000E+00 -0.00000000000E+00 -0.10928185507E+03  0.10928185507E+03  0.00000000000E+00 0.  1.
         23    2    1    2    0    0  0.11218964738E+03 -0.59069909067E+02  0.23768081951E+03  0.29700986111E+03  0.12508762728E+03 0.  0.
          5    1    3    3  502    0 -0.90221434081E+01 -0.52558256569E+02  0.10003463003E+03  0.11343795225E+03  0.41800000000E+01 0. -1.
         -5    1    3    3    0  502  0.12121179079E+03 -0.65116524972E+01  0.13764618947E+03  0.18357190885E+03  0.41800000000E+01 0. -1.
        -11    1    1    2    0    0 -0.44433694402E+02  0.42248269646E+02 -0.43869202275E+02  0.75390824339E+02  0.00000000000E+00 0.  1.
         11    1    1    2    0    0 -0.67755952977E+02  0.16821639421E+02  0.40974284731E+02  0.80948926650E+02  0.00000000000E+00 0. -1.
</event>
<event>
 7    1  0.6833760E-006  0.1042372E+03  0.7561462E-02  0.1271630E+00
          2   -1    0    0  501    0  0.00000000000E+00  0.00000000000E+00  0.44507577649E+03  0.44507577649E+03  0.00000000000E+00 0. -1.
         -2   -1    0    0    0  501 -0.00000000000E+00 -0.00000000000E+00 -0.51631381609E+02  0.51631381609E+02  0.00000000000E+00 0.  1.
         23    2    1    2    0    0  0.34229981113E+02  0.35652378280E+02  0.52266658082E+02  0.13995135409E+03  0.12004913278E+03 0.  0.
          5    1    3    3  502    0  0.26986114279E+02 -0.40408856660E+02  0.38651843793E+02  0.62229924386E+02  0.41800000000E+01 0. -1.
         -5    1    3    3    0  502  0.72438668336E+01  0.76061234940E+02  0.13614814289E+02  0.77721429705E+02  0.41800000000E+01 0.  1.
        -11    1    1    2    0    0 -0.60638359724E+01  0.19951791188E+02  0.17773437715E+02  0.27399619825E+02  0.00000000000E+00 0.  1.
         11    1    1    2    0    0 -0.28166145140E+02 -0.55604169468E+02  0.32340429908E+03  0.32935618418E+03  0.00000000000E+00 0. -1.
</event>
<event>
 7    1  0.6833760E-006  0.1036588E+03  0.7561462E-02  0.1272785E+00
          3   -1    0    0  501    0  0.00000000000E+00  0.00000000000E+00  0.17505298789E+03  0.17505298789E+03  0.00000000000E+00 0. -1.
         -3   -1    0    0    0  501 -0.00000000000E+00 -0.00000000000E+00 -0.10759274793E+03  0.10759274793E+03  0.00000000000E+00 0.  1.
         23    2    1    2    0    0  0.66461033739E+02  0.91335872720E+01  0.36477959732E+02  0.14656072548E+03  0.12509561657E+03 0.  0.
          5    1    3    3  502    0 -0.21906323916E+02 -0.55192844525E+01  0.50799214333E+02  0.55752866341E+02  0.41800000000E+01 0.  1.
         -5    1    3    3    0  502  0.88367357655E+02  0.14652871724E+02 -0.14321254601E+02  0.90807859143E+02  0.41800000000E+01 0.  1.
        -11    1    1    2    0    0  0.80913720929E+00 -0.25440463938E+02 -0.33101504495E+02  0.41756215205E+02  0.00000000000E+00 0.  1.
         11    1    1    2    0    0 -0.67270170948E+02  0.16306876666E+02  0.64083784723E+02  0.94328795128E+02  0.00000000000E+00 0. -1.
</event>
<event>
 7    1  0.6833760E-006  0.1392454E+03  0.7561462E-02  0.1214348E+00
         -2   -1    0    0    0  501 -0.00000000000E+00  0.00000000000E+00  0.28433596764E+02  0.28433596764E+02  0.00000000000E+00 0.  1.
          2   -1    0    0  501    0  0.00000000000E+00 -0.00000000000E+00 -0.84385743441E+03  0.84385743441E+03  0.00000000000E+00 0. -1.
         23    2    1    2    0    0  0.88144861665E+02  0.52919225660E+02 -0.31480371381E+03  0.35400476652E+03  0.12509210770E+03 0.  0.
          5    1    3    3  502    0  0.95085968542E+02 -0.11423465040E+02 -0.16614063792E+03  0.19181246293E+03  0.41800000000E+01 0. -1.
         -5    1    3    3    0  502 -0.69411068771E+01  0.64342690700E+02 -0.14866307589E+03  0.16219230359E+03  0.41800000000E+01 0. -1.
        -11    1    1    2    0    0 -0.33907414165E+02  0.93773455780E+01 -0.56552377235E+02  0.66601942287E+02  0.00000000000E+00 0.  1.
         11    1    1    2    0    0 -0.54237447500E+02 -0.62296571238E+02 -0.44406774660E+03  0.45168432237E+03  0.00000000000E+00 0. -1.
</event>
<event>
 7    1  0.6833760E-006  0.1169796E+03  0.7561462E-02  0.1248165E+00
          4   -1    0    0  501    0  0.00000000000E+00  0.00000000000E+00  0.38600764998E+02  0.38600764998E+02  0.00000000000E+00 0.  1.
         -4   -1    0    0    0  501 -0.00000000000E+00 -0.00000000000E+00 -0.40525913038E+03  0.40525913038E+03  0.00000000000E+00 0. -1.
         23    2    1    2    0    0 -0.45288598254E+02  0.23250433819E+02 -0.26683015921E+03  0.29906062066E+03  0.12508909290E+03 0.  0.
          5    1    3    3  502    0 -0.68890095425E+02  0.58207568269E+02 -0.15376318734E+03  0.17831028135E+03  0.41800000000E+01 0.  1.
         -5    1    3    3    0  502  0.23601497172E+02 -0.34957134450E+02 -0.11306697187E+03  0.12075033932E+03  0.41800000000E+01 0.  1.
        -11    1    1    2    0    0  0.56786339786E+02  0.17121500375E+02 -0.76421534415E+02  0.96737195968E+02  0.00000000000E+00 0.  1.
         11    1    1    2    0    0 -0.11497741532E+02 -0.40371934194E+02 -0.23406671757E+02  0.48062078749E+02  0.00000000000E+00 0. -1.
</event>
<event>
 6    1  0.6833760E-006  0.1294813E+03  0.7561462E-02  0.1228227E+00
          2   -1    0    0  501    0  0.00000000000E+00  0.00000000000E+00  0.61490125422E+03  0.61490125422E+03  0.00000000000E+00 0. -1.
         -2   -1    0    0    0  501 -0.00000000000E+00 -0.00000000000E+00 -0.46903807200E+02  0.46903807200E+02  0.00000000000E+00 0.  1.
          5    1    1    2  502    0  0.77687797870E+02  0.30689241122E+02  0.22776134785E+03  0.24263125815E+03  0.41800000000E+01 0. -1.
         -5    1    1    2    0  502  0.24346415644E+02  0.14832246108E+02 -0.16049633864E+02  0.32981913627E+02  0.41800000000E+01 0.  1.
        -11    1    1    2    0    0 -0.59043073142E+02 -0.74208477517E+02  0.19516494419E+03  0.21698464937E+03  0.00000000000E+00 0.  1.
         11    1    1    2    0    0 -0.42991140371E+02  0.28686990286E+02  0.16112078885E+03  0.16920724028E+03  0.00000000000E+00 0. -1.
</event>
<event>
 7    1  0.6833760E-006  0.1006698E+03  0.7561462E-02  0.1278894E+00
          2   -1    0    0  501    0  0.00000000000E+00  0.00000000000E+00  0.58266051324E+03  0.58266051324E+03  0.00000000000E+00 0.  1.
         -2   -1    0    0    0  501 -0.00000000000E+00 -0.00000000000E+00 -0.21480366093E+02  0.21480366093E+02  0.00000000000E+00 0. -1.
         23    2    1    2    0    0 -0.13017496026E+02 -0.17816256010E+02  0.28013398065E+03  0.30781434327E+03  0.12564930811E+03 0.  0.
          5    1    3    3  502    0 -0.57351254252E+02 -0.45214823911E+02  0.13491749999E+03  0.15347231304E+03  0.41800000000E+01 0.  1.
         -5    1    3    3    0  502  0.44333758226E+02  0.27398567901E+02  0.14521648065E+03  0.15434203023E+03  0.41800000000E+01 0.  1.
        -11    1    1    2    0    0 -0.17213397044E+02  0.36507551824E+02  0.23350675034E+03  0.23696941750E+03  0.00000000000E+00 0.  1.
         11    1    1    2    0    0  0.30230893069E+02 -0.18691295814E+02  0.47539416164E+02  0.59357118564E+02  0.00000000000E+00 0. -1.
</event>
<event>
 7    1  0.6833760E-006  0.1108189E+03  0.7561462E-02  0.1259061E+00
          2   -1    0    0  501    0  0.00000000000E+00  0.00000000000E+00  0.16408282867E+03  0.16408282867E+03  0.00000000000E+00 0. -1.
         -2   -1    0    0    0  501 -0.00000000000E+00 -0.00000000000E+00 -0.14387296892E+03  0.14387296892E+03  0.00000000000E+00 0.  1.
         23    2    1    2    0    0  0.33415042162E+02  0.65065513010E+02 -0.78769153063E+02  0.16494021176E+03  0.12510238988E+03 0.  0.
          5    1    3    3  502    0 -0.26748911905E+02 -0.22952362802E+02 -0.65323075865E+01  0.36089592526E+02  0.41800000000E+01 0.  1.
         -5    1    3    3    0  502  0.60163954067E+02  0.88017875812E+02 -0.72236845476E+02  0.12885061923E+03  0.41800000000E+01 0.  1.
        -11    1    1    2    0    0 -0.19325034190E+02 -0.84276271325E+01  0.78312057038E+02  0.81100309020E+02  0.00000000000E+00 0. -1.
         11    1    1    2    0    0 -0.14090007972E+02 -0.56637885878E+02  0.20666955775E+02  0.61915276809E+02  0.00000000000E+00 0.  1.
</event>
<event>
 7    1  0.6833760E-006  0.9906974E+02  0.7561462E-02  0.1282264E+00
          1   -1    0    0  501    0  0.00000000000E+00  0.00000000000E+00  0.64346218445E+03  0.64346218445E+03  0.00000000000E+00 0. -1.
         -1   -1    0    0    0  501 -0.00000000000E+00 -0.00000000000E+00 -0.21914529306E+02  0.21914529306E+02  0.00000000000E+00 0.  1.
         23    2    1    2    0    0  0.49380741531E+01  0.11194306825E+02  0.24995524512E+03  0.27977464763E+03  0.12508609761E+03 0.  0.
          5    1    3    3  502    0 -0.90944838328E+00 -0.44051275389E+02  0.31490338270E+02  0.54318097943E+02  0.41800000000E+01 0.  1.
         -5    1    3    3    0  502  0.58475225364E+01  0.55245582214E+02  0.21846490685E+03  0.22545654969E+03  0.41800000000E+01 0.  1.
        -11    1    1    2    0    0 -0.41460617328E+02  0.23616458085E+02  0.23938789055E+03  0.24409687016E+03  0.00000000000E+00 0. -1.
         11    1    1    2    0    0  0.36522543175E+02 -0.34810764910E+02  0.13220451948E+03  0.14150519596E+03  0.00000000000E+00 0.  1.
</event>
<event>
 7    1  0.6833760E-006  0.2494952E+03  0.7561462E-02  0.1113624E+00
         -2   -1    0    0    0  501 -0.00000000000E+00  0.00000000000E+00  0.21154876861E+03  0.21154876861E+03  0.00000000000E+00 0.  1.
          2   -1    0    0  501    0  0.00000000000E+00 -0.00000000000E+00 -0.42602514137E+03  0.42602514137E+03  0.00000000000E+00 0. -1.
         23    2    1    2    0    0 -0.67025670299E+02  0.22655889284E+03  0.48593162019E+02  0.27171658522E+03  0.12508890793E+03 0.  0.
          5    1    3    3  502    0 -0.80198648323E+02  0.13212069063E+03 -0.17532425185E+02  0.15560385091E+03  0.41800000000E+01 0.  1.
         -5    1    3    3    0  502  0.13172978024E+02  0.94438202210E+02  0.66125587204E+02  0.11611273431E+03  0.41800000000E+01 0.  1.
        -11    1    1    2    0    0  0.61146864795E+02 -0.72844920656E+02 -0.65566093049E+02  0.11551724589E+03  0.00000000000E+00 0. -1.
         11    1    1    2    0    0  0.58788055038E+01 -0.15371397218E+03 -0.19750344173E+03  0.25034007888E+03  0.00000000000E+00 0.  1.
</event>
<event>
 7    1  0.6833760E-006  0.1010758E+03  0.7561462E-02  0.1278050E+00
          3   -1    0    0  501    0  0.00000000000E+00  0.00000000000E+00  0.31356345216E+02  0.31356345216E+02  0.00000000000E+00 0. -1.
         -3   -1    0    0    0  501 -0.00000000000E+00 -0.00000000000E+00 -0.43715253533E+03  0.43715253533E+03  0.00000000000E+00 0.  1.
         23    2    1    2    0    0  0.24202084113E+02 -0.32720661253E+02 -0.24888228138E+03  0.28150734024E+03  0.12509040761E+03 0.  0.
          5    1    3    3  502    0 -0.23662335603E+02 -0.59478908438E+02 -0.72771112115E+02  0.97009039958E+02  0.41800000000E+01 0.  1.
         -5    1    3    3    0  502  0.47864419716E+02  0.26758247185E+02 -0.17611116926E+03  0.18449830028E+03  0.41800000000E+01 0.  1.
        -11    1    1    2    0    0 -0.68866171312E+01 -0.23339232978E+02 -0.10771918015E+03  0.11043354139E+03  0.00000000000E+00 0.  1.
         11    1    1    2    0    0 -0.17315466981E+02  0.56059894231E+02 -0.49194728593E+02  0.76567998925E+02  0.00000000000E+00 0. -1.
</event>
<event>
 7    1  0.6833760E-006  0.9082392E+02  0.7561462E-02  0.1300869E+00
          3   -1    0    0  501    0  0.00000000000E+00  0.00000000000E+00  0.23873437867E+02  0.23873437867E+02  0.00000000000E+00 0. -1.
         -3   -1    0    0    0  501 -0.00000000000E+00 -0.00000000000E+00 -0.56066666419E+03  0.56066666419E+03  0.00000000000E+00 0.  1.
         23    2    1    2    0    0  0.40544782859E+02 -0.34679193124E+02 -0.32173467746E+03  0.34929429220E+03  0.12508706578E+03 0.  0.
          5    1    3    3  502    0  0.68547066124E+02 -0.49360407220E+02 -0.29736204483E+03  0.30915499055E+03  0.41800000000E+01 0.  1.
         -5    1    3    3    0  502 -0.28002283265E+02  0.14681214096E+02 -0.24372632632E+02  0.40139301648E+02  0.41800000000E+01 0.  1.
        -11    1    1    2    0    0 -0.23077141660E+02 -0.33633313656E+01 -0.90309214671E+01  0.25008478714E+02  0.00000000000E+00 0. -1.
         11    1    1    2    0    0 -0.17467641200E+02  0.38042524490E+02 -0.20602762740E+03  0.21023733115E+03  0.00000000000E+00 0.  1.
</event>
<event>
 7    1  0.6833760E-006  0.9026921E+02  0.7561462E-02  0.1302201E+00
          1   -1    0    0  501    0  0.00000000000E+00  0.00000000000E+00  0.46985699060E+03  0.46985699060E+03  0.00000000000E+00 0. -1.
         -1   -1    0    0    0  501 -0.00000000000E+00 -0.00000000000E+00 -0.26128830663E+02  0.26128830663E+02  0.00000000000E+00 0.  1.
         23    2    1    2    0    0  0.13957801181E+02 -0.19562729372E+02  0.23754565312E+03  0.26954147051E+03  0.12508855429E+03 0.  0.
          5    1    3    3  502    0 -0.50778295880E+02 -0.15676548970E+02  0.15842426306E+03  0.16715235279E+03  0.41800000000E+01 0.  1.
         -5    1    3    3    0  502  0.64736097061E+02 -0.38861804021E+01  0.79121390069E+02  0.10238911772E+03  0.41800000000E+01 0.  1.
        -11    1    1    2    0    0 -0.24916881564E+02  0.35213665122E+02  0.20242708839E+03  0.20697241196E+03  0.00000000000E+00 0. -1.
         11    1    1    2    0    0  0.10959080383E+02 -0.15650935750E+02  0.37554184215E+01  0.19471938789E+02  0.00000000000E+00 0.  1.
</event>
<event>
 6    1  0.6833760E-006  0.6283072E+02  0.7561462E-02  0.1386322E+00
          2   -1    0    0  501    0  0.00000000000E+00  0.00000000000E+00  0.12746748289E+02  0.12746748289E+02  0.00000000000E+00 0. -1.
         -2   -1    0    0    0  501 -0.00000000000E+00 -0.00000000000E+00 -0.82470165063E+03  0.82470165063E+03  0.00000000000E+00 0.  1.
          5    1    1    2  502    0 -0.28356958506E+01  0.35979168485E+02 -0.31006199537E+02  0.47763987957E+02  0.41800000000E+01 0. -1.
         -5    1    1    2    0  502  0.16381647352E+02 -0.34076348040E+02 -0.60992419484E+03  0.61110927969E+03  0.41800000000E+01 0.  1.
        -11    1    1    2    0    0  0.11685349031E+02 -0.17927553187E+02 -0.76567497982E+02  0.79501737669E+02  0.00000000000E+00 0. -1.
         11    1    1    2    0    0 -0.25231300533E+02  0.16024732742E+02 -0.94457009975E+02  0.99073393601E+02  0.00000000000E+00 0.  1.
</event>
<event>
 7    1  0.6833760E-006  0.1460521E+03  0.7561462E-02  0.1205410E+00
         -1   -1    0    0    0  501 -0.00000000000E+00  0.00000000000E+00  0.12899994244E+03  0.12899994244E+03  0.00000000000E+00 0.  1.
          1   -1    0    0  501    0  0.00000000000E+00 -0.00000000000E+00 -0.26171686701E+03  0.26171686701E+03  0.00000000000E+00 0. -1.
         23    2    1    2    0    0 -0.34244290268E+02  0.10226882133E+03  0.37170429930E+02  0.16929293712E+03  0.12508746726E+03 0.  0.
          5    1    3    3  502    0 -0.76024488733E+02  0.95840401810E+02  0.31879470611E+02  0.12648667342E+03  0.41800000000E+01 0.  1.
         -5    1    3    3    0  502  0.41780198464E+02  0.64284195168E+01  0.52909593188E+01  0.42806263697E+02  0.41800000000E+01 0.  1.
        -11    1    1    2    0    0  0.52739896483E+02 -0.53771763289E+02 -0.14600786742E+03  0.16428997705E+03  0.00000000000E+00 0. -1.
         11    1    1    2    0    0 -0.18495606215E+02 -0.48497058038E+02 -0.23879487072E+02  0.57133895285E+02  0.00000000000E+00 0.  1.
</event>
<event>
 7    1  0.6833760E-006  0.1597861E+03  0.7561462E-02  0.1188938E+00
          2   -1    0    0  501    0  0.00000000000E+00  0.00000000000E+00  0.51298228877E+03  0.51298228877E+03  0.00000000000E+00 0. -1.
         -2   -1    0    0    0  501 -0.00000000000E+00 -0.00000000000E+00 -0.68890256769E+02  0.68890256769E+02  0.00000000000E+00 0.  1.
         23    2    1    2    0    0  0.36575026092E+02 -0.13542004718E+03  0.13843472858E+03  0.23342706872E+03  0.12509076954E+03 0.  0.
          5    1    3    3  502    0 -0.18377904240E+02 -0.29577565790E+02 -0.15759950756E+02  0.38450334331E+02  0.41800000000E+01 0.  1.
         -5    1    3    3    0  502  0.54952930332E+02 -0.10584248139E+03  0.15419467933E+03  0.19497673439E+03  0.41800000000E+01 0.  1.
        -11    1    1    2    0    0  0.23308969855E+02  0.80876570604E+02  0.18337279090E+03  0.20176696507E+03  0.00000000000E+00 0.  1.
         11    1    1    2    0    0 -0.59883995947E+02  0.54543476574E+02  0.12228451252E+03  0.14667851175E+03  0.00000000000E+00 0. -1.
</event>
<event>
 7    1  0.6833760E-006  0.1180863E+03  0.7561462E-02  0.1246288E+00
         -2   -1    0    0    0  501 -0.00000000000E+00  0.00000000000E+00  0.38763152356E+02  0.38763152356E+02  0.00000000000E+00 0.  1.
          2   -1    0    0  501    0  0.00000000000E+00 -0.00000000000E+00 -0.53789580416E+03  0.53789580416E+03  0.00000000000E+00 0. -1.
         23    2    1    2    0    0  0.79229974389E+01  0.78485632839E+02 -0.16476063511E+03  0.22139618323E+03  0.12508970627E+03 0.  0.
          5    1    3    3  502    0  0.19318551789E+02 -0.15671211798E+02 -0.10773774012E+03  0.11065119235E+03  0.41800000000E+01 0. -1.
         -5    1    3    3    0  502 -0.11395554351E+02  0.94156844637E+02 -0.57022894992E+02  0.11074499088E+03  0.41800000000E+01 0. -1.
        -11    1    1    2    0    0 -0.43252946209E+02 -0.65251061420E+02 -0.17889824694E+03  0.19527698567E+03  0.00000000000E+00 0.  1.
         11    1    1    2    0    0  0.35329948770E+02 -0.13234571419E+02 -0.15547376975E+03  0.15998578763E+03  0.00000000000E+00 0. -1.
</event>
<event>
 7    1  0.6833760E-006  0.9902001E+02  0.7561462E-02  0.1282370E+00
         -3   -1    0    0    0  501 -0.00000000000E+00  0.00000000000E+00  0.48805208854E+03  0.48805208854E+03  0.00000000000E+00 0.  1.
          3   -1    0    0  501    0  0.00000000000E+00 -0.00000000000E+00 -0.37614470146E+02  0.37614470146E+02  0.00000000000E+00 0. -1.
         23    2    1    2    0    0 -0.33904347560E+02  0.69609328413E+02  0.36422398241E+03  0.39281222060E+03  0.12508943964E+03 0.  0.
          5    1    3    3  502    0  0.25552372215E+02  0.16938543374E+02  0.25933673161E+03  0.26117590000E+03  0.41800000000E+01 0. -1.
         -5    1    3    3    0  502 -0.59456719775E+02  0.52670785038E+02  0.10488725079E+03  0.13163632060E+03  0.41800000000E+01 0. -1.
        -11    1    1    2    0    0  0.12624610125E+02 -0.64433122126E+02  0.29350820760E+02  0.71919946378E+02  0.00000000000E+00 0.  1.
         11    1    1    2    0    0  0.21279737435E+02 -0.51762062871E+01  0.56862815227E+02  0.60934391705E+02  0.00000000000E+00 0. -1.
</event>
<event>
 7    1  0.6833760E-006  0.1462000E+03  0.7561462E-02  0.1205222E+00
          1   -1    0    0  501    0  0.00000000000E+00  0.00000000000E+00  0.80593258937E+03  0.80593258937E+03  0.00000000000E+00 0.  1.
         -1   -1    0    0    0  501 -0.00000000000E+00 -0.00000000000E+00 -0.27992151783E+02  0.27992151783E+02  0.00000000000E+00 0. -1.
         23    2    1    2    0    0  0.31351354204E+02 -0.95864034058E+02  0.47580207091E+03  0.50220339333E+03  0.12509123529E+03 0.  0.
          5    1    3    3  502    0 -0.47282413888E+02 -0.20997752418E+02  0.16340318297E+03  0.17144854877E+03  0.41800000000E+01 0.  1.
         -5    1    3    3    0  502  0.78633768092E+02 -0.74866281639E+02  0.31239888795E+03  0.33075484456E+03  0.41800000000E+01 0.  1.
        -11    1    1    2    0    0 -0.57810395848E+02  0.85957900824E+02  0.26851469897E+03  0.28780365902E+03  0.00000000000E+00 0.  1.
         11    1    1    2    0    0  0.26459041644E+02  0.99061332342E+01  0.33623667708E+02  0.43917688811E+02  0.00000000000E+00 0. -1.
</event>
<event>
 7    1  0.6833760E-006  0.1260508E+03  0.7561462E-02  0.1233436E+00
         -2   -1    0    0    0  501 -0.00000000000E+00  0.00000000000E+00  0.10439490211E+03  0.10439490211E+03  0.00000000000E+00 0.  1.
          2   -1    0    0  501    0  0.00000000000E+00 -0.00000000000E+00 -0.15819685509E+03  0.15819685509E+03  0.00000000000E+00 0. -1.
         23    2    1    2    0    0 -0.46560293982E+02  0.50282721573E+02 -0.27544038933E+02  0.14526631872E+03  0.12508963271E+03 0.  0.
          5    1    3    3  502    0 -0.27601314977E+02 -0.40457851562E+02 -0.16335589021E+02  0.51797627457E+02  0.41800000000E+01 0.  1.
         -5    1    3    3    0  502 -0.18958979005E+02  0.90740573135E+02 -0.11208449912E+02  0.93468691268E+02  0.41800000000E+01 0.  1.
        -11    1    1    2    0    0  0.56073411682E+02 -0.69147188109E+02 -0.33308373973E+02  0.95052663813E+02  0.00000000000E+00 0. -1.
         11    1    1    2    0    0 -0.95131177003E+01  0.18864466536E+02  0.70504599292E+01  0.22272774665E+02  0.00000000000E+00 0.  1.
</event>
<event>
 7    1  0.6833760E-006  0.1391138E+03  0.7561462E-02  0.1214526E+00
         -1   -1    0    0    0  501 -0.00000000000E+00  0.00000000000E+00  0.14388058834E+03  0.14388058834E+03  0.00000000000E+00 0.  1.
          1   -1    0    0  501    0  0.00000000000E+00 -0.00000000000E+00 -0.15127814852E+03  0.15127814852E+03  0.00000000000E+00 0. -1.
         23    2    1    2    0    0  0.85250610357E+02  0.30522665351E+02  0.37162316486E+02  0.15883260915E+03  0.12508980893E+03 0.  0.
          5    1    3    3  502    0  0.11585803438E+03  0.11665893080E+02  0.18064632086E+02  0.11791090079E+03  0.41800000000E+01 0.  1.
         -5    1    3    3    0  502 -0.30607424027E+02  0.18856772272E+02  0.19097684400E+02  0.40921708365E+02  0.41800000000E+01 0.  1.
        -11    1    1    2    0    0 -0.56691832139E+02 -0.61323120013E+02 -0.43830639942E+02  0.94316562051E+02  0.00000000000E+00 0.  1.
         11    1    1    2    0    0 -0.28558778218E+02  0.30800454661E+02 -0.72923671859E+00  0.42009565659E+02  0.00000000000E+00 0. -1.
</event>
<event>
 7    1  0.6833760E-006  0.1200684E+03  0.7561462E-02  0.1242984E+00
         -1   -1    0    0    0  501 -0.00000000000E+00  0.00000000000E+00  0.57255044160E+02  0.57255044160E+02  0.00000000000E+00 0.  1.
          1   -1    0    0  501    0  0.00000000000E+00 -0.00000000000E+00 -0.32407501357E+03  0.32407501357E+03  0.00000000000E+00 0. -1.
         23    2    1    2    0    0 -0.38040178325E+02  0.41812232109E+02 -0.65495412879E+02  0.15209370697E+03  0.12509008222E+03 0.  0.
          5    1    3    3  502    0 -0.79530754956E+02  0.40155881816E+02 -0.64989172121E+02  0.11035715075E+03  0.41800000000E+01 0.  1.
         -5    1    3    3    0  502  0.41490576631E+02  0.16563502925E+01 -0.50624075773E+00  0.41736556221E+02  0.41800000000E+01 0.  1.
        -11    1    1    2    0    0  0.63506662297E+00 -0.65130603405E+02 -0.11016285707E+03  0.12797755228E+03  0.00000000000E+00 0. -1.
         11    1    1    2    0    0  0.37405111702E+02  0.23318371296E+02 -0.91161699456E+02  0.10125879848E+03  0.00000000000E+00 0.  1.
</event>
<event>
 7    1  0.6833760E-006  0.1263994E+03  0.7561462E-02  0.1232898E+00
          2   -1    0    0  501    0  0.00000000000E+00  0.00000000000E+00  0.53705908941E+02  0.53705908941E+02  0.00000000000E+00 0. -1.
         -2   -1    0    0    0  501 -0.00000000000E+00 -0.00000000000E+00 -0.37902539691E+03  0.37902539691E+03  0.00000000000E+00 0.  1.
         23    2    1    2    0    0 -0.13384187749E+02  0.87291630601E+02 -0.21733650131E+03  0.26585979514E+03  0.12508921064E+03 0.  0.
          5    1    3    3  502    0 -0.65052448521E+02  0.21329906522E+02 -0.85760226653E+02  0.10981381901E+03  0.41800000000E+01 0. -1.
         -5    1    3    3    0  502  0.51668260772E+02  0.65961724079E+02 -0.13157627465E+03  0.15604597613E+03  0.41800000000E+01 0. -1.
        -11    1    1    2    0    0 -0.16533498902E+02 -0.49066444391E+02 -0.10637151459E+03  0.11830372635E+03  0.00000000000E+00 0.  1.
         11    1    1    2    0    0  0.29917686651E+02 -0.38225186211E+02 -0.16114720701E+01  0.48567784360E+02  0.00000000000E+00 0. -1.
</event>
<event>
 7    1  0.6833760E-006  0.9394732E+02  0.7561462E-02  0.1293565E+00
          2   -1    0    0  501    0  0.00000000000E+00  0.00000000000E+00  0.16178612612E+03  0.16178612612E+03  0.00000000000E+00 0. -1.
         -2   -1    0    0    0  501 -0.00000000000E+00 -0.00000000000E+00 -0.73437099662E+02  0.73437099662E+02  0.00000000000E+00 0.  1.
         23    2    1    2    0    0  0.28173654792E+01 -0.13311138468E+02  0.31673669417E+02  0.12975198016E+03  0.12508889266E+03 0.  0.
          5    1    3    3  502    0 -0.56886033378E+02 -0.19240984435E+02  0.34792449797E+02  0.69528578573E+02  0.41800000000E+01 0.  1.
         -5    1    3    3    0  502  0.59703398857E+02  0.59298459668E+01 -0.31187803802E+01  0.60223401592E+02  0.41800000000E+01 0.  1.
        -11    1    1    2    0    0 -0.18858824254E+02  0.35486006700E+02 -0.25099134607E+01  0.40264271871E+02  0.00000000000E+00 0.  1.
         11    1    1    2    0    0  0.16041458775E+02 -0.22174868231E+02  0.59185270499E+02  0.65206973743E+02  0.00000000000E+00 0. -1.
</event>
<event>
 7    1  0.6833760E-006  0.1087331E+03  0.7561462E-02  0.1262934E+00
         -1   -1    0    0    0  501 -0.00000000000E+00  0.00000000000E+00  0.32745661890E+02  0.32745661890E+02  0.00000000000E+00 0.  1.
          1   -1    0    0  501    0  0.00000000000E+00 -0.00000000000E+00 -0.41687433503E+03  0.41687433503E+03  0.00000000000E+00 0. -1.
         23    2    1    2    0    0  0.22329206556E+02 -0.27909091857E+02 -0.19724895945E+03  0.23628918719E+03  0.12509163484E+03 0.  0.
          5    1    3    3  502    0 -0.38141090850E+02 -0.50284709466E+02 -0.11940698705E+03  0.13512511156E+03  0.41800000000E+01 0.  1.
         -5    1    3    3    0  502  0.60470297406E+02  0.22375617609E+02 -0.77841972402E+02  0.10116407564E+03  0.41800000000E+01 0.  1.
        -11    1    1    2    0    0 -0.33985061527E+02 -0.20580633030E+02 -0.33247093307E+02  0.51806525421E+02  0.00000000000E+00 0.  1.
         11    1    1    2    0    0  0.11655854970E+02  0.48489724887E+02 -0.15363262038E+03  0.16152428431E+03  0.00000000000E+00 0. -1.
</event>
<event>
 7    1  0.6833760E-006  0.9121690E+02  0.7561462E-02  0.1299931E+00
          1   -1    0    0  501    0  0.00000000000E+00  0.00000000000E+00  0.80176227484E+03  0.80176227484E+03  0.00000000000E+00 0. -1.
         -1   -1    0    0    0  501 -0.00000000000E+00 -0.00000000000E+00 -0.22643164304E+02  0.22643164304E+02  0.00000000000E+00 0.  1.
         23    2    1    2    0    0 -0.67694217467E+02  0.82276087946E+01  0.30482673990E+03  0.33647529809E+03  0.12508430854E+03 0.  0.
          5    1    3    3  502    0 -0.49056161940E+02  0.29683444950E+02  0.39861251978E+02  0.69957170738E+02  0.41800000000E+01 0. -1.
         -5    1    3    3    0  502 -0.18638055526E+02 -0.21455836155E+02  0.26496548792E+03  0.26651812735E+03  0.41800000000E+01 0. -1.
        -11    1    1    2    0    0  0.68243196564E+02 -0.29923008420E+02  0.44646479332E+03  0.45264040030E+03  0.00000000000E+00 0. -1.
         11    1    1    2    0    0 -0.54897909682E+00  0.21695399625E+02  0.27827577319E+02  0.35289740753E+02  0.00000000000E+00 0.  1.
</event>
<event>
 7    1  0.6833760E-006  0.2061182E+03  0.7561462E-02  0.1144677E+00
          1   -1    0    0  501    0  0.00000000000E+00  0.00000000000E+00  0.26013150667E+03  0.26013150667E+03  0.00000000000E+00 0. -1.
         -1   -1    0    0    0  501 -0.00000000000E+00 -0.00000000000E+00 -0.18943303711E+03  0.18943303711E+03  0.00000000000E+00 0.  1.
         23    2    1    2    0    0 -0.13950709112E+03 -0.11667403378E+03 -0.31267631718E+02  0.22293653841E+03  0.12509187317E+03 0.  0.
          5    1    3    3  502    0 -0.18094651041E+01  0.22105147095E+02 -0.14162384851E+02  0.26645022738E+02  0.41800000000E+01 0.  1.
         -5    1    3    3    0  502 -0.13769762601E+03 -0.13877918087E+03 -0.17105246868E+02  0.19629151567E+03  0.41800000000E+01 0.  1.
        -11    1    1    2    0    0  0.85713044492E+02  0.27568639072E+02  0.15602941620E+02  0.91379470581E+02  0.00000000000E+00 0.  1.
         11    1    1    2    0    0  0.53794046626E+02  0.89105394706E+02  0.86363159656E+02  0.13524853479E+03  0.00000000000E+00 0. -1.
</event>
<event>
 7    1  0.6833760E-006  0.1427346E+03  0.7561462E-02  0.1209696E+00
         -2   -1    0    0    0  501 -0.00000000000E+00  0.00000000000E+00  0.61554876020E+02  0.61554876020E+02  0.00000000000E+00 0.  1.
          2   -1    0    0  501    0  0.00000000000E+00 -0.00000000000E+00 -0.50037290750E+03  0.50037290750E+03  0.00000000000E+00 0. -1.
         23    2    1    2    0    0 -0.10255659558E+03 -0.69124785152E+02 -0.13602788296E+03  0.22236751916E+03  0.12509051689E+03 0.  0.
          5    1    3    3  502    0 -0.11755236311E+03 -0.80464256300E+02 -0.80686672121E+02  0.16377077295E+03  0.41800000000E+01 0. -1.
         -5    1    3    3    0  502  0.14995767523E+02  0.11339471148E+02 -0.55341210840E+02  0.58596746213E+02  0.41800000000E+01 0. -1.
        -11    1    1    2    0    0  0.56721447225E+02  0.39468607857E+02 -0.26320877565E+03  0.27212855998E+03  0.00000000000E+00 0. -1.
         11    1    1    2    0    0  0.45835148357E+02  0.29656177294E+02 -0.39581372874E+02  0.67431704377E+02  0.00000000000E+00 0.  1.
</event>
<event>
 7    1  0.6833760E-006  0.9521150E+02  0.7561462E-02  0.1290700E+00
          1   -1    0    0  501    0  0.00000000000E+00  0.00000000000E+00  0.92194486416E+03  0.92194486416E+03  0.00000000000E+00 0. -1.
         -1   -1    0    0    0  501 -0.00000000000E+00 -0.00000000000E+00 -0.14465911714E+02  0.14465911714E+02  0.00000000000E+00 0.  1.
         23    2    1    2    0    0  0.35702250729E+02  0.10168031406E+02  0.46475671335E+03  0.48272658596E+03  0.12509242432E+03 0.  0.
          5    1    3    3  502    0 -0.86134395744E+00 -0.34014453706E+02  0.34469553894E+02  0.48614272802E+02  0.41800000000E+01 0.  1.
         -5    1    3    3    0  502  0.36563594686E+02  0.44182485113E+02  0.43028715945E+03  0.43411231316E+03  0.41800000000E+01 0.  1.
        -11    1    1    2    0    0  0.14634116532E+02 -0.38282591917E+02  0.16215485901E+03  0.16725403586E+03  0.00000000000E+00 0.  1.
         11    1    1    2    0    0 -0.50336367261E+02  0.28114560511E+02  0.28056738009E+03  0.28643015405E+03  0.00000000000E+00 0. -1.
</event>
<event>
 7    1  0.6833760E-006  0.1596895E+03  0.7561462E-02  0.1189048E+00
         -1   -1    0    0    0  501 -0.00000000000E+00  0.00000000000E+00  0.10690212881E+03  0.10690212881E+03  0.00000000000E+00 0.  1.
          1   -1    0    0  501    0  0.00000000000E+00 -0.00000000000E+00 -0.26690683586E+03  0.26690683586E+03  0.00000000000E+00 0. -1.
         23    2    1    2    0    0  0.79192541110E+02 -0.10148694045E+03 -0.91197958033E+02  0.20133575939E+03  0.12509181752E+03 0.  0.
          5    1    3    3  502    0  0.56337010372E+01 -0.94174212178E+02 -0.84969566817E+02  0.12703472168E+03  0.41800000000E+01 0. -1.
         -5    1    3    3    0  502  0.73558840073E+02 -0.73127282709E+01 -0.62283912159E+01  0.74301037710E+02  0.41800000000E+01 0. -1.
        -11    1    1    2    0    0 -0.88902651838E+02  0.10748790402E+03 -0.76128961138E+02  0.15891176715E+03  0.00000000000E+00 0. -1.
         11    1    1    2    0    0  0.97101107283E+01 -0.60009635669E+01  0.73222121243E+01  0.13561438142E+02  0.00000000000E+00 0.  1.
</event>
<event>
 7    1  0.6833760E-006  0.7054267E+02  0.7561462E-02  0.1358257E+00
          1   -1    0    0  501    0  0.00000000000E+00  0.00000000000E+00  0.68380016941E+03  0.68380016941E+03  0.00000000000E+00 0. -1.
         -1   -1    0    0    0  501 -0.00000000000E+00 -0.00000000000E+00 -0.19939387354E+02  0.19939387354E+02  0.00000000000E+00 0.  1.
         23    2    1    2    0    0 -0.15398437760E+02 -0.76590456062E+01  0.26198372040E+03  0.29082405178E+03  0.12508951383E+03 0.  0.
          5    1    3    3  502    0  0.93096325441E+01  0.12791296314E+02 -0.84820874264E+01  0.18431080452E+02  0.41800000000E+01 0. -1.
         -5    1    3    3    0  502 -0.24708070304E+02 -0.20450341920E+02  0.27046580783E+03  0.27239297133E+03  0.41800000000E+01 0. -1.
        -11    1    1    2    0    0  0.40979636633E+02 -0.27166123509E+02  0.25985192045E+03  0.26446237813E+03  0.00000000000E+00 0.  1.
         11    1    1    2    0    0 -0.25581198873E+02  0.34825169115E+02  0.14202514120E+03  0.14845312685E+03  0.00000000000E+00 0. -1.
</event>
<event>
 7    1  0.6833760E-006  0.1746912E+03  0.7561462E-02  0.1173042E+00
          1   -1    0    0  501    0  0.00000000000E+00  0.00000000000E+00  0.11614776759E+03  0.11614776759E+03  0.00000000000E+00 0. -1.
         -1   -1    0    0    0  501 -0.00000000000E+00 -0.00000000000E+00 -0.32759769542E+03  0.32759769542E+03  0.00000000000E+00 0.  1.
         23    2    1    2    0    0 -0.65864320848E+02  0.14192684289E+03 -0.15713074056E+03  0.25458786530E+03  0.12507427408E+03 0.  0.
          5    1    3    3  502    0 -0.96120616931E+01 -0.12268214415E+02 -0.63626914105E+02  0.65641125931E+02  0.41800000000E+01 0.  1.
         -5    1    3    3    0  502 -0.56252259155E+02  0.15419505731E+03 -0.93503826451E+02  0.18894673937E+03  0.41800000000E+01 0.  1.
        -11    1    1    2    0    0  0.19399040406E+02 -0.11227209490E+03 -0.32002300433E+01  0.11398064544E+03  0.00000000000E+00 0. -1.
         11    1    1    2    0    0  0.46465280442E+02 -0.29654747987E+02 -0.51118957222E+02  0.75176952268E+02  0.00000000000E+00 0.  1.
</event>
<event>
 7    1  0.6833760E-006  0.1092507E+03  0.7561462E-02  0.1261964E+00
         -2   -1    0    0    0  501 -0.00000000000E+00  0.00000000000E+00  0.32098395483E+02  0.32098395483E+02  0.00000000000E+00 0.  1.
          2   -1    0    0  501    0  0.00000000000E+00 -0.00000000000E+00 -0.46308592598E+03  0.46308592598E+03  0.00000000000E+00 0. -1.
         23    2    1    2    0    0  0.51588542180E+02 -0.16167581787E+02 -0.26298583343E+03  0.29619638491E+03  0.12509189207E+03 0.  0.
          5    1    3    3  502    0  0.82602230364E+02 -0.33362708719E+02 -0.12427806253E+03  0.15296636238E+03  0.41800000000E+01 0.  1.
         -5    1    3    3    0  502 -0.31013688184E+02  0.17195126933E+02 -0.13870777090E+03  0.14323002252E+03  0.41800000000E+01 0.  1.
        -11    1    1    2    0    0 -0.52942358352E+02 -0.20607001061E+02 -0.14464539779E+03  0.15540216505E+03  0.00000000000E+00 0. -1.
         11    1    1    2    0    0  0.13538161713E+01  0.36774582847E+02 -0.23356299279E+02  0.43585771506E+02  0.00000000000E+00 0.  1.
</event>
<event>
 7    1  0.6833760E-006  0.8694419E+02  0.7561462E-02  0.1310425E+00
          2   -1    0    0  501    0  0.00000000000E+00  0.00000000000E+00  0.20455072983E+03  0.20455072983E+03  0.00000000000E+00 0. -1.
         -2   -1    0    0    0  501 -0.00000000000E+00 -0.00000000000E+00 -0.60561285448E+02  0.60561285448E+02  0.00000000000E+00 0.  1.
         23    2    1    2    0    0  0.18110460094E+02 -0.50637841195E+01  0.71017393597E+02  0.14506852441E+03  0.12509107045E+03 0.  0.
          5    1    3    3  502    0  0.78159536399E+01 -0.43652951733E+02 -0.17507965912E+02  0.47860950645E+02  0.41800000000E+01 0. -1.
         -5    1    3    3    0  502  0.10294506454E+02  0.38589167614E+02  0.88525359508E+02  0.97207573760E+02  0.41800000000E+01 0. -1.
        -11    1    1    2    0    0 -0.44251645406E+02  0.29677918655E+02  0.21887005461E+02  0.57602326210E+02  0.00000000000E+00 0.  1.
         11    1    1    2    0    0  0.26141185312E+02 -0.24614134535E+02  0.51085045320E+02  0.62441164658E+02  0.00000000000E+00 0. -1.
</event>
<event>
 7    1  0.6833760E-006  0.1503091E+03  0.7561462E-02  0.1200094E+00
          2   -1    0    0  501    0  0.00000000000E+00  0.00000000000E+00  0.10384503018E+04  0.10384503018E+04  0.00000000000E+00 0. -1.
         -2   -1    0    0    0  501 -0.00000000000E+00 -0.00000000000E+00 -0.27863558980E+02  0.27863558980E+02  0.00000000000E+00 0.  1.
         23    2    1    2    0    0 -0.12776613004E+03  0.16761592874E+02  0.48322315158E+03  0.51551603233E+03  0.12508809049E+03 0.  0.
          5    1    3    3  502    0 -0.28723145875E+02 -0.22557416063E+02  0.23602218687E+02  0.43685160585E+02  0.41800000000E+01 0.  1.
         -5    1    3    3    0  502 -0.99042984165E+02  0.39319008937E+02  0.45962093290E+03  0.47183087175E+03  0.41800000000E+01 0.  1.
        -11    1    1    2    0    0  0.50627212914E+02 -0.51851660992E+02  0.20303816288E+03  0.21558340618E+03  0.00000000000E+00 0.  1.
         11    1    1    2    0    0  0.77138917126E+02  0.35090068119E+02  0.32432542833E+03  0.33521442224E+03  0.00000000000E+00 0. -1.
</event>
<event>
 7    1  0.6833760E-006  0.1274835E+03  0.7561462E-02  0.1231238E+00
         -1   -1    0    0    0  501 -0.00000000000E+00  0.00000000000E+00  0.29922130790E+03  0.29922130790E+03  0.00000000000E+00 0.  1.
          1   -1    0    0  501    0  0.00000000000E+00 -0.00000000000E+00 -0.78073061436E+02  0.78073061436E+02  0.00000000000E+00 0. -1.
         23    2    1    2    0    0  0.41390539782E+02 -0.80070988787E+02  0.11989145982E+03  0.19530549738E+03  0.12508291307E+03 0.  0.
          5    1    3    3  502    0 -0.41846933328E+02 -0.56495494243E+01  0.32054185967E+02  0.53179192131E+02  0.41800000000E+01 0. -1.
         -5    1    3    3    0  502  0.83237473110E+02 -0.74421439362E+02  0.87837273854E+02  0.14212630525E+03  0.41800000000E+01 0. -1.
        -11    1    1    2    0    0  0.79839829830E+01  0.27683845908E+02 -0.24013643368E+02  0.37507257649E+02  0.00000000000E+00 0. -1.
         11    1    1    2    0    0 -0.49374522765E+02  0.52387142878E+02  0.12527043001E+03  0.14448161430E+03  0.00000000000E+00 0.  1.
</event>
<event>
 7    1  0.6833760E-006  0.1654460E+03  0.7561462E-02  0.1182682E+00
          2   -1    0    0  501    0  0.00000000000E+00  0.00000000000E+00  0.11514655652E+04  0.11514655652E+04  0.00000000000E+00 0. -1.
         -2   -1    0    0    0  501 -0.00000000000E+00 -0.00000000000E+00 -0.24454883539E+02  0.24454883539E+02  0.00000000000E+00 0.  1.
         23    2    1    2    0    0  0.12460042328E+03 -0.25791860390E+02  0.57449181858E+03  0.60156298326E+03  0.12508672061E+03 0.  0.
          5    1    3    3  502    0 -0.14328528191E+02 -0.31988971598E+02  0.72337338377E+02  0.80490769331E+02  0.41800000000E+01 0.  1.
         -5    1    3    3    0  502  0.13892895147E+03  0.61971112086E+01  0.50215448020E+03  0.52107221393E+03  0.41800000000E+01 0.  1.
        -11    1    1    2    0    0 -0.12805694815E+03  0.45918674901E+02  0.49338459575E+03  0.51179631300E+03  0.00000000000E+00 0.  1.
         11    1    1    2    0    0  0.34565248778E+01 -0.20126814512E+02  0.59134267321E+02  0.62561152468E+02  0.00000000000E+00 0. -1.
</event>
<event>
 7    1  0.6833760E-006  0.1029725E+03  0.7561462E-02  0.1274166E+00
          1   -1    0    0  501    0  0.00000000000E+00  0.00000000000E+00  0.24195458341E+03  0.24195458341E+03  0.00000000000E+00 0. -1.
         -1   -1    0    0    0  501 -0.00000000000E+00 -0.00000000000E+00 -0.86100719242E+02  0.86100719242E+02  0.00000000000E+00 0.  1.
         23    2    1    2    0    0  0.88703006602E+02  0.25965553540E+01  0.57614036685E+02  0.16383600490E+03  0.12509154168E+03 0.  0.
          5    1    3    3  502    0  0.10245559234E+02 -0.27825089386E+02 -0.29928125086E+02  0.42336416411E+02  0.41800000000E+01 0.  1.
         -5    1    3    3    0  502  0.78457447368E+02  0.30421644740E+02  0.87542161772E+02  0.12149958849E+03  0.41800000000E+01 0.  1.
        -11    1    1    2    0    0 -0.31371270416E+02 -0.12118667115E+02 -0.15086706636E+02  0.36859563444E+02  0.00000000000E+00 0.  1.
         11    1    1    2    0    0 -0.57331736186E+02  0.95221117610E+01  0.11332653412E+03  0.12735973431E+03  0.00000000000E+00 0. -1.
</event>
<event>
 7    1  0.6833760E-006  0.4661714E+02  0.7561462E-02  0.1464491E+00
         -1   -1    0    0    0  501 -0.00000000000E+00  0.00000000000E+00  0.29829142204E+02  0.29829142204E+02  0.00000000000E+00 0.  1.
          1   -1    0    0  501    0  0.00000000000E+00 -0.00000000000E+00 -0.44139355331E+03  0.44139355331E+03  0.00000000000E+00 0. -1.
         23    2    1    2    0    0  0.61683832146E+01  0.23195721044E+02 -0.17401890527E+03  0.21565295037E+03  0.12509006829E+03 0.  0.
          5    1    3    3  502    0  0.10394988752E+02  0.82493877427E+01  0.18118029918E+02  0.22843896283E+02  0.41800000000E+01 0.  1.
         -5    1    3    3    0  502 -0.42266055377E+01  0.14946333301E+02 -0.19213693519E+03  0.19280905409E+03  0.41800000000E+01 0.  1.
        -11    1    1    2    0    0  0.85637734094E+01  0.17756853929E+02 -0.69502662373E+01  0.20903355645E+02  0.00000000000E+00 0.  1.
         11    1    1    2    0    0 -0.14732156624E+02 -0.40952574973E+02 -0.23059523959E+03  0.23466638949E+03  0.00000000000E+00 0. -1.
</event>
<event>
 7    1  0.6833760E-006  0.8914303E+02  0.7561462E-02  0.1304940E+00
          2   -1    0    0  501    0  0.00000000000E+00  0.00000000000E+00  0.10399031935E+03  0.10399031935E+03  0.00000000000E+00 0. -1.
         -2   -1    0    0    0  501 -0.00000000000E+00 -0.00000000000E+00 -0.12261914009E+03  0.12261914009E+03  0.00000000000E+00 0.  1.
         23    2    1    2    0    0 -0.18896589316E+02  0.27982832965E+02 -0.10313871418E+02  0.12997668867E+03  0.12508974229E+03 0.  0.
          5    1    3    3  502    0 -0.10426795388E+02 -0.26607421049E+02  0.43843889721E+02  0.52501733141E+02  0.41800000000E+01 0. -1.
         -5    1    3    3    0  502 -0.84697939278E+01  0.54590254014E+02 -0.54157761138E+02  0.77474955528E+02  0.41800000000E+01 0. -1.
        -11    1    1    2    0    0  0.18701941991E+01 -0.58781615700E+02  0.49606739613E+01  0.59020202107E+02  0.00000000000E+00 0.  1.
         11    1    1    2    0    0  0.17026395117E+02  0.30798782734E+02 -0.13275623284E+02  0.37612568673E+02  0.00000000000E+00 0. -1.
</event>
<event>
 7    1  0.6833760E-006  0.9058198E+02  0.7561462E-02  0.1301448E+00
          1   -1    0    0  501    0  0.00000000000E+00  0.00000000000E+00  0.34447381865E+03  0.34447381865E+03  0.00000000000E+00 0. -1.
         -1   -1    0    0    0  501 -0.00000000000E+00 -0.00000000000E+00 -0.33867192618E+02  0.33867192618E+02  0.00000000000E+00 0.  1.
         23    2    1    2    0    0  0.39100966553E+01  0.25320831537E+01  0.17264818120E+03  0.21325222311E+03  0.12508963143E+03 0.  0.
          5    1    3    3  502    0 -0.40522898794E+02  0.46963832242E+02  0.83433387184E+02  0.10404955244E+03  0.41800000000E+01 0.  1.
         -5    1    3    3    0  502  0.44432995449E+02 -0.44431749088E+02  0.89214794012E+02  0.10920267067E+03  0.41800000000E+01 0.  1.
        -11    1    1    2    0    0  0.59746534775E+01  0.25553864185E+02  0.24605964702E+01  0.26358129561E+02  0.00000000000E+00 0.  1.
         11    1    1    2    0    0 -0.98847501328E+01 -0.28085947338E+02  0.13549784837E+03  0.13873065860E+03  0.00000000000E+00 0. -1.
</event>
<event>
 7    1  0.6833760E-006  0.1504678E+03  0.7561462E-02  0.1199899E+00
         -2   -1    0    0    0  501 -0.00000000000E+00  0.00000000000E+00  0.27574266992E+03  0.27574266992E+03  0.00000000000E+00 0.  1.
          2   -1    0    0  501    0  0.00000000000E+00 -0.00000000000E+00 -0.90798949237E+02  0.90798949237E+02  0.00000000000E+00 0. -1.
         23    2    1    2    0    0  0.70343374745E+02  0.89474151318E+02  0.87672671117E+02  0.19050092526E+03  0.12510112366E+03 0.  0.
          5    1    3    3  502    0  0.26180056828E+02  0.11179748235E+03  0.80576246345E+02  0.14033558462E+03  0.41800000000E+01 0.  1.
         -5    1    3    3    0  502  0.44163317917E+02 -0.22323331030E+02  0.70964247728E+01  0.50165340647E+02  0.41800000000E+01 0.  1.
        -11    1    1    2    0    0 -0.19100429363E+02  0.12098845923E+02  0.45995971086E+02  0.51252686082E+02  0.00000000000E+00 0.  1.
         11    1    1    2    0    0 -0.51242945382E+02 -0.10157299724E+03  0.51275078477E+02  0.12478800781E+03  0.00000000000E+00 0. -1.
</event>
<event>
 7    1  0.6833760E-006  0.1400458E+03  0.7561462E-02  0.1213267E+00
          2   -1    0    0  501    0  0.00000000000E+00  0.00000000000E+00  0.25846276134E+02  0.25846276134E+02  0.00000000000E+00 0. -1.
         -2   -1    0    0    0  501 -0.00000000000E+00 -0.00000000000E+00 -0.12493624814E+04  0.12493624814E+04  0.00000000000E+00 0.  1.
         23    2    1    2    0    0  0.11016780320E+03 -0.83221251669E+02 -0.74109329918E+03  0.76415251027E+03  0.12508820596E+03 0.  0.
          5    1    3    3  502    0  0.37687479101E+02 -0.29100974507E+02 -0.55645708964E+03  0.55850620212E+03  0.41800000000E+01 0.  1.
         -5    1    3    3    0  502  0.72480324096E+02 -0.54120277162E+02 -0.18463620954E+03  0.20564630815E+03  0.41800000000E+01 0.  1.
        -11    1    1    2    0    0 -0.57587756704E+02  0.63135431076E+02 -0.41267571283E+03  0.42143051188E+03  0.00000000000E+00 0.  1.
         11    1    1    2    0    0 -0.52580046494E+02  0.20085820593E+02 -0.69747193279E+02  0.89625735414E+02  0.00000000000E+00 0. -1.
</event>
<event>
 7    1  0.6833760E-006  0.1275813E+03  0.7561462E-02  0.1231089E+00
          1   -1    0    0  501    0  0.00000000000E+00  0.00000000000E+00  0.81289454402E+02  0.81289454402E+02  0.00000000000E+00 0. -1.
         -1   -1    0    0    0  501 -0.00000000000E+00 -0.00000000000E+00 -0.25509473698E+03  0.25509473698E+03  0.00000000000E+00 0.  1.
         23    2    1    2    0    0 -0.42601271460E+02 -0.71860457745E+02 -0.14808401889E+03  0.21108016323E+03  0.12508862834E+03 0.  0.
          5    1    3    3  502    0 -0.59138600221E+02  0.86255924972E+01 -0.29577078484E+02  0.66813552919E+02  0.41800000000E+01 0. -1.
         -5    1    3    3    0  502  0.16537328760E+02 -0.80486050242E+02 -0.11850694040E+03  0.14426661031E+03  0.41800000000E+01 0. -1.
        -11    1    1    2    0    0  0.64254941883E+02  0.61616427502E+02 -0.39803066900E+02  0.97517002769E+02  0.00000000000E+00 0.  1.
         11    1    1    2    0    0 -0.21653670423E+02  0.10244030243E+02  0.14081803206E+02  0.27787025388E+02  0.00000000000E+00 0. -1.
</event>
<event>
 7    1  0.6833760E-006  0.1409614E+03  0.7561462E-02  0.1212041E+00
         -1   -1    0    0    0  501 -0.00000000000E+00  0.00000000000E+00  0.98339671154E+02  0.98339671154E+02  0.00000000000E+00 0.  1.
          1   -1    0    0  501    0  0.00000000000E+00 -0.00000000000E+00 -0.27921701026E+03  0.27921701026E+03  0.00000000000E+00 0. -1.
         23    2    1    2    0    0 -0.15335073009E+01  0.11300131028E+03 -0.38624901313E+02  0.17295244425E+03  0.12509603191E+03 0.  0.
          5    1    3    3  502    0 -0.37887857024E+01 -0.14522577632E+02 -0.42516121522E+02  0.45280825384E+02  0.41800000000E+01 0.  1.
         -5    1    3    3    0  502  0.22552784015E+01  0.12752388791E+03  0.38912202096E+01  0.12767161886E+03  0.41800000000E+01 0.  1.
        -11    1    1    2    0    0  0.25579513935E+02 -0.25661004051E+01 -0.58602081485E+02  0.63992971167E+02  0.00000000000E+00 0. -1.
         11    1    1    2    0    0 -0.24046006634E+02 -0.11043520987E+03 -0.83650356304E+02  0.14061126599E+03  0.00000000000E+00 0.  1.
</event>
<event>
 7    1  0.6833760E-006  0.1849418E+03  0.7561462E-02  0.1163104E+00
          2   -1    0    0  501    0  0.00000000000E+00  0.00000000000E+00  0.52556555997E+03  0.52556555997E+03  0.00000000000E+00 0. -1.
         -2   -1    0    0    0  501 -0.00000000000E+00 -0.00000000000E+00 -0.70201911813E+02  0.70201911813E+02  0.00000000000E+00 0.  1.
         23    2    1    2    0    0 -0.55821710662E+02 -0.14038881558E+03  0.16542002703E+03  0.25658614538E+03  0.12509029434E+03 0.  0.
          5    1    3    3  502    0 -0.18959449320E+02  0.21369727716E+02  0.35894958039E+02  0.46065674789E+02  0.41800000000E+01 0. -1.
         -5    1    3    3    0  502 -0.36862261342E+02 -0.16175854330E+03  0.12952506899E+03  0.21052047059E+03  0.41800000000E+01 0. -1.
        -11    1    1    2    0    0  0.66976351567E+01  0.12263759202E+03  0.18669312225E+03  0.22347071215E+03  0.00000000000E+00 0. -1.
         11    1    1    2    0    0  0.49124075505E+02  0.17751223563E+02  0.10325049888E+03  0.11571061425E+03  0.00000000000E+00 0.  1.
</event>
<event>
 7    1  0.6833760E-006  0.1405316E+03  0.7561462E-02  0.1212615E+00
          1   -1    0    0  501    0  0.00000000000E+00  0.00000000000E+00  0.79923993011E+03  0.79923993011E+03  0.00000000000E+00 0. -1.
         -1   -1    0    0    0  501 -0.00000000000E+00 -0.00000000000E+00 -0.50212076406E+02  0.50212076406E+02  0.00000000000E+00 0.  1.
         23    2    1    2    0    0 -0.71348623789E+01  0.12469163139E+03  0.15296409721E+03  0.23376089538E+03  0.12508889629E+03 0.  0.
          5    1    3    3  502    0 -0.19877305235E+02  0.89789715079E+02  0.18114558371E+02  0.93823823320E+02  0.41800000000E+01 0. -1.
         -5    1    3    3    0  502  0.12742442856E+02  0.34901916313E+02  0.13484953884E+03  0.13993707206E+03  0.41800000000E+01 0. -1.
        -11    1    1    2    0    0 -0.31915020805E+02 -0.15164025657E+02  0.19219295257E+03  0.19541404056E+03  0.00000000000E+00 0. -1.
         11    1    1    2    0    0  0.39049883184E+02 -0.10952760573E+03  0.40387080392E+03  0.42027707058E+03  0.00000000000E+00 0.  1.
</event>
<event>
 7    1  0.6833760E-006  0.1353961E+03  0.7561462E-02  0.1219662E+00
         -1   -1    0    0    0  501 -0.00000000000E+00  0.00000000000E+00  0.54666820522E+02  0.54666820522E+02  0.00000000000E+00 0.  1.
          1   -1    0    0  501    0  0.00000000000E+00 -0.00000000000E+00 -0.36836556687E+03  0.36836556687E+03  0.00000000000E+00 0. -1.
         23    2    1    2    0    0  0.46706473080E+02 -0.75986677878E+02 -0.12796062900E+03  0.19737180377E+03  0.12093897844E+03 0.  0.
          5    1    3    3  502    0 -0.15788162893E+02 -0.78286285141E+02 -0.40142511529E+02  0.89481295032E+02  0.41800000000E+01 0. -1.
         -5    1    3    3    0  502  0.62494635973E+02  0.22996072629E+01 -0.87818117469E+02  0.10789050873E+03  0.41800000000E+01 0.  1.
        -11    1    1    2    0    0 -0.10629409112E+02 -0.21615413241E+02 -0.33695947856E+02  0.41420131935E+02  0.00000000000E+00 0. -1.
         11    1    1    2    0    0 -0.36077063968E+02  0.97602091119E+02 -0.15204216950E+03  0.18424045170E+03  0.00000000000E+00 0.  1.
</event>
<event>
 7    1  0.6833760E-006  0.2635792E+03  0.7561462E-02  0.1105012E+00
         -2   -1    0    0    0  501 -0.00000000000E+00  0.00000000000E+00  0.34423262749E+02  0.34423262749E+02  0.00000000000E+00 0.  1.
          2   -1    0    0  501    0  0.00000000000E+00 -0.00000000000E+00 -0.21325343078E+04  0.21325343078E+04  0.00000000000E+00 0. -1.
         23    2    1    2    0    0 -0.18303387215E+03  0.16339555802E+03 -0.93057040631E+03  0.97046920026E+03  0.12509868435E+03 0.  0.
          5    1    3    3  502    0  0.14398824962E+02  0.39568504496E+02 -0.14506557715E+03  0.15111084271E+03  0.41800000000E+01 0.  1.
         -5    1    3    3    0  502 -0.19743269711E+03  0.12382705353E+03 -0.78550482915E+03  0.81935835756E+03  0.41800000000E+01 0.  1.
        -11    1    1    2    0    0  0.38358847272E+02 -0.69194060002E+02 -0.23110784719E+03  0.24427455074E+03  0.00000000000E+00 0.  1.
         11    1    1    2    0    0  0.14467502487E+03 -0.94201498021E+02 -0.93643279158E+03  0.95221381958E+03  0.00000000000E+00 0. -1.
</event>
<event>
 7    1  0.6833760E-006  0.8927063E+02  0.7561462E-02  0.1304628E+00
         -2   -1    0    0    0  501 -0.00000000000E+00  0.00000000000E+00  0.31994697046E+03  0.31994697046E+03  0.00000000000E+00 0.  1.
          2   -1    0    0  501    0  0.00000000000E+00 -0.00000000000E+00 -0.47057310290E+02  0.47057310290E+02  0.00000000000E+00 0. -1.
         23    2    1    2    0    0  0.65477402404E+02 -0.12706494910E+02  0.18038414104E+03  0.22942259149E+03  0.12509013514E+03 0.  0.
          5    1    3    3  502    0  0.66160790397E+02 -0.22704871976E+02  0.26129529863E+02  0.74786269650E+02  0.41800000000E+01 0.  1.
         -5    1    3    3    0  502 -0.68338799221E+00  0.99983770651E+01  0.15425461117E+03  0.15463632184E+03  0.41800000000E+01 0.  1.
        -11    1    1    2    0    0 -0.51165518281E+02 -0.25241199062E+02  0.72795791385E+02  0.92489219017E+02  0.00000000000E+00 0.  1.
         11    1    1    2    0    0 -0.14311884124E+02  0.37947693973E+02  0.19709727752E+02  0.45092470248E+02  0.00000000000E+00 0. -1.
</event>
<event>
 7    1  0.6833760E-006  0.1156957E+03  0.7561462E-02  0.1250372E+00
         -1   -1    0    0    0  501 -0.00000000000E+00  0.00000000000E+00  0.10557947812E+04  0.10557947812E+04  0.00000000000E+00 0. -1.
          1   -1    0    0  501    0  0.00000000000E+00 -0.00000000000E+00 -0.27441190055E+02  0.27441190055E+02  0.00000000000E+00 0.  1.
         23    2    1    2    0    0 -0.54400997739E+01 -0.96617036203E+02  0.82377001132E+03  0.83881946151E+03  0.12512638047E+03 0.  0.
          5    1    3    3  502    0  0.43571814032E+02 -0.39324798442E+02  0.59514653127E+03  0.59804833319E+03  0.41800000000E+01 0. -1.
         -5    1    3    3    0  502 -0.49011913805E+02 -0.57292237761E+02  0.22862348005E+03  0.24077112832E+03  0.41800000000E+01 0. -1.
        -11    1    1    2    0    0  0.67110512208E+01  0.56049043405E+02  0.27594254900E+02  0.62832924320E+02  0.00000000000E+00 0.  1.
         11    1    1    2    0    0 -0.12709514469E+01  0.40567992798E+02  0.17698932488E+03  0.18158358537E+03  0.00000000000E+00 0. -1.
</event>
<event>
 7    1  0.6833760E-006  0.9863178E+02  0.7561462E-02  0.1283200E+00
         -1   -1    0    0    0  501 -0.00000000000E+00  0.00000000000E+00  0.31428497853E+02  0.31428497853E+02  0.00000000000E+00 0.  1.
          1   -1    0    0  501    0  0.00000000000E+00 -0.00000000000E+00 -0.55461540149E+03  0.55461540149E+03  0.00000000000E+00 0. -1.
         23    2    1    2    0    0 -0.20562206738E+02 -0.69375611898E+02 -0.24258303584E+03  0.28236361518E+03  0.12508757744E+03 0.  0.
          5    1    3    3  502    0 -0.34998023870E+02 -0.64469637469E+02 -0.25298514751E+03  0.26343908801E+03  0.41800000000E+01 0.  1.
         -5    1    3    3    0  502  0.14435817132E+02 -0.49059744292E+01  0.10402111675E+02  0.18924527172E+02  0.41800000000E+01 0.  1.
        -11    1    1    2    0    0 -0.29986267779E+02  0.14296437976E+02 -0.41480522782E+02  0.53143185493E+02  0.00000000000E+00 0.  1.
         11    1    1    2    0    0  0.50548474516E+02  0.55079173922E+02 -0.23912334502E+03  0.25053709866E+03  0.00000000000E+00 0. -1.
</event>
<event>
 7    1  0.6833760E-006  0.1121408E+03  0.7561462E-02  0.1256656E+00
         -1   -1    0    0    0  501 -0.00000000000E+00  0.00000000000E+00  0.75108964831E+02  0.75108964831E+02  0.00000000000E+00 0.  1.
          1   -1    0    0  501    0  0.00000000000E+00 -0.00000000000E+00 -0.23105905560E+03  0.23105905560E+03  0.00000000000E+00 0. -1.
         23    2    1    2    0    0 -0.67300208922E+02 -0.47935319080E+01 -0.51041727580E+02  0.15101112620E+03  0.12508719444E+03 0.  0.
          5    1    3    3  502    0  0.30962489445E+02 -0.17803735292E+02 -0.35612780563E+02  0.50610189512E+02  0.41800000000E+01 0.  1.
         -5    1    3    3    0  502 -0.98262698367E+02  0.13010203384E+02 -0.15428947017E+02  0.10040093669E+03  0.41800000000E+01 0.  1.
        -11    1    1    2    0    0  0.60077367698E+02 -0.19976500583E+02 -0.11177239730E+03  0.12845785100E+03  0.00000000000E+00 0. -1.
         11    1    1    2    0    0  0.72228412238E+01  0.24770032491E+02  0.68640341129E+01  0.26699043227E+02  0.00000000000E+00 0.  1.
</event>
<event>
 7    1  0.6833760E-006  0.1295819E+03  0.7561462E-02  0.1228077E+00
          1   -1    0    0  501    0  0.00000000000E+00  0.00000000000E+00  0.22712228835E+03  0.22712228835E+03  0.00000000000E+00 0. -1.
         -1   -1    0    0    0  501 -0.00000000000E+00 -0.00000000000E+00 -0.91418339678E+02  0.91418339678E+02  0.00000000000E+00 0.  1.
         23    2    1    2    0    0 -0.66605586686E+02  0.67747248317E+02  0.76338850792E+02  0.17464398414E+03  0.12508759821E+03 0.  0.
          5    1    3    3  502    0  0.23860241108E+02 -0.31561763093E+01  0.51465097949E+02  0.56968423372E+02  0.41800000000E+01 0.  1.
         -5    1    3    3    0  502 -0.90465827795E+02  0.70903424627E+02  0.24873752843E+02  0.11767556077E+03  0.41800000000E+01 0.  1.
        -11    1    1    2    0    0  0.45730121903E+02 -0.82382749458E+02  0.18947826831E+02  0.96110257512E+02  0.00000000000E+00 0.  1.
         11    1    1    2    0    0  0.20875464784E+02  0.14635501140E+02  0.40417271051E+02  0.47786386375E+02  0.00000000000E+00 0. -1.
</event>
<event>
 7    1  0.6833760E-006  0.1619296E+03  0.7561462E-02  0.1186535E+00
         -2   -1    0    0    0  501 -0.00000000000E+00  0.00000000000E+00  0.10278775224E+03  0.10278775224E+03  0.00000000000E+00 0.  1.
          2   -1    0    0  501    0  0.00000000000E+00 -0.00000000000E+00 -0.35648572418E+03  0.35648572418E+03  0.00000000000E+00 0. -1.
         23    2    1    2    0    0 -0.14319844945E+03  0.38822995935E+02 -0.70482914476E+02  0.20646254390E+03  0.12508365145E+03 0.  0.
          5    1    3    3  502    0 -0.12701284052E+03  0.27321489853E+02  0.32121215889E+01  0.13002505755E+03  0.41800000000E+01 0.  1.
         -5    1    3    3    0  502 -0.16185608926E+02  0.11501506082E+02 -0.73695036065E+02  0.76437486347E+02  0.41800000000E+01 0.  1.
        -11    1    1    2    0    0  0.78121211139E+00 -0.30937412775E+02 -0.24922572861E+02  0.39734977533E+02  0.00000000000E+00 0.  1.
         11    1    1    2    0    0  0.14241723734E+03 -0.78855831600E+01 -0.15829248461E+03  0.21307595499E+03  0.00000000000E+00 0. -1.
</event>
<event>
 7    1  0.6833760E-006  0.9910859E+02  0.7561462E-02  0.1282182E+00
         -2   -1    0    0    0  501 -0.00000000000E+00  0.00000000000E+00  0.20389045825E+03  0.20389045825E+03  0.00000000000E+00 0.  1.
          2   -1    0    0  501    0  0.00000000000E+00 -0.00000000000E+00 -0.66737949441E+02  0.66737949441E+02  0.00000000000E+00 0. -1.
         23    2    1    2    0    0  0.36489582702E+01 -0.28091937509E+01  0.12940878500E+03  0.18004154001E+03  0.12508843282E+03 0.  0.
          5    1    3    3  502    0 -0.33865789224E+01 -0.57306591971E+02  0.26629253205E+02  0.63420059337E+02  0.41800000000E+01 0.  1.
         -5    1    3    3    0  502  0.70355371926E+01  0.54497398220E+02  0.10277953180E+03  0.11662148067E+03  0.41800000000E+01 0.  1.
        -11    1    1    2    0    0  0.39401669231E+02  0.12662549501E+02 -0.10667407513E+02  0.42739036970E+02  0.00000000000E+00 0. -1.
         11    1    1    2    0    0 -0.43050627501E+02 -0.98533557505E+01  0.18411131319E+02  0.47847830716E+02  0.00000000000E+00 0.  1.
</event>
<event>
 7    1  0.6833760E-006  0.9603288E+02  0.7561462E-02  0.1288867E+00
         -3   -1    0    0    0  501 -0.00000000000E+00  0.00000000000E+00  0.28656197289E+03  0.28656197289E+03  0.00000000000E+00 0.  1.
          3   -1    0    0  501    0  0.00000000000E+00 -0.00000000000E+00 -0.59966793296E+02  0.59966793296E+02  0.00000000000E+00 0. -1.
         23    2    1    2    0    0 -0.17118279117E+02 -0.73450195701E+02  0.11736662853E+03  0.18737438836E+03  0.12508504783E+03 0.  0.
          5    1    3    3  502    0 -0.29622637130E+02 -0.71292569857E+02  0.86016641689E+01  0.77791980139E+02  0.41800000000E+01 0.  1.
         -5    1    3    3    0  502  0.12504358013E+02 -0.21576258435E+01  0.10876496436E+03  0.10958240822E+03  0.41800000000E+01 0.  1.
        -11    1    1    2    0    0 -0.24224078052E+02  0.11260773899E+02  0.69735695818E+02  0.74677160213E+02  0.00000000000E+00 0.  1.
         11    1    1    2    0    0  0.41342357169E+02  0.62189421802E+02  0.39492855242E+02  0.84477217612E+02  0.00000000000E+00 0. -1.
</event>
<event>
 7    1  0.6833760E-006  0.8412495E+02  0.7561462E-02  0.1317737E+00
         -1   -1    0    0    0  501 -0.00000000000E+00  0.00000000000E+00  0.11652998744E+03  0.11652998744E+03  0.00000000000E+00 0.  1.
          1   -1    0    0  501    0  0.00000000000E+00 -0.00000000000E+00 -0.14619830514E+03  0.14619830514E+03  0.00000000000E+00 0. -1.
         23    2    1    2    0    0  0.26213438633E+01  0.39210781959E+02  0.44429886235E+02  0.13843851991E+03  0.12508737801E+03 0.  0.
          5    1    3    3  502    0 -0.29439216273E+02  0.36097384178E+02  0.78494272545E+02  0.91370191100E+02  0.41800000000E+01 0.  1.
         -5    1    3    3    0  502  0.32060560136E+02  0.31133977813E+01 -0.34064386310E+02  0.47068328807E+02  0.41800000000E+01 0.  1.
        -11    1    1    2    0    0  0.24399198394E+01  0.24735268560E+02 -0.49869854872E+02  0.55720634818E+02  0.00000000000E+00 0. -1.
         11    1    1    2    0    0 -0.50612637027E+01 -0.63946050519E+02 -0.24228349061E+02  0.68569137850E+02  0.00000000000E+00 0.  1.
</event>
<event>
 7    1  0.6833760E-006  0.1160040E+03  0.7561462E-02  0.1249839E+00
          1   -1    0    0  501    0  0.00000000000E+00  0.00000000000E+00  0.96267964634E+02  0.96267964634E+02  0.00000000000E+00 0. -1.
         -1   -1    0    0    0  501 -0.00000000000E+00 -0.00000000000E+00 -0.19514864688E+03  0.19514864688E+03  0.00000000000E+00 0.  1.
         23    2    1    2    0    0 -0.75384885145E+01  0.81931597419E+02 -0.65359151162E+02  0.16336762138E+03  0.12509014993E+03 0.  0.
          5    1    3    3  502    0 -0.41911500272E+02 -0.16609378501E+02 -0.19749742335E+02  0.49396052793E+02  0.41800000000E+01 0. -1.
         -5    1    3    3    0  502  0.34373011757E+02  0.98540975920E+02 -0.45609408827E+02  0.11397156859E+03  0.41800000000E+01 0. -1.
        -11    1    1    2    0    0  0.20536469820E+01 -0.17574937081E+02 -0.56722609326E+02  0.59418433908E+02  0.00000000000E+00 0.  1.
         11    1    1    2    0    0  0.54848415325E+01 -0.64356660338E+02  0.23201078241E+02  0.68630556228E+02  0.00000000000E+00 0. -1.
</event>
<event>
 7    1  0.6833760E-006  0.2051262E+03  0.7561462E-02  0.1145485E+00
         -4   -1    0    0    0  501 -0.00000000000E+00  0.00000000000E+00  0.30634311302E+03  0.30634311302E+03  0.00000000000E+00 0.  1.
          4   -1    0    0  501    0  0.00000000000E+00 -0.00000000000E+00 -0.20458358561E+03  0.20458358561E+03  0.00000000000E+00 0. -1.
         23    2    1    2    0    0  0.19344794455E+03 -0.11001423056E+02  0.16979120827E+03  0.28638986844E+03  0.12508782428E+03 0.  0.
          5    1    3    3  502    0  0.49451063745E+02  0.11350155923E+02  0.12326526269E+03  0.13336427981E+03  0.41800000000E+01 0.  1.
         -5    1    3    3    0  502  0.14399688080E+03 -0.22351578980E+02  0.46525945582E+02  0.15302558863E+03  0.41800000000E+01 0.  1.
        -11    1    1    2    0    0 -0.67386233549E+02  0.47357462824E+02 -0.33113448525E+02  0.88770120143E+02  0.00000000000E+00 0.  1.
         11    1    1    2    0    0 -0.12606171100E+03 -0.36356039768E+02 -0.34918232328E+02  0.13576671004E+03  0.00000000000E+00 0. -1.
</event>
<event>
 7    1  0.6833760E-006  0.1075510E+03  0.7561462E-02  0.1265173E+00
          1   -1    0    0  501    0  0.00000000000E+00  0.00000000000E+00  0.14113113901E+03  0.14113113901E+03  0.00000000000E+00 0. -1.
         -1   -1    0    0    0  501 -0.00000000000E+00 -0.00000000000E+00 -0.14123515414E+03  0.14123515414E+03  0.00000000000E+00 0.  1.
         23    2    1    2    0    0  0.44976228928E+02  0.40468348661E+02 -0.66356389864E+02  0.15215002330E+03  0.12282471535E+03 0.  0.
          5    1    3    3  502    0 -0.30896774972E+02  0.57479469554E+01  0.15410338664E+02  0.35250539509E+02  0.41800000000E+01 0. -1.
         -5    1    3    3    0  502  0.75873003901E+02  0.34720401705E+02 -0.81766728528E+02  0.11689948379E+03  0.41800000000E+01 0.  1.
        -11    1    1    2    0    0  0.24890066203E+01 -0.51142573227E+02  0.42130442606E+01  0.51376139327E+02  0.00000000000E+00 0.  1.
         11    1    1    2    0    0 -0.47465235549E+02  0.10674224567E+02  0.62039330477E+02  0.78840130529E+02  0.00000000000E+00 0. -1.
</event>
<event>
 7    1  0.6833760E-006  0.1069869E+03  0.7561462E-02  0.1266254E+00
         -1   -1    0    0    0  501 -0.00000000000E+00  0.00000000000E+00  0.49115702834E+03  0.49115702834E+03  0.00000000000E+00 0.  1.
          1   -1    0    0  501    0  0.00000000000E+00 -0.00000000000E+00 -0.24858668568E+02  0.24858668568E+02  0.00000000000E+00 0. -1.
         23    2    1    2    0    0  0.16229143841E+02  0.75058234149E+00  0.22744749357E+03  0.26008402309E+03  0.12508952094E+03 0.  0.
          5    1    3    3  502    0 -0.10432891069E+02  0.59874242071E+02  0.11787570753E+03  0.13268732007E+03  0.41800000000E+01 0.  1.
         -5    1    3    3    0  502  0.26662034910E+02 -0.59123659729E+02  0.10957178604E+03  0.12739670302E+03  0.41800000000E+01 0.  1.
        -11    1    1    2    0    0  0.35702763225E+02  0.39357165758E+01  0.13539263719E+03  0.14007620559E+03  0.00000000000E+00 0. -1.
         11    1    1    2    0    0 -0.51931907066E+02 -0.46862989173E+01  0.10345822901E+03  0.11585546823E+03  0.00000000000E+00 0.  1.
</event>
<event>
 7    1  0.6833760E-006  0.1356890E+03  0.7561462E-02  0.1219250E+00
         -2   -1    0    0    0  501 -0.00000000000E+00  0.00000000000E+00  0.76194430074E+03  0.76194430074E+03  0.00000000000E+00 0.  1.
          2   -1    0    0  501    0  0.00000000000E+00 -0.00000000000E+00 -0.30474550050E+02  0.30474550050E+02  0.00000000000E+00 0. -1.
         23    2    1    2    0    0  0.69585421207E+02  0.76841520067E+02  0.46520444029E+03  0.49275950100E+03  0.12509997802E+03 0.  0.
          5    1    3    3  502    0 -0.12694430337E+02 -0.19182247684E+02  0.16977600198E+03  0.17137815040E+03  0.41800000000E+01 0. -1.
         -5    1    3    3    0  502  0.82279851544E+02  0.96023767751E+02  0.29542843832E+03  0.32138135060E+03  0.41800000000E+01 0. -1.
        -11    1    1    2    0    0 -0.38485764121E+02 -0.81404522138E+02  0.24673861274E+03  0.26265527461E+03  0.00000000000E+00 0.  1.
         11    1    1    2    0    0 -0.31099657086E+02  0.45630020713E+01  0.19526697655E+02  0.37004075182E+02  0.00000000000E+00 0. -1.
</event>
<event>
 7    1  0.6833760E-006  0.1290649E+03  0.7561462E-02  0.1228850E+00
         -2   -1    0    0    0  501 -0.00000000000E+00  0.00000000000E+00  0.62786796344E+03  0.62786796344E+03  0.00000000000E+00 0.  1.
          2   -1    0    0  501    0  0.00000000000E+00 -0.00000000000E+00 -0.27733321892E+02  0.27733321892E+02  0.00000000000E+00 0. -1.
         23    2    1    2    0    0  0.69183761737E+02  0.20591291529E+02  0.28346291434E+03  0.31813343640E+03  0.12508902981E+03 0.  0.
          5    1    3    3  502    0  0.61563157162E+02 -0.45516214298E+02  0.17074638024E+03  0.18717250559E+03  0.41800000000E+01 0. -1.
         -5    1    3    3    0  502  0.76206045747E+01  0.66107505826E+02  0.11271653410E+03  0.13096093082E+03  0.41800000000E+01 0. -1.
        -11    1    1    2    0    0  0.95594246576E+01 -0.33629612378E+02  0.12609940602E+03  0.13085638551E+03  0.00000000000E+00 0.  1.
         11    1    1    2    0    0 -0.78743186395E+02  0.13038320850E+02  0.19057232119E+03  0.20661146342E+03  0.00000000000E+00 0. -1.
</event>
<event>
 7    1  0.6833760E-006  0.2105362E+03  0.7561462E-02  0.1141142E+00
         -2   -1    0    0    0  501 -0.00000000000E+00  0.00000000000E+00  0.49849678216E+02  0.49849678216E+02  0.00000000000E+00 0.  1.
          2   -1    0    0  501    0  0.00000000000E+00 -0.00000000000E+00 -0.98160442485E+03  0.98160442485E+03  0.00000000000E+00 0. -1.
         23    2    1    2    0    0  0.15361749799E+02 -0.18391347095E+03 -0.34903191261E+03  0.41416394575E+03  0.12509336424E+03 0.  0.
          5    1    3    3  502    0 -0.14881195608E+02 -0.19062340961E+03 -0.30861323069E+03  0.36306794520E+03  0.41800000000E+01 0. -1.
         -5    1    3    3    0  502  0.30242945407E+02  0.67099386538E+01 -0.40418681925E+02  0.51096000549E+02  0.41800000000E+01 0. -1.
        -11    1    1    2    0    0 -0.28192041049E+02  0.21018804971E+02 -0.16586457992E+03  0.16955129080E+03  0.00000000000E+00 0. -1.
         11    1    1    2    0    0  0.12830291250E+02  0.16289466598E+03 -0.41685825410E+03  0.44773886652E+03  0.00000000000E+00 0.  1.
</event>
<event>
 7    1  0.6833760E-006  0.1385274E+03  0.7561462E-02  0.1215324E+00
         -1   -1    0    0    0  501 -0.00000000000E+00  0.00000000000E+00  0.22762942822E+03  0.22762942822E+03  0.00000000000E+00 0.  1.
          1   -1    0    0  501    0  0.00000000000E+00 -0.00000000000E+00 -0.37538195097E+03  0.37538195097E+03  0.00000000000E+00 0. -1.
         23    2    1    2    0    0 -0.93109564767E+02  0.90546659107E+02  0.17008848613E+03  0.24788214591E+03  0.12508947446E+03 0.  0.
          5    1    3    3  502    0 -0.68651959156E+02  0.78586565312E+02  0.35194419962E+02  0.11020462486E+03  0.41800000000E+01 0.  1.
         -5    1    3    3    0  502 -0.24457605611E+02  0.11960093795E+02  0.13489406617E+03  0.13767752105E+03  0.41800000000E+01 0.  1.
        -11    1    1    2    0    0  0.31003835948E+02  0.47129020371E+01 -0.22342419982E+02  0.38504973961E+02  0.00000000000E+00 0.  1.
         11    1    1    2    0    0  0.62105728819E+02 -0.95259561144E+02 -0.29549858890E+03  0.31662425931E+03  0.00000000000E+00 0. -1.
</event>
<event>
 7    1  0.6833760E-006  0.9455551E+02  0.7561462E-02  0.1292180E+00
          2   -1    0    0  501    0  0.00000000000E+00  0.00000000000E+00  0.36457724952E+02  0.36457724952E+02  0.00000000000E+00 0. -1.
         -2   -1    0    0    0  501 -0.00000000000E+00 -0.00000000000E+00 -0.34899691843E+03  0.34899691843E+03  0.00000000000E+00 0.  1.
         23    2    1    2    0    0  0.26796995064E+02 -0.37362773638E+01 -0.20547767148E+03  0.24207161245E+03  0.12508218644E+03 0.  0.
          5    1    3    3  502    0 -0.47630089275E+02  0.11781740546E+02 -0.10526350542E+03  0.11621236074E+03  0.41800000000E+01 0. -1.
         -5    1    3    3    0  502  0.74427084339E+02 -0.15518017909E+02 -0.10021416606E+03  0.12585925172E+03  0.41800000000E+01 0. -1.
        -11    1    1    2    0    0 -0.44614336967E+02  0.81896379802E+01 -0.11481318423E+03  0.12344867965E+03  0.00000000000E+00 0.  1.
         11    1    1    2    0    0  0.17817341903E+02 -0.44533606164E+01  0.77516622425E+01  0.19934351275E+02  0.00000000000E+00 0. -1.
</event>
<event>
 7    1  0.6833760E-006  0.1018187E+03  0.7561462E-02  0.1276517E+00
          1   -1    0    0  501    0  0.00000000000E+00  0.00000000000E+00  0.80475438971E+02  0.80475438971E+02  0.00000000000E+00 0.  1.
         -1   -1    0    0    0  501 -0.00000000000E+00 -0.00000000000E+00 -0.29866534798E+03  0.29866534798E+03  0.00000000000E+00 0. -1.
         23    2    1    2    0    0 -0.69476808458E+02 -0.37642072784E+02 -0.20846306088E+03  0.25563084437E+03  0.12508528404E+03 0.  0.
          5    1    3    3  502    0 -0.30375051884E+02 -0.60708346275E+02 -0.35419117976E+02  0.76682027899E+02  0.41800000000E+01 0.  1.
         -5    1    3    3    0  502 -0.39101756573E+02  0.23066273491E+02 -0.17304394290E+03  0.17894881647E+03  0.41800000000E+01 0.  1.
        -11    1    1    2    0    0  0.14494191352E+02  0.31544975715E+02  0.37261885899E+02  0.50927548699E+02  0.00000000000E+00 0.  1.
         11    1    1    2    0    0  0.54982617106E+02  0.60970970695E+01 -0.46988734033E+02  0.72582393888E+02  0.00000000000E+00 0. -1.
</event>
<event>
 7    1  0.6833760E-006  0.8608755E+02  0.7561462E-02  0.1312613E+00
         -2   -1    0    0    0  501 -0.00000000000E+00  0.00000000000E+00  0.17980012072E+03  0.17980012072E+03  0.00000000000E+00 0.  1.
          2   -1    0    0  501    0  0.00000000000E+00 -0.00000000000E+00 -0.96870639966E+02  0.96870639966E+02  0.00000000000E+00 0. -1.
         23    2    1    2    0    0  0.69738572747E+02 -0.13571950671E+02  0.88914761228E+02  0.16911977505E+03  0.12509195487E+03 0.  0.
          5    1    3    3  502    0  0.16890056486E+02 -0.55646087425E+01 -0.32002367609E+02  0.36849190101E+02  0.41800000000E+01 0.  1.
         -5    1    3    3    0  502  0.52848516261E+02 -0.80073419285E+01  0.12091712884E+03  0.13227058495E+03  0.41800000000E+01 0.  1.
        -11    1    1    2    0    0  0.47882344852E+00  0.28501437103E+02 -0.19454359153E+02  0.34511350001E+02  0.00000000000E+00 0. -1.
         11    1    1    2    0    0 -0.70217396196E+02 -0.14929486432E+02  0.13469078679E+02  0.73039635638E+02  0.00000000000E+00 0.  1.
</event>
<event>
 7    1  0.6833760E-006  0.1073710E+03  0.7561462E-02  0.1265517E+00
         -4   -1    0    0    0  501 -0.00000000000E+00  0.00000000000E+00  0.66932088088E+02  0.66932088088E+02  0.00000000000E+00 0.  1.
          4   -1    0    0  501    0  0.00000000000E+00 -0.00000000000E+00 -0.32303620447E+03  0.32303620447E+03  0.00000000000E+00 0. -1.
         23    2    1    2    0    0 -0.19680042829E+02 -0.81792380933E+02 -0.69244301997E+02  0.16589065540E+03  0.12509052133E+03 0.  0.
          5    1    3    3  502    0  0.83589859521E+01 -0.64019419869E+02 -0.10087951168E+03  0.11984367753E+03  0.41800000000E+01 0. -1.
         -5    1    3    3    0  502 -0.28039028781E+02 -0.17772961064E+02  0.31635209682E+02  0.46046977877E+02  0.41800000000E+01 0. -1.
        -11    1    1    2    0    0 -0.16511826962E+02 -0.90277576867E+01 -0.65975185886E+02  0.68606603117E+02  0.00000000000E+00 0. -1.
         11    1    1    2    0    0  0.36191869791E+02  0.90820138620E+02 -0.12088462850E+03  0.15547103404E+03  0.00000000000E+00 0.  1.
</event>
<event>
 7    1  0.6833760E-006  0.1140552E+03  0.7561462E-02  0.1253239E+00
          2   -1    0    0  501    0  0.00000000000E+00  0.00000000000E+00  0.66402595891E+02  0.66402595891E+02  0.00000000000E+00 0. -1.
         -2   -1    0    0    0  501 -0.00000000000E+00 -0.00000000000E+00 -0.24513604861E+03  0.24513604861E+03  0.00000000000E+00 0.  1.
         23    2    1    2    0    0  0.62713391557E+02  0.56251716501E+01 -0.71639484713E+02  0.15730370157E+03  0.12509047414E+03 0.  0.
          5    1    3    3  502    0  0.82441247227E+02 -0.35859260574E+02 -0.29183259797E+02  0.94612794408E+02  0.41800000000E+01 0.  1.
         -5    1    3    3    0  502 -0.19727855670E+02  0.41484432224E+02 -0.42456224917E+02  0.62690907160E+02  0.41800000000E+01 0.  1.
        -11    1    1    2    0    0 -0.75110715836E+01  0.26889138773E+02  0.17093644691E+01  0.27970768798E+02  0.00000000000E+00 0. -1.
         11    1    1    2    0    0 -0.55202319973E+02 -0.32514310423E+02 -0.10880333247E+03  0.12626417414E+03  0.00000000000E+00 0.  1.
</event>
<event>
 7    1  0.6833760E-006  0.9355108E+02  0.7561462E-02  0.1294473E+00
         -1   -1    0    0    0  501 -0.00000000000E+00  0.00000000000E+00  0.67954505445E+02  0.67954505445E+02  0.00000000000E+00 0.  1.
          1   -1    0    0  501    0  0.00000000000E+00 -0.00000000000E+00 -0.22101510086E+03  0.22101510086E+03  0.00000000000E+00 0. -1.
         23    2    1    2    0    0 -0.13937080616E+02  0.34154911622E+02 -0.69757044454E+02  0.14789801442E+03  0.12508787797E+03 0.  0.
          5    1    3    3  502    0 -0.14207064105E+02  0.53454485123E+02 -0.98488380085E+02  0.11303387130E+03  0.41800000000E+01 0.  1.
         -5    1    3    3    0  502  0.26998348918E+00 -0.19299573501E+02  0.28731335631E+02  0.34864143120E+02  0.41800000000E+01 0.  1.
        -11    1    1    2    0    0  0.22852081931E+02  0.35195859995E+02 -0.18953601914E+02  0.46045686387E+02  0.00000000000E+00 0.  1.
         11    1    1    2    0    0 -0.89150013155E+01 -0.69350771617E+02 -0.64349949043E+02  0.95025905490E+02  0.00000000000E+00 0. -1.
</event>
<event>
 7    1  0.6833760E-006  0.1051691E+03  0.7561462E-02  0.1269787E+00
          1   -1    0    0  501    0  0.00000000000E+00  0.00000000000E+00  0.24509675417E+03  0.24509675417E+03  0.00000000000E+00 0. -1.
         -1   -1    0    0    0  501 -0.00000000000E+00 -0.00000000000E+00 -0.70896315202E+02  0.70896315202E+02  0.00000000000E+00 0.  1.
         23    2    1    2    0    0  0.24884334802E+02 -0.77020233860E+02  0.10280470143E+03  0.18101869912E+03  0.12509043230E+03 0.  0.
          5    1    3    3  502    0  0.45356157956E+01  0.10010906019E+02  0.89842411730E+02  0.90608616563E+02  0.41800000000E+01 0.  1.
         -5    1    3    3    0  502  0.20348719007E+02 -0.87031139879E+02  0.12962289704E+02  0.90410082558E+02  0.41800000000E+01 0.  1.
        -11    1    1    2    0    0 -0.27039207677E+01  0.85363256734E+02  0.36698594182E+02  0.92956891099E+02  0.00000000000E+00 0.  1.
         11    1    1    2    0    0 -0.22180414035E+02 -0.83430228746E+01  0.34697143350E+02  0.42017479149E+02  0.00000000000E+00 0. -1.
</event>
<event>
 7    1  0.6833760E-006  0.1240883E+03  0.7561462E-02  0.1236501E+00
         -4   -1    0    0    0  501 -0.00000000000E+00  0.00000000000E+00  0.84817404848E+02  0.84817404848E+02  0.00000000000E+00 0.  1.
          4   -1    0    0  501    0  0.00000000000E+00 -0.00000000000E+00 -0.26643534483E+03  0.26643534483E+03  0.00000000000E+00 0. -1.
         23    2    1    2    0    0  0.10100651590E+03  0.22487820659E+02 -0.81322853459E+02  0.18157493141E+03  0.12509208964E+03 0.  0.
          5    1    3    3  502    0  0.85073224442E+02  0.33853666471E+02 -0.11213835151E+03  0.14483095846E+03  0.41800000000E+01 0.  1.
         -5    1    3    3    0  502  0.15933291459E+02 -0.11365845812E+02  0.30815498050E+02  0.36743972946E+02  0.41800000000E+01 0.  1.
        -11    1    1    2    0    0 -0.43409310072E+02  0.34524350231E+02 -0.46810889178E+02  0.72577946412E+02  0.00000000000E+00 0. -1.
         11    1    1    2    0    0 -0.57597205829E+02 -0.57012170890E+02 -0.53484197349E+02  0.97099871859E+02  0.00000000000E+00 0.  1.
</event>
<event>
 7    1  0.6833760E-006  0.1139676E+03  0.7561462E-02  0.1253394E+00
         -2   -1    0    0    0  501 -0.00000000000E+00  0.00000000000E+00  0.35289332438E+03  0.35289332438E+03  0.00000000000E+00 0.  1.
          2   -1    0    0  501    0  0.00000000000E+00 -0.00000000000E+00 -0.60917396518E+02  0.60917396518E+02  0.00000000000E+00 0. -1.
         23    2    1    2    0    0  0.76315130369E+02  0.40128153455E+02  0.22588325099E+03  0.27222237900E+03  0.12509001849E+03 0.  0.
          5    1    3    3  502    0 -0.39384442254E+00 -0.26452403737E+02  0.26292697648E+01  0.26912269254E+02  0.41800000000E+01 0.  1.
         -5    1    3    3    0  502  0.76708974791E+02  0.66580557192E+02  0.22325398123E+03  0.24531010974E+03  0.41800000000E+01 0.  1.
        -11    1    1    2    0    0 -0.28214023634E+02  0.10080118138E+02 -0.16033610239E+02  0.33981120767E+02  0.00000000000E+00 0. -1.
         11    1    1    2    0    0 -0.48101106735E+02 -0.50208271592E+02  0.82126287112E+02  0.10760722113E+03  0.00000000000E+00 0.  1.
</event>
<event>
 7    1  0.6833760E-006  0.1129190E+03  0.7561462E-02  0.1255258E+00
         -1   -1    0    0    0  501 -0.00000000000E+00  0.00000000000E+00  0.19744136234E+03  0.19744136234E+03  0.00000000000E+00 0.  1.
          1   -1    0    0  501    0  0.00000000000E+00 -0.00000000000E+00 -0.92853018429E+02  0.92853018429E+02  0.00000000000E+00 0. -1.
         23    2    1    2    0    0 -0.73321946583E+02  0.26412133525E+02  0.76355898511E+02  0.16598872553E+03  0.12509326567E+03 0.  0.
          5    1    3    3  502    0  0.10301509719E+02 -0.38503499434E+02  0.11201560253E+02  0.41612353012E+02  0.41800000000E+01 0. -1.
         -5    1    3    3    0  502 -0.83623456303E+02  0.64915632958E+02  0.65154338259E+02  0.12437637252E+03  0.41800000000E+01 0. -1.
        -11    1    1    2    0    0  0.36545081123E+02 -0.22296846383E+02 -0.32113789631E+02  0.53516238633E+02  0.00000000000E+00 0. -1.
         11    1    1    2    0    0  0.36776865460E+02 -0.41152871419E+01  0.60346235030E+02  0.70789416607E+02  0.00000000000E+00 0.  1.
</event>
<event>
 7    1  0.6833760E-006  0.1202788E+03  0.7561462E-02  0.1242638E+00
          1   -1    0    0  501    0  0.00000000000E+00  0.00000000000E+00  0.11367001294E+04  0.11367001294E+04  0.00000000000E+00 0. -1.
         -1   -1    0    0    0  501 -0.00000000000E+00 -0.00000000000E+00 -0.18726851605E+02  0.18726851605E+02  0.00000000000E+00 0.  1.
         23    2    1    2    0    0  0.58139249227E+02 -0.64807832613E+02  0.42949405329E+03  0.45570308426E+03  0.12497972526E+03 0.  0.
          5    1    3    3  502    0  0.73196797544E+02 -0.27979949163E+02  0.11838377329E+03  0.14203111949E+03  0.41800000000E+01 0.  1.
         -5    1    3    3    0  502 -0.15057548317E+02 -0.36827883450E+02  0.31111028000E+03  0.31367196477E+03  0.41800000000E+01 0.  1.
        -11    1    1    2    0    0  0.13803390551E+02 -0.10937944218E+02  0.56896134713E+02  0.59559569842E+02  0.00000000000E+00 0.  1.
         11    1    1    2    0    0 -0.71942639778E+02  0.75745776832E+02  0.63158308980E+03  0.64016432691E+03  0.00000000000E+00 0. -1.
</event>
<event>
 7    1  0.6833760E-006  0.8740055E+02  0.7561462E-02  0.1309272E+00
          2   -1    0    0  501    0  0.00000000000E+00  0.00000000000E+00  0.18236702616E+03  0.18236702616E+03  0.00000000000E+00 0. -1.
         -2   -1    0    0    0  501 -0.00000000000E+00 -0.00000000000E+00 -0.78855091566E+02  0.78855091566E+02  0.00000000000E+00 0.  1.
         23    2    1    2    0    0  0.34376153540E+01 -0.33373606577E+02  0.32438593024E+02  0.13350961675E+03  0.12508773174E+03 0.  0.
          5    1    3    3  502    0 -0.34950236808E+02 -0.36909899768E+02 -0.30615507653E+02  0.59486481343E+02  0.41800000000E+01 0.  1.
         -5    1    3    3    0  502  0.38387852162E+02  0.35362931909E+01  0.63054100676E+02  0.74023135405E+02  0.41800000000E+01 0.  1.
        -11    1    1    2    0    0 -0.40683296554E+02  0.13900951553E+02  0.73999304141E+02  0.85581914479E+02  0.00000000000E+00 0. -1.
         11    1    1    2    0    0  0.37245681200E+02  0.19472655024E+02 -0.29259625690E+01  0.42130586499E+02  0.00000000000E+00 0.  1.
</event>
<event>
 7    1  0.6833760E-006  0.1202547E+03  0.7561462E-02  0.1242677E+00
         -2   -1    0    0    0  501 -0.00000000000E+00  0.00000000000E+00  0.11387115218E+03  0.11387115218E+03  0.00000000000E+00 0.  1.
          2   -1    0    0  501    0  0.00000000000E+00 -0.00000000000E+00 -0.16882550925E+03  0.16882550925E+03  0.00000000000E+00 0. -1.
         23    2    1    2    0    0  0.79336918778E+02  0.32325198973E+02 -0.45219984210E+02  0.15821698515E+03  0.12509397366E+03 0.  0.
          5    1    3    3  502    0  0.10319948179E+03 -0.85118784979E+01 -0.36923103963E+02  0.11001533132E+03  0.41800000000E+01 0.  1.
         -5    1    3    3    0  502 -0.23862563016E+02  0.40837077471E+02 -0.82968802470E+01  0.48201653830E+02  0.41800000000E+01 0.  1.
        -11    1    1    2    0    0 -0.46909619398E+02 -0.53523062895E+01  0.38125956274E+02  0.60685650004E+02  0.00000000000E+00 0.  1.
         11    1    1    2    0    0 -0.32427299380E+02 -0.26972892684E+02 -0.47860329129E+02  0.63794026281E+02  0.00000000000E+00 0. -1.
</event>
<event>
 7    1  0.6833760E-006  0.1272254E+03  0.7561462E-02  0.1231632E+00
         -2   -1    0    0    0  501 -0.00000000000E+00  0.00000000000E+00  0.40317450082E+02  0.40317450082E+02  0.00000000000E+00 0.  1.
          2   -1    0    0  501    0  0.00000000000E+00 -0.00000000000E+00 -0.55926207232E+03  0.55926207232E+03  0.00000000000E+00 0. -1.
         23    2    1    2    0    0  0.85445125558E+02  0.57476932249E+02 -0.27484872944E+03  0.31905058447E+03  0.12508790571E+03 0.  0.
          5    1    3    3  502    0 -0.15246705984E+02  0.43989699186E+02 -0.34552971996E+02  0.58128615600E+02  0.41800000000E+01 0. -1.
         -5    1    3    3    0  502  0.10069183154E+03  0.13487233063E+02 -0.24029575744E+03  0.26092196887E+03  0.41800000000E+01 0. -1.
        -11    1    1    2    0    0 -0.15980711591E+02 -0.24213029526E+02 -0.17395706940E+03  0.17635962105E+03  0.00000000000E+00 0.  1.
         11    1    1    2    0    0 -0.69464413967E+02 -0.33263902722E+02 -0.70138823403E+02  0.10416931689E+03  0.00000000000E+00 0. -1.
</event>
<event>
 7    1  0.6833760E-006  0.1821685E+03  0.7561462E-02  0.1165721E+00
         -2   -1    0    0    0  501 -0.00000000000E+00  0.00000000000E+00  0.35408875643E+03  0.35408875643E+03  0.00000000000E+00 0.  1.
          2   -1    0    0  501    0  0.00000000000E+00 -0.00000000000E+00 -0.11155553990E+03  0.11155553990E+03  0.00000000000E+00 0. -1.
         23    2    1    2    0    0  0.39127952432E+02  0.15980155769E+03  0.11752447037E+03  0.23775467538E+03  0.12509096702E+03 0.  0.
          5    1    3    3  502    0 -0.32936464824E+02  0.12286420007E+02  0.47447024691E+02  0.59198474505E+02  0.41800000000E+01 0. -1.
         -5    1    3    3    0  502  0.72064417257E+02  0.14751513768E+03  0.70077445678E+02  0.17855620088E+03  0.41800000000E+01 0. -1.
        -11    1    1    2    0    0 -0.24391267708E+02 -0.83283336033E+02  0.12224497562E+03  0.14991625017E+03  0.00000000000E+00 0.  1.
         11    1    1    2    0    0 -0.14736684724E+02 -0.76518221655E+02  0.27637705349E+01  0.77973370772E+02  0.00000000000E+00 0. -1.
</event>
<event>
 7    1  0.6833760E-006  0.1194173E+03  0.7561462E-02  0.1244062E+00
         -2   -1    0    0    0  501 -0.00000000000E+00  0.00000000000E+00  0.10151964537E+03  0.10151964537E+03  0.00000000000E+00 0.  1.
          2   -1    0    0  501    0  0.00000000000E+00 -0.00000000000E+00 -0.16690849583E+03  0.16690849583E+03  0.00000000000E+00 0. -1.
         23    2    1    2    0    0  0.35135092272E+02 -0.49982382382E+02 -0.99692892290E+01  0.13956853761E+03  0.12508907508E+03 0.  0.
          5    1    3    3  502    0  0.72890038969E+02 -0.12582589995E+02  0.22157810850E+02  0.77328651440E+02  0.41800000000E+01 0. -1.
         -5    1    3    3    0  502 -0.37754946698E+02 -0.37399792387E+02 -0.32127100079E+02  0.62239886168E+02  0.41800000000E+01 0. -1.
        -11    1    1    2    0    0  0.17827220921E+02 -0.17952952131E+02  0.19305223769E+01  0.25374105159E+02  0.00000000000E+00 0.  1.
         11    1    1    2    0    0 -0.52962313193E+02  0.67935334512E+02 -0.57350083609E+02  0.10348549842E+03  0.00000000000E+00 0. -1.
</event>
<event>
 7    1  0.6833760E-006  0.1056389E+03  0.7561462E-02  0.1268866E+00
         -1   -1    0    0    0  501 -0.00000000000E+00  0.00000000000E+00  0.37235000512E+03  0.37235000512E+03  0.00000000000E+00 0.  1.
          1   -1    0    0  501    0  0.00000000000E+00 -0.00000000000E+00 -0.59505329096E+02  0.59505329096E+02  0.00000000000E+00 0. -1.
         23    2    1    2    0    0  0.89704503376E+02 -0.33538133002E+01  0.23627932098E+03  0.28194321908E+03  0.12492363777E+03 0.  0.
          5    1    3    3  502    0  0.45476029289E+02  0.79242093491E+01  0.23123170347E+03  0.23583137074E+03  0.41800000000E+01 0.  1.
         -5    1    3    3    0  502  0.44228474087E+02 -0.11278022649E+02  0.50476175074E+01  0.46111848341E+02  0.41800000000E+01 0.  1.
        -11    1    1    2    0    0 -0.78403731984E+02  0.34724228165E+02  0.26483602216E+02  0.89745743058E+02  0.00000000000E+00 0. -1.
         11    1    1    2    0    0 -0.11300771392E+02 -0.31370414865E+02  0.50081752829E+02  0.60166372080E+02  0.00000000000E+00 0.  1.
</event>
<event>
 6    1  0.6833760E-006  0.8593387E+02  0.7561462E-02  0.1313008E+00
          3   -1    0    0  501    0  0.00000000000E+00  0.00000000000E+00  0.12479028410E+03  0.12479028410E+03  0.00000000000E+00 0. -1.
         -3   -1    0    0    0  501 -0.00000000000E+00 -0.00000000000E+00 -0.19326751157E+03  0.19326751157E+03  0.00000000000E+00 0.  1.
          5    1    1    2  502    0  0.77932855183E+01  0.39279818773E+02  0.23386676279E+02  0.46562307603E+02  0.41800000000E+01 0. -1.
         -5    1    1    2    0  502  0.18591106913E+02 -0.29628891100E+02 -0.15128960219E+03  0.15533678436E+03  0.41800000000E+01 0.  1.
        -11    1    1    2    0    0  0.29103873057E+02 -0.25473345533E+02  0.94264227700E+01  0.39809348221E+02  0.00000000000E+00 0.  1.
         11    1    1    2    0    0 -0.55488265488E+02  0.15822417860E+02  0.49999275676E+02  0.76349355478E+02  0.00000000000E+00 0. -1.
</event>
<event>
 6    1  0.6833760E-006  0.1102042E+03  0.7561462E-02  0.1260192E+00
         -1   -1    0    0    0  501 -0.00000000000E+00  0.00000000000E+00  0.12453464555E+03  0.12453464555E+03  0.00000000000E+00 0.  1.
          1   -1    0    0  501    0  0.00000000000E+00 -0.00000000000E+00 -0.25604802337E+03  0.25604802337E+03  0.00000000000E+00 0. -1.
          5    1    1    2  502    0  0.72461619891E+02 -0.33549230768E+02  0.41813122665E+02  0.90233291358E+02  0.41800000000E+01 0. -1.
         -5    1    1    2    0  502 -0.48554919033E+02  0.30487913339E+02  0.31082477423E+02  0.65350484504E+02  0.41800000000E+01 0.  1.
        -11    1    1    2    0    0  0.26795225518E+02  0.15229378180E+02 -0.30185571972E+02  0.43140315548E+02  0.00000000000E+00 0.  1.
         11    1    1    2    0    0 -0.50701926376E+02 -0.12168060751E+02 -0.17422340593E+03  0.18185857751E+03  0.00000000000E+00 0. -1.
</event>
<event>
 6    1  0.6833760E-006  0.1147794E+03  0.7561462E-02  0.1251967E+00
         -1   -1    0    0    0  501 -0.00000000000E+00  0.00000000000E+00  0.34215982304E+02  0.34215982304E+02  0.00000000000E+00 0.  1.
          1   -1    0    0  501    0  0.00000000000E+00 -0.00000000000E+00 -0.58334021170E+03  0.58334021170E+03  0.00000000000E+00 0. -1.
          5    1    1    2  502    0  0.92874706056E+02  0.35777846968E+02 -0.17261268472E+03  0.19929469809E+03  0.41800000000E+01 0. -1.
         -5    1    1    2    0  502 -0.34599887746E+02  0.10194814020E+02 -0.22413787746E+03  0.22706022764E+03  0.41800000000E+01 0.  1.
        -11    1    1    2    0    0 -0.31429448798E+02 -0.56614637409E+02 -0.42164249500E+02  0.77271284165E+02  0.00000000000E+00 0.  1.
         11    1    1    2    0    0 -0.26845369512E+02  0.10641976421E+02 -0.11020941772E+03  0.11392998411E+03  0.00000000000E+00 0. -1.
</event>
<event>
 7    1  0.6833760E-006  0.1875862E+03  0.7561462E-02  0.1160657E+00
          2   -1    0    0  501    0  0.00000000000E+00  0.00000000000E+00  0.74359062216E+03  0.74359062216E+03  0.00000000000E+00 0.  1.
         -2   -1    0    0    0  501 -0.00000000000E+00 -0.00000000000E+00 -0.57888509382E+02  0.57888509382E+02  0.00000000000E+00 0. -1.
         23    2    1    2    0    0 -0.35699864181E+01 -0.17114275522E+03  0.27437311009E+03  0.34673892473E+03  0.12507873888E+03 0.  0.
          5    1    3    3  502    0  0.46635820693E+02 -0.42215215884E+02  0.40372795726E+02  0.74862936481E+02  0.41800000000E+01 0.  1.
         -5    1    3    3    0  502 -0.50205807111E+02 -0.12892753934E+03  0.23400031436E+03  0.27187598825E+03  0.41800000000E+01 0.  1.
        -11    1    1    2    0    0 -0.12469124344E+02  0.51158710792E+02  0.46140699260E+02  0.70011833857E+02  0.00000000000E+00 0. -1.
         11    1    1    2    0    0  0.16039110762E+02  0.11998404443E+03  0.36518830343E+03  0.38472837295E+03  0.00000000000E+00 0.  1.
</event>
<event>
 7    1  0.6833760E-006  0.1310418E+03  0.7561462E-02  0.1225918E+00
         -4   -1    0    0    0  501 -0.00000000000E+00  0.00000000000E+00  0.53362791385E+02  0.53362791385E+02  0.00000000000E+00 0.  1.
          4   -1    0    0  501    0  0.00000000000E+00 -0.00000000000E+00 -0.42100924493E+03  0.42100924493E+03  0.00000000000E+00 0. -1.
         23    2    1    2    0    0  0.20203446236E+02 -0.94592819449E+02 -0.25668957416E+03  0.30148451090E+03  0.12508953633E+03 0.  0.
          5    1    3    3  502    0  0.76517090000E+01 -0.11032014700E+03 -0.11991785475E+03  0.16317735067E+03  0.41800000000E+01 0.  1.
         -5    1    3    3    0  502  0.12551737236E+02  0.15727327554E+02 -0.13677171941E+03  0.13830716023E+03  0.41800000000E+01 0.  1.
        -11    1    1    2    0    0 -0.36482108517E+02  0.16597657719E+01 -0.44071507473E+02  0.57236324438E+02  0.00000000000E+00 0. -1.
         11    1    1    2    0    0  0.16278662282E+02  0.92933053677E+02 -0.66885371915E+02  0.11565120098E+03  0.00000000000E+00 0.  1.
</event>
<event>
 7    1  0.6833760E-006  0.1747050E+03  0.7561462E-02  0.1173028E+00
         -2   -1    0    0    0  501 -0.00000000000E+00  0.00000000000E+00  0.25685103715E+03  0.25685103715E+03  0.00000000000E+00 0. -1.
          2   -1    0    0  501    0  0.00000000000E+00 -0.00000000000E+00 -0.15473155962E+03  0.15473155962E+03  0.00000000000E+00 0.  1.
         23    2    1    2    0    0  0.86740860057E+02  0.10973803549E+03  0.14750714558E+03  0.23869688478E+03  0.12510568161E+03 0.  0.
          5    1    3    3  502    0  0.11667752528E+03  0.10291368198E+03  0.11308485033E+03  0.19238120131E+03  0.41800000000E+01 0.  1.
         -5    1    3    3    0  502 -0.29936665220E+02  0.68243535060E+01  0.34422295242E+02  0.46315683467E+02  0.41800000000E+01 0.  1.
        -11    1    1    2    0    0 -0.61250354827E+01 -0.74591678513E+02 -0.39792681889E+02  0.84763742809E+02  0.00000000000E+00 0.  1.
         11    1    1    2    0    0 -0.80615824575E+02 -0.35146356976E+02 -0.55949861559E+01  0.88121969171E+02  0.00000000000E+00 0. -1.
</event>
<event>
 7    1  0.6833760E-006  0.1193294E+03  0.7561462E-02  0.1244207E+00
         -1   -1    0    0    0  501 -0.00000000000E+00  0.00000000000E+00  0.37228275083E+03  0.37228275083E+03  0.00000000000E+00 0.  1.
          1   -1    0    0  501    0  0.00000000000E+00 -0.00000000000E+00 -0.48360943088E+02  0.48360943088E+02  0.00000000000E+00 0. -1.
         23    2    1    2    0    0  0.37871865253E+02  0.67103189625E+02  0.17214821336E+03  0.22631841540E+03  0.12509157266E+03 0.  0.
          5    1    3    3  502    0  0.54153051077E+01  0.88283608060E+02  0.58390136029E+02  0.10606696643E+03  0.41800000000E+01 0. -1.
         -5    1    3    3    0  502  0.32456560145E+02 -0.21180418436E+02  0.11375807734E+03  0.12025144898E+03  0.41800000000E+01 0. -1.
        -11    1    1    2    0    0 -0.59874585168E+02 -0.65981400048E+02  0.81757423033E+02  0.12092471758E+03  0.00000000000E+00 0. -1.
         11    1    1    2    0    0  0.22002719915E+02 -0.11217895766E+01  0.70016171345E+02  0.73400560933E+02  0.00000000000E+00 0.  1.
</event>
<event>
 7    1  0.6833760E-006  0.3082452E+03  0.7561462E-02  0.1081190E+00
         -2   -1    0    0    0  501 -0.00000000000E+00  0.00000000000E+00  0.14037671486E+03  0.14037671486E+03  0.00000000000E+00 0.  1.
          2   -1    0    0  501    0  0.00000000000E+00 -0.00000000000E+00 -0.94315273408E+03  0.94315273408E+03  0.00000000000E+00 0. -1.
         23    2    1    2    0    0 -0.27094628725E+03  0.12654178917E+03 -0.14446568508E+03  0.35488500129E+03  0.12509322521E+03 0.  0.
          5    1    3    3  502    0 -0.27300940547E+03  0.12238598186E+03 -0.10834313721E+03  0.31822660450E+03  0.41800000000E+01 0. -1.
         -5    1    3    3    0  502  0.20631182179E+01  0.41558073177E+01 -0.36122547863E+02  0.36658396792E+02  0.41800000000E+01 0. -1.
        -11    1    1    2    0    0  0.93266794990E+02 -0.64596639592E+00 -0.22896340717E+03  0.24723137775E+03  0.00000000000E+00 0. -1.
         11    1    1    2    0    0  0.17767949226E+03 -0.12589582278E+03 -0.42934692697E+03  0.48141306989E+03  0.00000000000E+00 0.  1.
</event>
<event>
 7    1  0.6833760E-006  0.9219049E+02  0.7561462E-02  0.1297632E+00
         -1   -1    0    0    0  501 -0.00000000000E+00  0.00000000000E+00  0.11795557866E+03  0.11795557866E+03  0.00000000000E+00 0.  1.
          1   -1    0    0  501    0  0.00000000000E+00 -0.00000000000E+00 -0.13922494300E+03  0.13922494300E+03  0.00000000000E+00 0. -1.
         23    2    1    2    0    0 -0.29608683978E+02 -0.54006871606E+02  0.20136865575E+02  0.14087499593E+03  0.12508738856E+03 0.  0.
          5    1    3    3  502    0 -0.31236023359E+02 -0.65606240453E+02 -0.37525221946E+02  0.81887011325E+02  0.41800000000E+01 0.  1.
         -5    1    3    3    0  502  0.16273393806E+01  0.11599368847E+02  0.57662087521E+02  0.58987984610E+02  0.41800000000E+01 0.  1.
        -11    1    1    2    0    0  0.56196261238E+02  0.32146883537E+02 -0.48832896250E+02  0.81093117183E+02  0.00000000000E+00 0. -1.
         11    1    1    2    0    0 -0.26587577260E+02  0.21859988069E+02  0.74266663363E+01  0.35212408549E+02  0.00000000000E+00 0.  1.
</event>
<event>
 7    1  0.6833760E-006  0.3941636E+03  0.7561462E-02  0.1045820E+00
          2   -1    0    0  501    0  0.00000000000E+00  0.00000000000E+00  0.11120668679E+04  0.11120668679E+04  0.00000000000E+00 0. -1.
         -2   -1    0    0    0  501 -0.00000000000E+00 -0.00000000000E+00 -0.20150212613E+03  0.20150212613E+03  0.00000000000E+00 0.  1.
         23    2    1    2    0    0  0.23326924486E+03 -0.30889286369E+03  0.11287888766E+03  0.42215921600E+03  0.12508964198E+03 0.  0.
          5    1    3    3  502    0  0.19349591839E+03 -0.28637755715E+03  0.57764863476E+02  0.35043833627E+03  0.41800000000E+01 0. -1.
         -5    1    3    3    0  502  0.39773326470E+02 -0.22515306544E+02  0.55114024182E+02  0.71720879727E+02  0.41800000000E+01 0. -1.
        -11    1    1    2    0    0 -0.80018076529E+02  0.17833412961E+03  0.42598546831E+03  0.46868920786E+03  0.00000000000E+00 0.  1.
         11    1    1    2    0    0 -0.15325116834E+03  0.13055873409E+03  0.37170038583E+03  0.42272057020E+03  0.00000000000E+00 0. -1.
</event>
<event>
 7    1  0.6833760E-006  0.1277103E+03  0.7561462E-02  0.1230893E+00
         -2   -1    0    0    0  501 -0.00000000000E+00  0.00000000000E+00  0.52713429241E+02  0.52713429241E+02  0.00000000000E+00 0.  1.
          2   -1    0    0  501    0  0.00000000000E+00 -0.00000000000E+00 -0.53617861316E+03  0.53617861316E+03  0.00000000000E+00 0. -1.
         23    2    1    2    0    0 -0.20708696515E+02 -0.10977619793E+03 -0.13513732573E+03  0.21221947117E+03  0.11956313560E+03 0.  0.
          5    1    3    3  502    0  0.14793277405E+02 -0.29963612000E+02 -0.11850795076E+03  0.12320010509E+03  0.41800000000E+01 0. -1.
         -5    1    3    3    0  502 -0.35501973920E+02 -0.79812585928E+02 -0.16629374967E+02  0.89019366075E+02  0.41800000000E+01 0.  1.
        -11    1    1    2    0    0 -0.28010111634E+02  0.48508811977E+02 -0.83730137322E+02  0.10073930260E+03  0.00000000000E+00 0.  1.
         11    1    1    2    0    0  0.48718808149E+02  0.61267385951E+02 -0.26459772086E+03  0.27593326863E+03  0.00000000000E+00 0. -1.
</event>
<event>
 7    1  0.6833760E-006  0.8184773E+02  0.7561462E-02  0.1323888E+00
         -2   -1    0    0    0  501 -0.00000000000E+00  0.00000000000E+00  0.62076503180E+02  0.62076503180E+02  0.00000000000E+00 0. -1.
          2   -1    0    0  501    0  0.00000000000E+00 -0.00000000000E+00 -0.20047866423E+03  0.20047866423E+03  0.00000000000E+00 0.  1.
         23    2    1    2    0    0 -0.14049184279E+02  0.16572211322E+01 -0.52478541109E+02  0.13638748051E+03  0.12508965425E+03 0.  0.
          5    1    3    3  502    0  0.39903738236E+02 -0.20672092126E+02  0.14523987236E+02  0.47413735598E+02  0.41800000000E+01 0.  1.
         -5    1    3    3    0  502 -0.53952922516E+02  0.22329313258E+02 -0.67002528346E+02  0.88973744910E+02  0.41800000000E+01 0.  1.
        -11    1    1    2    0    0 -0.22652387830E+02 -0.48990222137E+01  0.85975028722E+01  0.24719388113E+02  0.00000000000E+00 0. -1.
         11    1    1    2    0    0  0.36701572109E+02  0.32418010815E+01 -0.94521122808E+02  0.10144829879E+03  0.00000000000E+00 0.  1.
</event>
<event>
 7    1  0.6833760E-006  0.1228554E+03  0.7561462E-02  0.1238459E+00
         -3   -1    0    0    0  501 -0.00000000000E+00  0.00000000000E+00  0.33132214638E+03  0.33132214638E+03  0.00000000000E+00 0.  1.
          3   -1    0    0  501    0  0.00000000000E+00 -0.00000000000E+00 -0.56144700530E+02  0.56144700530E+02  0.00000000000E+00 0. -1.
         23    2    1    2    0    0 -0.52462516269E+02 -0.53670950515E+02  0.19654029421E+03  0.24590700986E+03  0.12731568523E+03 0.  0.
          5    1    3    3  502    0 -0.89836111438E+02 -0.45364056276E+02  0.99858042579E+02  0.14183626330E+03  0.41800000000E+01 0. -1.
         -5    1    3    3    0  502  0.37373595170E+02 -0.83068942389E+01  0.96682251636E+02  0.10407074656E+03  0.41800000000E+01 0.  1.
        -11    1    1    2    0    0  0.12853037829E+02  0.64209609440E+02  0.76240727394E+02  0.10050235340E+03  0.00000000000E+00 0.  1.
         11    1    1    2    0    0  0.39609478439E+02 -0.10538658925E+02  0.23964242416E+01  0.41057483646E+02  0.00000000000E+00 0. -1.
</event>
<event>
 7    1  0.6833760E-006  0.1143302E+03  0.7561462E-02  0.1252755E+00
         -1   -1    0    0    0  501 -0.00000000000E+00  0.00000000000E+00  0.21913796579E+03  0.21913796579E+03  0.00000000000E+00 0.  1.
          1   -1    0    0  501    0  0.00000000000E+00 -0.00000000000E+00 -0.91748474327E+02  0.91748474327E+02  0.00000000000E+00 0. -1.
         23    2    1    2    0    0 -0.65264744891E+02  0.53907945062E+02  0.10471133010E+03  0.18378748028E+03  0.12509125385E+03 0.  0.
          5    1    3    3  502    0 -0.56731848044E+02  0.70506061050E+02  0.14713576306E+02  0.91780003023E+02  0.41800000000E+01 0. -1.
         -5    1    3    3    0  502 -0.85328968475E+01 -0.16598115988E+02  0.89997753796E+02  0.92007477258E+02  0.41800000000E+01 0. -1.
        -11    1    1    2    0    0  0.77302840896E+02 -0.15697910405E+02 -0.39758844648E+01  0.78980765120E+02  0.00000000000E+00 0. -1.
         11    1    1    2    0    0 -0.12038096005E+02 -0.38210034657E+02  0.26654045825E+02  0.48118194716E+02  0.00000000000E+00 0.  1.
</event>
<event>
 7    1  0.6833760E-006  0.1734267E+03  0.7561462E-02  0.1174321E+00
         -2   -1    0    0    0  501 -0.00000000000E+00  0.00000000000E+00  0.30190765579E+02  0.30190765579E+02  0.00000000000E+00 0.  1.
          2   -1    0    0  501    0  0.00000000000E+00 -0.00000000000E+00 -0.11075363383E+04  0.11075363383E+04  0.00000000000E+00 0. -1.
         23    2    1    2    0    0  0.85050795104E+02  0.11895537428E+03 -0.61552745024E+03  0.64490761230E+03  0.12509103721E+03 0.  0.
          5    1    3    3  502    0  0.10501494158E+02  0.10480295858E+03 -0.45844598573E+03  0.47040847754E+03  0.41800000000E+01 0.  1.
         -5    1    3    3    0  502  0.74549300946E+02  0.14152415698E+02 -0.15708146451E+03  0.17449913476E+03  0.41800000000E+01 0.  1.
        -11    1    1    2    0    0 -0.34935820107E+02 -0.10885566023E+03 -0.24969207172E+03  0.27462009572E+03  0.00000000000E+00 0. -1.
         11    1    1    2    0    0 -0.50114974997E+02 -0.10099714049E+02 -0.21212605075E+03  0.21819939585E+03  0.00000000000E+00 0.  1.
</event>
<event>
 7    1  0.6833760E-006  0.8434731E+02  0.7561462E-02  0.1317148E+00
         -2   -1    0    0    0  501 -0.00000000000E+00  0.00000000000E+00  0.35422256842E+03  0.35422256842E+03  0.00000000000E+00 0.  1.
          2   -1    0    0  501    0  0.00000000000E+00 -0.00000000000E+00 -0.31400416162E+02  0.31400416162E+02  0.00000000000E+00 0. -1.
         23    2    1    2    0    0  0.40304835569E+01  0.12902160178E+02  0.23569124762E+03  0.26123438332E+03  0.11184957884E+03 0.  0.
          5    1    3    3  502    0 -0.20859405023E+02 -0.26444175224E+02  0.17680651369E+02  0.38268616568E+02  0.41800000000E+01 0. -1.
         -5    1    3    3    0  502  0.24889888580E+02  0.39346335401E+02  0.21801059625E+03  0.22296576675E+03  0.41800000000E+01 0.  1.
        -11    1    1    2    0    0  0.40568299898E+02  0.29558310157E+01  0.32209885649E+02  0.51884493127E+02  0.00000000000E+00 0.  1.
         11    1    1    2    0    0 -0.44598783454E+02 -0.15857991193E+02  0.54921018984E+02  0.72504108136E+02  0.00000000000E+00 0. -1.
</event>
<event>
 7    1  0.6833760E-006  0.2531028E+03  0.7561462E-02  0.1111360E+00
          2   -1    0    0  501    0  0.00000000000E+00  0.00000000000E+00  0.16849281642E+04  0.16849281642E+04  0.00000000000E+00 0. -1.
         -2   -1    0    0    0  501 -0.00000000000E+00 -0.00000000000E+00 -0.45039191891E+02  0.45039191891E+02  0.00000000000E+00 0.  1.
         23    2    1    2    0    0 -0.16175289133E+03 -0.18750381535E+03  0.67970834703E+03  0.73414773185E+03  0.12509107297E+03 0.  0.
          5    1    3    3  502    0 -0.10484854151E+03 -0.16485397382E+03  0.37021438389E+03  0.41862418920E+03  0.41800000000E+01 0. -1.
         -5    1    3    3    0  502 -0.56904349820E+02 -0.22649841528E+02  0.30949396314E+03  0.31552354266E+03  0.41800000000E+01 0. -1.
        -11    1    1    2    0    0  0.14565928280E+02  0.60907685590E+01  0.13600769784E+02  0.20838538025E+02  0.00000000000E+00 0.  1.
         11    1    1    2    0    0  0.14718696305E+03  0.18141304679E+03  0.94657985549E+03  0.97498108620E+03  0.00000000000E+00 0. -1.
</event>
<event>
 7    1  0.6833760E-006  0.1936288E+03  0.7561462E-02  0.1155229E+00
          1   -1    0    0  501    0  0.00000000000E+00  0.00000000000E+00  0.41097450855E+02  0.41097450855E+02  0.00000000000E+00 0. -1.
         -1   -1    0    0    0  501 -0.00000000000E+00 -0.00000000000E+00 -0.92469152170E+03  0.92469152170E+03  0.00000000000E+00 0.  1.
         23    2    1    2    0    0  0.36545649245E+02  0.15704980679E+03 -0.45761285671E+03  0.50105589446E+03  0.12508899417E+03 0.  0.
          5    1    3    3  502    0  0.72562029034E+02  0.44344266977E+02 -0.20961117146E+03  0.22624318260E+03  0.41800000000E+01 0.  1.
         -5    1    3    3    0  502 -0.36016379789E+02  0.11270553981E+03 -0.24800168524E+03  0.27481271186E+03  0.41800000000E+01 0.  1.
        -11    1    1    2    0    0  0.29527221186E+01 -0.14108960296E+03 -0.35397471662E+03  0.38106835953E+03  0.00000000000E+00 0.  1.
         11    1    1    2    0    0 -0.39498371364E+02 -0.15960203831E+02 -0.72006497520E+02  0.83664718560E+02  0.00000000000E+00 0. -1.
</event>
<event>
 7    1  0.6833760E-006  0.1267357E+03  0.7561462E-02  0.1232381E+00
          3   -1    0    0  501    0  0.00000000000E+00  0.00000000000E+00  0.42147702472E+03  0.42147702472E+03  0.00000000000E+00 0. -1.
         -3   -1    0    0    0  501 -0.00000000000E+00 -0.00000000000E+00 -0.58286083730E+02  0.58286083730E+02  0.00000000000E+00 0.  1.
         23    2    1    2    0    0 -0.93646220261E+02 -0.17834265182E+02  0.10351199807E+03  0.18828405595E+03  0.12509387034E+03 0.  0.
          5    1    3    3  502    0  0.20434122792E+02 -0.34902792534E+02  0.17163125980E+02  0.44133927928E+02  0.41800000000E+01 0.  1.
         -5    1    3    3    0  502 -0.11408034305E+03  0.17068527352E+02  0.86348872088E+02  0.14415012802E+03  0.41800000000E+01 0.  1.
        -11    1    1    2    0    0  0.59161585976E+02  0.13830453946E+01  0.47488047020E+02  0.75875692283E+02  0.00000000000E+00 0.  1.
         11    1    1    2    0    0  0.34484634285E+02  0.16451219788E+02  0.21219089591E+03  0.21560336022E+03  0.00000000000E+00 0. -1.
</event>
<event>
 7    1  0.6833760E-006  0.8205479E+02  0.7561462E-02  0.1323319E+00
          1   -1    0    0  501    0  0.00000000000E+00  0.00000000000E+00  0.37427211110E+02  0.37427211110E+02  0.00000000000E+00 0. -1.
         -1   -1    0    0    0  501 -0.00000000000E+00 -0.00000000000E+00 -0.37247904586E+03  0.37247904586E+03  0.00000000000E+00 0.  1.
         23    2    1    2    0    0  0.84763157825E+01 -0.28010441882E+02 -0.25854121335E+03  0.28870021999E+03  0.12509126763E+03 0.  0.
          5    1    3    3  502    0  0.41917141836E+01 -0.68093529776E+02 -0.22779865178E+03  0.23783186797E+03  0.41800000000E+01 0.  1.
         -5    1    3    3    0  502  0.42846015990E+01  0.40083087895E+02 -0.30742561566E+02  0.50868352024E+02  0.41800000000E+01 0.  1.
        -11    1    1    2    0    0  0.18832831117E+02  0.49092050225E+01 -0.82652593712E+02  0.84913055941E+02  0.00000000000E+00 0.  1.
         11    1    1    2    0    0 -0.27309146899E+02  0.23101236859E+02  0.61419723130E+01  0.36292981039E+02  0.00000000000E+00 0. -1.
</event>
<event>
 7    1  0.6833760E-006  0.1538618E+03  0.7561462E-02  0.1195806E+00
          2   -1    0    0  501    0  0.00000000000E+00  0.00000000000E+00  0.54552606452E+03  0.54552606452E+03  0.00000000000E+00 0. -1.
         -2   -1    0    0    0  501 -0.00000000000E+00 -0.00000000000E+00 -0.53977904991E+02  0.53977904991E+02  0.00000000000E+00 0.  1.
         23    2    1    2    0    0 -0.10816689002E+03  0.62788394776E+02  0.18223106213E+03  0.25396511701E+03  0.12509061532E+03 0.  0.
          5    1    3    3  502    0 -0.60840364653E+02 -0.20102858427E+02  0.13020296997E+03  0.14517562012E+03  0.41800000000E+01 0. -1.
         -5    1    3    3    0  502 -0.47326525363E+02  0.82891253203E+02  0.52028092155E+02  0.10878949689E+03  0.41800000000E+01 0. -1.
        -11    1    1    2    0    0  0.16678425785E+02 -0.53466998226E+02  0.73373172607E+02  0.92306620804E+02  0.00000000000E+00 0.  1.
         11    1    1    2    0    0  0.91488464231E+02 -0.93213965503E+01  0.23594392479E+03  0.25323223169E+03  0.00000000000E+00 0. -1.
</event>
<event>
 7    1  0.7014799E-006  0.1714261E+03  0.7561462E-02  0.1176369E+00
          3   -1    0    0  501    0  0.00000000000E+00  0.00000000000E+00  0.49784479555E+02  0.49784479555E+02  0.00000000000E+00 0. -1.
         -3   -1    0    0    0  501 -0.00000000000E+00 -0.00000000000E+00 -0.80886693310E+03  0.80886693310E+03  0.00000000000E+00 0.  1.
         23    2    1    2    0    0 -0.34988765176E+02  0.13270515724E+03 -0.60144115997E+03  0.62945517439E+03  0.12508986853E+03 0.  0.
          5    1    3    3  502    0  0.37939170444E+02  0.81061338754E+02 -0.21754785676E+03  0.23527614345E+03  0.41800000000E+01 0. -1.
         -5    1    3    3    0  502 -0.72927935620E+02  0.51643818481E+02 -0.38389330321E+03  0.39417903093E+03  0.41800000000E+01 0. -1.
        -11    1    1    2    0    0 -0.12779350469E+02 -0.11029127198E+03 -0.87168805879E+02  0.14115904927E+03  0.00000000000E+00 0.  1.
         11    1    1    2    0    0  0.47768115644E+02 -0.22413885255E+02 -0.70472487693E+02  0.88037188995E+02  0.00000000000E+00 0. -1.
</event>
<event>
 7    1  0.6833760E-006  0.7942404E+02  0.7561462E-02  0.1330694E+00
          1   -1    0    0  501    0  0.00000000000E+00  0.00000000000E+00  0.13858244148E+03  0.13858244148E+03  0.00000000000E+00 0. -1.
         -1   -1    0    0    0  501 -0.00000000000E+00 -0.00000000000E+00 -0.12176046184E+03  0.12176046184E+03  0.00000000000E+00 0.  1.
         23    2    1    2    0    0 -0.53412752671E+01  0.99075488294E+01 -0.70862654291E+02  0.13301514813E+03  0.11200368348E+03 0.  0.
          5    1    3    3  502    0  0.28709959793E+02 -0.33655532483E+02 -0.18327339218E+01  0.44472328157E+02  0.41800000000E+01 0. -1.
         -5    1    3    3    0  502 -0.34051235060E+02  0.43563081313E+02 -0.69029920369E+02  0.88542819973E+02  0.41800000000E+01 0.  1.
        -11    1    1    2    0    0  0.30867127948E+02  0.17181640471E+01 -0.42535748640E+01  0.31206162446E+02  0.00000000000E+00 0.  1.
         11    1    1    2    0    0 -0.25525852681E+02 -0.11625712876E+02  0.91938208793E+02  0.96121592741E+02  0.00000000000E+00 0. -1.
</event>
<event>
 7    1  0.9417576E-006  0.2157979E+03  0.7561462E-02  0.1137055E+00
         -1   -1    0    0    0  501 -0.00000000000E+00  0.00000000000E+00  0.26965115243E+03  0.26965115243E+03  0.00000000000E+00 0.  1.
          1   -1    0    0  501    0  0.00000000000E+00 -0.00000000000E+00 -0.20697237458E+03  0.20697237458E+03  0.00000000000E+00 0. -1.
         23    2    1    2    0    0  0.12325736081E+03 -0.16895874561E+03  0.44458577134E+02  0.24771715026E+03  0.12509111376E+03 0.  0.
          5    1    3    3  502    0  0.36868769379E+02 -0.10723422147E+03 -0.30717428303E+02  0.11755644266E+03  0.41800000000E+01 0.  1.
         -5    1    3    3    0  502  0.86388591432E+02 -0.61724524138E+02  0.75176005437E+02  0.13016070760E+03  0.41800000000E+01 0.  1.
        -11    1    1    2    0    0 -0.34507321591E+02  0.75343607453E+02  0.49020130727E+02  0.96282852284E+02  0.00000000000E+00 0.  1.
         11    1    1    2    0    0 -0.88750039219E+02  0.93615138157E+02 -0.30799930009E+02  0.13262352447E+03  0.00000000000E+00 0. -1.
</event>
<event>
 7    1  0.6833760E-006  0.1097361E+03  0.7561462E-02  0.1261059E+00
         -1   -1    0    0    0  501 -0.00000000000E+00  0.00000000000E+00  0.32234846460E+02  0.32234846460E+02  0.00000000000E+00 0.  1.
          1   -1    0    0  501    0  0.00000000000E+00 -0.00000000000E+00 -0.67519253295E+03  0.67519253295E+03  0.00000000000E+00 0. -1.
         23    2    1    2    0    0 -0.93975804485E+02 -0.16878477308E+02 -0.27599269269E+03  0.31771530971E+03  0.12511881066E+03 0.  0.
          5    1    3    3  502    0 -0.65455369192E+02 -0.15788071355E+02 -0.28051866772E+03  0.28851666138E+03  0.41800000000E+01 0.  1.
         -5    1    3    3    0  502 -0.28520435293E+02 -0.10904059526E+01  0.45259750302E+01  0.29198648332E+02  0.41800000000E+01 0.  1.
        -11    1    1    2    0    0  0.79128455717E+02  0.45242455644E+02 -0.32104433681E+03  0.33373291491E+03  0.00000000000E+00 0.  1.
         11    1    1    2    0    0  0.14847348768E+02 -0.28363978337E+02 -0.45920656988E+02  0.55979154787E+02  0.00000000000E+00 0. -1.
</event>
<event>
 7    1  0.6833760E-006  0.7196992E+02  0.7561462E-02  0.1353520E+00
         -1   -1    0    0    0  501 -0.00000000000E+00  0.00000000000E+00  0.12918686158E+03  0.12918686158E+03  0.00000000000E+00 0.  1.
          1   -1    0    0  501    0  0.00000000000E+00 -0.00000000000E+00 -0.12003195875E+03  0.12003195875E+03  0.00000000000E+00 0. -1.
         23    2    1    2    0    0 -0.40513176533E+02  0.25143071370E+02  0.44667078004E+02  0.14112465738E+03  0.12509008575E+03 0.  0.
          5    1    3    3  502    0 -0.23246278168E+02  0.70654170406E+01  0.87745452424E+02  0.91142999664E+02  0.41800000000E+01 0.  1.
         -5    1    3    3    0  502 -0.17266898365E+02  0.18077654329E+02 -0.43078374421E+02  0.49981657715E+02  0.41800000000E+01 0.  1.
        -11    1    1    2    0    0  0.65493819774E+02 -0.19426826909E+02 -0.53615329006E+01  0.68524361124E+02  0.00000000000E+00 0. -1.
         11    1    1    2    0    0 -0.24980643241E+02 -0.57162444613E+01 -0.30150642274E+02  0.39569801832E+02  0.00000000000E+00 0.  1.
</event>
<event>
 7    1  0.6833760E-006  0.1097807E+03  0.7561462E-02  0.1260977E+00
          2   -1    0    0  501    0  0.00000000000E+00  0.00000000000E+00  0.17702159158E+03  0.17702159158E+03  0.00000000000E+00 0. -1.
         -2   -1    0    0    0  501 -0.00000000000E+00 -0.00000000000E+00 -0.11173492568E+03  0.11173492568E+03  0.00000000000E+00 0.  1.
         23    2    1    2    0    0 -0.19406614768E+02  0.85827808330E+02  0.24889985566E+02  0.15495009492E+03  0.12508793368E+03 0.  0.
          5    1    3    3  502    0 -0.14948510113E+02  0.83976455925E+01 -0.46325105535E+02  0.49572837410E+02  0.41800000000E+01 0.  1.
         -5    1    3    3    0  502 -0.44581046553E+01  0.77430162738E+02  0.71215091101E+02  0.10537725750E+03  0.41800000000E+01 0.  1.
        -11    1    1    2    0    0 -0.32576103330E+02 -0.54662347678E+02  0.55037487049E+01  0.63870697598E+02  0.00000000000E+00 0.  1.
         11    1    1    2    0    0  0.51982718098E+02 -0.31165460653E+02  0.34892931623E+02  0.69935724747E+02  0.00000000000E+00 0. -1.
</event>
<event>
 7    1  0.6833760E-006  0.1325987E+03  0.7561462E-02  0.1223650E+00
          2   -1    0    0  501    0  0.00000000000E+00  0.00000000000E+00  0.35421711220E+03  0.35421711220E+03  0.00000000000E+00 0. -1.
         -2   -1    0    0    0  501 -0.00000000000E+00 -0.00000000000E+00 -0.50420716403E+02  0.50420716403E+02  0.00000000000E+00 0.  1.
         23    2    1    2    0    0 -0.55597114097E+02  0.55765056305E+02  0.15470057726E+03  0.21396210320E+03  0.12508689940E+03 0.  0.
          5    1    3    3  502    0 -0.94906050006E+02  0.27888325641E+02  0.11143929216E+03  0.14906745209E+03  0.41800000000E+01 0.  1.
         -5    1    3    3    0  502  0.39308935909E+02  0.27876730664E+02  0.43261285094E+02  0.64894651111E+02  0.41800000000E+01 0.  1.
        -11    1    1    2    0    0  0.57448670654E+01 -0.66563391445E+02  0.96848993291E+02  0.11765804724E+03  0.00000000000E+00 0.  1.
         11    1    1    2    0    0  0.49852247032E+02  0.10798335140E+02  0.52246825245E+02  0.73017678162E+02  0.00000000000E+00 0. -1.
</event>
<event>
 7    1  0.6833760E-006  0.1977021E+03  0.7561462E-02  0.1151692E+00
         -2   -1    0    0    0  501 -0.00000000000E+00  0.00000000000E+00  0.33190962915E+03  0.33190962915E+03  0.00000000000E+00 0.  1.
          2   -1    0    0  501    0  0.00000000000E+00 -0.00000000000E+00 -0.12085889936E+03  0.12085889936E+03  0.00000000000E+00 0. -1.
         23    2    1    2    0    0 -0.15407114574E+03  0.66411537558E+02  0.11930376227E+03  0.24089561592E+03  0.12509556271E+03 0.  0.
          5    1    3    3  502    0 -0.23716454938E+02  0.74766999293E+02  0.47055275957E+02  0.91565527429E+02  0.41800000000E+01 0.  1.
         -5    1    3    3    0  502 -0.13035469080E+03 -0.83554617349E+01  0.72248486312E+02  0.14933008849E+03  0.41800000000E+01 0.  1.
        -11    1    1    2    0    0  0.88385522585E+02  0.57659904054E+01  0.20155690915E+02  0.90837762655E+02  0.00000000000E+00 0. -1.
         11    1    1    2    0    0  0.65685623154E+02 -0.72177527963E+02  0.71591276611E+02  0.12103514993E+03  0.00000000000E+00 0.  1.
</event>
<event>
 7    1  0.6833760E-006  0.1165131E+03  0.7561462E-02  0.1248963E+00
          2   -1    0    0  501    0  0.00000000000E+00  0.00000000000E+00  0.60723411273E+03  0.60723411273E+03  0.00000000000E+00 0. -1.
         -2   -1    0    0    0  501 -0.00000000000E+00 -0.00000000000E+00 -0.34161613457E+02  0.34161613457E+02  0.00000000000E+00 0.  1.
         23    2    1    2    0    0  0.77323025558E+02 -0.36900078919E+01  0.19334565867E+03  0.24294597268E+03  0.12509090885E+03 0.  0.
          5    1    3    3  502    0  0.63388218790E+02 -0.38724496830E+02  0.19095415193E+03  0.20493563252E+03  0.41800000000E+01 0.  1.
         -5    1    3    3    0  502  0.13934806768E+02  0.35034488938E+02  0.23915067353E+01  0.38010340163E+02  0.41800000000E+01 0.  1.
        -11    1    1    2    0    0 -0.52867489479E+01 -0.37392952241E+02  0.12148231485E+03  0.12721688336E+03  0.00000000000E+00 0. -1.
         11    1    1    2    0    0 -0.72036276610E+02  0.41082960133E+02  0.25824452575E+03  0.27123287014E+03  0.00000000000E+00 0.  1.
</event>
<event>
 7    1  0.6833760E-006  0.1261689E+03  0.7561462E-02  0.1233254E+00
         -2   -1    0    0    0  501 -0.00000000000E+00  0.00000000000E+00  0.42588909375E+02  0.42588909375E+02  0.00000000000E+00 0.  1.
          2   -1    0    0  501    0  0.00000000000E+00 -0.00000000000E+00 -0.58857182584E+03  0.58857182584E+03  0.00000000000E+00 0. -1.
         23    2    1    2    0    0 -0.54111416886E+01  0.10859230173E+03 -0.22102965727E+03  0.27626154804E+03  0.12507903535E+03 0.  0.
          5    1    3    3  502    0 -0.12158563263E+01  0.95509739214E+02 -0.23653529187E+03  0.25512742952E+03  0.41800000000E+01 0. -1.
         -5    1    3    3    0  502 -0.41952853622E+01  0.13082562518E+02  0.15505634603E+02  0.21134118523E+02  0.41800000000E+01 0. -1.
        -11    1    1    2    0    0 -0.43184257326E+02 -0.56731878695E+02 -0.17453714633E+03  0.18853806404E+03  0.00000000000E+00 0.  1.
         11    1    1    2    0    0  0.48595399015E+02 -0.51860423036E+02 -0.15041611287E+03  0.16636112314E+03  0.00000000000E+00 0. -1.
</event>
<event>
 6    1  0.6833760E-006  0.1609547E+03  0.7561462E-02  0.1187623E+00
          2   -1    0    0  501    0  0.00000000000E+00  0.00000000000E+00  0.96664268708E+03  0.96664268708E+03  0.00000000000E+00 0. -1.
         -2   -1    0    0    0  501 -0.00000000000E+00 -0.00000000000E+00 -0.29356239537E+02  0.29356239537E+02  0.00000000000E+00 0.  1.
          5    1    1    2  502    0 -0.13192380781E+03 -0.34198488492E+02  0.48965600869E+03  0.50828526137E+03  0.41800000000E+01 0. -1.
         -5    1    1    2    0  502  0.13474719131E+03  0.32506661325E+02  0.26445663025E+03  0.29861056625E+03  0.41800000000E+01 0.  1.
        -11    1    1    2    0    0  0.82643247151E+01  0.22135783492E+02  0.98381713858E+02  0.10117931407E+03  0.00000000000E+00 0. -1.
         11    1    1    2    0    0 -0.11087708208E+02 -0.20443956325E+02  0.84792094753E+02  0.87923784929E+02  0.00000000000E+00 0.  1.
</event>
<event>
 7    1  0.6833760E-006  0.1148300E+03  0.7561462E-02  0.1251878E+00
          1   -1    0    0  501    0  0.00000000000E+00  0.00000000000E+00  0.20984326846E+03  0.20984326846E+03  0.00000000000E+00 0. -1.
         -1   -1    0    0    0  501 -0.00000000000E+00 -0.00000000000E+00 -0.71520626896E+02  0.71520626896E+02  0.00000000000E+00 0.  1.
         23    2    1    2    0    0  0.12839043706E+02  0.56370715871E+02  0.35012189654E+02  0.13101879075E+03  0.11223890348E+03 0.  0.
          5    1    3    3  502    0  0.24305471812E+01 -0.31709919782E+02 -0.69342389901E+01  0.32817413709E+02  0.41800000000E+01 0. -1.
         -5    1    3    3    0  502  0.10408496524E+02  0.88080635652E+02  0.41946428645E+02  0.98201377041E+02  0.41800000000E+01 0.  1.
        -11    1    1    2    0    0 -0.20138772293E+02  0.22147543760E+02  0.34609235043E+02  0.45758966273E+02  0.00000000000E+00 0.  1.
         11    1    1    2    0    0  0.72997285879E+01 -0.78518259630E+02  0.68701216871E+02  0.10458613834E+03  0.00000000000E+00 0. -1.
</event>
<event>
 7    1  0.6833760E-006  0.1131204E+03  0.7561462E-02  0.1254898E+00
         -1   -1    0    0    0  501 -0.00000000000E+00  0.00000000000E+00  0.48036387493E+02  0.48036387493E+02  0.00000000000E+00 0.  1.
          1   -1    0    0  501    0  0.00000000000E+00 -0.00000000000E+00 -0.29900623375E+03  0.29900623375E+03  0.00000000000E+00 0. -1.
         23    2    1    2    0    0 -0.19752512196E+02  0.48082207689E+02 -0.13246529130E+03  0.18946315722E+03  0.12508866499E+03 0.  0.
          5    1    3    3  502    0  0.15023492959E+02 -0.37313024948E+02 -0.23937944685E+02  0.46994305689E+02  0.41800000000E+01 0.  1.
         -5    1    3    3    0  502 -0.34776005155E+02  0.85395232637E+02 -0.10852734662E+03  0.14246885153E+03  0.41800000000E+01 0.  1.
        -11    1    1    2    0    0 -0.85330786236E+01 -0.61573883642E+02 -0.42318637337E+02  0.75199891247E+02  0.00000000000E+00 0.  1.
         11    1    1    2    0    0  0.28285590820E+02  0.13491675953E+02 -0.76185917621E+02  0.82379572782E+02  0.00000000000E+00 0. -1.
</event>
<event>
 7    1  0.6833760E-006  0.1364049E+03  0.7561462E-02  0.1218250E+00
         -1   -1    0    0    0  501 -0.00000000000E+00  0.00000000000E+00  0.46418437397E+02  0.46418437397E+02  0.00000000000E+00 0.  1.
          1   -1    0    0  501    0  0.00000000000E+00 -0.00000000000E+00 -0.77779132031E+03  0.77779132031E+03  0.00000000000E+00 0. -1.
         23    2    1    2    0    0  0.45116352609E+02 -0.95102538871E+02 -0.13569122928E+03  0.21245732263E+03  0.12508407598E+03 0.  0.
          5    1    3    3  502    0  0.62626450417E+02 -0.97606615199E+02 -0.14977012982E+03  0.18946685148E+03  0.41800000000E+01 0.  1.
         -5    1    3    3    0  502 -0.17510097809E+02  0.25040763280E+01  0.14078900537E+02  0.22990471153E+02  0.41800000000E+01 0.  1.
        -11    1    1    2    0    0 -0.72698115885E+02  0.75058330460E+02 -0.42095732844E+03  0.43373245370E+03  0.00000000000E+00 0.  1.
         11    1    1    2    0    0  0.27581763276E+02  0.20044208411E+02 -0.17472432518E+03  0.17801998137E+03  0.00000000000E+00 0. -1.
</event>
<event>
 7    1  0.6833760E-006  0.2469313E+03  0.7561462E-02  0.1115260E+00
         -2   -1    0    0    0  501 -0.00000000000E+00  0.00000000000E+00  0.40239249389E+03  0.40239249389E+03  0.00000000000E+00 0.  1.
          2   -1    0    0  501    0  0.00000000000E+00 -0.00000000000E+00 -0.17882570734E+03  0.17882570734E+03  0.00000000000E+00 0. -1.
         23    2    1    2    0    0  0.85552101993E+02 -0.22869234927E+03  0.11832112182E+03  0.29877582347E+03  0.12509097509E+03 0.  0.
          5    1    3    3  502    0  0.60325017012E+02 -0.89940744870E+02 -0.89742643348E+01  0.10874950614E+03  0.41800000000E+01 0.  1.
         -5    1    3    3    0  502  0.25227084981E+02 -0.13875160440E+03  0.12729538616E+03  0.19002631733E+03  0.41800000000E+01 0.  1.
        -11    1    1    2    0    0 -0.39023541817E+02  0.89655195336E+02  0.93610477866E+02  0.13536547726E+03  0.00000000000E+00 0. -1.
         11    1    1    2    0    0 -0.46528560176E+02  0.13903715394E+03  0.11635186860E+02  0.14707690050E+03  0.00000000000E+00 0.  1.
</event>
<event>
 7    1  0.6833760E-006  0.1015211E+03  0.7561462E-02  0.1277129E+00
          1   -1    0    0  501    0  0.00000000000E+00  0.00000000000E+00  0.20750393304E+03  0.20750393304E+03  0.00000000000E+00 0. -1.
         -1   -1    0    0    0  501 -0.00000000000E+00 -0.00000000000E+00 -0.88411132679E+02  0.88411132679E+02  0.00000000000E+00 0.  1.
         23    2    1    2    0    0  0.94127044584E+01  0.58172857443E+02  0.40452824901E+01  0.13833502703E+03  0.12509010770E+03 0.  0.
          5    1    3    3  502    0 -0.39931530033E+02 -0.20456175843E+02 -0.28866571899E+01  0.45152933577E+02  0.41800000000E+01 0.  1.
         -5    1    3    3    0  502  0.49344234491E+02  0.78629033286E+02  0.69319396800E+01  0.93182093455E+02  0.41800000000E+01 0.  1.
        -11    1    1    2    0    0 -0.19251276273E+02 -0.40047011046E+02  0.12643892195E+03  0.13401931098E+03  0.00000000000E+00 0. -1.
         11    1    1    2    0    0  0.98385718148E+01 -0.18125846396E+02 -0.11391404082E+02  0.23560727703E+02  0.00000000000E+00 0.  1.
</event>
<event>
 7    1  0.6833760E-006  0.7234911E+02  0.7561462E-02  0.1352282E+00
          1   -1    0    0  501    0  0.00000000000E+00  0.00000000000E+00  0.85242015405E+01  0.85242015405E+01  0.00000000000E+00 0. -1.
         -1   -1    0    0    0  501 -0.00000000000E+00 -0.00000000000E+00 -0.13995666486E+04  0.13995666486E+04  0.00000000000E+00 0.  1.
         23    2    1    2    0    0 -0.11760689585E+02  0.67932469207E+01 -0.90036319147E+03  0.90911246987E+03  0.12508854584E+03 0.  0.
          5    1    3    3  502    0 -0.27657401004E+02  0.19067954854E+02 -0.63178361174E+02  0.71676331192E+02  0.41800000000E+01 0. -1.
         -5    1    3    3    0  502  0.15896711419E+02 -0.12274707933E+02 -0.83718483029E+03  0.83743613868E+03  0.41800000000E+01 0. -1.
        -11    1    1    2    0    0 -0.67051063776E+00  0.40970634652E+02 -0.20266852216E+03  0.20676936998E+03  0.00000000000E+00 0. -1.
         11    1    1    2    0    0  0.12431200222E+02 -0.47763881573E+02 -0.28801073342E+03  0.29220901028E+03  0.00000000000E+00 0.  1.
</event>
<event>
 7    1  0.6833760E-006  0.1133632E+03  0.7561462E-02  0.1254466E+00
          1   -1    0    0  501    0  0.00000000000E+00  0.00000000000E+00  0.10209640924E+03  0.10209640924E+03  0.00000000000E+00 0. -1.
         -1   -1    0    0    0  501 -0.00000000000E+00 -0.00000000000E+00 -0.27744247850E+03  0.27744247850E+03  0.00000000000E+00 0.  1.
         23    2    1    2    0    0 -0.12982712639E+01  0.43938460506E+02 -0.22922363810E+03  0.26480732121E+03  0.12508863771E+03 0.  0.
          5    1    3    3  502    0  0.22131983236E+02 -0.39519332522E+02 -0.70325854036E+02  0.83754405681E+02  0.41800000000E+01 0. -1.
         -5    1    3    3    0  502 -0.23430254500E+02  0.83457793028E+02 -0.15889778406E+03  0.18105291553E+03  0.41800000000E+01 0. -1.
        -11    1    1    2    0    0  0.39760665647E+02 -0.38967343243E+02  0.10694529753E+02  0.56689834528E+02  0.00000000000E+00 0.  1.
         11    1    1    2    0    0 -0.38462394383E+02 -0.49711172629E+01  0.43183039092E+02  0.58041732001E+02  0.00000000000E+00 0. -1.
</event>
<event>
 7    1  0.6833760E-006  0.8930900E+02  0.7561462E-02  0.1304534E+00
         -1   -1    0    0    0  501 -0.00000000000E+00  0.00000000000E+00  0.23375742072E+02  0.23375742072E+02  0.00000000000E+00 0.  1.
          1   -1    0    0  501    0  0.00000000000E+00 -0.00000000000E+00 -0.51728051668E+03  0.51728051668E+03  0.00000000000E+00 0. -1.
         23    2    1    2    0    0  0.42480444561E+01 -0.15111925018E+02 -0.27434402377E+03  0.30192795038E+03  0.12509767257E+03 0.  0.
          5    1    3    3  502    0 -0.21376303333E+02 -0.55615646471E+02 -0.22586208392E+03  0.23362619679E+03  0.41800000000E+01 0. -1.
         -5    1    3    3    0  502  0.25624347789E+02  0.40503721453E+02 -0.48481939851E+02  0.68301753586E+02  0.41800000000E+01 0. -1.
        -11    1    1    2    0    0 -0.36204531640E+02  0.13956100307E+02 -0.19385434573E+03  0.19769938848E+03  0.00000000000E+00 0. -1.
         11    1    1    2    0    0  0.31956487184E+02  0.11558247112E+01 -0.25706405109E+02  0.41028919892E+02  0.00000000000E+00 0.  1.
</event>
<event>
 7    1  0.6833760E-006  0.1100142E+03  0.7561462E-02  0.1260544E+00
         -2   -1    0    0    0  501 -0.00000000000E+00  0.00000000000E+00  0.74680463003E+03  0.74680463003E+03  0.00000000000E+00 0.  1.
          2   -1    0    0  501    0  0.00000000000E+00 -0.00000000000E+00 -0.36590071539E+02  0.36590071539E+02  0.00000000000E+00 0. -1.
         23    2    1    2    0    0 -0.66426142360E+02  0.63367002400E+02  0.57479287292E+03  0.59536763643E+03  0.12509183172E+03 0.  0.
          5    1    3    3  502    0 -0.25328037251E+01  0.14102171704E+02  0.42428669720E+03  0.42454912574E+03  0.41800000000E+01 0. -1.
         -5    1    3    3    0  502 -0.63893338635E+02  0.49264830695E+02  0.15050617572E+03  0.17081851069E+03  0.41800000000E+01 0. -1.
        -11    1    1    2    0    0 -0.92546546394E+01  0.13549371417E+02  0.42742579248E+02  0.45783863741E+02  0.00000000000E+00 0.  1.
         11    1    1    2    0    0  0.75680797000E+02 -0.76916373817E+02  0.92679106323E+02  0.14224320140E+03  0.00000000000E+00 0. -1.
</event>
<event>
 7    1  0.6833760E-006  0.7721195E+02  0.7561462E-02  0.1337155E+00
         -2   -1    0    0    0  501 -0.00000000000E+00  0.00000000000E+00  0.16361498823E+03  0.16361498823E+03  0.00000000000E+00 0. -1.
          2   -1    0    0  501    0  0.00000000000E+00 -0.00000000000E+00 -0.99221945317E+02  0.99221945317E+02  0.00000000000E+00 0.  1.
         23    2    1    2    0    0  0.32171037876E+02  0.55776614685E+02  0.52445180035E+02  0.15014950063E+03  0.12509344190E+03 0.  0.
          5    1    3    3  502    0  0.31175927946E+02  0.82434742027E+01 -0.36699329238E+02  0.49032708642E+02  0.41800000000E+01 0. -1.
         -5    1    3    3    0  502  0.99510992964E+00  0.47533140482E+02  0.89144509273E+02  0.10111679198E+03  0.41800000000E+01 0. -1.
        -11    1    1    2    0    0 -0.16763713411E+02 -0.47332858699E+00 -0.34814470781E+02  0.38643155967E+02  0.00000000000E+00 0.  1.
         11    1    1    2    0    0 -0.15407324465E+02 -0.55303286098E+02  0.46762333661E+02  0.74044276955E+02  0.00000000000E+00 0. -1.
</event>
<event>
 7    1  0.6833760E-006  0.7151760E+02  0.7561462E-02  0.1355007E+00
         -1   -1    0    0    0  501 -0.00000000000E+00  0.00000000000E+00  0.21627929774E+03  0.21627929774E+03  0.00000000000E+00 0.  1.
          1   -1    0    0  501    0  0.00000000000E+00 -0.00000000000E+00 -0.53876234784E+02  0.53876234784E+02  0.00000000000E+00 0. -1.
         23    2    1    2    0    0  0.66329488213E+01 -0.45854377465E+01  0.99173134343E+02  0.15983659145E+03  0.12508958047E+03 0.  0.
          5    1    3    3  502    0  0.13617629225E+02 -0.45771060862E+02  0.10689379251E+03  0.11715026725E+03  0.41800000000E+01 0. -1.
         -5    1    3    3    0  502 -0.69846804035E+01  0.41185623116E+02 -0.77206581682E+01  0.42686324207E+02  0.41800000000E+01 0. -1.
        -11    1    1    2    0    0 -0.13149930229E+02 -0.22061996388E+02  0.75880835063E+02  0.80109634124E+02  0.00000000000E+00 0.  1.
         11    1    1    2    0    0  0.65169814076E+01  0.26647434135E+02 -0.12650906445E+02  0.30209306952E+02  0.00000000000E+00 0. -1.
</event>
<event>
 7    1  0.6833760E-006  0.1247381E+03  0.7561462E-02  0.1235479E+00
          1   -1    0    0  501    0  0.00000000000E+00  0.00000000000E+00  0.10932122194E+03  0.10932122194E+03  0.00000000000E+00 0. -1.
         -1   -1    0    0    0  501 -0.00000000000E+00 -0.00000000000E+00 -0.21790227993E+03  0.21790227993E+03  0.00000000000E+00 0.  1.
         23    2    1    2    0    0 -0.98713217496E+02  0.46219486505E+02 -0.61615577584E+02  0.17699979706E+03  0.12510758777E+03 0.  0.
          5    1    3    3  502    0 -0.35848755679E+02 -0.26117915995E+02 -0.67517171223E+02  0.80890788287E+02  0.41800000000E+01 0.  1.
         -5    1    3    3    0  502 -0.62864461817E+02  0.72337402500E+02  0.59015936390E+01  0.96109008774E+02  0.41800000000E+01 0.  1.
        -11    1    1    2    0    0  0.50041772407E+02 -0.23524130309E+02 -0.72155587761E+02  0.90906504375E+02  0.00000000000E+00 0.  1.
         11    1    1    2    0    0  0.48671445089E+02 -0.22695356196E+02  0.25190107355E+02  0.59317200444E+02  0.00000000000E+00 0. -1.
</event>
<event>
 7    1  0.6833760E-006  0.1375448E+03  0.7561462E-02  0.1216671E+00
          1   -1    0    0  501    0  0.00000000000E+00  0.00000000000E+00  0.87220414713E+03  0.87220414713E+03  0.00000000000E+00 0. -1.
         -1   -1    0    0    0  501 -0.00000000000E+00 -0.00000000000E+00 -0.23122494393E+02  0.23122494393E+02  0.00000000000E+00 0.  1.
         23    2    1    2    0    0 -0.23192253332E+02  0.93115181044E+02  0.38703373916E+03  0.41472118766E+03  0.11397469319E+03 0.  0.
          5    1    3    3  502    0 -0.47608103872E+02 -0.97081945683E+00  0.86469174263E+02  0.98802148471E+02  0.41800000000E+01 0. -1.
         -5    1    3    3    0  502  0.24415850539E+02  0.94086000501E+02  0.30056456490E+03  0.31591903918E+03  0.41800000000E+01 0.  1.
        -11    1    1    2    0    0  0.53422359325E+02 -0.81837797560E+02  0.30492912314E+03  0.32020796949E+03  0.00000000000E+00 0.  1.
         11    1    1    2    0    0 -0.30230105993E+02 -0.11277383484E+02  0.15711879044E+03  0.16039748438E+03  0.00000000000E+00 0. -1.
</event>
<event>
 7    1  0.6833760E-006  0.1268089E+03  0.7561462E-02  0.1232269E+00
         -2   -1    0    0    0  501 -0.00000000000E+00  0.00000000000E+00  0.33078480035E+02  0.33078480035E+02  0.00000000000E+00 0.  1.
          2   -1    0    0  501    0  0.00000000000E+00 -0.00000000000E+00 -0.94785677213E+03  0.94785677213E+03  0.00000000000E+00 0. -1.
         23    2    1    2    0    0 -0.48146392148E+02 -0.98475352493E+02 -0.23896352723E+03  0.29114240516E+03  0.12507942522E+03 0.  0.
          5    1    3    3  502    0 -0.84301959047E+01 -0.64704553605E+02 -0.22867578772E+03  0.23783993725E+03  0.41800000000E+01 0.  1.
         -5    1    3    3    0  502 -0.39716196244E+02 -0.33770798889E+02 -0.10287739505E+02  0.53302467914E+02  0.41800000000E+01 0.  1.
        -11    1    1    2    0    0 -0.22612479854E+02  0.28927550384E+02 -0.13248816320E+03  0.13748178354E+03  0.00000000000E+00 0.  1.
         11    1    1    2    0    0  0.70758872003E+02  0.69547802109E+02 -0.54332660167E+03  0.55231106346E+03  0.00000000000E+00 0. -1.
</event>
<event>
 7    1  0.6833760E-006  0.9863031E+02  0.7561462E-02  0.1283203E+00
          2   -1    0    0  501    0  0.00000000000E+00  0.00000000000E+00  0.53339388437E+03  0.53339388437E+03  0.00000000000E+00 0. -1.
         -2   -1    0    0    0  501 -0.00000000000E+00 -0.00000000000E+00 -0.29749211181E+02  0.29749211181E+02  0.00000000000E+00 0.  1.
         23    2    1    2    0    0 -0.27395241371E+02  0.69905835311E+01  0.15127852895E+03  0.19832606325E+03  0.12509463032E+03 0.  0.
          5    1    3    3  502    0  0.31084514126E+02  0.28283874803E+02  0.92941516144E+01  0.43244401332E+02  0.41800000000E+01 0.  1.
         -5    1    3    3    0  502 -0.58479755497E+02 -0.21293291272E+02  0.14198437733E+03  0.15508166192E+03  0.41800000000E+01 0.  1.
        -11    1    1    2    0    0  0.44238884546E+02  0.29011656280E+02  0.16470698992E+03  0.17299464626E+03  0.00000000000E+00 0.  1.
         11    1    1    2    0    0 -0.16843643175E+02 -0.36002239811E+02  0.18765915432E+03  0.19182238604E+03  0.00000000000E+00 0. -1.
</event>
<event>
 7    1  0.6833760E-006  0.1211854E+03  0.7561462E-02  0.1241154E+00
          2   -1    0    0  501    0  0.00000000000E+00  0.00000000000E+00  0.49564881437E+03  0.49564881437E+03  0.00000000000E+00 0. -1.
         -2   -1    0    0    0  501 -0.00000000000E+00 -0.00000000000E+00 -0.51864752600E+02  0.51864752600E+02  0.00000000000E+00 0.  1.
         23    2    1    2    0    0 -0.48279160793E+02 -0.47724345701E+02  0.74314071654E+02  0.16055680900E+03  0.12508963638E+03 0.  0.
          5    1    3    3  502    0 -0.82714107352E+02 -0.43605065735E+01  0.62335436323E+02  0.10374881490E+03  0.41800000000E+01 0.  1.
         -5    1    3    3    0  502  0.34434946559E+02 -0.43363839128E+02  0.11978635331E+02  0.56807994092E+02  0.41800000000E+01 0.  1.
        -11    1    1    2    0    0  0.32761558015E+01 -0.21275899241E+02  0.26045055969E+02  0.33789673360E+02  0.00000000000E+00 0. -1.
         11    1    1    2    0    0  0.45003004991E+02  0.69000244942E+02  0.34342493414E+03  0.35316708461E+03  0.00000000000E+00 0.  1.
</event>
<event>
 7    1  0.6833760E-006  0.7269373E+02  0.7561462E-02  0.1351165E+00
          1   -1    0    0  501    0  0.00000000000E+00  0.00000000000E+00  0.15743017247E+03  0.15743017247E+03  0.00000000000E+00 0. -1.
         -1   -1    0    0    0  501 -0.00000000000E+00 -0.00000000000E+00 -0.25523467157E+03  0.25523467157E+03  0.00000000000E+00 0.  1.
         23    2    1    2    0    0 -0.47263100589E+02 -0.30412037992E+02 -0.21594447838E+03  0.25580727632E+03  0.12508657859E+03 0.  0.
          5    1    3    3  502    0 -0.28408347654E+02 -0.26961033499E+02 -0.22892145980E+03  0.23228525287E+03  0.41800000000E+01 0. -1.
         -5    1    3    3    0  502 -0.18854752934E+02 -0.34510044935E+01  0.12976981423E+02  0.23522023448E+02  0.41800000000E+01 0. -1.
        -11    1    1    2    0    0  0.62251936159E+02  0.13344321973E+02  0.39319139413E+02  0.74828932965E+02  0.00000000000E+00 0.  1.
         11    1    1    2    0    0 -0.14988835571E+02  0.17067716019E+02  0.78820839865E+02  0.82028634750E+02  0.00000000000E+00 0. -1.
</event>
<event>
 7    1  0.6833760E-006  0.1454417E+03  0.7561462E-02  0.1206189E+00
          1   -1    0    0  501    0  0.00000000000E+00  0.00000000000E+00  0.38452047638E+03  0.38452047638E+03  0.00000000000E+00 0. -1.
         -1   -1    0    0    0  501 -0.00000000000E+00 -0.00000000000E+00 -0.67354334608E+02  0.67354334608E+02  0.00000000000E+00 0.  1.
         23    2    1    2    0    0  0.19541310771E+02 -0.94096384458E+02  0.73776197613E+02  0.17414490114E+03  0.12509007500E+03 0.  0.
          5    1    3    3  502    0 -0.50900578817E+02 -0.59834883399E+02  0.44740477039E+02  0.90500082215E+02  0.41800000000E+01 0.  1.
         -5    1    3    3    0  502  0.70441889588E+02 -0.34261501059E+02  0.29035720574E+02  0.83644818924E+02  0.41800000000E+01 0.  1.
        -11    1    1    2    0    0 -0.36794958052E+02  0.10639917587E+03  0.20453291186E+03  0.23347026705E+03  0.00000000000E+00 0. -1.
         11    1    1    2    0    0  0.17253647281E+02 -0.12302791417E+02  0.38857032302E+02  0.44259642797E+02  0.00000000000E+00 0.  1.
</event>
<event>
 7    1  0.6833760E-006  0.6924473E+02  0.7561462E-02  0.1362680E+00
         -1   -1    0    0    0  501 -0.00000000000E+00  0.00000000000E+00  0.57907333201E+02  0.57907333201E+02  0.00000000000E+00 0.  1.
          1   -1    0    0  501    0  0.00000000000E+00 -0.00000000000E+00 -0.23205406250E+03  0.23205406250E+03  0.00000000000E+00 0. -1.
         23    2    1    2    0    0  0.84772057812E+01 -0.34948146028E+02 -0.72161231579E+02  0.14882695437E+03  0.12509589552E+03 0.  0.
          5    1    3    3  502    0 -0.25629581814E+01 -0.27324556366E+02 -0.10737874759E+03  0.11090927810E+03  0.41800000000E+01 0.  1.
         -5    1    3    3    0  502  0.11040163963E+02 -0.76235896621E+01  0.35217516009E+02  0.37917676267E+02  0.41800000000E+01 0.  1.
        -11    1    1    2    0    0  0.39307744277E+02  0.28289305485E+02 -0.41610038582E+02  0.63849658384E+02  0.00000000000E+00 0.  1.
         11    1    1    2    0    0 -0.47784950058E+02  0.66588405433E+01 -0.60375459137E+02  0.77284782949E+02  0.00000000000E+00 0. -1.
</event>
<event>
 7    1  0.6833760E-006  0.1040744E+03  0.7561462E-02  0.1271954E+00
         -2   -1    0    0    0  501 -0.00000000000E+00  0.00000000000E+00  0.38394063799E+02  0.38394063799E+02  0.00000000000E+00 0.  1.
          2   -1    0    0  501    0  0.00000000000E+00 -0.00000000000E+00 -0.31517037321E+03  0.31517037321E+03  0.00000000000E+00 0. -1.
         23    2    1    2    0    0 -0.19469723768E+02 -0.26121114799E+01 -0.16454324365E+03  0.20762673559E+03  0.12509392084E+03 0.  0.
          5    1    3    3  502    0 -0.34513465485E+02 -0.52377707769E+02 -0.13184912118E+03  0.14606939011E+03  0.41800000000E+01 0. -1.
         -5    1    3    3    0  502  0.15043741717E+02  0.49765596289E+02 -0.32694122472E+02  0.61557345484E+02  0.41800000000E+01 0. -1.
        -11    1    1    2    0    0 -0.27311593981E+02 -0.26476229858E+02 -0.50029493908E+02  0.62847944866E+02  0.00000000000E+00 0.  1.
         11    1    1    2    0    0  0.46781317749E+02  0.29088341338E+02 -0.62203571846E+02  0.83089756544E+02  0.00000000000E+00 0. -1.
</event>
<event>
 7    1  0.6833760E-006  0.9664424E+02  0.7561462E-02  0.1287515E+00
         -3   -1    0    0    0  501 -0.00000000000E+00  0.00000000000E+00  0.80291198777E+03  0.80291198777E+03  0.00000000000E+00 0.  1.
          3   -1    0    0  501    0  0.00000000000E+00 -0.00000000000E+00 -0.25341720018E+02  0.25341720018E+02  0.00000000000E+00 0. -1.
         23    2    1    2    0    0  0.83997615101E+02 -0.24593315146E+02  0.50138463867E+03  0.52411358506E+03  0.12509222058E+03 0.  0.
          5    1    3    3  502    0  0.29934059597E+02  0.13918596322E+01  0.14538463582E+02  0.33568206990E+02  0.41800000000E+01 0. -1.
         -5    1    3    3    0  502  0.54063555505E+02 -0.25985174778E+02  0.48684617509E+03  0.49054537807E+03  0.41800000000E+01 0. -1.
        -11    1    1    2    0    0 -0.36513898178E+02 -0.16534924595E+02  0.20635396311E+03  0.21021090976E+03  0.00000000000E+00 0.  1.
         11    1    1    2    0    0 -0.47483716923E+02  0.41128239741E+02  0.69831665969E+02  0.93929212969E+02  0.00000000000E+00 0. -1.
</event>
<event>
 7    1  0.6833760E-006  0.1274399E+03  0.7561462E-02  0.1231305E+00
         -2   -1    0    0    0  501 -0.00000000000E+00  0.00000000000E+00  0.29107415544E+02  0.29107415544E+02  0.00000000000E+00 0.  1.
          2   -1    0    0  501    0  0.00000000000E+00 -0.00000000000E+00 -0.77642983072E+03  0.77642983072E+03  0.00000000000E+00 0. -1.
         23    2    1    2    0    0  0.52468033026E+02  0.64958543256E+02 -0.25004106711E+03  0.29178782710E+03  0.12508834466E+03 0.  0.
          5    1    3    3  502    0 -0.20909452892E+01  0.85664135809E+02 -0.10633202168E+03  0.13662608628E+03  0.41800000000E+01 0.  1.
         -5    1    3    3    0  502  0.54558978315E+02 -0.20705592552E+02 -0.14370904543E+03  0.15516174082E+03  0.41800000000E+01 0.  1.
        -11    1    1    2    0    0  0.16616518869E+02 -0.27144121116E+02 -0.47836474108E+02  0.57456420578E+02  0.00000000000E+00 0.  1.
         11    1    1    2    0    0 -0.69084551896E+02 -0.37814422140E+02 -0.44944487396E+03  0.45629299859E+03  0.00000000000E+00 0. -1.
</event>
<event>
 7    1  0.6833760E-006  0.1641255E+03  0.7561462E-02  0.1184116E+00
         -1   -1    0    0    0  501 -0.00000000000E+00  0.00000000000E+00  0.48993694851E+02  0.48993694851E+02  0.00000000000E+00 0.  1.
          1   -1    0    0  501    0  0.00000000000E+00 -0.00000000000E+00 -0.91192338400E+03  0.91192338400E+03  0.00000000000E+00 0. -1.
         23    2    1    2    0    0 -0.12216415386E+03 -0.65516011046E+02 -0.18430098635E+03  0.26235510366E+03  0.12508764390E+03 0.  0.
          5    1    3    3  502    0 -0.11158381139E+03 -0.17261376081E+02 -0.58706616929E+02  0.12732965616E+03  0.41800000000E+01 0.  1.
         -5    1    3    3    0  502 -0.10580342476E+02 -0.48254634965E+02 -0.12559436942E+03  0.13502544750E+03  0.41800000000E+01 0.  1.
        -11    1    1    2    0    0  0.45771721661E+02  0.75856556792E+02 -0.36408970610E+03  0.37471400000E+03  0.00000000000E+00 0. -1.
         11    1    1    2    0    0  0.76392432201E+02 -0.10340545746E+02 -0.31453899671E+03  0.32384797519E+03  0.00000000000E+00 0.  1.
</event>
<event>
 7    1  0.6833760E-006  0.8581873E+02  0.7561462E-02  0.1313305E+00
         -2   -1    0    0    0  501 -0.00000000000E+00  0.00000000000E+00  0.18197099484E+03  0.18197099484E+03  0.00000000000E+00 0.  1.
          2   -1    0    0  501    0  0.00000000000E+00 -0.00000000000E+00 -0.82756878846E+02  0.82756878846E+02  0.00000000000E+00 0. -1.
         23    2    1    2    0    0  0.42358494065E+02  0.18208127673E+01  0.96242917695E+02  0.16342525881E+03  0.12509020198E+03 0.  0.
          5    1    3    3  502    0  0.26381363719E+02  0.29383661696E+02  0.11807814138E+03  0.12457646567E+03  0.41800000000E+01 0. -1.
         -5    1    3    3    0  502  0.15977130345E+02 -0.27562848929E+02 -0.21835223686E+02  0.38848793142E+02  0.41800000000E+01 0. -1.
        -11    1    1    2    0    0 -0.33128226805E+02  0.42860688564E+02  0.10157296838E+02  0.55115231238E+02  0.00000000000E+00 0.  1.
         11    1    1    2    0    0 -0.92302672595E+01 -0.44681501331E+02 -0.71860985399E+01  0.46187383636E+02  0.00000000000E+00 0. -1.
</event>
<event>
 7    1  0.6833760E-006  0.1110573E+03  0.7561462E-02  0.1258624E+00
          1   -1    0    0  501    0  0.00000000000E+00  0.00000000000E+00  0.84099120743E+03  0.84099120743E+03  0.00000000000E+00 0. -1.
         -1   -1    0    0    0  501 -0.00000000000E+00 -0.00000000000E+00 -0.18165488658E+02  0.18165488658E+02  0.00000000000E+00 0.  1.
         23    2    1    2    0    0 -0.43973623955E+02  0.29164243810E+02  0.38151373639E+03  0.40494976898E+03  0.12508937455E+03 0.  0.
          5    1    3    3  502    0 -0.82495788740E+02  0.19853056190E+02  0.17384937106E+03  0.19349618916E+03  0.41800000000E+01 0.  1.
         -5    1    3    3    0  502  0.38522164785E+02  0.93111876202E+01  0.20766436533E+03  0.21145357982E+03  0.41800000000E+01 0.  1.
        -11    1    1    2    0    0 -0.10610390999E+02  0.20774746314E+02  0.41493245493E+02  0.47601049391E+02  0.00000000000E+00 0. -1.
         11    1    1    2    0    0  0.54584014954E+02 -0.49938990125E+02  0.39981873689E+03  0.40660587771E+03  0.00000000000E+00 0.  1.
</event>
<event>
 7    1  0.6833760E-006  0.1218065E+03  0.7561462E-02  0.1240146E+00
          1   -1    0    0  501    0  0.00000000000E+00  0.00000000000E+00  0.90830573291E+03  0.90830573291E+03  0.00000000000E+00 0. -1.
         -1   -1    0    0    0  501 -0.00000000000E+00 -0.00000000000E+00 -0.17670662789E+02  0.17670662789E+02  0.00000000000E+00 0.  1.
         23    2    1    2    0    0  0.55643590233E+02  0.25099281198E+02  0.43725309239E+03  0.45887044484E+03  0.12508251392E+03 0.  0.
          5    1    3    3  502    0 -0.23438063957E+02  0.44107144021E+02  0.24507376483E+03  0.25014676812E+03  0.41800000000E+01 0. -1.
         -5    1    3    3    0  502  0.79081654190E+02 -0.19007862823E+02  0.19217932756E+03  0.20872367671E+03  0.41800000000E+01 0. -1.
        -11    1    1    2    0    0 -0.73295966540E+02 -0.44557639258E+02  0.36187748329E+03  0.37190455071E+03  0.00000000000E+00 0.  1.
         11    1    1    2    0    0  0.17652376307E+02  0.19458358060E+02  0.91504494449E+02  0.95201400158E+02  0.00000000000E+00 0. -1.
</event>
<event>
 7    1  0.6833760E-006  0.9361487E+02  0.7561462E-02  0.1294327E+00
          1   -1    0    0  501    0  0.00000000000E+00  0.00000000000E+00  0.24811224836E+03  0.24811224836E+03  0.00000000000E+00 0. -1.
         -1   -1    0    0    0  501 -0.00000000000E+00 -0.00000000000E+00 -0.59572451030E+02  0.59572451030E+02  0.00000000000E+00 0.  1.
         23    2    1    2    0    0  0.35824546731E+02  0.41571931078E+02  0.95365095642E+02  0.16658995988E+03  0.12508433021E+03 0.  0.
          5    1    3    3  502    0 -0.31960194839E+02 -0.65144444702E+01  0.73546365412E+02  0.80563219314E+02  0.41800000000E+01 0.  1.
         -5    1    3    3    0  502  0.67784741570E+02  0.48086375548E+02  0.21818730230E+02  0.86026740563E+02  0.41800000000E+01 0.  1.
        -11    1    1    2    0    0 -0.13467664561E+02  0.87544709179E+01 -0.13540377140E+02  0.21008583077E+02  0.00000000000E+00 0.  1.
         11    1    1    2    0    0 -0.22356882170E+02 -0.50326401996E+02  0.10671507883E+03  0.12008615644E+03  0.00000000000E+00 0. -1.
</event>
<event>
 7    1  0.6833760E-006  0.1132083E+03  0.7561462E-02  0.1254741E+00
          2   -1    0    0  501    0  0.00000000000E+00  0.00000000000E+00  0.22168924822E+03  0.22168924822E+03  0.00000000000E+00 0.  1.
         -2   -1    0    0    0  501 -0.00000000000E+00 -0.00000000000E+00 -0.93351001842E+02  0.93351001842E+02  0.00000000000E+00 0. -1.
         23    2    1    2    0    0  0.59171617211E+02 -0.42537066150E+02  0.57222672465E+01  0.14488367477E+03  0.12509137697E+03 0.  0.
          5    1    3    3  502    0  0.25362020299E+01 -0.51359091533E+02 -0.44826889850E+02  0.68345526975E+02  0.41800000000E+01 0. -1.
         -5    1    3    3    0  502  0.56635415181E+02  0.88220253828E+01  0.50549157096E+02  0.76538147794E+02  0.41800000000E+01 0. -1.
        -11    1    1    2    0    0  0.23640258939E+02 -0.12613851588E+01  0.32144128717E+02  0.39921146605E+02  0.00000000000E+00 0.  1.
         11    1    1    2    0    0 -0.82811876150E+02  0.43798451309E+02  0.90471850417E+02  0.13023542869E+03  0.00000000000E+00 0. -1.
</event>
<event>
 7    1  0.6833760E-006  0.1348975E+03  0.7561462E-02  0.1220364E+00
          1   -1    0    0  501    0  0.00000000000E+00  0.00000000000E+00  0.73786336524E+03  0.73786336524E+03  0.00000000000E+00 0. -1.
         -1   -1    0    0    0  501 -0.00000000000E+00 -0.00000000000E+00 -0.31229702322E+02  0.31229702322E+02  0.00000000000E+00 0.  1.
         23    2    1    2    0    0 -0.25237883040E+02  0.79045173859E+02  0.22475467285E+03  0.27027234083E+03  0.12508950795E+03 0.  0.
          5    1    3    3  502    0  0.40268621806E+02 -0.77904610906E+01  0.64062787493E+02  0.76182454197E+02  0.41800000000E+01 0. -1.
         -5    1    3    3    0  502 -0.65506504846E+02  0.86835634949E+02  0.16069188536E+03  0.19408988664E+03  0.41800000000E+01 0. -1.
        -11    1    1    2    0    0  0.20678098823E+02 -0.98031195167E+02  0.45308978258E+03  0.46403453543E+03  0.00000000000E+00 0. -1.
         11    1    1    2    0    0  0.45597842173E+01  0.18986021308E+02  0.28789207495E+02  0.34786191303E+02  0.00000000000E+00 0.  1.
</event>
<event>
 7    1  0.6833760E-006  0.1858793E+03  0.7561462E-02  0.1162231E+00
         -1   -1    0    0    0  501 -0.00000000000E+00  0.00000000000E+00  0.24620518391E+03  0.24620518391E+03  0.00000000000E+00 0.  1.
          1   -1    0    0  501    0  0.00000000000E+00 -0.00000000000E+00 -0.17892705336E+03  0.17892705336E+03  0.00000000000E+00 0. -1.
         23    2    1    2    0    0  0.46404767998E+02 -0.15705205080E+03  0.10810511473E+03  0.23270200100E+03  0.12507900018E+03 0.  0.
          5    1    3    3  502    0  0.18705854651E+02 -0.16344123324E+03  0.11779945079E+03  0.20237867657E+03  0.41800000000E+01 0. -1.
         -5    1    3    3    0  502  0.27698913347E+02  0.63891824481E+01 -0.96943360578E+01  0.30323324431E+02  0.41800000000E+01 0.  1.
        -11    1    1    2    0    0 -0.52627188326E+02  0.54633432663E+02 -0.47673482253E+02  0.89594608240E+02  0.00000000000E+00 0.  1.
         11    1    1    2    0    0  0.62224203278E+01  0.10241861813E+03  0.68464980684E+01  0.10283562802E+03  0.00000000000E+00 0. -1.
</event>
<event>
 7    1  0.6833760E-006  0.1427743E+03  0.7561462E-02  0.1209644E+00
          2   -1    0    0  501    0  0.00000000000E+00  0.00000000000E+00  0.49129089960E+03  0.49129089960E+03  0.00000000000E+00 0. -1.
         -2   -1    0    0    0  501 -0.00000000000E+00 -0.00000000000E+00 -0.51683387561E+02  0.51683387561E+02  0.00000000000E+00 0.  1.
         23    2    1    2    0    0 -0.11141608173E+03 -0.28875670513E+02  0.19504253290E+03  0.25872027246E+03  0.12508893686E+03 0.  0.
          5    1    3    3  502    0  0.24469268940E+02 -0.22754534671E+02  0.33567893424E+02  0.47547763769E+02  0.41800000000E+01 0.  1.
         -5    1    3    3    0  502 -0.13588535067E+03 -0.61211358419E+01  0.16147463948E+03  0.21117250869E+03  0.41800000000E+01 0.  1.
        -11    1    1    2    0    0  0.68002546826E+02  0.23939113045E+02  0.57675533875E+02  0.92324940921E+02  0.00000000000E+00 0.  1.
         11    1    1    2    0    0  0.43413534906E+02  0.49365574679E+01  0.18688944526E+03  0.19192907378E+03  0.00000000000E+00 0. -1.
</event>
<event>
 6    1  0.6833760E-006  0.1314022E+03  0.7561462E-02  0.1225390E+00
         -1   -1    0    0    0  501 -0.00000000000E+00  0.00000000000E+00  0.48772263598E+03  0.48772263598E+03  0.00000000000E+00 0.  1.
          1   -1    0    0  501    0  0.00000000000E+00 -0.00000000000E+00 -0.15021400074E+03  0.15021400074E+03  0.00000000000E+00 0. -1.
          5    1    1    2  502    0  0.74858969115E+02  0.66497567263E+02  0.15276864213E+03  0.18270610862E+03  0.41800000000E+01 0. -1.
         -5    1    1    2    0  502 -0.81267143475E+02 -0.81188997876E+02  0.29168153736E+03  0.31351490176E+03  0.41800000000E+01 0.  1.
        -11    1    1    2    0    0  0.22281948784E+02 -0.45011558296E+01 -0.11366645118E+03  0.11591724535E+03  0.00000000000E+00 0. -1.
         11    1    1    2    0    0 -0.15873774425E+02  0.19192586443E+02  0.67249069147E+01  0.25798380993E+02  0.00000000000E+00 0.  1.
</event>
<event>
 7    1  0.6833760E-006  0.1220828E+03  0.7561462E-02  0.1239700E+00
         -1   -1    0    0    0  501 -0.00000000000E+00  0.00000000000E+00  0.41413182864E+02  0.41413182864E+02  0.00000000000E+00 0.  1.
          1   -1    0    0  501    0  0.00000000000E+00 -0.00000000000E+00 -0.49805647053E+03  0.49805647053E+03  0.00000000000E+00 0. -1.
         23    2    1    2    0    0 -0.44012942198E+02 -0.72192522122E+02 -0.31578648785E+03  0.35002537984E+03  0.12509101205E+03 0.  0.
          5    1    3    3  502    0 -0.52523130097E+02 -0.98762293674E+02 -0.29334638967E+03  0.31397809888E+03  0.41800000000E+01 0. -1.
         -5    1    3    3    0  502  0.85101878984E+01  0.26569771552E+02 -0.22440098181E+02  0.36047280963E+02  0.41800000000E+01 0. -1.
        -11    1    1    2    0    0  0.34500735485E+02  0.35101398148E+01 -0.26018604849E+01  0.34776306712E+02  0.00000000000E+00 0.  1.
         11    1    1    2    0    0  0.95122067131E+01  0.68682382307E+02 -0.13825493933E+03  0.15466796684E+03  0.00000000000E+00 0. -1.
</event>
<event>
 6    1  0.6833760E-006  0.1869385E+03  0.7561462E-02  0.1161252E+00
          2   -1    0    0  501    0  0.00000000000E+00  0.00000000000E+00  0.36468467875E+03  0.36468467875E+03  0.00000000000E+00 0. -1.
         -2   -1    0    0    0  501 -0.00000000000E+00 -0.00000000000E+00 -0.11786582188E+03  0.11786582188E+03  0.00000000000E+00 0.  1.
          5    1    1    2  502    0  0.60122907397E+02 -0.13295649257E+03  0.97756123360E+02  0.17568700853E+03  0.41800000000E+01 0. -1.
         -5    1    1    2    0  502 -0.78360599815E+02  0.11545866822E+03  0.14048411448E+02  0.14030651422E+03  0.41800000000E+01 0.  1.
        -11    1    1    2    0    0 -0.23639882246E+02  0.35551679980E+02  0.10103866377E+03  0.10968854799E+03  0.00000000000E+00 0.  1.
         11    1    1    2    0    0  0.41877574665E+02 -0.18053855623E+02  0.33975658282E+02  0.56868429892E+02  0.00000000000E+00 0. -1.
</event>
<event>
 7    1  0.6833760E-006  0.1443635E+03  0.7561462E-02  0.1207575E+00
          2   -1    0    0  501    0  0.00000000000E+00  0.00000000000E+00  0.27953935355E+03  0.27953935355E+03  0.00000000000E+00 0. -1.
         -2   -1    0    0    0  501 -0.00000000000E+00 -0.00000000000E+00 -0.94967365508E+02  0.94967365508E+02  0.00000000000E+00 0.  1.
         23    2    1    2    0    0  0.55335596594E+02  0.10558724972E+03  0.74648432886E+02  0.18823355906E+03  0.12509511848E+03 0.  0.
          5    1    3    3  502    0 -0.14501773872E+02  0.73728467733E+02 -0.76148293714E+01  0.75641565466E+02  0.41800000000E+01 0.  1.
         -5    1    3    3    0  502  0.69837370466E+02  0.31858781987E+02  0.82263262258E+02  0.11259199359E+03  0.41800000000E+01 0.  1.
        -11    1    1    2    0    0  0.11768624684E+02 -0.33784474386E+00 -0.82572344226E+01  0.14380423719E+02  0.00000000000E+00 0.  1.
         11    1    1    2    0    0 -0.67104221279E+02 -0.10524940498E+03  0.11818078958E+03  0.17189273628E+03  0.00000000000E+00 0. -1.
</event>
<event>
 7    1  0.1325039E-005  0.1174707E+03  0.7561462E-02  0.1247329E+00
         -3   -1    0    0    0  501 -0.00000000000E+00  0.00000000000E+00  0.53642511575E+03  0.53642511575E+03  0.00000000000E+00 0.  1.
          3   -1    0    0  501    0  0.00000000000E+00 -0.00000000000E+00 -0.39510999331E+02  0.39510999331E+02  0.00000000000E+00 0. -1.
         23    2    1    2    0    0 -0.28440052260E+02  0.86716924858E+02  0.33709178218E+03  0.37095391597E+03  0.12508907439E+03 0.  0.
          5    1    3    3  502    0 -0.27137520844E+02  0.11211402184E+03  0.31960395088E+03  0.33980900039E+03  0.41800000000E+01 0.  1.
         -5    1    3    3    0  502 -0.13025314156E+01 -0.25397096977E+02  0.17487831304E+02  0.31144915583E+02  0.41800000000E+01 0.  1.
        -11    1    1    2    0    0  0.24096872524E+02 -0.39108855391E+02  0.14906306093E+03  0.15598063331E+03  0.00000000000E+00 0.  1.
         11    1    1    2    0    0  0.43431797353E+01 -0.47608069467E+02  0.10759273314E+02  0.49001565800E+02  0.00000000000E+00 0. -1.
</event>
<event>
 7    1  0.6833760E-006  0.1105002E+03  0.7561462E-02  0.1259646E+00
          2   -1    0    0  501    0  0.00000000000E+00  0.00000000000E+00  0.41849338992E+03  0.41849338992E+03  0.00000000000E+00 0.  1.
         -2   -1    0    0    0  501 -0.00000000000E+00 -0.00000000000E+00 -0.39672785037E+02  0.39672785037E+02  0.00000000000E+00 0. -1.
         23    2    1    2    0    0  0.39101414312E+01 -0.65960028113E+02  0.17789382241E+03  0.22728687729E+03  0.12508836086E+03 0.  0.
          5    1    3    3  502    0 -0.23483956992E+02  0.31856973464E+02  0.49300021551E+02  0.63358720940E+02  0.41800000000E+01 0. -1.
         -5    1    3    3    0  502  0.27394098423E+02 -0.97817001577E+02  0.12859380086E+03  0.16392815635E+03  0.41800000000E+01 0. -1.
        -11    1    1    2    0    0 -0.23114335844E+02  0.23637322700E+02  0.17411114199E+03  0.17722213550E+03  0.00000000000E+00 0.  1.
         11    1    1    2    0    0  0.19204194413E+02  0.42322705413E+02  0.26815640475E+02  0.53657162156E+02  0.00000000000E+00 0. -1.
</event>
<event>
 7    1  0.6833760E-006  0.1015582E+03  0.7561462E-02  0.1277053E+00
          2   -1    0    0  501    0  0.00000000000E+00  0.00000000000E+00  0.22478780050E+03  0.22478780050E+03  0.00000000000E+00 0. -1.
         -2   -1    0    0    0  501 -0.00000000000E+00 -0.00000000000E+00 -0.58854966709E+02  0.58854966709E+02  0.00000000000E+00 0.  1.
         23    2    1    2    0    0 -0.41580541166E+02  0.36678546631E+01  0.92655943287E+02  0.16116935978E+03  0.12509214262E+03 0.  0.
          5    1    3    3  502    0 -0.33955910834E+02  0.62822436700E+02  0.57749093117E+02  0.91935263035E+02  0.41800000000E+01 0.  1.
         -5    1    3    3    0  502 -0.76246303318E+01 -0.59154582037E+02  0.34906850170E+02  0.69234096747E+02  0.41800000000E+01 0.  1.
        -11    1    1    2    0    0 -0.10963791328E+02  0.12680657553E+02 -0.12257395902E+02  0.20766500681E+02  0.00000000000E+00 0.  1.
         11    1    1    2    0    0  0.52544332494E+02 -0.16348512217E+02  0.85534286410E+02  0.10170690675E+03  0.00000000000E+00 0. -1.
</event>
<event>
 7    1  0.6833760E-006  0.1423009E+03  0.7561462E-02  0.1210266E+00
          2   -1    0    0  501    0  0.00000000000E+00  0.00000000000E+00  0.33274818734E+03  0.33274818734E+03  0.00000000000E+00 0. -1.
         -2   -1    0    0    0  501 -0.00000000000E+00 -0.00000000000E+00 -0.72237707343E+02  0.72237707343E+02  0.00000000000E+00 0.  1.
         23    2    1    2    0    0  0.54519784809E+02  0.82876784025E+02  0.78035179972E+02  0.17770219108E+03  0.12509041185E+03 0.  0.
          5    1    3    3  502    0  0.48787120035E+02 -0.14851295228E+02 -0.19655116507E+01  0.51206246565E+02  0.41800000000E+01 0. -1.
         -5    1    3    3    0  502  0.57326647738E+01  0.97728079252E+02  0.80000691622E+02  0.12649594452E+03  0.41800000000E+01 0. -1.
        -11    1    1    2    0    0 -0.30663859483E+02 -0.10095932679E+03  0.13945683085E+03  0.17487499997E+03  0.00000000000E+00 0. -1.
         11    1    1    2    0    0 -0.23855925326E+02  0.18082542761E+02  0.43018469182E+02  0.52408703635E+02  0.00000000000E+00 0.  1.
</event>
<event>
 7    1  0.7609444E-006  0.1451846E+03  0.7561462E-02  0.1206518E+00
         -1   -1    0    0    0  501 -0.00000000000E+00  0.00000000000E+00  0.17258179731E+03  0.17258179731E+03  0.00000000000E+00 0.  1.
          1   -1    0    0  501    0  0.00000000000E+00 -0.00000000000E+00 -0.21418077180E+03  0.21418077180E+03  0.00000000000E+00 0. -1.
         23    2    1    2    0    0  0.94987565798E+02  0.10457724229E+03  0.27538570565E+02  0.19069540486E+03  0.12508927734E+03 0.  0.
          5    1    3    3  502    0  0.15717570922E+02  0.14435726113E+01 -0.40622791826E+02  0.43781383638E+02  0.41800000000E+01 0.  1.
         -5    1    3    3    0  502  0.79269994876E+02  0.10313366968E+03  0.68161362391E+02  0.14691402122E+03  0.41800000000E+01 0.  1.
        -11    1    1    2    0    0 -0.40416832319E+02 -0.25402196560E+02  0.31249635927E+02  0.57055513934E+02  0.00000000000E+00 0.  1.
         11    1    1    2    0    0 -0.54570733479E+02 -0.79175045726E+02 -0.10038718098E+03  0.13901165031E+03  0.00000000000E+00 0. -1.
</event>
<event>
 7    1  0.6833760E-006  0.7260068E+02  0.7561462E-02  0.1351466E+00
          1   -1    0    0  501    0  0.00000000000E+00  0.00000000000E+00  0.40235361451E+02  0.40235361451E+02  0.00000000000E+00 0. -1.
         -1   -1    0    0    0  501 -0.00000000000E+00 -0.00000000000E+00 -0.29371143255E+03  0.29371143255E+03  0.00000000000E+00 0.  1.
         23    2    1    2    0    0  0.18794006952E+02 -0.14318107476E+02 -0.16171918516E+03  0.20581973386E+03  0.12510173899E+03 0.  0.
          5    1    3    3  502    0 -0.25385170454E+02 -0.98058889699E+01  0.93144078840E+01  0.29065321806E+02  0.41800000000E+01 0.  1.
         -5    1    3    3    0  502  0.44179177406E+02 -0.45122185065E+01 -0.17103359304E+03  0.17675441205E+03  0.41800000000E+01 0.  1.
        -11    1    1    2    0    0 -0.28067469929E+02 -0.21948405377E+02 -0.82054941873E+02  0.89456854698E+02  0.00000000000E+00 0.  1.
         11    1    1    2    0    0  0.92734629768E+01  0.36266512854E+02 -0.97019440688E+01  0.38670205441E+02  0.00000000000E+00 0. -1.
</event>
<event>
 7    1  0.6833760E-006  0.1015844E+03  0.7561462E-02  0.1276999E+00
          1   -1    0    0  501    0  0.00000000000E+00  0.00000000000E+00  0.10845031487E+03  0.10845031487E+03  0.00000000000E+00 0. -1.
         -1   -1    0    0    0  501 -0.00000000000E+00 -0.00000000000E+00 -0.19463872075E+03  0.19463872075E+03  0.00000000000E+00 0.  1.
         23    2    1    2    0    0 -0.76815082274E+02  0.60764180228E+02 -0.49510085854E+02  0.16640829744E+03  0.12509048881E+03 0.  0.
          5    1    3    3  502    0 -0.41844049378E+01  0.70550478933E+01  0.38880582043E+02  0.39955662996E+02  0.41800000000E+01 0. -1.
         -5    1    3    3    0  502 -0.72630677336E+02  0.53709132335E+02 -0.88390667897E+02  0.12645263444E+03  0.41800000000E+01 0. -1.
        -11    1    1    2    0    0  0.55720777414E+02 -0.23007190761E+02 -0.62071292265E+02  0.86527343573E+02  0.00000000000E+00 0.  1.
         11    1    1    2    0    0  0.21094304860E+02 -0.37756989467E+02  0.25392972237E+02  0.50153394603E+02  0.00000000000E+00 0. -1.
</event>
<event>
 7    1  0.6833760E-006  0.8467841E+02  0.7561462E-02  0.1316276E+00
          1   -1    0    0  501    0  0.00000000000E+00  0.00000000000E+00  0.91322369424E+02  0.91322369424E+02  0.00000000000E+00 0. -1.
         -1   -1    0    0    0  501 -0.00000000000E+00 -0.00000000000E+00 -0.16360698025E+03  0.16360698025E+03  0.00000000000E+00 0.  1.
         23    2    1    2    0    0 -0.18401480594E+02 -0.19169073894E+02 -0.87417714967E+02  0.15490452586E+03  0.12508991710E+03 0.  0.
          5    1    3    3  502    0  0.36290216769E+02  0.12279614833E+02  0.90271939678E+01  0.39581958068E+02  0.41800000000E+01 0.  1.
         -5    1    3    3    0  502 -0.54691697363E+02 -0.31448688727E+02 -0.96444908935E+02  0.11532256779E+03  0.41800000000E+01 0.  1.
        -11    1    1    2    0    0  0.20895395201E+02  0.40787862928E+02 -0.26578043083E+02  0.52977916880E+02  0.00000000000E+00 0.  1.
         11    1    1    2    0    0 -0.24939146069E+01 -0.21618789035E+02  0.41711147222E+02  0.47046906933E+02  0.00000000000E+00 0. -1.
</event>
<event>
 7    1  0.6833760E-006  0.9414180E+02  0.7561462E-02  0.1293121E+00
         -1   -1    0    0    0  501 -0.00000000000E+00  0.00000000000E+00  0.15281282950E+02  0.15281282950E+02  0.00000000000E+00 0.  1.
          1   -1    0    0  501    0  0.00000000000E+00 -0.00000000000E+00 -0.10241800781E+04  0.10241800781E+04  0.00000000000E+00 0. -1.
         23    2    1    2    0    0  0.59974638377E+02 -0.13693345945E+02 -0.53626917322E+03  0.55409095377E+03  0.12509074276E+03 0.  0.
          5    1    3    3  502    0  0.65817058166E+02 -0.23323885612E+02 -0.53748215616E+03  0.54201515603E+03  0.41800000000E+01 0.  1.
         -5    1    3    3    0  502 -0.58424197892E+01  0.96305396673E+01  0.12129829307E+01  0.12075797732E+02  0.41800000000E+01 0.  1.
        -11    1    1    2    0    0 -0.66157188379E+01 -0.34067758560E+02 -0.98143204143E+02  0.10409835939E+03  0.00000000000E+00 0.  1.
         11    1    1    2    0    0 -0.53358919539E+02  0.47761104505E+02 -0.37448641779E+03  0.38127204790E+03  0.00000000000E+00 0. -1.
</event>
<event>
 7    1  0.6833760E-006  0.1517795E+03  0.7561462E-02  0.1198303E+00
         -2   -1    0    0    0  501 -0.00000000000E+00  0.00000000000E+00  0.17443375257E+03  0.17443375257E+03  0.00000000000E+00 0.  1.
          2   -1    0    0  501    0  0.00000000000E+00 -0.00000000000E+00 -0.19785814800E+03  0.19785814800E+03  0.00000000000E+00 0. -1.
         23    2    1    2    0    0 -0.65366436574E+02 -0.11161431626E+03  0.66864978498E+02  0.19196235610E+03  0.12509234263E+03 0.  0.
          5    1    3    3  502    0 -0.12463775051E+02 -0.94289647123E+02  0.90489095679E+02  0.13134546844E+03  0.41800000000E+01 0. -1.
         -5    1    3    3    0  502 -0.52902661522E+02 -0.17324669134E+02 -0.23624117180E+02  0.60616887658E+02  0.41800000000E+01 0. -1.
        -11    1    1    2    0    0  0.79214008108E+02  0.11365493801E+03 -0.68789448632E+02  0.15467479516E+03  0.00000000000E+00 0.  1.
         11    1    1    2    0    0 -0.13847571535E+02 -0.20406217503E+01 -0.21499925297E+02  0.25654749313E+02  0.00000000000E+00 0. -1.
</event>
<event>
 7    1  0.6833760E-006  0.1107081E+03  0.7561462E-02  0.1259264E+00
          2   -1    0    0  501    0  0.00000000000E+00  0.00000000000E+00  0.65790094028E+03  0.65790094028E+03  0.00000000000E+00 0. -1.
         -2   -1    0    0    0  501 -0.00000000000E+00 -0.00000000000E+00 -0.33605440469E+02  0.33605440469E+02  0.00000000000E+00 0.  1.
         23    2    1    2    0    0 -0.93658047816E+02 -0.33856761888E+02  0.29116766707E+03  0.33218002203E+03  0.12508735524E+03 0.  0.
          5    1    3    3  502    0 -0.30036811646E+02 -0.12024047047E+02  0.25226311173E+03  0.25436379008E+03  0.41800000000E+01 0.  1.
         -5    1    3    3    0  502 -0.63621236170E+02 -0.21832714842E+02  0.38904555339E+02  0.77816231953E+02  0.41800000000E+01 0.  1.
        -11    1    1    2    0    0  0.45487863008E+02 -0.19521910821E+02  0.64862932983E+02  0.81593202892E+02  0.00000000000E+00 0.  1.
         11    1    1    2    0    0  0.48170184808E+02  0.53378672709E+02  0.26826489975E+03  0.27773315583E+03  0.00000000000E+00 0. -1.
</event>
<event>
 7    1  0.6833760E-006  0.9566949E+02  0.7561462E-02  0.1289675E+00
         -2   -1    0    0    0  501 -0.00000000000E+00  0.00000000000E+00  0.41979875526E+03  0.41979875526E+03  0.00000000000E+00 0.  1.
          2   -1    0    0  501    0  0.00000000000E+00 -0.00000000000E+00 -0.41817165495E+02  0.41817165495E+02  0.00000000000E+00 0. -1.
         23    2    1    2    0    0  0.43587895035E+02  0.49569045221E+02  0.27294575241E+03  0.30741621134E+03  0.12509335872E+03 0.  0.
          5    1    3    3  502    0  0.17024913368E+02  0.72732762948E+02  0.73647635544E+02  0.10498261333E+03  0.41800000000E+01 0.  1.
         -5    1    3    3    0  502  0.26562981667E+02 -0.23163717727E+02  0.19929811687E+03  0.20243359800E+03  0.41800000000E+01 0.  1.
        -11    1    1    2    0    0 -0.34248221826E+02 -0.39596342498E+01  0.10185914575E+03  0.10753559864E+03  0.00000000000E+00 0.  1.
         11    1    1    2    0    0 -0.93396732090E+01 -0.45609410972E+02  0.31766915989E+01  0.46664110774E+02  0.00000000000E+00 0. -1.
</event>
<event>
 7    1  0.6833760E-006  0.9439154E+02  0.7561462E-02  0.1292552E+00
         -3   -1    0    0    0  501 -0.00000000000E+00  0.00000000000E+00  0.55508741208E+03  0.55508741208E+03  0.00000000000E+00 0.  1.
          3   -1    0    0  501    0  0.00000000000E+00 -0.00000000000E+00 -0.21505077567E+02  0.21505077567E+02  0.00000000000E+00 0. -1.
         23    2    1    2    0    0 -0.30459217873E+01  0.23382627435E+02  0.32816535565E+03  0.35198669627E+03  0.12508440670E+03 0.  0.
          5    1    3    3  502    0  0.18224234111E+02 -0.36618560722E+02  0.41919315886E+02  0.58717485834E+02  0.41800000000E+01 0.  1.
         -5    1    3    3    0  502 -0.21270155898E+02  0.60001188157E+02  0.28624603976E+03  0.29326921044E+03  0.41800000000E+01 0.  1.
        -11    1    1    2    0    0 -0.38373112470E+02 -0.16969442113E+02  0.14589118399E+03  0.15180479338E+03  0.00000000000E+00 0.  1.
         11    1    1    2    0    0  0.41419034258E+02 -0.64131853220E+01  0.59525794872E+02  0.72800999993E+02  0.00000000000E+00 0. -1.
</event>
<event>
 7    1  0.6833760E-006  0.1205916E+03  0.7561462E-02  0.1242124E+00
         -1   -1    0    0    0  501 -0.00000000000E+00  0.00000000000E+00  0.15499042621E+03  0.15499042621E+03  0.00000000000E+00 0.  1.
          1   -1    0    0  501    0  0.00000000000E+00 -0.00000000000E+00 -0.12948623431E+03  0.12948623431E+03  0.00000000000E+00 0. -1.
         23    2    1    2    0    0  0.14488076276E+01 -0.67171528448E+02  0.73957260644E+02  0.16009625117E+03  0.12508804883E+03 0.  0.
          5    1    3    3  502    0 -0.57498233926E+02 -0.39781422235E+02  0.13713314140E+02  0.71373215175E+02  0.41800000000E+01 0.  1.
         -5    1    3    3    0  502  0.58947041554E+02 -0.27390106213E+02  0.60243946504E+02  0.88723035998E+02  0.41800000000E+01 0.  1.
        -11    1    1    2    0    0 -0.41666859874E+02  0.31283139359E+02 -0.30358078672E+00  0.52104262601E+02  0.00000000000E+00 0.  1.
         11    1    1    2    0    0  0.40218052246E+02  0.35888389089E+02 -0.48149487955E+02  0.72276146744E+02  0.00000000000E+00 0. -1.
</event>
<event>
 7    1  0.6833760E-006  0.1058183E+03  0.7561462E-02  0.1268516E+00
          1   -1    0    0  501    0  0.00000000000E+00  0.00000000000E+00  0.34169838223E+03  0.34169838223E+03  0.00000000000E+00 0. -1.
         -1   -1    0    0    0  501 -0.00000000000E+00 -0.00000000000E+00 -0.33255771641E+02  0.33255771641E+02  0.00000000000E+00 0.  1.
         23    2    1    2    0    0 -0.12123611615E+02  0.17782188796E+02  0.15389061698E+03  0.19385236328E+03  0.11590180567E+03 0.  0.
          5    1    3    3  502    0 -0.21711029847E+02  0.65179752202E+02  0.81193045081E+02  0.10644036774E+03  0.41800000000E+01 0. -1.
         -5    1    3    3    0  502  0.95874182323E+01 -0.47397563406E+02  0.72697571900E+02  0.87411995546E+02  0.41800000000E+01 0.  1.
        -11    1    1    2    0    0 -0.19242378410E+02  0.30874960873E+02  0.64313547428E+02  0.73890220724E+02  0.00000000000E+00 0. -1.
         11    1    1    2    0    0  0.31365990025E+02 -0.48657149669E+02  0.90238446179E+02  0.10721156987E+03  0.00000000000E+00 0.  1.
</event>
<event>
 7    1  0.6833760E-006  0.1162037E+03  0.7561462E-02  0.1249494E+00
          2   -1    0    0  501    0  0.00000000000E+00  0.00000000000E+00  0.90725208945E+03  0.90725208945E+03  0.00000000000E+00 0. -1.
         -2   -1    0    0    0  501 -0.00000000000E+00 -0.00000000000E+00 -0.16216556906E+02  0.16216556906E+02  0.00000000000E+00 0.  1.
         23    2    1    2    0    0  0.45290525169E+02  0.25889908736E+02  0.41368803224E+03  0.43532389654E+03  0.12509031871E+03 0.  0.
          5    1    3    3  502    0  0.80439770880E+02  0.47004450098E+02  0.26060731665E+03  0.27679165623E+03  0.41800000000E+01 0. -1.
         -5    1    3    3    0  502 -0.35149245711E+02 -0.21114541362E+02  0.15308071559E+03  0.15853224031E+03  0.41800000000E+01 0. -1.
        -11    1    1    2    0    0 -0.54672773832E+02 -0.48731061038E+02  0.40825714426E+03  0.41477430531E+03  0.00000000000E+00 0.  1.
         11    1    1    2    0    0  0.93822486629E+01  0.22841152301E+02  0.69090356041E+02  0.73370444501E+02  0.00000000000E+00 0. -1.
</event>
<event>
 7    1  0.6833760E-006  0.1214908E+03  0.7561462E-02  0.1240658E+00
          2   -1    0    0  501    0  0.00000000000E+00  0.00000000000E+00  0.16176797149E+03  0.16176797149E+03  0.00000000000E+00 0.  1.
         -2   -1    0    0    0  501 -0.00000000000E+00 -0.00000000000E+00 -0.33801023282E+03  0.33801023282E+03  0.00000000000E+00 0. -1.
         23    2    1    2    0    0  0.11590877194E+01  0.70893562672E+02 -0.29732807634E+03  0.33026999846E+03  0.12508815367E+03 0.  0.
          5    1    3    3  502    0 -0.51444095452E+02 -0.43900771109E+01 -0.10301004880E+03  0.11530095527E+03  0.41800000000E+01 0. -1.
         -5    1    3    3    0  502  0.52603183172E+02  0.75283639783E+02 -0.19431802754E+03  0.21496904318E+03  0.41800000000E+01 0. -1.
        -11    1    1    2    0    0 -0.27584839857E+02 -0.67100326640E+02  0.12293685983E+03  0.14274749991E+03  0.00000000000E+00 0.  1.
         11    1    1    2    0    0  0.26425752138E+02 -0.37932360316E+01 -0.18510448283E+01  0.26760705944E+02  0.00000000000E+00 0. -1.
</event>
<event>
 7    1  0.6833760E-006  0.1323375E+03  0.7561462E-02  0.1224028E+00
          2   -1    0    0  501    0  0.00000000000E+00  0.00000000000E+00  0.22715797996E+02  0.22715797996E+02  0.00000000000E+00 0. -1.
         -2   -1    0    0    0  501 -0.00000000000E+00 -0.00000000000E+00 -0.12817451770E+04  0.12817451770E+04  0.00000000000E+00 0.  1.
         23    2    1    2    0    0 -0.51013597971E+01  0.13026319268E+03 -0.69044519823E+03  0.71369215880E+03  0.12508957806E+03 0.  0.
          5    1    3    3  502    0  0.12747202084E+02  0.42562892675E+02 -0.50036186636E+02  0.67046128650E+02  0.41800000000E+01 0. -1.
         -5    1    3    3    0  502 -0.17848561881E+02  0.87700300001E+02 -0.64040901160E+03  0.64664603015E+03  0.41800000000E+01 0. -1.
        -11    1    1    2    0    0  0.31262882423E+01 -0.28667258120E+02 -0.26244704387E+02  0.38991920633E+02  0.00000000000E+00 0.  1.
         11    1    1    2    0    0  0.19750715548E+01 -0.10159593456E+03 -0.54233947638E+03  0.55177689555E+03  0.00000000000E+00 0. -1.
</event>
<event>
 7    1  0.6833760E-006  0.9261041E+02  0.7561462E-02  0.1296651E+00
         -2   -1    0    0    0  501 -0.00000000000E+00  0.00000000000E+00  0.45208254994E+03  0.45208254994E+03  0.00000000000E+00 0.  1.
          2   -1    0    0  501    0  0.00000000000E+00 -0.00000000000E+00 -0.33186343446E+02  0.33186343446E+02  0.00000000000E+00 0. -1.
         23    2    1    2    0    0 -0.45667246391E+02 -0.26052877856E+02  0.24764738258E+03  0.28238693456E+03  0.12509558295E+03 0.  0.
          5    1    3    3  502    0  0.26571713517E+02  0.21290238762E+02  0.14087166744E+03  0.14498837647E+03  0.41800000000E+01 0. -1.
         -5    1    3    3    0  502 -0.72238959908E+02 -0.47343116618E+02  0.10677571514E+03  0.13739855809E+03  0.41800000000E+01 0. -1.
        -11    1    1    2    0    0  0.20548887240E+02  0.32555624638E+02  0.17265728052E+03  0.17689732044E+03  0.00000000000E+00 0.  1.
         11    1    1    2    0    0  0.25118359151E+02 -0.65027467824E+01 -0.14084566059E+01  0.25984638389E+02  0.00000000000E+00 0. -1.
</event>
<event>
 7    1  0.6833760E-006  0.1220214E+03  0.7561462E-02  0.1239799E+00
          1   -1    0    0  501    0  0.00000000000E+00  0.00000000000E+00  0.10145379549E+04  0.10145379549E+04  0.00000000000E+00 0. -1.
         -1   -1    0    0    0  501 -0.00000000000E+00 -0.00000000000E+00 -0.15084889586E+02  0.15084889586E+02  0.00000000000E+00 0.  1.
         23    2    1    2    0    0 -0.35378510220E+02 -0.48531661315E+02  0.56007892160E+03  0.57701188851E+03  0.12508940773E+03 0.  0.
          5    1    3    3  502    0 -0.50447447204E+01 -0.88313645380E+02  0.35888252311E+03  0.36964697645E+03  0.41800000000E+01 0. -1.
         -5    1    3    3    0  502 -0.30333765500E+02  0.39781984065E+02  0.20119639849E+03  0.20736491205E+03  0.41800000000E+01 0. -1.
        -11    1    1    2    0    0 -0.28989288394E+02  0.13132693204E+02  0.86429839043E+02  0.92103005105E+02  0.00000000000E+00 0. -1.
         11    1    1    2    0    0  0.64367798615E+02  0.35398968111E+02  0.35294430465E+03  0.36050795085E+03  0.00000000000E+00 0.  1.
</event>
<event>
 7    1  0.6833760E-006  0.1050018E+03  0.7561462E-02  0.1270116E+00
         -1   -1    0    0    0  501 -0.00000000000E+00  0.00000000000E+00  0.70161358856E+02  0.70161358856E+02  0.00000000000E+00 0.  1.
          1   -1    0    0  501    0  0.00000000000E+00 -0.00000000000E+00 -0.24156936681E+03  0.24156936681E+03  0.00000000000E+00 0. -1.
         23    2    1    2    0    0  0.65766586648E+02 -0.27245513646E+01 -0.12712473219E+03  0.19010718016E+03  0.12508946924E+03 0.  0.
          5    1    3    3  502    0  0.82616913874E+02 -0.45926485049E+02 -0.89587016558E+02  0.13030004767E+03  0.41800000000E+01 0.  1.
         -5    1    3    3    0  502 -0.16850327226E+02  0.43201933685E+02 -0.37537715631E+02  0.59807132489E+02  0.41800000000E+01 0.  1.
        -11    1    1    2    0    0 -0.29251116178E+02 -0.87835144405E+01  0.26963937949E+02  0.40741034269E+02  0.00000000000E+00 0.  1.
         11    1    1    2    0    0 -0.36515470470E+02  0.11508065805E+02 -0.71247213712E+02  0.80882511237E+02  0.00000000000E+00 0. -1.
</event>
<event>
 7    1  0.6833760E-006  0.2624978E+03  0.7561462E-02  0.1105652E+00
          2   -1    0    0  501    0  0.00000000000E+00  0.00000000000E+00  0.84478575635E+03  0.84478575635E+03  0.00000000000E+00 0. -1.
         -2   -1    0    0    0  501 -0.00000000000E+00 -0.00000000000E+00 -0.91663278245E+02  0.91663278245E+02  0.00000000000E+00 0.  1.
         23    2    1    2    0    0 -0.34715166318E+02 -0.24725841259E+03  0.47874316752E+03  0.55424138413E+03  0.12508647435E+03 0.  0.
          5    1    3    3  502    0 -0.76093323058E+02 -0.15400605119E+03  0.35016429236E+03  0.39005199866E+03  0.41800000000E+01 0. -1.
         -5    1    3    3    0  502  0.41378156741E+02 -0.93252361401E+02  0.12857887516E+03  0.16418938546E+03  0.41800000000E+01 0. -1.
        -11    1    1    2    0    0  0.38186832988E+02  0.19609558650E+03  0.26195748011E+03  0.32944412978E+03  0.00000000000E+00 0. -1.
         11    1    1    2    0    0 -0.34716666703E+01  0.51162826090E+02  0.12421830472E+02  0.52763520686E+02  0.00000000000E+00 0.  1.
</event>
<event>
 7    1  0.6833760E-006  0.9164541E+02  0.7561462E-02  0.1298915E+00
         -1   -1    0    0    0  501 -0.00000000000E+00  0.00000000000E+00  0.53987993378E+02  0.53987993378E+02  0.00000000000E+00 0.  1.
          1   -1    0    0  501    0  0.00000000000E+00 -0.00000000000E+00 -0.22855415691E+03  0.22855415691E+03  0.00000000000E+00 0. -1.
         23    2    1    2    0    0  0.16698165093E+02  0.66117352812E+01 -0.83485372399E+02  0.15146294421E+03  0.12509465337E+03 0.  0.
          5    1    3    3  502    0  0.18513366527E+02 -0.51883972305E+02 -0.79473150526E+01  0.55815083435E+02  0.41800000000E+01 0. -1.
         -5    1    3    3    0  502 -0.18152014348E+01  0.58495707586E+02 -0.75538057347E+02  0.95647860770E+02  0.41800000000E+01 0. -1.
        -11    1    1    2    0    0 -0.41807714473E+02 -0.12391275860E+02 -0.83092695590E+01  0.44390006392E+02  0.00000000000E+00 0.  1.
         11    1    1    2    0    0  0.25109549380E+02  0.57795405786E+01 -0.82771521569E+02  0.86689199686E+02  0.00000000000E+00 0. -1.
</event>
<event>
 7    1  0.6833760E-006  0.2841630E+03  0.7561462E-02  0.1093437E+00
         -1   -1    0    0    0  501 -0.00000000000E+00  0.00000000000E+00  0.65095419837E+02  0.65095419837E+02  0.00000000000E+00 0.  1.
          1   -1    0    0  501    0  0.00000000000E+00 -0.00000000000E+00 -0.13700645847E+04  0.13700645847E+04  0.00000000000E+00 0. -1.
         23    2    1    2    0    0  0.94645703608E+02 -0.24549845499E+03 -0.45008859610E+03  0.53614911703E+03  0.12509528664E+03 0.  0.
          5    1    3    3  502    0  0.12324372990E+03 -0.17090419852E+03 -0.31060846515E+03  0.37535630148E+03  0.41800000000E+01 0. -1.
         -5    1    3    3    0  502 -0.28598026292E+02 -0.74594256468E+02 -0.13948013094E+03  0.16079281555E+03  0.41800000000E+01 0. -1.
        -11    1    1    2    0    0  0.48200954918E+01  0.10677003033E+03 -0.35898089686E+03  0.37455354358E+03  0.00000000000E+00 0. -1.
         11    1    1    2    0    0 -0.99465799099E+02  0.13872842466E+03 -0.49589967186E+03  0.52445734388E+03  0.00000000000E+00 0.  1.
</event>
<event>
 7    1  0.6833760E-006  0.9370283E+02  0.7561462E-02  0.1294125E+00
          2   -1    0    0  501    0  0.00000000000E+00  0.00000000000E+00  0.42606887760E+03  0.42606887760E+03  0.00000000000E+00 0.  1.
         -2   -1    0    0    0  501 -0.00000000000E+00 -0.00000000000E+00 -0.40637563566E+02  0.40637563566E+02  0.00000000000E+00 0. -1.
         23    2    1    2    0    0  0.14137987193E+01  0.31131404430E+02  0.96202072683E+02  0.16085298939E+03  0.12509069605E+03 0.  0.
          5    1    3    3  502    0  0.39779579954E+02  0.33222562597E+02  0.10848210388E+03  0.12029959646E+03  0.41800000000E+01 0.  1.
         -5    1    3    3    0  502 -0.38365781235E+02 -0.20911581675E+01 -0.12280031192E+02  0.40553392933E+02  0.41800000000E+01 0.  1.
        -11    1    1    2    0    0  0.43724798518E+02 -0.27099259251E+02  0.11793555338E+03  0.12866632275E+03  0.00000000000E+00 0. -1.
         11    1    1    2    0    0 -0.45138597237E+02 -0.40321451790E+01  0.17129368796E+03  0.17718712902E+03  0.00000000000E+00 0.  1.
</event>
<event>
 7    1  0.6833760E-006  0.1399793E+03  0.7561462E-02  0.1213357E+00
         -2   -1    0    0    0  501 -0.00000000000E+00  0.00000000000E+00  0.63840752331E+02  0.63840752331E+02  0.00000000000E+00 0.  1.
          2   -1    0    0  501    0  0.00000000000E+00 -0.00000000000E+00 -0.45768936703E+03  0.45768936703E+03  0.00000000000E+00 0. -1.
         23    2    1    2    0    0  0.50097215344E+02 -0.12252165768E+03 -0.23741009859E+03  0.29922117267E+03  0.12509383546E+03 0.  0.
          5    1    3    3  502    0  0.38664097245E+02 -0.43212870641E+02 -0.11203027708E+02  0.59205108180E+02  0.41800000000E+01 0. -1.
         -5    1    3    3    0  502  0.11433118099E+02 -0.79308787043E+02 -0.22620707089E+03  0.24001606448E+03  0.41800000000E+01 0. -1.
        -11    1    1    2    0    0 -0.52124478086E+01  0.78645448148E+02 -0.36329007236E+02  0.86787515769E+02  0.00000000000E+00 0.  1.
         11    1    1    2    0    0 -0.44884767535E+02  0.43876209536E+02 -0.12010950887E+03  0.13552143092E+03  0.00000000000E+00 0. -1.
</event>
<event>
 7    1  0.6833760E-006  0.1193617E+03  0.7561462E-02  0.1244154E+00
          1   -1    0    0  501    0  0.00000000000E+00  0.00000000000E+00  0.82837636879E+02  0.82837636879E+02  0.00000000000E+00 0. -1.
         -1   -1    0    0    0  501 -0.00000000000E+00 -0.00000000000E+00 -0.21623833262E+03  0.21623833262E+03  0.00000000000E+00 0.  1.
         23    2    1    2    0    0 -0.66598196552E+02  0.12671809231E+02 -0.10519993241E+03  0.17694770278E+03  0.12509024425E+03 0.  0.
          5    1    3    3  502    0  0.24835101442E+02 -0.31748095252E+02 -0.28724233636E+02  0.49671700331E+02  0.41800000000E+01 0. -1.
         -5    1    3    3    0  502 -0.91433297994E+02  0.44419904483E+02 -0.76475698771E+02  0.12727600245E+03  0.41800000000E+01 0. -1.
        -11    1    1    2    0    0  0.63155431436E+01  0.24726408062E+02 -0.42676999913E+02  0.49725322145E+02  0.00000000000E+00 0.  1.
         11    1    1    2    0    0  0.60282653408E+02 -0.37398217293E+02  0.14476236575E+02  0.72402944581E+02  0.00000000000E+00 0. -1.
</event>
<event>
 6    1  0.6833760E-006  0.1768963E+03  0.7561462E-02  0.1170841E+00
         -1   -1    0    0    0  501 -0.00000000000E+00  0.00000000000E+00  0.87709172332E+02  0.87709172332E+02  0.00000000000E+00 0.  1.
          1   -1    0    0  501    0  0.00000000000E+00 -0.00000000000E+00 -0.42796137824E+03  0.42796137824E+03  0.00000000000E+00 0. -1.
          5    1    1    2  502    0 -0.42235112377E+02  0.80439022650E+02 -0.45726492623E+02  0.10179698232E+03  0.41800000000E+01 0. -1.
         -5    1    1    2    0  502  0.12307347978E+03  0.21138050162E+02 -0.81708286887E+02  0.14929037188E+03  0.41800000000E+01 0.  1.
        -11    1    1    2    0    0 -0.47615406892E+02 -0.91554820558E+02 -0.20424981465E+03  0.22883946103E+03  0.00000000000E+00 0.  1.
         11    1    1    2    0    0 -0.33222960509E+02 -0.10022252255E+02 -0.85676117532E+01  0.35743735345E+02  0.00000000000E+00 0. -1.
</event>
<event>
 7    1  0.6833760E-006  0.1235087E+03  0.7561462E-02  0.1237418E+00
          4   -1    0    0  501    0  0.00000000000E+00  0.00000000000E+00  0.13058074653E+03  0.13058074653E+03  0.00000000000E+00 0. -1.
         -4   -1    0    0    0  501 -0.00000000000E+00 -0.00000000000E+00 -0.13210516256E+03  0.13210516256E+03  0.00000000000E+00 0.  1.
         23    2    1    2    0    0 -0.53022398536E+02 -0.42702643052E+02 -0.28943115415E+02  0.14533031383E+03  0.12509318814E+03 0.  0.
          5    1    3    3  502    0 -0.24980406144E+02  0.39173466986E+02  0.13894166191E+02  0.48673416368E+02  0.41800000000E+01 0. -1.
         -5    1    3    3    0  502 -0.28041992392E+02 -0.81876110037E+02 -0.42837281606E+02  0.96656897465E+02  0.41800000000E+01 0. -1.
        -11    1    1    2    0    0  0.38558446370E+01  0.61104353737E+02  0.19552597506E+02  0.64272184128E+02  0.00000000000E+00 0. -1.
         11    1    1    2    0    0  0.49166553899E+02 -0.18401710685E+02  0.78661018851E+01  0.53083411131E+02  0.00000000000E+00 0.  1.
</event>
<event>
 7    1  0.6833760E-006  0.1061260E+03  0.7561462E-02  0.1267917E+00
          2   -1    0    0  501    0  0.00000000000E+00  0.00000000000E+00  0.19954188986E+03  0.19954188986E+03  0.00000000000E+00 0. -1.
         -2   -1    0    0    0  501 -0.00000000000E+00 -0.00000000000E+00 -0.11294933874E+03  0.11294933874E+03  0.00000000000E+00 0.  1.
         23    2    1    2    0    0  0.15349025415E+02 -0.16065816684E+02 -0.58378360169E+02  0.13982302168E+03  0.12509492958E+03 0.  0.
          5    1    3    3  502    0  0.33973546554E+02  0.47640702485E+02 -0.15437243092E+02  0.60659865422E+02  0.41800000000E+01 0. -1.
         -5    1    3    3    0  502 -0.18624521139E+02 -0.63706519170E+02 -0.42941117076E+02  0.79163156254E+02  0.41800000000E+01 0. -1.
        -11    1    1    2    0    0 -0.29880682233E+02 -0.27837718854E+02  0.10062311609E+03  0.10859468336E+03  0.00000000000E+00 0. -1.
         11    1    1    2    0    0  0.14531656818E+02  0.43903535538E+02  0.44347795198E+02  0.64073523561E+02  0.00000000000E+00 0.  1.
</event>
<event>
 7    1  0.6833760E-006  0.8135721E+02  0.7561462E-02  0.1325243E+00
         -1   -1    0    0    0  501 -0.00000000000E+00  0.00000000000E+00  0.21456261871E+02  0.21456261871E+02  0.00000000000E+00 0.  1.
          1   -1    0    0  501    0  0.00000000000E+00 -0.00000000000E+00 -0.65456411859E+03  0.65456411859E+03  0.00000000000E+00 0. -1.
         23    2    1    2    0    0  0.45522351569E+02  0.66456101548E+01 -0.32448802559E+03  0.35079435144E+03  0.12509096540E+03 0.  0.
          5    1    3    3  502    0  0.39302538959E+02 -0.16865117674E+02 -0.32324295566E+03  0.32608680217E+03  0.41800000000E+01 0. -1.
         -5    1    3    3    0  502  0.62198126104E+01  0.23510727829E+02 -0.12450699277E+01  0.24707549273E+02  0.41800000000E+01 0. -1.
        -11    1    1    2    0    0 -0.69776000138E+02 -0.10322726367E+02 -0.16377366966E+03  0.17831731197E+03  0.00000000000E+00 0.  1.
         11    1    1    2    0    0  0.24253648569E+02  0.36771162121E+01 -0.14484616148E+03  0.14690871706E+03  0.00000000000E+00 0. -1.
</event>
<event>
 7    1  0.6833760E-006  0.9621517E+02  0.7561462E-02  0.1288462E+00
          1   -1    0    0  501    0  0.00000000000E+00  0.00000000000E+00  0.48453881801E+02  0.48453881801E+02  0.00000000000E+00 0. -1.
         -1   -1    0    0    0  501 -0.00000000000E+00 -0.00000000000E+00 -0.26514173249E+03  0.26514173249E+03  0.00000000000E+00 0.  1.
         23    2    1    2    0    0  0.27705742089E+00 -0.23564690635E+01 -0.17318988877E+03  0.21365473364E+03  0.12509187794E+03 0.  0.
          5    1    3    3  502    0 -0.51896564290E+02 -0.35066091653E+02 -0.97950228501E+02  0.11633831627E+03  0.41800000000E+01 0. -1.
         -5    1    3    3    0  502  0.52173621711E+02  0.32709622589E+02 -0.75239660265E+02  0.97316417367E+02  0.41800000000E+01 0. -1.
        -11    1    1    2    0    0  0.31205335102E+02 -0.11873749556E+02 -0.54299010706E+02  0.63742775519E+02  0.00000000000E+00 0.  1.
         11    1    1    2    0    0 -0.31482392522E+02  0.14230218619E+02  0.10801048780E+02  0.36198105139E+02  0.00000000000E+00 0. -1.
</event>
<event>
 6    1  0.6833760E-006  0.1383838E+03  0.7561462E-02  0.1215520E+00
          1   -1    0    0  501    0  0.00000000000E+00  0.00000000000E+00  0.42131872719E+02  0.42131872719E+02  0.00000000000E+00 0. -1.
         -1   -1    0    0    0  501 -0.00000000000E+00 -0.00000000000E+00 -0.67525749609E+03  0.67525749609E+03  0.00000000000E+00 0.  1.
          5    1    1    2  502    0  0.70970033669E+02 -0.23432430167E+02 -0.45362804149E+02  0.87527600577E+02  0.41800000000E+01 0. -1.
         -5    1    1    2    0  502  0.27964725313E+02 -0.49594703574E+02 -0.28360899482E+03  0.28929776153E+03  0.41800000000E+01 0.  1.
        -11    1    1    2    0    0 -0.36459817751E+02 -0.12821633588E+02 -0.13860770954E+03  0.14389513454E+03  0.00000000000E+00 0. -1.
         11    1    1    2    0    0 -0.62474941230E+02  0.85848767329E+02 -0.16554611486E+03  0.19666887217E+03  0.00000000000E+00 0.  1.
</event>
<event>
 7    1  0.6833760E-006  0.1308851E+03  0.7561462E-02  0.1226148E+00
          1   -1    0    0  501    0  0.00000000000E+00  0.00000000000E+00  0.88667158125E+03  0.88667158125E+03  0.00000000000E+00 0. -1.
         -1   -1    0    0    0  501 -0.00000000000E+00 -0.00000000000E+00 -0.24035044718E+02  0.24035044718E+02  0.00000000000E+00 0.  1.
         23    2    1    2    0    0  0.48268954433E+02  0.62518562581E+02  0.28999649067E+03  0.32555380936E+03  0.12509538585E+03 0.  0.
          5    1    3    3  502    0 -0.92249424074E+01  0.80995291785E+02  0.20946856812E+03  0.22481078774E+03  0.41800000000E+01 0. -1.
         -5    1    3    3    0  502  0.57493896841E+02 -0.18476729203E+02  0.80527922550E+02  0.10074302163E+03  0.41800000000E+01 0. -1.
        -11    1    1    2    0    0 -0.38179742225E+02 -0.85977397547E+02  0.47519638295E+03  0.48441862885E+03  0.00000000000E+00 0.  1.
         11    1    1    2    0    0 -0.10089212208E+02  0.23458834966E+02  0.97443662909E+02  0.10073418775E+03  0.00000000000E+00 0. -1.
</event>
<event>
 7    1  0.6833760E-006  0.1734652E+03  0.7561462E-02  0.1174282E+00
         -2   -1    0    0    0  501 -0.00000000000E+00  0.00000000000E+00  0.12861863440E+04  0.12861863440E+04  0.00000000000E+00 0. -1.
          2   -1    0    0  501    0  0.00000000000E+00 -0.00000000000E+00 -0.25384052846E+02  0.25384052846E+02  0.00000000000E+00 0.  1.
         23    2    1    2    0    0  0.14144930234E+03 -0.10700442293E+02  0.76409225415E+03  0.78715006476E+03  0.12508336022E+03 0.  0.
          5    1    3    3  502    0  0.37336314407E+02  0.48898983088E+02  0.37260216426E+03  0.37767043323E+03  0.41800000000E+01 0.  1.
         -5    1    3    3    0  502  0.10411298793E+03 -0.59599425380E+02  0.39149008989E+03  0.40947963153E+03  0.41800000000E+01 0.  1.
        -11    1    1    2    0    0 -0.10813359807E+03 -0.30394892911E+02  0.28851227080E+03  0.30960629022E+03  0.00000000000E+00 0.  1.
         11    1    1    2    0    0 -0.33315704277E+02  0.41095335204E+02  0.20819776622E+03  0.21481404188E+03  0.00000000000E+00 0. -1.
</event>
<event>
 7    1  0.6833760E-006  0.1026030E+03  0.7561462E-02  0.1274916E+00
          1   -1    0    0  501    0  0.00000000000E+00  0.00000000000E+00  0.13650364652E+02  0.13650364652E+02  0.00000000000E+00 0. -1.
         -1   -1    0    0    0  501 -0.00000000000E+00 -0.00000000000E+00 -0.10136958323E+04  0.10136958323E+04  0.00000000000E+00 0.  1.
         23    2    1    2    0    0  0.12830726023E+02  0.39504692186E+02 -0.61131727434E+03  0.62536566117E+03  0.12509257387E+03 0.  0.
          5    1    3    3  502    0 -0.40466152273E+02  0.27492308843E+02 -0.48749630461E+03  0.48996270872E+03  0.41800000000E+01 0.  1.
         -5    1    3    3    0  502  0.53296878296E+02  0.12012383343E+02 -0.12382096973E+03  0.13540295246E+03  0.41800000000E+01 0.  1.
        -11    1    1    2    0    0 -0.91805214689E+01 -0.70000005602E+02 -0.24283267135E+03  0.25288730501E+03  0.00000000000E+00 0. -1.
         11    1    1    2    0    0 -0.36502045541E+01  0.30495313416E+02 -0.14589552195E+03  0.14909323077E+03  0.00000000000E+00 0.  1.
</event>
<event>
 7    1  0.6833760E-006  0.1075250E+03  0.7561462E-02  0.1265223E+00
         -1   -1    0    0    0  501 -0.00000000000E+00  0.00000000000E+00  0.23494811105E+03  0.23494811105E+03  0.00000000000E+00 0.  1.
          1   -1    0    0  501    0  0.00000000000E+00 -0.00000000000E+00 -0.66647605291E+02  0.66647605291E+02  0.00000000000E+00 0. -1.
         23    2    1    2    0    0 -0.26325681846E+02  0.47637788613E+02  0.14708737419E+03  0.20060683426E+03  0.12508399529E+03 0.  0.
          5    1    3    3  502    0  0.35969243956E+02  0.42788030122E+02  0.21063064446E+02  0.59880941178E+02  0.41800000000E+01 0. -1.
         -5    1    3    3    0  502 -0.62294925802E+02  0.48497584911E+01  0.12602430974E+03  0.14072589308E+03  0.41800000000E+01 0. -1.
        -11    1    1    2    0    0 -0.19361377127E+02 -0.46834312649E+02  0.16199865305E+00  0.50678812230E+02  0.00000000000E+00 0.  1.
         11    1    1    2    0    0  0.45687058973E+02 -0.80347596464E+00  0.21051132919E+02  0.50310069851E+02  0.00000000000E+00 0. -1.
</event>
<event>
 7    1  0.6833760E-006  0.1720156E+03  0.7561462E-02  0.1175762E+00
          2   -1    0    0  501    0  0.00000000000E+00  0.00000000000E+00  0.80971354614E+03  0.80971354614E+03  0.00000000000E+00 0. -1.
         -2   -1    0    0    0  501 -0.00000000000E+00 -0.00000000000E+00 -0.39182323024E+02  0.39182323024E+02  0.00000000000E+00 0.  1.
         23    2    1    2    0    0 -0.12702648616E+03  0.55718853238E+02  0.35196962261E+03  0.39845985022E+03  0.12508924097E+03 0.  0.
          5    1    3    3  502    0 -0.13798325093E+03  0.99893750219E+01  0.28076884861E+03  0.31303000479E+03  0.41800000000E+01 0. -1.
         -5    1    3    3    0  502  0.10956764765E+02  0.45729478216E+02  0.71200773999E+02  0.85429845430E+02  0.41800000000E+01 0. -1.
        -11    1    1    2    0    0  0.55927409966E+02 -0.66073456348E+02  0.15811585878E+03  0.18026148124E+03  0.00000000000E+00 0.  1.
         11    1    1    2    0    0  0.71099076198E+02  0.10354603110E+02  0.26044574173E+03  0.27017453771E+03  0.00000000000E+00 0. -1.
</event>
<event>
 7    1  0.6833760E-006  0.2064156E+03  0.7561462E-02  0.1144436E+00
          1   -1    0    0  501    0  0.00000000000E+00  0.00000000000E+00  0.71308964953E+03  0.71308964953E+03  0.00000000000E+00 0. -1.
         -1   -1    0    0    0  501 -0.00000000000E+00 -0.00000000000E+00 -0.68148761681E+02  0.68148761681E+02  0.00000000000E+00 0.  1.
         23    2    1    2    0    0  0.16889251752E+03  0.75306570922E+02  0.24744080675E+03  0.33327280285E+03  0.12509215075E+03 0.  0.
          5    1    3    3  502    0  0.82220974246E+02 -0.28573416052E+02  0.11050438844E+03  0.14073173408E+03  0.41800000000E+01 0.  1.
         -5    1    3    3    0  502  0.86671543277E+02  0.10387998697E+03  0.13693641830E+03  0.19254106878E+03  0.41800000000E+01 0.  1.
        -11    1    1    2    0    0 -0.26397690757E+02 -0.31833121862E+02  0.17760351638E+03  0.18235458523E+03  0.00000000000E+00 0. -1.
         11    1    1    2    0    0 -0.14249482677E+03 -0.43473449060E+02  0.21989656472E+03  0.26561102312E+03  0.00000000000E+00 0.  1.
</event>
<event>
 7    1  0.6833760E-006  0.1220182E+03  0.7561462E-02  0.1239804E+00
          1   -1    0    0  501    0  0.00000000000E+00  0.00000000000E+00  0.14153311400E+03  0.14153311400E+03  0.00000000000E+00 0. -1.
         -1   -1    0    0    0  501 -0.00000000000E+00 -0.00000000000E+00 -0.25325329239E+03  0.25325329239E+03  0.00000000000E+00 0.  1.
         23    2    1    2    0    0  0.41837814768E+02  0.39104700292E+02 -0.20799281470E+03  0.24937384407E+03  0.12508686106E+03 0.  0.
          5    1    3    3  502    0 -0.36060832962E+02  0.45633168244E+02 -0.74323221781E+02  0.94467896207E+02  0.41800000000E+01 0. -1.
         -5    1    3    3    0  502  0.77898647729E+02 -0.65284679516E+01 -0.13366959292E+03  0.15490594786E+03  0.41800000000E+01 0. -1.
        -11    1    1    2    0    0 -0.37794619193E+02  0.23631953317E+02  0.52167342104E+02  0.68617301314E+02  0.00000000000E+00 0. -1.
         11    1    1    2    0    0 -0.40431955742E+01 -0.62736653609E+02  0.44105294205E+02  0.76795261009E+02  0.00000000000E+00 0.  1.
</event>
<event>
 7    1  0.6833760E-006  0.1180472E+03  0.7561462E-02  0.1246354E+00
         -1   -1    0    0    0  501 -0.00000000000E+00  0.00000000000E+00  0.51046386758E+03  0.51046386758E+03  0.00000000000E+00 0.  1.
          1   -1    0    0  501    0  0.00000000000E+00 -0.00000000000E+00 -0.34339521060E+02  0.34339521060E+02  0.00000000000E+00 0. -1.
         23    2    1    2    0    0  0.31351205284E+02 -0.68112380874E+02  0.27469168223E+03  0.31100577774E+03  0.12508748538E+03 0.  0.
          5    1    3    3  502    0 -0.13140358987E+01  0.21534624834E+02  0.19919648885E+01  0.22065971114E+02  0.41800000000E+01 0. -1.
         -5    1    3    3    0  502  0.32665241183E+02 -0.89647005708E+02  0.27269971734E+03  0.28893980663E+03  0.41800000000E+01 0. -1.
        -11    1    1    2    0    0 -0.62538714719E+02  0.29983209146E+02  0.12174602269E+03  0.14011487327E+03  0.00000000000E+00 0.  1.
         11    1    1    2    0    0  0.31187509435E+02  0.38129171728E+02  0.79686641600E+02  0.93682737635E+02  0.00000000000E+00 0. -1.
</event>
<event>
 7    1  0.6833760E-006  0.9971656E+02  0.7561462E-02  0.1280893E+00
         -2   -1    0    0    0  501 -0.00000000000E+00  0.00000000000E+00  0.23075032956E+02  0.23075032956E+02  0.00000000000E+00 0.  1.
          2   -1    0    0  501    0  0.00000000000E+00 -0.00000000000E+00 -0.54952138247E+03  0.54952138247E+03  0.00000000000E+00 0. -1.
         23    2    1    2    0    0 -0.70595836605E+01  0.21496918137E+02 -0.25940888296E+03  0.28888632913E+03  0.12510150834E+03 0.  0.
          5    1    3    3  502    0  0.37436836069E+02 -0.30404426689E+02 -0.16692009013E+03  0.17379797106E+03  0.41800000000E+01 0.  1.
         -5    1    3    3    0  502 -0.44496419730E+02  0.51901344826E+02 -0.92488792834E+02  0.11508835807E+03  0.41800000000E+01 0.  1.
        -11    1    1    2    0    0  0.29793932929E+02 -0.42284546345E+02 -0.22896741349E+03  0.23473759337E+03  0.00000000000E+00 0. -1.
         11    1    1    2    0    0 -0.22734349268E+02  0.20787628209E+02 -0.38070053059E+02  0.48972492923E+02  0.00000000000E+00 0.  1.
</event>
<event>
 7    1  0.6833760E-006  0.1208210E+03  0.7561462E-02  0.1241749E+00
         -2   -1    0    0    0  501 -0.00000000000E+00  0.00000000000E+00  0.68533470431E+03  0.68533470431E+03  0.00000000000E+00 0.  1.
          2   -1    0    0  501    0  0.00000000000E+00 -0.00000000000E+00 -0.26791389670E+02  0.26791389670E+02  0.00000000000E+00 0. -1.
         23    2    1    2    0    0  0.78785423374E+01  0.69212343119E+02  0.47450911971E+03  0.49563970918E+03  0.12508955496E+03 0.  0.
          5    1    3    3  502    0 -0.16415530507E+02  0.95797557745E+02  0.41243697282E+03  0.42375508335E+03  0.41800000000E+01 0.  1.
         -5    1    3    3    0  502  0.24294072844E+02 -0.26585214626E+02  0.62072146888E+02  0.71884625834E+02  0.41800000000E+01 0.  1.
        -11    1    1    2    0    0  0.36413886896E+02 -0.18744196627E+02  0.38507567855E+02  0.56215201220E+02  0.00000000000E+00 0.  1.
         11    1    1    2    0    0 -0.44292429233E+02 -0.50468146492E+02  0.14552662707E+03  0.16027118358E+03  0.00000000000E+00 0. -1.
</event>
<event>
 7    1  0.6833760E-006  0.1160547E+03  0.7561462E-02  0.1249751E+00
          1   -1    0    0  501    0  0.00000000000E+00  0.00000000000E+00  0.24373893320E+02  0.24373893320E+02  0.00000000000E+00 0. -1.
         -1   -1    0    0    0  501 -0.00000000000E+00 -0.00000000000E+00 -0.85773322336E+03  0.85773322336E+03  0.00000000000E+00 0.  1.
         23    2    1    2    0    0 -0.29450128998E+02  0.70976351066E+02 -0.63665067780E+03  0.65336118090E+03  0.12510713270E+03 0.  0.
          5    1    3    3  502    0 -0.76993599924E+02  0.31180559916E+02 -0.40967321838E+03  0.41803093188E+03  0.41800000000E+01 0.  1.
         -5    1    3    3    0  502  0.47543470926E+02  0.39795791151E+02 -0.22697745942E+03  0.23533024902E+03  0.41800000000E+01 0.  1.
        -11    1    1    2    0    0  0.31088977211E+01 -0.56793383952E+02 -0.18966649094E+03  0.19801144283E+03  0.00000000000E+00 0.  1.
         11    1    1    2    0    0  0.26341231277E+02 -0.14182967114E+02 -0.70421613024E+01  0.30734492954E+02  0.00000000000E+00 0. -1.
</event>
<event>
 7    1  0.6833760E-006  0.1016141E+03  0.7561462E-02  0.1276938E+00
         -1   -1    0    0    0  501 -0.00000000000E+00  0.00000000000E+00  0.10041395976E+03  0.10041395976E+03  0.00000000000E+00 0.  1.
          1   -1    0    0  501    0  0.00000000000E+00 -0.00000000000E+00 -0.14447313484E+03  0.14447313484E+03  0.00000000000E+00 0. -1.
         23    2    1    2    0    0 -0.36068188956E+02 -0.35035907772E+02 -0.66183963709E+01  0.13498441259E+03  0.12509420204E+03 0.  0.
          5    1    3    3  502    0  0.23020611843E+02 -0.39104907170E+02 -0.45191896792E+02  0.64178830389E+02  0.41800000000E+01 0.  1.
         -5    1    3    3    0  502 -0.59088800799E+02  0.40689993978E+01  0.38573500421E+02  0.70805582200E+02  0.41800000000E+01 0.  1.
        -11    1    1    2    0    0  0.50568507325E+02  0.54280845609E+02 -0.42188582035E+02  0.85343192975E+02  0.00000000000E+00 0.  1.
         11    1    1    2    0    0 -0.14500318369E+02 -0.19244937836E+02  0.47478033336E+01  0.24559489034E+02  0.00000000000E+00 0. -1.
</event>
<event>
 7    1  0.6833760E-006  0.9199386E+02  0.7561462E-02  0.1298094E+00
         -1   -1    0    0    0  501 -0.00000000000E+00  0.00000000000E+00  0.13059708571E+04  0.13059708571E+04  0.00000000000E+00 0.  1.
          1   -1    0    0  501    0  0.00000000000E+00 -0.00000000000E+00 -0.11026832372E+02  0.11026832372E+02  0.00000000000E+00 0. -1.
         23    2    1    2    0    0 -0.25073880451E+02  0.25439846254E+02  0.94867756429E+03  0.95755439681E+03  0.12508163979E+03 0.  0.
          5    1    3    3  502    0 -0.44129204920E+02 -0.22902485803E+02  0.17096502305E+03  0.17809666501E+03  0.41800000000E+01 0.  1.
         -5    1    3    3    0  502  0.19055324469E+02  0.48342332057E+02  0.77771254124E+03  0.77945773180E+03  0.41800000000E+01 0.  1.
        -11    1    1    2    0    0  0.48305592542E+02 -0.11023011274E+01  0.28910464673E+03  0.29311455457E+03  0.00000000000E+00 0. -1.
         11    1    1    2    0    0 -0.23231712091E+02 -0.24337545127E+02  0.57161813667E+02  0.66328738049E+02  0.00000000000E+00 0.  1.
</event>
<event>
 7    1  0.6833760E-006  0.1286595E+03  0.7561462E-02  0.1229458E+00
          2   -1    0    0  501    0  0.00000000000E+00  0.00000000000E+00  0.54637306914E+03  0.54637306914E+03  0.00000000000E+00 0.  1.
         -2   -1    0    0    0  501 -0.00000000000E+00 -0.00000000000E+00 -0.32741740954E+02  0.32741740954E+02  0.00000000000E+00 0. -1.
         23    2    1    2    0    0  0.53220196960E+02  0.53430966011E+02  0.24403198799E+03  0.28440536993E+03  0.12509015065E+03 0.  0.
          5    1    3    3  502    0  0.61865382380E+02 -0.19944025061E+02  0.71763211602E+02  0.96915017475E+02  0.41800000000E+01 0.  1.
         -5    1    3    3    0  502 -0.86451854200E+01  0.73374991072E+02  0.17226877638E+03  0.18749035245E+03  0.41800000000E+01 0.  1.
        -11    1    1    2    0    0 -0.77201458869E+02 -0.25352341539E+02  0.20099150845E+03  0.21679574014E+03  0.00000000000E+00 0.  1.
         11    1    1    2    0    0  0.23981261909E+02 -0.28078624472E+02  0.68607831756E+02  0.77913700036E+02  0.00000000000E+00 0. -1.
</event>
<event>
 7    1  0.6833760E-006  0.7584449E+02  0.7561462E-02  0.1341276E+00
          1   -1    0    0  501    0  0.00000000000E+00  0.00000000000E+00  0.22635787187E+03  0.22635787187E+03  0.00000000000E+00 0. -1.
         -1   -1    0    0    0  501 -0.00000000000E+00 -0.00000000000E+00 -0.62813341394E+02  0.62813341394E+02  0.00000000000E+00 0.  1.
         23    2    1    2    0    0 -0.30861192314E+02  0.89994050946E+01  0.21379426896E+02  0.11763652641E+03  0.11112096998E+03 0.  0.
          5    1    3    3  502    0 -0.13730122969E+02  0.42306036058E+02  0.52375799312E+02  0.68840494748E+02  0.41800000000E+01 0. -1.
         -5    1    3    3    0  502 -0.17131069345E+02 -0.33306630963E+02 -0.30996372416E+02  0.48796031662E+02  0.41800000000E+01 0.  1.
        -11    1    1    2    0    0 -0.40840030171E+00 -0.31058249842E+02  0.80783722821E+01  0.32094263861E+02  0.00000000000E+00 0.  1.
         11    1    1    2    0    0  0.31269592616E+02  0.22058844748E+02  0.13408673130E+03  0.13944042300E+03  0.00000000000E+00 0. -1.
</event>
<event>
 7    1  0.6833760E-006  0.9744210E+02  0.7561462E-02  0.1285769E+00
         -3   -1    0    0    0  501 -0.00000000000E+00  0.00000000000E+00  0.51916895133E+02  0.51916895133E+02  0.00000000000E+00 0.  1.
          3   -1    0    0  501    0  0.00000000000E+00 -0.00000000000E+00 -0.27188062715E+03  0.27188062715E+03  0.00000000000E+00 0. -1.
         23    2    1    2    0    0 -0.45649664108E+02  0.56103402141E+01 -0.91305822177E+02  0.16155493016E+03  0.12509146471E+03 0.  0.
          5    1    3    3  502    0  0.13364940034E+01 -0.54615154318E+02 -0.52039816319E+02  0.75565972368E+02  0.41800000000E+01 0. -1.
         -5    1    3    3    0  502 -0.46986158112E+02  0.60225494532E+02 -0.39266005858E+02  0.85988957790E+02  0.41800000000E+01 0. -1.
        -11    1    1    2    0    0  0.39576697898E+02  0.14834121875E+02 -0.13378929009E+03  0.14030659404E+03  0.00000000000E+00 0. -1.
         11    1    1    2    0    0  0.60729662104E+01 -0.20444462089E+02  0.51313802507E+01  0.21935998085E+02  0.00000000000E+00 0.  1.
</event>
<event>
 7    1  0.6833760E-006  0.1660861E+03  0.7561462E-02  0.1181992E+00
          1   -1    0    0  501    0  0.00000000000E+00  0.00000000000E+00  0.14584886631E+04  0.14584886631E+04  0.00000000000E+00 0. -1.
         -1   -1    0    0    0  501 -0.00000000000E+00 -0.00000000000E+00 -0.32165242553E+02  0.32165242553E+02  0.00000000000E+00 0.  1.
         23    2    1    2    0    0 -0.26079104868E+02  0.15011123508E+03  0.36749797636E+03  0.41703520301E+03  0.12510034098E+03 0.  0.
          5    1    3    3  502    0  0.20640707162E+01  0.57250861896E+02  0.28153467413E+03  0.28733459017E+03  0.41800000000E+01 0.  1.
         -5    1    3    3    0  502 -0.28143175584E+02  0.92860373181E+02  0.85963302238E+02  0.12970061284E+03  0.41800000000E+01 0.  1.
        -11    1    1    2    0    0  0.60404926713E+02 -0.10119124227E+03  0.70104271880E+03  0.71087925575E+03  0.00000000000E+00 0. -1.
         11    1    1    2    0    0 -0.34325821844E+02 -0.48919992811E+02  0.35778272538E+03  0.36273944688E+03  0.00000000000E+00 0.  1.
</event>
<event>
 7    1  0.6833760E-006  0.2157897E+03  0.7561462E-02  0.1137061E+00
          1   -1    0    0  501    0  0.00000000000E+00  0.00000000000E+00  0.72183203010E+03  0.72183203010E+03  0.00000000000E+00 0. -1.
         -1   -1    0    0    0  501 -0.00000000000E+00 -0.00000000000E+00 -0.73989581955E+02  0.73989581955E+02  0.00000000000E+00 0.  1.
         23    2    1    2    0    0 -0.21277677618E+02  0.19775193862E+03  0.26053291563E+03  0.35083176614E+03  0.12508780601E+03 0.  0.
          5    1    3    3  502    0 -0.53919198185E+02  0.18179355698E+03  0.17608444057E+03  0.25880374786E+03  0.41800000000E+01 0.  1.
         -5    1    3    3    0  502  0.32641520567E+02  0.15958381642E+02  0.84448475060E+02  0.92028018285E+02  0.41800000000E+01 0.  1.
        -11    1    1    2    0    0  0.38241693809E+02 -0.14241792043E+03  0.19702179024E+03  0.24609526008E+03  0.00000000000E+00 0.  1.
         11    1    1    2    0    0 -0.16964016191E+02 -0.55334018193E+02  0.19028774228E+03  0.19889458584E+03  0.00000000000E+00 0. -1.
</event>
<event>
 7    1  0.6833760E-006  0.1962077E+03  0.7561462E-02  0.1152979E+00
         -2   -1    0    0    0  501 -0.00000000000E+00  0.00000000000E+00  0.29717722710E+02  0.29717722710E+02  0.00000000000E+00 0. -1.
          2   -1    0    0  501    0  0.00000000000E+00 -0.00000000000E+00 -0.16452643076E+04  0.16452643076E+04  0.00000000000E+00 0.  1.
         23    2    1    2    0    0  0.12582368318E+03 -0.13410391975E+03 -0.64072203655E+03  0.67822383523E+03  0.12508949604E+03 0.  0.
          5    1    3    3  502    0  0.13400348584E+03 -0.12055455015E+03 -0.42216429653E+03  0.45905391780E+03  0.41800000000E+01 0. -1.
         -5    1    3    3    0  502 -0.81798026572E+01 -0.13549369602E+02 -0.21855774001E+03  0.21916991744E+03  0.41800000000E+01 0. -1.
        -11    1    1    2    0    0 -0.11255348001E+03  0.14130159954E+03 -0.95447627004E+03  0.97142131846E+03  0.00000000000E+00 0.  1.
         11    1    1    2    0    0 -0.13270203172E+02 -0.71976797904E+01 -0.20348278292E+02  0.25336876604E+02  0.00000000000E+00 0. -1.
</event>
<event>
 7    1  0.6833760E-006  0.1509096E+03  0.7561462E-02  0.1199360E+00
         -1   -1    0    0    0  501 -0.00000000000E+00  0.00000000000E+00  0.16414304349E+03  0.16414304349E+03  0.00000000000E+00 0.  1.
          1   -1    0    0  501    0  0.00000000000E+00 -0.00000000000E+00 -0.16578097833E+03  0.16578097833E+03  0.00000000000E+00 0. -1.
         23    2    1    2    0    0 -0.11452277345E+03  0.24094396202E+02  0.36901528300E+02  0.17522971516E+03  0.12509086584E+03 0.  0.
          5    1    3    3  502    0 -0.14021451364E+03  0.76966084427E+01  0.31863390871E+02  0.14405587699E+03  0.41800000000E+01 0.  1.
         -5    1    3    3    0  502  0.25691740192E+02  0.16397787759E+02  0.50381374296E+01  0.31173838170E+02  0.41800000000E+01 0.  1.
        -11    1    1    2    0    0  0.11010634973E+03 -0.41975278415E+01 -0.59695560186E+02  0.12531794523E+03  0.00000000000E+00 0. -1.
         11    1    1    2    0    0  0.44164237152E+01 -0.19896868360E+02  0.21156097049E+02  0.29376361438E+02  0.00000000000E+00 0.  1.
</event>
<event>
 7    1  0.6833760E-006  0.1055776E+03  0.7561462E-02  0.1268986E+00
          2   -1    0    0  501    0  0.00000000000E+00  0.00000000000E+00  0.23388789170E+03  0.23388789170E+03  0.00000000000E+00 0. -1.
         -2   -1    0    0    0  501 -0.00000000000E+00 -0.00000000000E+00 -0.56658730663E+02  0.56658730663E+02  0.00000000000E+00 0.  1.
         23    2    1    2    0    0 -0.24337200880E+01  0.25340180150E+02  0.68432558445E+02  0.14483970069E+03  0.12508987216E+03 0.  0.
          5    1    3    3  502    0  0.61140328089E+02  0.13495598477E+02  0.30808359304E+02  0.69906353789E+02  0.41800000000E+01 0. -1.
         -5    1    3    3    0  502 -0.63574048177E+02  0.11844581673E+02  0.37624199141E+02  0.74933346900E+02  0.41800000000E+01 0. -1.
        -11    1    1    2    0    0 -0.20519812665E+02  0.22553194189E+02  0.76055179272E+01  0.31425358914E+02  0.00000000000E+00 0.  1.
         11    1    1    2    0    0  0.22953532753E+02 -0.47893374338E+02  0.10119108467E+03  0.11428156276E+03  0.00000000000E+00 0. -1.
</event>
<event>
 6    1  0.6833760E-006  0.7959842E+02  0.7561462E-02  0.1330195E+00
         -1   -1    0    0    0  501 -0.00000000000E+00  0.00000000000E+00  0.91053679639E+03  0.91053679639E+03  0.00000000000E+00 0.  1.
          1   -1    0    0  501    0  0.00000000000E+00 -0.00000000000E+00 -0.20052939277E+02  0.20052939277E+02  0.00000000000E+00 0. -1.
          5    1    1    2  502    0 -0.36370621781E+02  0.18464732317E+02  0.71991974960E+03  0.72108646273E+03  0.41800000000E+01 0. -1.
         -5    1    1    2    0  502  0.29089322431E+02 -0.29659136972E+01  0.35347491705E+02  0.46064117200E+02  0.41800000000E+01 0.  1.
        -11    1    1    2    0    0 -0.52615936618E+01  0.35627583138E+02  0.34905027791E+02  0.50153464618E+02  0.00000000000E+00 0.  1.
         11    1    1    2    0    0  0.12542893012E+02 -0.51126401758E+02  0.10031158803E+03  0.11328569113E+03  0.00000000000E+00 0. -1.
</event>
<event>
 7    1  0.6833760E-006  0.1638785E+03  0.7561462E-02  0.1184386E+00
         -3   -1    0    0    0  501 -0.00000000000E+00  0.00000000000E+00  0.34852521149E+03  0.34852521149E+03  0.00000000000E+00 0. -1.
          3   -1    0    0  501    0  0.00000000000E+00 -0.00000000000E+00 -0.88778407340E+02  0.88778407340E+02  0.00000000000E+00 0.  1.
         23    2    1    2    0    0  0.62493053620E+02  0.10960191284E+03  0.20765653248E+03  0.27328834042E+03  0.12508925004E+03 0.  0.
          5    1    3    3  502    0  0.78722873932E+02  0.18934523193E+02  0.67366800305E+02  0.10541140940E+03  0.41800000000E+01 0. -1.
         -5    1    3    3    0  502 -0.16229820312E+02  0.90667389648E+02  0.14028973217E+03  0.16787693101E+03  0.41800000000E+01 0. -1.
        -11    1    1    2    0    0 -0.52425682224E+01 -0.95331620658E+02  0.22882554661E+02  0.98179497486E+02  0.00000000000E+00 0.  1.
         11    1    1    2    0    0 -0.57250485398E+02 -0.14270292183E+02  0.29207717004E+02  0.65835780924E+02  0.00000000000E+00 0. -1.
</event>
<event>
 7    1  0.6833760E-006  0.1141074E+03  0.7561462E-02  0.1253147E+00
          2   -1    0    0  501    0  0.00000000000E+00  0.00000000000E+00  0.83472258779E+02  0.83472258779E+02  0.00000000000E+00 0. -1.
         -2   -1    0    0    0  501 -0.00000000000E+00 -0.00000000000E+00 -0.20382240791E+03  0.20382240791E+03  0.00000000000E+00 0.  1.
         23    2    1    2    0    0 -0.36082028575E+02  0.33161697946E+01 -0.13411241767E+03  0.18694019789E+03  0.12509031634E+03 0.  0.
          5    1    3    3  502    0 -0.38426324920E+02  0.61057395636E+02 -0.72473734843E+02  0.10234501771E+03  0.41800000000E+01 0. -1.
         -5    1    3    3    0  502  0.23442963450E+01 -0.57741225842E+02 -0.61638682831E+02  0.84595180172E+02  0.41800000000E+01 0. -1.
        -11    1    1    2    0    0  0.64929209020E+02  0.10922169052E+02  0.17061264940E+02  0.68016047534E+02  0.00000000000E+00 0. -1.
         11    1    1    2    0    0 -0.28847180445E+02 -0.14238338847E+02 -0.32989963921E+01  0.32338421265E+02  0.00000000000E+00 0.  1.
</event>
<event>
 7    1  0.6833760E-006  0.1937070E+03  0.7561462E-02  0.1155160E+00
         -2   -1    0    0    0  501 -0.00000000000E+00  0.00000000000E+00  0.55027149144E+03  0.55027149144E+03  0.00000000000E+00 0.  1.
          2   -1    0    0  501    0  0.00000000000E+00 -0.00000000000E+00 -0.17080723163E+03  0.17080723163E+03  0.00000000000E+00 0. -1.
         23    2    1    2    0    0 -0.18665152377E+03  0.80719258066E+01  0.44856893564E+03  0.50176232093E+03  0.12508952542E+03 0.  0.
          5    1    3    3  502    0 -0.78937199579E+02 -0.27185927970E+02  0.78384892120E+02  0.11459415286E+03  0.41800000000E+01 0.  1.
         -5    1    3    3    0  502 -0.10771432419E+03  0.35257853777E+02  0.37018404352E+03  0.38716816807E+03  0.41800000000E+01 0.  1.
        -11    1    1    2    0    0  0.96584781116E+02 -0.22554290883E+02 -0.80025007715E+02  0.12744142906E+03  0.00000000000E+00 0. -1.
         11    1    1    2    0    0  0.90066742655E+02  0.14482365076E+02  0.10920331885E+02  0.91874973084E+02  0.00000000000E+00 0.  1.
</event>
<event>
 7    1  0.6833760E-006  0.1188220E+03  0.7561462E-02  0.1245053E+00
          1   -1    0    0  501    0  0.00000000000E+00  0.00000000000E+00  0.93905283932E+02  0.93905283932E+02  0.00000000000E+00 0. -1.
         -1   -1    0    0    0  501 -0.00000000000E+00 -0.00000000000E+00 -0.21168828420E+03  0.21168828420E+03  0.00000000000E+00 0.  1.
         23    2    1    2    0    0  0.16300567871E+02 -0.89934978556E+02 -0.51508389785E+02  0.16326058918E+03  0.12508755685E+03 0.  0.
          5    1    3    3  502    0 -0.24881574507E+02 -0.22329815358E+02 -0.73619929529E+02  0.80963447479E+02  0.41800000000E+01 0.  1.
         -5    1    3    3    0  502  0.41182142378E+02 -0.67605163198E+02  0.22111539744E+02  0.82297141698E+02  0.41800000000E+01 0.  1.
        -11    1    1    2    0    0  0.36314371324E+01 -0.16244905903E+02 -0.16307905036E+02  0.23303048515E+02  0.00000000000E+00 0.  1.
         11    1    1    2    0    0 -0.19932005003E+02  0.10617988446E+03 -0.49966705449E+02  0.11902993044E+03  0.00000000000E+00 0. -1.
</event>
<event>
 7    1  0.6833760E-006  0.2369001E+03  0.7561462E-02  0.1121875E+00
          1   -1    0    0  501    0  0.00000000000E+00  0.00000000000E+00  0.13355984337E+04  0.13355984337E+04  0.00000000000E+00 0. -1.
         -1   -1    0    0    0  501 -0.00000000000E+00 -0.00000000000E+00 -0.52609147982E+02  0.52609147982E+02  0.00000000000E+00 0.  1.
         23    2    1    2    0    0 -0.14944134410E+02  0.22818105223E+03  0.44361895745E+03  0.51452371652E+03  0.12508779196E+03 0.  0.
          5    1    3    3  502    0  0.13385962582E+02  0.13915672320E+03  0.14438898591E+03  0.20102096721E+03  0.41800000000E+01 0. -1.
         -5    1    3    3    0  502 -0.28330096992E+02  0.89024329035E+02  0.29922997155E+03  0.31350274931E+03  0.41800000000E+01 0. -1.
        -11    1    1    2    0    0 -0.64462264027E+01 -0.21541536544E+03  0.78169552406E+03  0.81085955987E+03  0.00000000000E+00 0.  1.
         11    1    1    2    0    0  0.21390360813E+02 -0.12765686797E+02  0.57674804209E+02  0.62824305294E+02  0.00000000000E+00 0. -1.
</event>
<event>
 7    1  0.6833760E-006  0.2269020E+03  0.7561462E-02  0.1128839E+00
         -2   -1    0    0    0  501 -0.00000000000E+00  0.00000000000E+00  0.13990897133E+03  0.13990897133E+03  0.00000000000E+00 0.  1.
          2   -1    0    0  501    0  0.00000000000E+00 -0.00000000000E+00 -0.39617608188E+03  0.39617608188E+03  0.00000000000E+00 0. -1.
         23    2    1    2    0    0 -0.17674854836E+03  0.99419284174E+02 -0.77666593086E+02  0.25060524611E+03  0.12508655517E+03 0.  0.
          5    1    3    3  502    0 -0.18237261882E+03  0.58292512161E+02 -0.82664751442E+02  0.20858744594E+03  0.41800000000E+01 0. -1.
         -5    1    3    3    0  502  0.56240704656E+01  0.41126772014E+02  0.49981583558E+01  0.42017800178E+02  0.41800000000E+01 0. -1.
        -11    1    1    2    0    0  0.46221409690E+02  0.13319738584E+02 -0.23552460865E+02  0.53558870063E+02  0.00000000000E+00 0.  1.
         11    1    1    2    0    0  0.13052713867E+03 -0.11273902276E+03 -0.15504805660E+03  0.23192093704E+03  0.00000000000E+00 0. -1.
</event>
<event>
 7    1  0.1927757E-005  0.1711661E+03  0.7561462E-02  0.1176637E+00
         -1   -1    0    0    0  501 -0.00000000000E+00  0.00000000000E+00  0.75371585966E+02  0.75371585966E+02  0.00000000000E+00 0.  1.
          1   -1    0    0  501    0  0.00000000000E+00 -0.00000000000E+00 -0.40878794749E+03  0.40878794749E+03  0.00000000000E+00 0. -1.
         23    2    1    2    0    0  0.12687582069E+03  0.44592113044E+02 -0.14137031106E+03  0.23177319270E+03  0.12508923848E+03 0.  0.
          5    1    3    3  502    0  0.76143986097E+02 -0.38474285859E+02 -0.77057009218E+02  0.11503665660E+03  0.41800000000E+01 0.  1.
         -5    1    3    3    0  502  0.50731834597E+02  0.83066398903E+02 -0.64313301838E+02  0.11673653610E+03  0.41800000000E+01 0.  1.
        -11    1    1    2    0    0 -0.61694161952E+02 -0.66518247418E+02 -0.80206450119E+02  0.12109467990E+03  0.00000000000E+00 0.  1.
         11    1    1    2    0    0 -0.65181658743E+02  0.21926134374E+02 -0.11183960034E+03  0.13129166086E+03  0.00000000000E+00 0. -1.
</event>
<event>
 7    1  0.6833760E-006  0.1041149E+03  0.7561462E-02  0.1271873E+00
          2   -1    0    0  501    0  0.00000000000E+00  0.00000000000E+00  0.24450658979E+03  0.24450658979E+03  0.00000000000E+00 0. -1.
         -2   -1    0    0    0  501 -0.00000000000E+00 -0.00000000000E+00 -0.16626481065E+03  0.16626481065E+03  0.00000000000E+00 0.  1.
         23    2    1    2    0    0 -0.54561739782E+02 -0.61830806776E+01 -0.12054992067E+03  0.18397669791E+03  0.12767117164E+03 0.  0.
          5    1    3    3  502    0 -0.39898790103E+02 -0.45438405112E+02 -0.47994363031E+01  0.60803528677E+02  0.41800000000E+01 0. -1.
         -5    1    3    3    0  502 -0.14662949680E+02  0.39255324434E+02 -0.11575048436E+03  0.12317316924E+03  0.41800000000E+01 0.  1.
        -11    1    1    2    0    0  0.17340672574E+02 -0.41521087148E+02  0.11458677637E+03  0.12310495084E+03  0.00000000000E+00 0.  1.
         11    1    1    2    0    0  0.37221067208E+02  0.47704167825E+02  0.84204923438E+02  0.10368975168E+03  0.00000000000E+00 0. -1.
</event>
<event>
 7    1  0.6833760E-006  0.1404730E+03  0.7561462E-02  0.1212694E+00
         -2   -1    0    0    0  501 -0.00000000000E+00  0.00000000000E+00  0.17018396143E+03  0.17018396143E+03  0.00000000000E+00 0.  1.
          2   -1    0    0  501    0  0.00000000000E+00 -0.00000000000E+00 -0.14789445107E+03  0.14789445107E+03  0.00000000000E+00 0. -1.
         23    2    1    2    0    0 -0.10813060863E+03  0.12150364415E+02  0.51159976465E+02  0.17350308600E+03  0.12508444260E+03 0.  0.
          5    1    3    3  502    0 -0.69785053021E+02  0.51194641773E+02 -0.14575047975E+02  0.87867794982E+02  0.41800000000E+01 0.  1.
         -5    1    3    3    0  502 -0.38345555607E+02 -0.39044277358E+02  0.65735024440E+02  0.85635291016E+02  0.41800000000E+01 0.  1.
        -11    1    1    2    0    0  0.10739841202E+03  0.18304612434E+02 -0.32994395219E+02  0.11383368507E+03  0.00000000000E+00 0. -1.
         11    1    1    2    0    0  0.73219661237E+00 -0.30454976849E+02  0.41239291129E+01  0.30741641435E+02  0.00000000000E+00 0.  1.
</event>
<event>
 7    1  0.6833760E-006  0.1191117E+03  0.7561462E-02  0.1244570E+00
          1   -1    0    0  501    0  0.00000000000E+00  0.00000000000E+00  0.58326267653E+03  0.58326267653E+03  0.00000000000E+00 0. -1.
         -1   -1    0    0    0  501 -0.00000000000E+00 -0.00000000000E+00 -0.34662456129E+02  0.34662456129E+02  0.00000000000E+00 0.  1.
         23    2    1    2    0    0  0.78593167164E+02 -0.44321414823E+02  0.28655293852E+03  0.32542589863E+03  0.12509258646E+03 0.  0.
          5    1    3    3  502    0 -0.95672269107E+01 -0.10933926445E+02 -0.73037415610E+01  0.16789866559E+02  0.41800000000E+01 0.  1.
         -5    1    3    3    0  502  0.88160394075E+02 -0.33387488378E+02  0.29385668008E+03  0.30863603207E+03  0.41800000000E+01 0.  1.
        -11    1    1    2    0    0 -0.89045493401E+02  0.62531966551E+01  0.19913438329E+03  0.21822627013E+03  0.00000000000E+00 0. -1.
         11    1    1    2    0    0  0.10452326237E+02  0.38068218168E+02  0.62912898585E+02  0.74272963901E+02  0.00000000000E+00 0.  1.
</event>
<event>
 6    1  0.6833760E-006  0.1538527E+03  0.7561462E-02  0.1195817E+00
         -2   -1    0    0    0  501 -0.00000000000E+00  0.00000000000E+00  0.64084981151E+02  0.64084981151E+02  0.00000000000E+00 0.  1.
          2   -1    0    0  501    0  0.00000000000E+00 -0.00000000000E+00 -0.49518587033E+03  0.49518587033E+03  0.00000000000E+00 0. -1.
          5    1    1    2  502    0  0.47836615239E+02 -0.10031272271E+03 -0.10715954831E+03  0.15443971409E+03  0.41800000000E+01 0. -1.
         -5    1    1    2    0  502 -0.19168966786E+02  0.12092501814E+03 -0.91338500549E+02  0.15280871501E+03  0.41800000000E+01 0.  1.
        -11    1    1    2    0    0 -0.49819134605E+02 -0.16121619751E+02 -0.22171233553E+03  0.22781179189E+03  0.00000000000E+00 0.  1.
         11    1    1    2    0    0  0.21151486151E+02 -0.44906756861E+01 -0.10890504799E+02  0.24210630502E+02  0.00000000000E+00 0. -1.
</event>
<event>
 7    1  0.6833760E-006  0.1147935E+03  0.7561462E-02  0.1251942E+00
         -2   -1    0    0    0  501 -0.00000000000E+00  0.00000000000E+00  0.36799689811E+02  0.36799689811E+02  0.00000000000E+00 0. -1.
          2   -1    0    0  501    0  0.00000000000E+00 -0.00000000000E+00 -0.48759506989E+03  0.48759506989E+03  0.00000000000E+00 0.  1.
         23    2    1    2    0    0  0.56182291785E+01  0.61021660883E+02 -0.15534860276E+03  0.20865032822E+03  0.12508622423E+03 0.  0.
          5    1    3    3  502    0  0.18877816747E+02 -0.34604178640E+02 -0.66295516484E+02  0.77242404483E+02  0.41800000000E+01 0. -1.
         -5    1    3    3    0  502 -0.13259587569E+02  0.95625839523E+02 -0.89053086275E+02  0.13140792374E+03  0.41800000000E+01 0. -1.
        -11    1    1    2    0    0  0.28158727162E+02 -0.60572065842E+01 -0.26400613731E+02  0.39071678648E+02  0.00000000000E+00 0. -1.
         11    1    1    2    0    0 -0.33776956340E+02 -0.54964454298E+02 -0.26904616359E+03  0.27667275283E+03  0.00000000000E+00 0.  1.
</event>
<event>
 7    1  0.6833760E-006  0.9801283E+02  0.7561462E-02  0.1284531E+00
         -2   -1    0    0    0  501 -0.00000000000E+00  0.00000000000E+00  0.48680542919E+02  0.48680542919E+02  0.00000000000E+00 0.  1.
          2   -1    0    0  501    0  0.00000000000E+00 -0.00000000000E+00 -0.25741548346E+03  0.25741548346E+03  0.00000000000E+00 0. -1.
         23    2    1    2    0    0  0.24166018136E+02  0.10788358583E+02 -0.97601124550E+02  0.16085385463E+03  0.12509035903E+03 0.  0.
          5    1    3    3  502    0  0.36991897765E+02  0.49586610662E+02 -0.10218117589E+03  0.11952279098E+03  0.41800000000E+01 0.  1.
         -5    1    3    3    0  502 -0.12825879629E+02 -0.38798252079E+02  0.45800513354E+01  0.41331063656E+02  0.41800000000E+01 0.  1.
        -11    1    1    2    0    0 -0.14321080833E+02  0.39335781031E+02 -0.58080863410E+02  0.71594578845E+02  0.00000000000E+00 0. -1.
         11    1    1    2    0    0 -0.98449373029E+01 -0.50124139614E+02 -0.53052952578E+02  0.73647592899E+02  0.00000000000E+00 0.  1.
</event>
<event>
 7    1  0.6833760E-006  0.1457839E+03  0.7561462E-02  0.1205752E+00
         -2   -1    0    0    0  501 -0.00000000000E+00  0.00000000000E+00  0.35498736109E+03  0.35498736109E+03  0.00000000000E+00 0.  1.
          2   -1    0    0  501    0  0.00000000000E+00 -0.00000000000E+00 -0.80270566836E+02  0.80270566836E+02  0.00000000000E+00 0. -1.
         23    2    1    2    0    0  0.51590692891E+02 -0.10153187004E+03  0.22434109022E+03  0.28097240798E+03  0.12508496735E+03 0.  0.
          5    1    3    3  502    0  0.42491218210E+02  0.19952011069E+02  0.67766210427E+02  0.82542825529E+02  0.41800000000E+01 0. -1.
         -5    1    3    3    0  502  0.90994746813E+01 -0.12148388111E+03  0.15657487979E+03  0.19842958245E+03  0.41800000000E+01 0. -1.
        -11    1    1    2    0    0  0.10150929740E+01  0.46144724663E+02  0.61709747421E+02  0.77061397306E+02  0.00000000000E+00 0.  1.
         11    1    1    2    0    0 -0.52605785865E+02  0.55387145376E+02 -0.11334043381E+02  0.77224122648E+02  0.00000000000E+00 0. -1.
</event>
<event>
 6    1  0.6833760E-006  0.8160812E+02  0.7561462E-02  0.1324549E+00
         -2   -1    0    0    0  501 -0.00000000000E+00  0.00000000000E+00  0.10495661476E+03  0.10495661476E+03  0.00000000000E+00 0.  1.
          2   -1    0    0  501    0  0.00000000000E+00 -0.00000000000E+00 -0.22119071051E+03  0.22119071051E+03  0.00000000000E+00 0. -1.
          5    1    1    2  502    0 -0.30506204366E+02  0.25221290388E+02 -0.84916365764E+02  0.93781680345E+02  0.41800000000E+01 0. -1.
         -5    1    1    2    0  502  0.12831063366E+02  0.15745438339E+02  0.78897960712E+02  0.81577666185E+02  0.41800000000E+01 0.  1.
        -11    1    1    2    0    0  0.28225776411E+02  0.23883217538E+02 -0.34936369153E+02  0.50868973093E+02  0.00000000000E+00 0.  1.
         11    1    1    2    0    0 -0.10550635410E+02 -0.64849946265E+02 -0.75279321542E+02  0.99919005649E+02  0.00000000000E+00 0. -1.
</event>
<event>
 7    1  0.6833760E-006  0.3049942E+03  0.7561462E-02  0.1082770E+00
          2   -1    0    0  501    0  0.00000000000E+00  0.00000000000E+00  0.13909194481E+04  0.13909194481E+04  0.00000000000E+00 0. -1.
         -2   -1    0    0    0  501 -0.00000000000E+00 -0.00000000000E+00 -0.82733974412E+02  0.82733974412E+02  0.00000000000E+00 0.  1.
         23    2    1    2    0    0 -0.74061102029E+01  0.29276769684E+03  0.37747410908E+03  0.49386452703E+03  0.12509074009E+03 0.  0.
          5    1    3    3  502    0 -0.35416655011E+02  0.26220772678E+03  0.26754518085E+03  0.37630456764E+03  0.41800000000E+01 0.  1.
         -5    1    3    3    0  502  0.28010544808E+02  0.30559970068E+02  0.10992892823E+03  0.11755995939E+03  0.41800000000E+01 0.  1.
        -11    1    1    2    0    0  0.33542785943E+02 -0.54432903470E+02  0.14913097844E+03  0.16225938555E+03  0.00000000000E+00 0. -1.
         11    1    1    2    0    0 -0.26136675740E+02 -0.23833479337E+03  0.78158038617E+03  0.81752950993E+03  0.00000000000E+00 0.  1.
</event>
<event>
 7    1  0.7701771E-006  0.1387234E+03  0.7561462E-02  0.1215057E+00
         -1   -1    0    0    0  501 -0.00000000000E+00  0.00000000000E+00  0.12402913354E+03  0.12402913354E+03  0.00000000000E+00 0.  1.
          1   -1    0    0  501    0  0.00000000000E+00 -0.00000000000E+00 -0.25479835186E+03  0.25479835186E+03  0.00000000000E+00 0. -1.
         23    2    1    2    0    0 -0.91966727861E+02 -0.85555619431E+02 -0.79845415670E+00  0.17727413167E+03  0.12509131537E+03 0.  0.
          5    1    3    3  502    0 -0.70735973729E+02 -0.62772279646E+02  0.57705451246E+02  0.11086626437E+03  0.41800000000E+01 0. -1.
         -5    1    3    3    0  502 -0.21230754132E+02 -0.22783339785E+02 -0.58503905403E+02  0.66407867306E+02  0.41800000000E+01 0. -1.
        -11    1    1    2    0    0  0.59471916509E+02  0.99565181085E+02 -0.82410746622E+02  0.14227320653E+03  0.00000000000E+00 0. -1.
         11    1    1    2    0    0  0.32494811352E+02 -0.14009561654E+02 -0.47560017538E+02  0.59280147189E+02  0.00000000000E+00 0.  1.
</event>
<event>
 7    1  0.6833760E-006  0.1340257E+03  0.7561462E-02  0.1221602E+00
         -1   -1    0    0    0  501 -0.00000000000E+00  0.00000000000E+00  0.46679348514E+03  0.46679348514E+03  0.00000000000E+00 0.  1.
          1   -1    0    0  501    0  0.00000000000E+00 -0.00000000000E+00 -0.75141954507E+02  0.75141954507E+02  0.00000000000E+00 0. -1.
         23    2    1    2    0    0 -0.55949071656E+02 -0.72235248673E+02  0.38193579163E+03  0.41215304420E+03  0.12508778176E+03 0.  0.
          5    1    3    3  502    0  0.26019366390E+02 -0.67439434214E+02  0.16646329521E+03  0.18152847095E+03  0.41800000000E+01 0.  1.
         -5    1    3    3    0  502 -0.81968438046E+02 -0.47958144587E+01  0.21547249642E+03  0.23062457325E+03  0.41800000000E+01 0.  1.
        -11    1    1    2    0    0  0.18374738829E+02  0.73573047022E+02  0.35963632065E+02  0.83928583370E+02  0.00000000000E+00 0.  1.
         11    1    1    2    0    0  0.37574332827E+02 -0.13377983493E+01 -0.26247893062E+02  0.45853812077E+02  0.00000000000E+00 0. -1.
</event>
<event>
 7    1  0.6833760E-006  0.1022607E+03  0.7561462E-02  0.1275613E+00
          1   -1    0    0  501    0  0.00000000000E+00  0.00000000000E+00  0.29039119834E+03  0.29039119834E+03  0.00000000000E+00 0. -1.
         -1   -1    0    0    0  501 -0.00000000000E+00 -0.00000000000E+00 -0.55428347421E+02  0.55428347421E+02  0.00000000000E+00 0.  1.
         23    2    1    2    0    0  0.74545943114E+01  0.42397985742E+02  0.61437077547E+02  0.14550619227E+03  0.12467709220E+03 0.  0.
          5    1    3    3  502    0 -0.50717375649E+02  0.44626765198E+02  0.11419768308E+02  0.68641706513E+02  0.41800000000E+01 0.  1.
         -5    1    3    3    0  502  0.58171969960E+02 -0.22287794566E+01  0.50017309239E+02  0.76864485755E+02  0.41800000000E+01 0.  1.
        -11    1    1    2    0    0 -0.29614457321E+02 -0.47272029507E+02  0.50605498642E+02  0.75316514450E+02  0.00000000000E+00 0.  1.
         11    1    1    2    0    0  0.22159863009E+02  0.48740437654E+01  0.12292027473E+03  0.12499683904E+03  0.00000000000E+00 0. -1.
</event>
<event>
 7    1  0.6833760E-006  0.9013159E+02  0.7561462E-02  0.1302533E+00
          1   -1    0    0  501    0  0.00000000000E+00  0.00000000000E+00  0.79755076853E+02  0.79755076853E+02  0.00000000000E+00 0. -1.
         -1   -1    0    0    0  501 -0.00000000000E+00 -0.00000000000E+00 -0.17679822822E+03  0.17679822822E+03  0.00000000000E+00 0.  1.
         23    2    1    2    0    0 -0.33193814421E+02 -0.31653515688E+02 -0.72298246760E+02  0.15147523027E+03  0.12495573028E+03 0.  0.
          5    1    3    3  502    0 -0.27229566932E+02  0.17460858265E+02  0.25760849026E+02  0.41562298170E+02  0.41800000000E+01 0.  1.
         -5    1    3    3    0  502 -0.59642474884E+01 -0.49114373952E+02 -0.98059095786E+02  0.10991293210E+03  0.41800000000E+01 0.  1.
        -11    1    1    2    0    0 -0.28728617984E+02  0.62779257722E+00  0.59101530760E+01  0.29336965150E+02  0.00000000000E+00 0.  1.
         11    1    1    2    0    0  0.61922432405E+02  0.31025723110E+02 -0.30655057679E+02  0.75741109648E+02  0.00000000000E+00 0. -1.
</event>
<event>
 6    1  0.6833760E-006  0.6510957E+02  0.7561462E-02  0.1377560E+00
         -2   -1    0    0    0  501 -0.00000000000E+00  0.00000000000E+00  0.20418567719E+03  0.20418567719E+03  0.00000000000E+00 0.  1.
          2   -1    0    0  501    0  0.00000000000E+00 -0.00000000000E+00 -0.72377767529E+02  0.72377767529E+02  0.00000000000E+00 0. -1.
          5    1    1    2  502    0  0.36728021450E+02 -0.50308729030E+01 -0.65129107292E+01  0.37870141906E+02  0.41800000000E+01 0. -1.
         -5    1    1    2    0  502 -0.15791634473E+02  0.29326047336E+02  0.16823752173E+03  0.17155386586E+03  0.41800000000E+01 0.  1.
        -11    1    1    2    0    0  0.23270927451E+01  0.14187237849E+02 -0.12026252850E+02  0.18743634547E+02  0.00000000000E+00 0.  1.
         11    1    1    2    0    0 -0.23263479722E+02 -0.38482412282E+02 -0.17890448490E+02  0.48395802411E+02  0.00000000000E+00 0. -1.
</event>
<event>
 7    1  0.6833760E-006  0.5832355E+02  0.7561462E-02  0.1405005E+00
          1   -1    0    0  501    0  0.00000000000E+00  0.00000000000E+00  0.13820527534E+03  0.13820527534E+03  0.00000000000E+00 0. -1.
         -1   -1    0    0    0  501 -0.00000000000E+00 -0.00000000000E+00 -0.10010557824E+03  0.10010557824E+03  0.00000000000E+00 0.  1.
         23    2    1    2    0    0 -0.79659467509E+00  0.42538664593E+02  0.31658338480E+01  0.13216418764E+03  0.12508867832E+03 0.  0.
          5    1    3    3  502    0  0.85883254346E+01  0.45622044193E+02 -0.55528145046E+02  0.72498120957E+02  0.41800000000E+01 0. -1.
         -5    1    3    3    0  502 -0.93849201097E+01 -0.30833795996E+01  0.58693978894E+02  0.59666066685E+02  0.41800000000E+01 0. -1.
        -11    1    1    2    0    0  0.19800135734E+02 -0.11449235082E+02  0.58459485065E+02  0.62774531087E+02  0.00000000000E+00 0. -1.
         11    1    1    2    0    0 -0.19003541059E+02 -0.31089429511E+02 -0.23525621809E+02  0.43372134852E+02  0.00000000000E+00 0.  1.
</event>
<event>
 7    1  0.6833760E-006  0.2523553E+03  0.7561462E-02  0.1111825E+00
         -2   -1    0    0    0  501 -0.00000000000E+00  0.00000000000E+00  0.17007893164E+03  0.17007893164E+03  0.00000000000E+00 0.  1.
          2   -1    0    0  501    0  0.00000000000E+00 -0.00000000000E+00 -0.41363408962E+03  0.41363408962E+03  0.00000000000E+00 0. -1.
         23    2    1    2    0    0 -0.22974480239E+03 -0.13762460259E+02 -0.39118908875E+02  0.26485912115E+03  0.12509190816E+03 0.  0.
          5    1    3    3  502    0 -0.10238375185E+02 -0.37672277633E+02  0.52212060596E+01  0.39607552578E+02  0.41800000000E+01 0. -1.
         -5    1    3    3    0  502 -0.21950642720E+03  0.23909817374E+02 -0.44340114934E+02  0.22525156857E+03  0.41800000000E+01 0. -1.
        -11    1    1    2    0    0  0.12858304901E+02 -0.21321351761E+02 -0.23433775983E+02  0.34191781216E+02  0.00000000000E+00 0.  1.
         11    1    1    2    0    0  0.21688649749E+03  0.35083812020E+02 -0.18100247313E+03  0.28466211890E+03  0.00000000000E+00 0. -1.
</event>
<event>
 7    1  0.6833760E-006  0.1348461E+03  0.7561462E-02  0.1220437E+00
         -2   -1    0    0    0  501 -0.00000000000E+00  0.00000000000E+00  0.18031889116E+03  0.18031889116E+03  0.00000000000E+00 0.  1.
          2   -1    0    0  501    0  0.00000000000E+00 -0.00000000000E+00 -0.10506808710E+03  0.10506808710E+03  0.00000000000E+00 0. -1.
         23    2    1    2    0    0  0.85439034947E+02 -0.55864561387E+01  0.36389519640E+02  0.15589743860E+03  0.12509507199E+03 0.  0.
          5    1    3    3  502    0  0.57945702446E+01 -0.56424209553E+02  0.10462596949E+02  0.57829117259E+02  0.41800000000E+01 0. -1.
         -5    1    3    3    0  502  0.79644464702E+02  0.50837753415E+02  0.25926922691E+02  0.98068321338E+02  0.41800000000E+01 0. -1.
        -11    1    1    2    0    0 -0.49528992057E+00 -0.27187047671E+02 -0.62186034856E+01  0.27893581743E+02  0.00000000000E+00 0. -1.
         11    1    1    2    0    0 -0.84943745026E+02  0.32773503809E+02  0.45079887914E+02  0.10159595792E+03  0.00000000000E+00 0.  1.
</event>
<event>
 7    1  0.6833760E-006  0.6683829E+02  0.7561462E-02  0.1371187E+00
         -2   -1    0    0    0  501 -0.00000000000E+00  0.00000000000E+00  0.32730071848E+02  0.32730071848E+02  0.00000000000E+00 0.  1.
          2   -1    0    0  501    0  0.00000000000E+00 -0.00000000000E+00 -0.36226822178E+03  0.36226822178E+03  0.00000000000E+00 0. -1.
         23    2    1    2    0    0  0.39716453529E+01 -0.26455888222E+00 -0.18749748367E+03  0.22542937083E+03  0.12508897191E+03 0.  0.
          5    1    3    3  502    0 -0.15007445491E+02 -0.27918395154E+02  0.28562665124E+01  0.32098144285E+02  0.41800000000E+01 0. -1.
         -5    1    3    3    0  502  0.18979090844E+02  0.27653836272E+02 -0.19035375018E+03  0.19333122655E+03  0.41800000000E+01 0. -1.
        -11    1    1    2    0    0 -0.30199208924E+02 -0.18718234720E+02 -0.15170860850E+02  0.38633140561E+02  0.00000000000E+00 0.  1.
         11    1    1    2    0    0  0.26227563571E+02  0.18982793603E+02 -0.12686980542E+03  0.13093578224E+03  0.00000000000E+00 0. -1.
</event>
<event>
 7    1  0.6833760E-006  0.1866562E+03  0.7561462E-02  0.1161512E+00
         -1   -1    0    0    0  501 -0.00000000000E+00  0.00000000000E+00  0.19032194572E+03  0.19032194572E+03  0.00000000000E+00 0.  1.
          1   -1    0    0  501    0  0.00000000000E+00 -0.00000000000E+00 -0.21159878225E+03  0.21159878225E+03  0.00000000000E+00 0. -1.
         23    2    1    2    0    0 -0.86504996969E+02 -0.14055298607E+03 -0.45504317380E+02  0.21203555216E+03  0.12510066381E+03 0.  0.
          5    1    3    3  502    0  0.31659923285E+01  0.14163341632E+02  0.16829651061E+02  0.22612680258E+02  0.41800000000E+01 0. -1.
         -5    1    3    3    0  502 -0.89670989297E+02 -0.15471632770E+03 -0.62333968441E+02  0.18942287190E+03  0.41800000000E+01 0. -1.
        -11    1    1    2    0    0  0.26129712121E+02  0.10724664004E+03  0.42934592552E+02  0.11843978594E+03  0.00000000000E+00 0. -1.
         11    1    1    2    0    0  0.60375284848E+02  0.33306346023E+02 -0.18707111695E+02  0.71445389871E+02  0.00000000000E+00 0.  1.
</event>
<event>
 7    1  0.6833760E-006  0.2352742E+03  0.7561462E-02  0.1122982E+00
          2   -1    0    0  501    0  0.00000000000E+00  0.00000000000E+00  0.15248953886E+04  0.15248953886E+04  0.00000000000E+00 0. -1.
         -2   -1    0    0    0  501 -0.00000000000E+00 -0.00000000000E+00 -0.10911593468E+03  0.10911593468E+03  0.00000000000E+00 0.  1.
         23    2    1    2    0    0 -0.44370538025E+02  0.21594858619E+03  0.59019799006E+02  0.25710363034E+03  0.11839089297E+03 0.  0.
          5    1    3    3  502    0  0.22573011257E+02  0.96523800696E+02  0.67290386692E+02  0.11988266547E+03  0.41800000000E+01 0. -1.
         -5    1    3    3    0  502 -0.66943549282E+02  0.11942478550E+03 -0.82705876864E+01  0.13722096488E+03  0.41800000000E+01 0.  1.
        -11    1    1    2    0    0  0.54430534408E+02 -0.21747720255E+03  0.13110271171E+04  0.13300568102E+04  0.00000000000E+00 0. -1.
         11    1    1    2    0    0 -0.10059996383E+02  0.15286163611E+01  0.45732537867E+02  0.46850882755E+02  0.00000000000E+00 0.  1.
</event>
<event>
 7    1  0.6833760E-006  0.1004538E+03  0.7561462E-02  0.1279345E+00
          3   -1    0    0  501    0  0.00000000000E+00  0.00000000000E+00  0.15100403603E+03  0.15100403603E+03  0.00000000000E+00 0. -1.
         -3   -1    0    0    0  501 -0.00000000000E+00 -0.00000000000E+00 -0.11279327784E+03  0.11279327784E+03  0.00000000000E+00 0.  1.
         23    2    1    2    0    0 -0.51280099728E+02 -0.50725368731E+02  0.19559430246E+02  0.14571630108E+03  0.12509179601E+03 0.  0.
          5    1    3    3  502    0 -0.24723731554E+01 -0.38114969377E+02  0.66439211258E+02  0.76749623531E+02  0.41800000000E+01 0. -1.
         -5    1    3    3    0  502 -0.48807726573E+02 -0.12610399354E+02 -0.46879781011E+02  0.68966677554E+02  0.41800000000E+01 0. -1.
        -11    1    1    2    0    0  0.53525153753E+02 -0.71336518633E+01 -0.75545166356E+01  0.54524322965E+02  0.00000000000E+00 0.  1.
         11    1    1    2    0    0 -0.22450540251E+01  0.57859020595E+02  0.26205844579E+02  0.63556689828E+02  0.00000000000E+00 0. -1.
</event>
<event>
 6    1  0.6833760E-006  0.1345476E+03  0.7561462E-02  0.1220860E+00
         -1   -1    0    0    0  501 -0.00000000000E+00  0.00000000000E+00  0.77754293686E+02  0.77754293686E+02  0.00000000000E+00 0.  1.
          1   -1    0    0  501    0  0.00000000000E+00 -0.00000000000E+00 -0.70760004845E+03  0.70760004845E+03  0.00000000000E+00 0. -1.
          5    1    1    2  502    0  0.21187452968E+02 -0.19736919146E+02  0.37335212545E+02  0.47432527198E+02  0.41800000000E+01 0. -1.
         -5    1    1    2    0  502 -0.19775783010E+02  0.11000066047E+03 -0.81845146211E+02  0.13859050204E+03  0.41800000000E+01 0.  1.
        -11    1    1    2    0    0  0.31231893236E+02  0.81728790789E+00 -0.11654239272E+03  0.12065748388E+03  0.00000000000E+00 0.  1.
         11    1    1    2    0    0 -0.32643563195E+02 -0.91081029227E+02 -0.46879342837E+03  0.47867382902E+03  0.00000000000E+00 0. -1.
</event>
<event>
 7    1  0.6833760E-006  0.1550824E+03  0.7561462E-02  0.1194363E+00
          2   -1    0    0  501    0  0.00000000000E+00  0.00000000000E+00  0.86845205439E+03  0.86845205439E+03  0.00000000000E+00 0. -1.
         -2   -1    0    0    0  501 -0.00000000000E+00 -0.00000000000E+00 -0.28903542801E+02  0.28903542801E+02  0.00000000000E+00 0.  1.
         23    2    1    2    0    0  0.11429762646E+03  0.83605191406E+01  0.45790325650E+03  0.48831492232E+03  0.12506888240E+03 0.  0.
          5    1    3    3  502    0 -0.21535886393E+02 -0.17580865777E+02  0.11865603993E+03  0.12194100810E+03  0.41800000000E+01 0. -1.
         -5    1    3    3    0  502  0.13583351286E+03  0.25941384917E+02  0.33924721657E+03  0.36637391422E+03  0.41800000000E+01 0. -1.
        -11    1    1    2    0    0 -0.10274913026E+03  0.27218898948E+02  0.23897153228E+03  0.26154472938E+03  0.00000000000E+00 0.  1.
         11    1    1    2    0    0 -0.11548496203E+02 -0.35579418088E+02  0.14267372281E+03  0.14749594550E+03  0.00000000000E+00 0. -1.
</event>
<event>
 7    1  0.6833760E-006  0.1315733E+03  0.7561462E-02  0.1225140E+00
         -2   -1    0    0    0  501 -0.00000000000E+00  0.00000000000E+00  0.60032154864E+02  0.60032154864E+02  0.00000000000E+00 0.  1.
          2   -1    0    0  501    0  0.00000000000E+00 -0.00000000000E+00 -0.47346867070E+03  0.47346867070E+03  0.00000000000E+00 0. -1.
         23    2    1    2    0    0  0.90014835037E+02 -0.88280404932E+02 -0.18053168495E+03  0.25324528790E+03  0.12508151801E+03 0.  0.
          5    1    3    3  502    0  0.73470420029E+02 -0.35743357390E+02 -0.18031476645E+03  0.19800600400E+03  0.41800000000E+01 0.  1.
         -5    1    3    3    0  502  0.16544415007E+02 -0.52537047541E+02 -0.21691849942E+00  0.55239283901E+02  0.41800000000E+01 0.  1.
        -11    1    1    2    0    0 -0.59337145329E+02  0.56789283000E+02 -0.59647517515E+02  0.10150736833E+03  0.00000000000E+00 0.  1.
         11    1    1    2    0    0 -0.30677689708E+02  0.31491121932E+02 -0.17325731337E+03  0.17874816934E+03  0.00000000000E+00 0. -1.
</event>
<event>
 6    1  0.6833760E-006  0.4752409E+03  0.7561462E-02  0.1020451E+00
          2   -1    0    0  501    0  0.00000000000E+00  0.00000000000E+00  0.15974734651E+04  0.15974734651E+04  0.00000000000E+00 0. -1.
         -2   -1    0    0    0  501 -0.00000000000E+00 -0.00000000000E+00 -0.17407947694E+03  0.17407947694E+03  0.00000000000E+00 0.  1.
          5    1    1    2  502    0  0.30445572374E+03  0.31344172810E+03  0.78487832671E+03  0.89832648006E+03  0.41800000000E+01 0. -1.
         -5    1    1    2    0  502 -0.17347249157E+03 -0.30895295748E+03  0.20050807759E+03  0.40714321417E+03  0.41800000000E+01 0.  1.
        -11    1    1    2    0    0 -0.74476626729E+02  0.42418811057E+02  0.22507350227E+03  0.24084062134E+03  0.00000000000E+00 0.  1.
         11    1    1    2    0    0 -0.56506605446E+02 -0.46907581679E+02  0.21293408159E+03  0.22524262648E+03  0.00000000000E+00 0. -1.
</event>
<event>
 7    1  0.8811551E-006  0.3992116E+03  0.7561462E-02  0.1044053E+00
         -1   -1    0    0    0  501 -0.00000000000E+00  0.00000000000E+00  0.43419344070E+03  0.43419344070E+03  0.00000000000E+00 0.  1.
          1   -1    0    0  501    0  0.00000000000E+00 -0.00000000000E+00 -0.39480863071E+03  0.39480863071E+03  0.00000000000E+00 0. -1.
         23    2    1    2    0    0 -0.24874421142E+03  0.29599870794E+03  0.11969652217E+03  0.42362956649E+03  0.12508330973E+03 0.  0.
          5    1    3    3  502    0 -0.25970363171E+03  0.27510198752E+03  0.12613432411E+03  0.39881627346E+03  0.41800000000E+01 0.  1.
         -5    1    3    3    0  502  0.10959420292E+02  0.20896720420E+02 -0.64378019331E+01  0.24813293033E+02  0.41800000000E+01 0.  1.
        -11    1    1    2    0    0  0.11215085808E+03 -0.19953748423E+03 -0.30677662426E+02  0.23094185752E+03  0.00000000000E+00 0.  1.
         11    1    1    2    0    0  0.13659335333E+03 -0.96461223708E+02 -0.49634049757E+02  0.17443064739E+03  0.00000000000E+00 0. -1.
</event>
<event>
 7    1  0.6833760E-006  0.1099296E+03  0.7561462E-02  0.1260700E+00
          2   -1    0    0  501    0  0.00000000000E+00  0.00000000000E+00  0.11937337183E+03  0.11937337183E+03  0.00000000000E+00 0. -1.
         -2   -1    0    0    0  501 -0.00000000000E+00 -0.00000000000E+00 -0.11891382340E+03  0.11891382340E+03  0.00000000000E+00 0.  1.
         23    2    1    2    0    0 -0.16369431873E+02  0.36794948448E+02 -0.30799694494E+02  0.13497106908E+03  0.12508693687E+03 0.  0.
          5    1    3    3  502    0  0.49696692646E+02  0.21880154323E+02 -0.38475250486E+02  0.66680729699E+02  0.41800000000E+01 0. -1.
         -5    1    3    3    0  502 -0.66066124518E+02  0.14914794125E+02  0.76755559921E+01  0.68290339379E+02  0.41800000000E+01 0. -1.
        -11    1    1    2    0    0 -0.23856462313E+02  0.17772578517E+02  0.16192178963E+02  0.33870075299E+02  0.00000000000E+00 0. -1.
         11    1    1    2    0    0  0.40225894185E+02 -0.54567526964E+02  0.15067063958E+02  0.69446050847E+02  0.00000000000E+00 0.  1.
</event>
<event>
 7    1  0.6833760E-006  0.8613599E+02  0.7561462E-02  0.1312488E+00
         -3   -1    0    0    0  501 -0.00000000000E+00  0.00000000000E+00  0.12643401066E+03  0.12643401066E+03  0.00000000000E+00 0.  1.
          3   -1    0    0  501    0  0.00000000000E+00 -0.00000000000E+00 -0.10611803654E+03  0.10611803654E+03  0.00000000000E+00 0. -1.
         23    2    1    2    0    0  0.14999805584E+02  0.27678076893E+02 -0.20752827649E+01  0.12900533413E+03  0.12508796636E+03 0.  0.
          5    1    3    3  502    0 -0.23828156389E+02 -0.12514570577E+02 -0.48902276662E+02  0.55975892815E+02  0.41800000000E+01 0.  1.
         -5    1    3    3    0  502  0.38827961973E+02  0.40192647470E+02  0.46826993897E+02  0.73029441317E+02  0.41800000000E+01 0.  1.
        -11    1    1    2    0    0 -0.23744162077E+02 -0.55214137890E+02 -0.91250452746E+01  0.60791880272E+02  0.00000000000E+00 0. -1.
         11    1    1    2    0    0  0.87443564938E+01  0.27536060997E+02  0.31516302164E+02  0.42754832801E+02  0.00000000000E+00 0.  1.
</event>
<event>
 7    1  0.6833760E-006  0.1322772E+03  0.7561462E-02  0.1224115E+00
         -3   -1    0    0    0  501 -0.00000000000E+00  0.00000000000E+00  0.19380282663E+03  0.19380282663E+03  0.00000000000E+00 0.  1.
          3   -1    0    0  501    0  0.00000000000E+00 -0.00000000000E+00 -0.10168061308E+03  0.10168061308E+03  0.00000000000E+00 0. -1.
         23    2    1    2    0    0 -0.80255821794E+02 -0.39926434848E+01  0.92464219314E+02  0.17509463999E+03  0.12510620674E+03 0.  0.
          5    1    3    3  502    0 -0.84859042730E+02  0.44737192673E+02  0.78495959816E+02  0.12402242398E+03  0.41800000000E+01 0.  1.
         -5    1    3    3    0  502  0.46032209365E+01 -0.48729836158E+02  0.13968259498E+02  0.51072216012E+02  0.41800000000E+01 0.  1.
        -11    1    1    2    0    0  0.76031267205E+02  0.38098419100E+02  0.67078640796E+01  0.85306732274E+02  0.00000000000E+00 0.  1.
         11    1    1    2    0    0  0.42245545892E+01 -0.34105775615E+02 -0.70498698490E+01  0.35082067452E+02  0.00000000000E+00 0. -1.
</event>
<event>
 7    1  0.6833760E-006  0.8754983E+02  0.7561462E-02  0.1308896E+00
          2   -1    0    0  501    0  0.00000000000E+00  0.00000000000E+00  0.13305961009E+03  0.13305961009E+03  0.00000000000E+00 0. -1.
         -2   -1    0    0    0  501 -0.00000000000E+00 -0.00000000000E+00 -0.13244995039E+03  0.13244995039E+03  0.00000000000E+00 0.  1.
         23    2    1    2    0    0  0.21329035622E+02 -0.55794254780E+02 -0.47109112564E+02  0.14642732804E+03  0.12511501622E+03 0.  0.
          5    1    3    3  502    0 -0.35752952434E+01 -0.69048160371E+02 -0.78045857602E+02  0.10435065633E+03  0.41800000000E+01 0. -1.
         -5    1    3    3    0  502  0.24904330865E+02  0.13253905591E+02  0.30936745038E+02  0.42076671717E+02  0.41800000000E+01 0. -1.
        -11    1    1    2    0    0  0.12904859186E+02  0.34893413897E+02  0.65405388247E+02  0.75245933682E+02  0.00000000000E+00 0.  1.
         11    1    1    2    0    0 -0.34233894808E+02  0.20900840883E+02 -0.17686615990E+02  0.43836298755E+02  0.00000000000E+00 0. -1.
</event>
<event>
 7    1  0.6833760E-006  0.1118647E+03  0.7561462E-02  0.1257155E+00
          2   -1    0    0  501    0  0.00000000000E+00  0.00000000000E+00  0.43482281935E+02  0.43482281935E+02  0.00000000000E+00 0. -1.
         -2   -1    0    0    0  501 -0.00000000000E+00 -0.00000000000E+00 -0.35864589283E+03  0.35864589283E+03  0.00000000000E+00 0.  1.
         23    2    1    2    0    0 -0.57519106088E+02 -0.18857821088E+02 -0.19820014461E+03  0.24206419748E+03  0.12509082060E+03 0.  0.
          5    1    3    3  502    0  0.21716248782E+02  0.34222525435E+02 -0.38801591636E+02  0.56265554488E+02  0.41800000000E+01 0. -1.
         -5    1    3    3    0  502 -0.79235354870E+02 -0.53080346523E+02 -0.15939855297E+03  0.18579864299E+03  0.41800000000E+01 0. -1.
        -11    1    1    2    0    0  0.17048057018E+02 -0.23436902648E+02 -0.91943166368E+02  0.96402647762E+02  0.00000000000E+00 0.  1.
         11    1    1    2    0    0  0.40471049070E+02  0.42294723737E+02 -0.25020299921E+02  0.63661329525E+02  0.00000000000E+00 0. -1.
</event>
<event>
 7    1  0.6833760E-006  0.7417052E+02  0.7561462E-02  0.1346459E+00
         -2   -1    0    0    0  501 -0.00000000000E+00  0.00000000000E+00  0.23444219772E+03  0.23444219772E+03  0.00000000000E+00 0.  1.
          2   -1    0    0  501    0  0.00000000000E+00 -0.00000000000E+00 -0.61271246546E+02  0.61271246546E+02  0.00000000000E+00 0. -1.
         23    2    1    2    0    0 -0.75725856199E+00 -0.46232827739E+02  0.12997126618E+03  0.18622031858E+03  0.12508968470E+03 0.  0.
          5    1    3    3  502    0 -0.27968859416E+02 -0.28360383689E+02  0.14477533814E+03  0.15021298011E+03  0.41800000000E+01 0.  1.
         -5    1    3    3    0  502  0.27211600854E+02 -0.17872444050E+02 -0.14804071957E+02  0.36007338473E+02  0.41800000000E+01 0.  1.
        -11    1    1    2    0    0  0.25388165939E+02  0.28074821482E+01  0.52800160442E+02  0.58654052447E+02  0.00000000000E+00 0.  1.
         11    1    1    2    0    0 -0.24630907377E+02  0.43425345591E+02 -0.96004754558E+01  0.50839073230E+02  0.00000000000E+00 0. -1.
</event>
<event>
 7    1  0.6833760E-006  0.1631503E+03  0.7561462E-02  0.1185185E+00
         -2   -1    0    0    0  501 -0.00000000000E+00  0.00000000000E+00  0.92357710695E+02  0.92357710695E+02  0.00000000000E+00 0.  1.
          2   -1    0    0  501    0  0.00000000000E+00 -0.00000000000E+00 -0.41660863597E+03  0.41660863597E+03  0.00000000000E+00 0. -1.
         23    2    1    2    0    0  0.14205411557E+03  0.78760792804E+02 -0.15504023891E+03  0.25703818389E+03  0.12509403687E+03 0.  0.
          5    1    3    3  502    0  0.35510617083E+02  0.16718237079E+02 -0.12357577900E+03  0.12972643884E+03  0.41800000000E+01 0.  1.
         -5    1    3    3    0  502  0.10654349849E+03  0.62042555724E+02 -0.31464459911E+02  0.12731174505E+03  0.41800000000E+01 0.  1.
        -11    1    1    2    0    0 -0.10129360401E+03 -0.65403487125E+02 -0.60167785316E+02  0.13475226429E+03  0.00000000000E+00 0.  1.
         11    1    1    2    0    0 -0.40760511557E+02 -0.13357305679E+02 -0.10904290105E+03  0.11717589848E+03  0.00000000000E+00 0. -1.
</event>
<event>
 6    1  0.6833760E-006  0.1396847E+03  0.7561462E-02  0.1213754E+00
          2   -1    0    0  501    0  0.00000000000E+00  0.00000000000E+00  0.17865809595E+03  0.17865809595E+03  0.00000000000E+00 0. -1.
         -2   -1    0    0    0  501 -0.00000000000E+00 -0.00000000000E+00 -0.27198754100E+03  0.27198754100E+03  0.00000000000E+00 0.  1.
          5    1    1    2  502    0 -0.15082438416E+02  0.73875986429E+02 -0.40100353606E+02  0.85502351305E+02  0.41800000000E+01 0. -1.
         -5    1    1    2    0  502 -0.74566116060E+02 -0.62616065709E+02 -0.16716487929E+03  0.19350050805E+03  0.41800000000E+01 0.  1.
        -11    1    1    2    0    0  0.91353323847E+02 -0.23264636043E+02  0.50274844541E+02  0.10683741415E+03  0.00000000000E+00 0. -1.
         11    1    1    2    0    0 -0.17047693720E+01  0.12004715323E+02  0.63660943309E+02  0.64805363447E+02  0.00000000000E+00 0.  1.
</event>
<event>
 7    1  0.6833760E-006  0.7161782E+02  0.7561462E-02  0.1354676E+00
         -2   -1    0    0    0  501 -0.00000000000E+00  0.00000000000E+00  0.11818047845E+03  0.11818047845E+03  0.00000000000E+00 0.  1.
          2   -1    0    0  501    0  0.00000000000E+00 -0.00000000000E+00 -0.14170919271E+03  0.14170919271E+03  0.00000000000E+00 0. -1.
         23    2    1    2    0    0 -0.25240547936E+02  0.27219776487E+02  0.46818128072E+02  0.13792680437E+03  0.12431357430E+03 0.  0.
          5    1    3    3  502    0 -0.55759751946E+02  0.31950533775E+02 -0.17258430200E+02  0.66673175704E+02  0.41800000000E+01 0. -1.
         -5    1    3    3    0  502  0.30519204009E+02 -0.47307572879E+01  0.64076558272E+02  0.71253628665E+02  0.41800000000E+01 0.  1.
        -11    1    1    2    0    0  0.10613305722E+02 -0.30828079954E+02  0.14576180895E+02  0.35713832355E+02  0.00000000000E+00 0. -1.
         11    1    1    2    0    0  0.14627242214E+02  0.36083034671E+01 -0.84923023221E+02  0.86249034439E+02  0.00000000000E+00 0.  1.
</event>
<event>
 7    1  0.6833760E-006  0.1988271E+03  0.7561462E-02  0.1150732E+00
          2   -1    0    0  501    0  0.00000000000E+00  0.00000000000E+00  0.18723363124E+03  0.18723363124E+03  0.00000000000E+00 0. -1.
         -2   -1    0    0    0  501 -0.00000000000E+00 -0.00000000000E+00 -0.28088435929E+03  0.28088435929E+03  0.00000000000E+00 0.  1.
         23    2    1    2    0    0 -0.18953232152E+03 -0.58599486304E+02 -0.84518915845E+02  0.24929585235E+03  0.12509426114E+03 0.  0.
          5    1    3    3  502    0 -0.68295103170E+02 -0.14365527239E+02 -0.97001516867E+02  0.11957155249E+03  0.41800000000E+01 0. -1.
         -5    1    3    3    0  502 -0.12123721834E+03 -0.44233959066E+02  0.12482601022E+02  0.12972429986E+03  0.41800000000E+01 0. -1.
        -11    1    1    2    0    0  0.10242232960E+03  0.26648419630E+02 -0.50463646902E+02  0.11724782100E+03  0.00000000000E+00 0.  1.
         11    1    1    2    0    0  0.87109991914E+02  0.31951066674E+02  0.41331834691E+02  0.10157431719E+03  0.00000000000E+00 0. -1.
</event>
<event>
 7    1  0.6833760E-006  0.9235619E+02  0.7561462E-02  0.1297244E+00
          2   -1    0    0  501    0  0.00000000000E+00  0.00000000000E+00  0.77522620517E+02  0.77522620517E+02  0.00000000000E+00 0. -1.
         -2   -1    0    0    0  501 -0.00000000000E+00 -0.00000000000E+00 -0.26704172879E+03  0.26704172879E+03  0.00000000000E+00 0.  1.
         23    2    1    2    0    0 -0.41205069574E+02 -0.69032624913E+02 -0.16144169399E+03  0.21956630016E+03  0.12523010239E+03 0.  0.
          5    1    3    3  502    0 -0.11790013245E+02 -0.30780331377E+02 -0.16749127806E+03  0.17075489404E+03  0.41800000000E+01 0.  1.
         -5    1    3    3    0  502 -0.29415056330E+02 -0.38252293536E+02  0.60495840701E+01  0.48811406117E+02  0.41800000000E+01 0.  1.
        -11    1    1    2    0    0  0.15171176829E+02 -0.11098959841E+02 -0.35754174317E+02  0.40394461217E+02  0.00000000000E+00 0.  1.
         11    1    1    2    0    0  0.26033892746E+02  0.80131584754E+02  0.76767600335E+01  0.84603587934E+02  0.00000000000E+00 0. -1.
</event>
<event>
 7    1  0.6833760E-006  0.6328630E+02  0.7561462E-02  0.1384536E+00
          2   -1    0    0  501    0  0.00000000000E+00  0.00000000000E+00  0.28389364373E+03  0.28389364373E+03  0.00000000000E+00 0. -1.
         -2   -1    0    0    0  501 -0.00000000000E+00 -0.00000000000E+00 -0.52846931858E+02  0.52846931858E+02  0.00000000000E+00 0.  1.
         23    2    1    2    0    0  0.38599323988E+02 -0.34568236231E+02  0.95501498792E+02  0.16568822895E+03  0.12508869723E+03 0.  0.
          5    1    3    3  502    0  0.36739052898E+02  0.28251298789E+01 -0.21435143086E+02  0.42833131170E+02  0.41800000000E+01 0.  1.
         -5    1    3    3    0  502  0.18602710893E+01 -0.37393366110E+02  0.11693664188E+03  0.12285509778E+03  0.41800000000E+01 0.  1.
        -11    1    1    2    0    0 -0.24915986940E+02  0.22497701260E+02  0.14614465008E+03  0.14995069761E+03  0.00000000000E+00 0. -1.
         11    1    1    2    0    0 -0.13683337048E+02  0.12070534971E+02 -0.10599436992E+02  0.21101649031E+02  0.00000000000E+00 0.  1.
</event>
<event>
 7    1  0.6833760E-006  0.1514091E+03  0.7561462E-02  0.1198752E+00
          2   -1    0    0  501    0  0.00000000000E+00  0.00000000000E+00  0.15888482225E+04  0.15888482225E+04  0.00000000000E+00 0. -1.
         -2   -1    0    0    0  501 -0.00000000000E+00 -0.00000000000E+00 -0.20343226257E+02  0.20343226257E+02  0.00000000000E+00 0.  1.
         23    2    1    2    0    0 -0.84661473155E+02 -0.11267234106E+03  0.71740475779E+03  0.74174086538E+03  0.12508918180E+03 0.  0.
          5    1    3    3  502    0 -0.26675613242E+02 -0.59659818885E+02  0.10123935678E+03  0.12057264239E+03  0.41800000000E+01 0.  1.
         -5    1    3    3    0  502 -0.57985859913E+02 -0.53012522171E+02  0.61616540101E+03  0.62116822299E+03  0.41800000000E+01 0.  1.
        -11    1    1    2    0    0  0.97529854067E+02  0.10640990023E+03  0.82633815461E+03  0.83885033532E+03  0.00000000000E+00 0. -1.
         11    1    1    2    0    0 -0.12868380912E+02  0.62624408237E+01  0.24762083825E+02  0.28600248036E+02  0.00000000000E+00 0.  1.
</event>
<event>
 7    1  0.6833760E-006  0.1466914E+03  0.7561462E-02  0.1204599E+00
         -1   -1    0    0    0  501 -0.00000000000E+00  0.00000000000E+00  0.35304518746E+02  0.35304518746E+02  0.00000000000E+00 0.  1.
          1   -1    0    0  501    0  0.00000000000E+00 -0.00000000000E+00 -0.92693042302E+03  0.92693042302E+03  0.00000000000E+00 0. -1.
         23    2    1    2    0    0  0.12038062275E+03  0.70614741519E+02 -0.57087545132E+03  0.60085316527E+03  0.12509120368E+03 0.  0.
          5    1    3    3  502    0  0.10914655009E+03  0.77172693642E+02 -0.57172952570E+03  0.58716327968E+03  0.41800000000E+01 0.  1.
         -5    1    3    3    0  502  0.11234072656E+02 -0.65579521234E+01  0.85407437929E+00  0.13689885593E+02  0.41800000000E+01 0.  1.
        -11    1    1    2    0    0 -0.66699517521E+02 -0.63024858257E+02 -0.10746701167E+03  0.14131566436E+03  0.00000000000E+00 0.  1.
         11    1    1    2    0    0 -0.53681105228E+02 -0.75898832622E+01 -0.21328344129E+03  0.22006611214E+03  0.00000000000E+00 0. -1.
</event>
<event>
 7    1  0.6833760E-006  0.1075284E+03  0.7561462E-02  0.1265217E+00
          2   -1    0    0  501    0  0.00000000000E+00  0.00000000000E+00  0.41954281632E+03  0.41954281632E+03  0.00000000000E+00 0. -1.
         -2   -1    0    0    0  501 -0.00000000000E+00 -0.00000000000E+00 -0.58985268015E+02  0.58985268015E+02  0.00000000000E+00 0.  1.
         23    2    1    2    0    0  0.68730174520E+01  0.66373665173E+02  0.53762800744E+02  0.15162538952E+03  0.12508844153E+03 0.  0.
          5    1    3    3  502    0  0.14189677727E+02 -0.31250828034E+02 -0.84032627603E+01  0.35581574330E+02  0.41800000000E+01 0. -1.
         -5    1    3    3    0  502 -0.73166602745E+01  0.97624493207E+02  0.62166063505E+02  0.11604381519E+03  0.41800000000E+01 0. -1.
        -11    1    1    2    0    0 -0.16147101117E+02 -0.70513127252E+02  0.30826682237E+03  0.31664059083E+03  0.00000000000E+00 0. -1.
         11    1    1    2    0    0  0.92740836646E+01  0.41394620787E+01 -0.14720748026E+01  0.10262103992E+02  0.00000000000E+00 0.  1.
</event>
<event>
 7    1  0.6833760E-006  0.1332320E+03  0.7561462E-02  0.1222737E+00
          2   -1    0    0  501    0  0.00000000000E+00  0.00000000000E+00  0.16293991398E+03  0.16293991398E+03  0.00000000000E+00 0. -1.
         -2   -1    0    0    0  501 -0.00000000000E+00 -0.00000000000E+00 -0.14566282401E+03  0.14566282401E+03  0.00000000000E+00 0.  1.
         23    2    1    2    0    0  0.82285060206E+02  0.23252168756E+02 -0.57832100355E+02  0.16218220500E+03  0.12508805419E+03 0.  0.
          5    1    3    3  502    0 -0.24801751333E+02  0.22756491945E+02 -0.41783933017E+02  0.53817787517E+02  0.41800000000E+01 0. -1.
         -5    1    3    3    0  502  0.10708681154E+03  0.49567681085E+00 -0.16048167338E+02  0.10836441748E+03  0.41800000000E+01 0. -1.
        -11    1    1    2    0    0  0.20176029406E+02  0.56222946732E+00  0.16017454927E+02  0.25767171496E+02  0.00000000000E+00 0.  1.
         11    1    1    2    0    0 -0.10246108961E+03 -0.23814398224E+02  0.59091735394E+02  0.12065336149E+03  0.00000000000E+00 0. -1.
</event>
<event>
 7    1  0.6833760E-006  0.8886126E+02  0.7561462E-02  0.1305633E+00
          1   -1    0    0  501    0  0.00000000000E+00  0.00000000000E+00  0.87604806849E+02  0.87604806849E+02  0.00000000000E+00 0. -1.
         -1   -1    0    0    0  501 -0.00000000000E+00 -0.00000000000E+00 -0.48654179793E+03  0.48654179793E+03  0.00000000000E+00 0.  1.
         23    2    1    2    0    0 -0.21138390264E+02  0.13128110729E+02 -0.44804608442E+03  0.46357218578E+03  0.11633872455E+03 0.  0.
          5    1    3    3  502    0 -0.22468942269E+02  0.47481857975E+02 -0.40457314324E+03  0.40799054013E+03  0.41800000000E+01 0. -1.
         -5    1    3    3    0  502  0.13305520053E+01 -0.34353747246E+02 -0.43472941181E+02  0.55581645653E+02  0.41800000000E+01 0.  1.
        -11    1    1    2    0    0  0.14497195577E+02 -0.50447015287E+02  0.54723119477E+01  0.52773252970E+02  0.00000000000E+00 0.  1.
         11    1    1    2    0    0  0.66411946869E+01  0.37318904558E+02  0.43636781391E+02  0.57801166030E+02  0.00000000000E+00 0. -1.
</event>
<event>
 7    1  0.6833760E-006  0.1173171E+03  0.7561462E-02  0.1247590E+00
          2   -1    0    0  501    0  0.00000000000E+00  0.00000000000E+00  0.50752729608E+03  0.50752729608E+03  0.00000000000E+00 0. -1.
         -2   -1    0    0    0  501 -0.00000000000E+00 -0.00000000000E+00 -0.46871849403E+02  0.46871849403E+02  0.00000000000E+00 0.  1.
         23    2    1    2    0    0  0.38792408843E+02 -0.98477699707E+02  0.19598014423E+03  0.25545687420E+03  0.12508912551E+03 0.  0.
          5    1    3    3  502    0  0.52962104199E+01 -0.90165991438E+02  0.20093498001E+03  0.22034131353E+03  0.41800000000E+01 0.  1.
         -5    1    3    3    0  502  0.33496198423E+02 -0.83117082695E+01 -0.49548357850E+01  0.35115560665E+02  0.41800000000E+01 0.  1.
        -11    1    1    2    0    0  0.34595225806E+01  0.20245813997E+02  0.87140911381E+00  0.20557739047E+02  0.00000000000E+00 0.  1.
         11    1    1    2    0    0 -0.42251931423E+02  0.78231885711E+02  0.26380389334E+03  0.27838453224E+03  0.00000000000E+00 0. -1.
</event>
<event>
 7    1  0.6833760E-006  0.1196156E+03  0.7561462E-02  0.1243733E+00
          1   -1    0    0  501    0  0.00000000000E+00  0.00000000000E+00  0.31404080044E+02  0.31404080044E+02  0.00000000000E+00 0. -1.
         -1   -1    0    0    0  501 -0.00000000000E+00 -0.00000000000E+00 -0.52704208217E+03  0.52704208217E+03  0.00000000000E+00 0.  1.
         23    2    1    2    0    0  0.44342695323E+02 -0.50769841189E+02 -0.30133722980E+03  0.33316007231E+03  0.12509059242E+03 0.  0.
          5    1    3    3  502    0 -0.35047962042E+02 -0.51685797892E+02 -0.13166316407E+03  0.14578217490E+03  0.41800000000E+01 0.  1.
         -5    1    3    3    0  502  0.79390657364E+02  0.91595670211E+00 -0.16967406573E+03  0.18737789740E+03  0.41800000000E+01 0.  1.
        -11    1    1    2    0    0 -0.20487214165E+02  0.65817537731E+02 -0.18181007182E+03  0.19443913298E+03  0.00000000000E+00 0.  1.
         11    1    1    2    0    0 -0.23855481158E+02 -0.15047696541E+02 -0.12490700496E+02  0.30846956922E+02  0.00000000000E+00 0. -1.
</event>
<event>
 7    1  0.6833760E-006  0.1284185E+03  0.7561462E-02  0.1229821E+00
         -2   -1    0    0    0  501 -0.00000000000E+00  0.00000000000E+00  0.32289718942E+02  0.32289718942E+02  0.00000000000E+00 0.  1.
          2   -1    0    0  501    0  0.00000000000E+00 -0.00000000000E+00 -0.65833270058E+03  0.65833270058E+03  0.00000000000E+00 0. -1.
         23    2    1    2    0    0  0.85899637823E+02 -0.37813763453E+02 -0.28443322454E+03  0.32458876434E+03  0.12508788203E+03 0.  0.
          5    1    3    3  502    0  0.10392912394E+03 -0.37466036639E+02 -0.28538768349E+03  0.30605321268E+03  0.41800000000E+01 0.  1.
         -5    1    3    3    0  502 -0.18029486113E+02 -0.34772681390E+00  0.95445895346E+00  0.18535551659E+02  0.41800000000E+01 0.  1.
        -11    1    1    2    0    0 -0.74970025619E+02 -0.12743787600E+02 -0.24385870831E+03  0.25544075337E+03  0.00000000000E+00 0. -1.
         11    1    1    2    0    0 -0.10929612204E+02  0.50557551053E+02 -0.97751048789E+02  0.11059290181E+03  0.00000000000E+00 0.  1.
</event>
<event>
 7    1  0.6833760E-006  0.2470521E+03  0.7561462E-02  0.1115182E+00
          2   -1    0    0  501    0  0.00000000000E+00  0.00000000000E+00  0.63847685546E+03  0.63847685546E+03  0.00000000000E+00 0. -1.
         -2   -1    0    0    0  501 -0.00000000000E+00 -0.00000000000E+00 -0.13247696907E+03  0.13247696907E+03  0.00000000000E+00 0.  1.
         23    2    1    2    0    0  0.63505184670E+02 -0.23087022271E+03  0.94385505473E+02  0.28616600679E+03  0.12509353134E+03 0.  0.
          5    1    3    3  502    0  0.63817210549E+02 -0.19541542519E+03  0.12371310122E+03  0.23996297334E+03  0.41800000000E+01 0.  1.
         -5    1    3    3    0  502 -0.31202587912E+00 -0.35454797526E+02 -0.29327595743E+02  0.46203033448E+02  0.41800000000E+01 0.  1.
        -11    1    1    2    0    0 -0.75859524080E+01  0.16985546366E+03  0.23842862188E+03  0.29284233461E+03  0.00000000000E+00 0.  1.
         11    1    1    2    0    0 -0.55919232262E+02  0.61014759058E+02  0.17318575904E+03  0.19194548313E+03  0.00000000000E+00 0. -1.
</event>
<event>
 7    1  0.6833760E-006  0.1511656E+03  0.7561462E-02  0.1199048E+00
          3   -1    0    0  501    0  0.00000000000E+00  0.00000000000E+00  0.31648326639E+03  0.31648326639E+03  0.00000000000E+00 0. -1.
         -3   -1    0    0    0  501 -0.00000000000E+00 -0.00000000000E+00 -0.99564091264E+02  0.99564091264E+02  0.00000000000E+00 0.  1.
         23    2    1    2    0    0  0.57676704015E+02  0.11115140379E+03  0.56631867287E+02  0.18583846584E+03  0.12509008850E+03 0.  0.
          5    1    3    3  502    0 -0.21011430985E+02 -0.13232286293E+02  0.24494647417E+02  0.35128817012E+02  0.41800000000E+01 0.  1.
         -5    1    3    3    0  502  0.78688135000E+02  0.12438369008E+03  0.32137219870E+02  0.15070964882E+03  0.41800000000E+01 0.  1.
        -11    1    1    2    0    0 -0.28331603371E+02 -0.88242686164E+02  0.34277832066E+02  0.98815085803E+02  0.00000000000E+00 0.  1.
         11    1    1    2    0    0 -0.29345100644E+02 -0.22908717622E+02  0.12600947577E+03  0.13139380602E+03  0.00000000000E+00 0. -1.
</event>
<event>
 7    1  0.6833760E-006  0.9345447E+02  0.7561462E-02  0.1294695E+00
          1   -1    0    0  501    0  0.00000000000E+00  0.00000000000E+00  0.67752450781E+02  0.67752450781E+02  0.00000000000E+00 0. -1.
         -1   -1    0    0    0  501 -0.00000000000E+00 -0.00000000000E+00 -0.21737160178E+03  0.21737160178E+03  0.00000000000E+00 0.  1.
         23    2    1    2    0    0 -0.35179139618E+02 -0.21533372413E+02 -0.12681958559E+03  0.18284005438E+03  0.12508405256E+03 0.  0.
          5    1    3    3  502    0  0.88612530263E+01 -0.39459204278E+02 -0.12880212466E+03  0.13506668844E+03  0.41800000000E+01 0.  1.
         -5    1    3    3    0  502 -0.44040392644E+02  0.17925831865E+02  0.19825390768E+01  0.47773365943E+02  0.41800000000E+01 0.  1.
        -11    1    1    2    0    0 -0.30428997382E+02  0.89227842518E+01 -0.14812122232E+02  0.34999127496E+02  0.00000000000E+00 0. -1.
         11    1    1    2    0    0  0.65608136999E+02  0.12610588161E+02 -0.79874431779E+01  0.67284870683E+02  0.00000000000E+00 0.  1.
</event>
<event>
 7    1  0.6833760E-006  0.2735142E+03  0.7561462E-02  0.1099285E+00
         -2   -1    0    0    0  501 -0.00000000000E+00  0.00000000000E+00  0.32916783495E+03  0.32916783495E+03  0.00000000000E+00 0.  1.
          2   -1    0    0  501    0  0.00000000000E+00 -0.00000000000E+00 -0.24737840825E+03  0.24737840825E+03  0.00000000000E+00 0. -1.
         23    2    1    2    0    0  0.26226582175E+03 -0.24934348449E+02  0.34290156083E+02  0.29364622542E+03  0.12508880009E+03 0.  0.
          5    1    3    3  502    0  0.76825824160E+02  0.17593313144E+02  0.63266798114E+02  0.10115281543E+03  0.41800000000E+01 0.  1.
         -5    1    3    3    0  502  0.18543999759E+03 -0.42527661593E+02 -0.28976642030E+02  0.19249340999E+03  0.41800000000E+01 0.  1.
        -11    1    1    2    0    0 -0.21142827940E+03 -0.16708253071E+02  0.46755623846E+02  0.21718004377E+03  0.00000000000E+00 0. -1.
         11    1    1    2    0    0 -0.50837542347E+02  0.41642601519E+02  0.74364676376E+00  0.65719974008E+02  0.00000000000E+00 0.  1.
</event>
<event>
 7    1  0.6833760E-006  0.8219951E+02  0.7561462E-02  0.1322923E+00
         -2   -1    0    0    0  501 -0.00000000000E+00  0.00000000000E+00  0.45383357406E+02  0.45383357406E+02  0.00000000000E+00 0.  1.
          2   -1    0    0  501    0  0.00000000000E+00 -0.00000000000E+00 -0.30510561615E+03  0.30510561615E+03  0.00000000000E+00 0. -1.
         23    2    1    2    0    0 -0.21832720725E+02  0.35063816546E+02 -0.13667199883E+03  0.18982447992E+03  0.12509180223E+03 0.  0.
          5    1    3    3  502    0 -0.63775286289E+02  0.44011179451E+02 -0.12145172844E+03  0.14412586790E+03  0.41800000000E+01 0. -1.
         -5    1    3    3    0  502  0.41942565564E+02 -0.89473629048E+01 -0.15220270389E+02  0.45698612011E+02  0.41800000000E+01 0. -1.
        -11    1    1    2    0    0  0.13204675894E+02 -0.83170843992E+01  0.13876786188E+02  0.20883068579E+02  0.00000000000E+00 0.  1.
         11    1    1    2    0    0  0.86280448311E+01 -0.26746732147E+02 -0.13692704610E+03  0.13978142506E+03  0.00000000000E+00 0. -1.
</event>
<event>
 7    1  0.6833760E-006  0.8810450E+02  0.7561462E-02  0.1307508E+00
          1   -1    0    0  501    0  0.00000000000E+00  0.00000000000E+00  0.79378279427E+02  0.79378279427E+02  0.00000000000E+00 0. -1.
         -1   -1    0    0    0  501 -0.00000000000E+00 -0.00000000000E+00 -0.21132867833E+03  0.21132867833E+03  0.00000000000E+00 0.  1.
         23    2    1    2    0    0  0.82298615039E+01 -0.20720754065E+02 -0.14722760854E+03  0.19447707203E+03  0.12509309557E+03 0.  0.
          5    1    3    3  502    0  0.22120785049E+02  0.46122736840E+02 -0.96570713921E+02  0.10936183599E+03  0.41800000000E+01 0. -1.
         -5    1    3    3    0  502 -0.13890923545E+02 -0.66843490905E+02 -0.50656894615E+02  0.85115236035E+02  0.41800000000E+01 0. -1.
        -11    1    1    2    0    0  0.90482147293E+01  0.33688786319E+02 -0.30034823555E+02  0.46031458150E+02  0.00000000000E+00 0.  1.
         11    1    1    2    0    0 -0.17278076233E+02 -0.12968032254E+02  0.45312033192E+02  0.50198427573E+02  0.00000000000E+00 0. -1.
</event>
<event>
 7    1  0.6833760E-006  0.1152249E+03  0.7561462E-02  0.1251189E+00
          2   -1    0    0  501    0  0.00000000000E+00  0.00000000000E+00  0.52013962241E+03  0.52013962241E+03  0.00000000000E+00 0. -1.
         -2   -1    0    0    0  501 -0.00000000000E+00 -0.00000000000E+00 -0.39453943102E+02  0.39453943102E+02  0.00000000000E+00 0.  1.
         23    2    1    2    0    0  0.41709105202E+02 -0.46900895028E+02  0.12739047491E+03  0.18924740328E+03  0.12508758187E+03 0.  0.
          5    1    3    3  502    0  0.75487400760E+02 -0.29394910953E+02  0.12733047379E+03  0.15097327717E+03  0.41800000000E+01 0.  1.
         -5    1    3    3    0  502 -0.33778295558E+02 -0.17505984075E+02  0.60001115106E-01  0.38274126108E+02  0.41800000000E+01 0.  1.
        -11    1    1    2    0    0 -0.71121394325E+02  0.35783071434E+02  0.25001177008E+03  0.26238248057E+03  0.00000000000E+00 0. -1.
         11    1    1    2    0    0  0.29412289123E+02  0.11117823594E+02  0.10328343433E+03  0.10796368167E+03  0.00000000000E+00 0.  1.
</event>
<event>
 7    1  0.6833760E-006  0.1733309E+03  0.7561462E-02  0.1174418E+00
         -1   -1    0    0    0  501 -0.00000000000E+00  0.00000000000E+00  0.56466596728E+02  0.56466596728E+02  0.00000000000E+00 0.  1.
          1   -1    0    0  501    0  0.00000000000E+00 -0.00000000000E+00 -0.56933699003E+03  0.56933699003E+03  0.00000000000E+00 0. -1.
         23    2    1    2    0    0  0.56904044630E+02  0.12263737730E+03 -0.20380851263E+03  0.27470796386E+03  0.12509420043E+03 0.  0.
          5    1    3    3  502    0  0.22829887633E+02 -0.21871151388E+02 -0.60093758928E+02  0.68031487522E+02  0.41800000000E+01 0.  1.
         -5    1    3    3    0  502  0.34074156998E+02  0.14450852869E+03 -0.14371475370E+03  0.20667647633E+03  0.41800000000E+01 0.  1.
        -11    1    1    2    0    0 -0.80225222173E+02 -0.62366933926E+02 -0.19969550264E+03  0.22406252363E+03  0.00000000000E+00 0.  1.
         11    1    1    2    0    0  0.23321177542E+02 -0.60270443375E+02 -0.10936637803E+03  0.12703309927E+03  0.00000000000E+00 0. -1.
</event>
<event>
 7    1  0.6833760E-006  0.1877597E+03  0.7561462E-02  0.1160498E+00
         -4   -1    0    0    0  501 -0.00000000000E+00  0.00000000000E+00  0.40663819809E+03  0.40663819809E+03  0.00000000000E+00 0.  1.
          4   -1    0    0  501    0  0.00000000000E+00 -0.00000000000E+00 -0.93662543674E+02  0.93662543674E+02  0.00000000000E+00 0. -1.
         23    2    1    2    0    0  0.15034314063E+03  0.54852048369E+02  0.20140211528E+03  0.28604448134E+03  0.12508727400E+03 0.  0.
          5    1    3    3  502    0  0.13406819766E+03 -0.16638893966E+01  0.17734602704E+03  0.22236487100E+03  0.41800000000E+01 0. -1.
         -5    1    3    3    0  502  0.16274942975E+02  0.56515937765E+02  0.24056088248E+02  0.63679610333E+02  0.41800000000E+01 0. -1.
        -11    1    1    2    0    0 -0.15463816200E+03 -0.30412227241E+02  0.10160866256E+03  0.18751582605E+03  0.00000000000E+00 0.  1.
         11    1    1    2    0    0  0.42950213673E+01 -0.24439821127E+02  0.99648765663E+01  0.26740434369E+02  0.00000000000E+00 0. -1.
</event>
<event>
 7    1  0.6833760E-006  0.2317936E+03  0.7561462E-02  0.1125384E+00
          1   -1    0    0  501    0  0.00000000000E+00  0.00000000000E+00  0.19187928843E+03  0.19187928843E+03  0.00000000000E+00 0. -1.
         -1   -1    0    0    0  501 -0.00000000000E+00 -0.00000000000E+00 -0.34828455689E+03  0.34828455689E+03  0.00000000000E+00 0.  1.
         23    2    1    2    0    0 -0.19130364885E+03 -0.10944515686E+03  0.20154207217E+01  0.25343043155E+03  0.12509034053E+03 0.  0.
          5    1    3    3  502    0 -0.94640093861E+02 -0.11740059432E+02  0.50043167630E+02  0.10777925305E+03  0.41800000000E+01 0. -1.
         -5    1    3    3    0  502 -0.96663554990E+02 -0.97705097425E+02 -0.48027746908E+02  0.14565117850E+03  0.41800000000E+01 0. -1.
        -11    1    1    2    0    0  0.61242093538E+02  0.73534924597E+02 -0.10376350757E+03  0.14115539189E+03  0.00000000000E+00 0.  1.
         11    1    1    2    0    0  0.13006155531E+03  0.35910232259E+02 -0.54657181610E+02  0.14557802187E+03  0.00000000000E+00 0. -1.
</event>
<event>
 7    1  0.6833760E-006  0.2232830E+03  0.7561462E-02  0.1131459E+00
          2   -1    0    0  501    0  0.00000000000E+00  0.00000000000E+00  0.30412867481E+03  0.30412867481E+03  0.00000000000E+00 0. -1.
         -2   -1    0    0    0  501 -0.00000000000E+00 -0.00000000000E+00 -0.19855475662E+03  0.19855475662E+03  0.00000000000E+00 0.  1.
         23    2    1    2    0    0 -0.77339191680E+02  0.19112366848E+03 -0.25265046719E+02  0.24247749346E+03  0.12508958800E+03 0.  0.
          5    1    3    3  502    0 -0.85157643325E+02  0.52269055702E+02  0.48272143139E+01  0.10012318812E+03  0.41800000000E+01 0.  1.
         -5    1    3    3    0  502  0.78184516443E+01  0.13885461277E+03 -0.30092261033E+02  0.14235430534E+03  0.41800000000E+01 0.  1.
        -11    1    1    2    0    0  0.41956612199E+02 -0.73958880385E+02  0.57875672661E+01  0.85227749177E+02  0.00000000000E+00 0.  1.
         11    1    1    2    0    0  0.35382579481E+02 -0.11716478809E+03  0.12505139765E+03  0.17497818880E+03  0.00000000000E+00 0. -1.
</event>
<event>
 7    1  0.6833760E-006  0.1091964E+03  0.7561462E-02  0.1262065E+00
         -2   -1    0    0    0  501 -0.00000000000E+00  0.00000000000E+00  0.24350488926E+02  0.24350488926E+02  0.00000000000E+00 0.  1.
          2   -1    0    0  501    0  0.00000000000E+00 -0.00000000000E+00 -0.68055395213E+03  0.68055395213E+03  0.00000000000E+00 0. -1.
         23    2    1    2    0    0  0.44391874026E+02  0.29625333400E+02 -0.24756282477E+03  0.28245985151E+03  0.12509163301E+03 0.  0.
          5    1    3    3  502    0  0.65026379826E+02  0.50030932981E+02 -0.23774728283E+03  0.25154078640E+03  0.41800000000E+01 0. -1.
         -5    1    3    3    0  502 -0.20634505800E+02 -0.20405599580E+02 -0.98155419372E+01  0.30919065111E+02  0.41800000000E+01 0. -1.
        -11    1    1    2    0    0 -0.60475988365E+02  0.12565950683E+02 -0.22360642647E+03  0.23198077990E+03  0.00000000000E+00 0. -1.
         11    1    1    2    0    0  0.16084114339E+02 -0.42191284083E+02 -0.18503421196E+03  0.19046380964E+03  0.00000000000E+00 0.  1.
</event>
<event>
 7    1  0.6833760E-006  0.8871691E+02  0.7561462E-02  0.1305989E+00
          2   -1    0    0  501    0  0.00000000000E+00  0.00000000000E+00  0.10096655931E+04  0.10096655931E+04  0.00000000000E+00 0. -1.
         -2   -1    0    0    0  501 -0.00000000000E+00 -0.00000000000E+00 -0.14493161318E+02  0.14493161318E+02  0.00000000000E+00 0.  1.
         23    2    1    2    0    0  0.41013784121E+02  0.44334659113E+02  0.42022787142E+03  0.43882036164E+03  0.11101420352E+03 0.  0.
          5    1    3    3  502    0  0.88238512310E+00 -0.39081925501E+01 -0.57881714603E+01  0.81870569418E+01  0.41800000000E+01 0. -1.
         -5    1    3    3    0  502  0.40131398998E+02  0.48242851663E+02  0.42601604288E+03  0.43063330470E+03  0.41800000000E+01 0.  1.
        -11    1    1    2    0    0  0.23377460206E+02 -0.37242023387E+02  0.19360130594E+03  0.19853196119E+03  0.00000000000E+00 0.  1.
         11    1    1    2    0    0 -0.64391244328E+02 -0.70926357261E+01  0.38134325437E+03  0.38680643154E+03  0.00000000000E+00 0. -1.
</event>
<event>
 7    1  0.6833760E-006  0.1042264E+03  0.7561462E-02  0.1271651E+00
          1   -1    0    0  501    0  0.00000000000E+00  0.00000000000E+00  0.42263756867E+02  0.42263756867E+02  0.00000000000E+00 0. -1.
         -1   -1    0    0    0  501 -0.00000000000E+00 -0.00000000000E+00 -0.39816707441E+03  0.39816707441E+03  0.00000000000E+00 0.  1.
         23    2    1    2    0    0  0.18983510506E+02  0.53643856786E+02 -0.26881813306E+03  0.30191023285E+03  0.12509421648E+03 0.  0.
          5    1    3    3  502    0 -0.47685349781E+01  0.71524156580E+02 -0.26126471851E+03  0.27095233795E+03  0.41800000000E+01 0.  1.
         -5    1    3    3    0  502  0.23752045484E+02 -0.17880299794E+02 -0.75534145424E+01  0.30957894900E+02  0.41800000000E+01 0.  1.
        -11    1    1    2    0    0  0.35579305087E+02 -0.10588440920E+02 -0.39987484212E+02  0.54561899941E+02  0.00000000000E+00 0.  1.
         11    1    1    2    0    0 -0.54562815592E+02 -0.43055415865E+02 -0.47097700281E+02  0.83958698492E+02  0.00000000000E+00 0. -1.
</event>
<event>
 7    1  0.6833760E-006  0.1313685E+03  0.7561462E-02  0.1225439E+00
          1   -1    0    0  501    0  0.00000000000E+00  0.00000000000E+00  0.39284519748E+03  0.39284519748E+03  0.00000000000E+00 0.  1.
         -1   -1    0    0    0  501 -0.00000000000E+00 -0.00000000000E+00 -0.58282278399E+02  0.58282278399E+02  0.00000000000E+00 0. -1.
         23    2    1    2    0    0 -0.92940309018E+02  0.47420954497E+02  0.14824953595E+03  0.22025715413E+03  0.12509452853E+03 0.  0.
          5    1    3    3  502    0 -0.76694240009E+02  0.85564114956E+02  0.79233495428E+02  0.13963754301E+03  0.41800000000E+01 0. -1.
         -5    1    3    3    0  502 -0.16246069010E+02 -0.38143160459E+02  0.69016040522E+02  0.80619611122E+02  0.41800000000E+01 0. -1.
        -11    1    1    2    0    0  0.58483604288E+02 -0.39959202968E+02  0.18206736686E+03  0.19536016981E+03  0.00000000000E+00 0.  1.
         11    1    1    2    0    0  0.34456704731E+02 -0.74617515295E+01  0.42460162700E+01  0.35510151942E+02  0.00000000000E+00 0. -1.
</event>
<event>
 7    1  0.6833760E-006  0.1419846E+03  0.7561462E-02  0.1210683E+00
         -2   -1    0    0    0  501 -0.00000000000E+00  0.00000000000E+00  0.29062184207E+02  0.29062184207E+02  0.00000000000E+00 0.  1.
          2   -1    0    0  501    0  0.00000000000E+00 -0.00000000000E+00 -0.74481376684E+03  0.74481376684E+03  0.00000000000E+00 0. -1.
         23    2    1    2    0    0  0.57242876560E+02  0.80708666633E+02 -0.37237378487E+03  0.40509340577E+03  0.12509115055E+03 0.  0.
          5    1    3    3  502    0 -0.38093396652E+02  0.33414836159E+02 -0.15311627121E+03  0.16133729592E+03  0.41800000000E+01 0.  1.
         -5    1    3    3    0  502  0.95336273212E+02  0.47293830474E+02 -0.21925751366E+03  0.24375610985E+03  0.41800000000E+01 0.  1.
        -11    1    1    2    0    0 -0.55842836044E+02 -0.96110114221E+02 -0.33038992043E+03  0.34858725725E+03  0.00000000000E+00 0. -1.
         11    1    1    2    0    0 -0.14000405155E+01  0.15401447588E+02 -0.12987877326E+02  0.20195288032E+02  0.00000000000E+00 0.  1.
</event>
<event>
 7    1  0.6833760E-006  0.8831756E+02  0.7561462E-02  0.1306978E+00
          1   -1    0    0  501    0  0.00000000000E+00  0.00000000000E+00  0.26941881596E+02  0.26941881596E+02  0.00000000000E+00 0. -1.
         -1   -1    0    0    0  501 -0.00000000000E+00 -0.00000000000E+00 -0.46853356489E+03  0.46853356489E+03  0.00000000000E+00 0.  1.
         23    2    1    2    0    0 -0.22731023137E+02 -0.17524568439E+02 -0.32487218395E+03  0.34928384271E+03  0.12503382325E+03 0.  0.
          5    1    3    3  502    0  0.39881136040E+02  0.28520814247E+02 -0.10288037442E+03  0.11404291166E+03  0.41800000000E+01 0.  1.
         -5    1    3    3    0  502 -0.62612159178E+02 -0.46045382687E+02 -0.22199180953E+03  0.23524093105E+03  0.41800000000E+01 0.  1.
        -11    1    1    2    0    0  0.33964791666E+02  0.80667581065E+01 -0.12468886820E+03  0.12948356464E+03  0.00000000000E+00 0.  1.
         11    1    1    2    0    0 -0.11233768529E+02  0.94578103330E+01  0.79693688624E+01  0.16708039135E+02  0.00000000000E+00 0. -1.
</event>
<event>
 7    1  0.6833760E-006  0.6593752E+02  0.7561462E-02  0.1374479E+00
         -1   -1    0    0    0  501 -0.00000000000E+00  0.00000000000E+00  0.19546990822E+03  0.19546990822E+03  0.00000000000E+00 0.  1.
          1   -1    0    0  501    0  0.00000000000E+00 -0.00000000000E+00 -0.57897810212E+02  0.57897810212E+02  0.00000000000E+00 0. -1.
         23    2    1    2    0    0  0.10410089806E+02  0.77951160377E+01  0.11168556437E+03  0.16819688600E+03  0.12508954140E+03 0.  0.
          5    1    3    3  502    0  0.10239324453E+02 -0.33336586888E+02  0.12084904481E+03  0.12584965563E+03  0.41800000000E+01 0. -1.
         -5    1    3    3    0  502  0.17076535255E+00  0.41131702925E+02 -0.91634804409E+01  0.42347230372E+02  0.41800000000E+01 0. -1.
        -11    1    1    2    0    0  0.12944926738E+02  0.16985438422E+02  0.42288155906E+02  0.47374722970E+02  0.00000000000E+00 0.  1.
         11    1    1    2    0    0 -0.23355016544E+02 -0.24780554459E+02 -0.16401622270E+02  0.37796109458E+02  0.00000000000E+00 0. -1.
</event>
<event>
 7    1  0.6833760E-006  0.3490430E+03  0.7561462E-02  0.1063008E+00
          2   -1    0    0  501    0  0.00000000000E+00  0.00000000000E+00  0.83426063675E+03  0.83426063675E+03  0.00000000000E+00 0. -1.
         -2   -1    0    0    0  501 -0.00000000000E+00 -0.00000000000E+00 -0.16817948074E+03  0.16817948074E+03  0.00000000000E+00 0.  1.
         23    2    1    2    0    0 -0.32005113120E+03  0.11753782168E+03  0.18918770157E+03  0.40949666512E+03  0.12509063200E+03 0.  0.
          5    1    3    3  502    0 -0.13758224729E+03  0.12718342237E+02  0.13259843563E+03  0.19154750985E+03  0.41800000000E+01 0. -1.
         -5    1    3    3    0  502 -0.18246888390E+03  0.10481947944E+03  0.56589265944E+02  0.21794915527E+03  0.41800000000E+01 0. -1.
        -11    1    1    2    0    0  0.20467960407E+03 -0.35307823134E+02  0.32052096864E+03  0.38193464628E+03  0.00000000000E+00 0.  1.
         11    1    1    2    0    0  0.11537152713E+03 -0.82229998543E+02  0.15637248580E+03  0.21100880609E+03  0.00000000000E+00 0. -1.
</event>
<event>
 7    1  0.6833760E-006  0.1060235E+03  0.7561462E-02  0.1268116E+00
          2   -1    0    0  501    0  0.00000000000E+00  0.00000000000E+00  0.40638529600E+03  0.40638529600E+03  0.00000000000E+00 0. -1.
         -2   -1    0    0    0  501 -0.00000000000E+00 -0.00000000000E+00 -0.37889310687E+02  0.37889310687E+02  0.00000000000E+00 0.  1.
         23    2    1    2    0    0 -0.54303020875E+02 -0.53477654267E+01  0.17402216939E+03  0.22115092551E+03  0.12508636914E+03 0.  0.
          5    1    3    3  502    0 -0.42380088696E+02 -0.44707601736E+02  0.16848694358E+03  0.17944404178E+03  0.41800000000E+01 0.  1.
         -5    1    3    3    0  502 -0.11922932180E+02  0.39359836310E+02  0.55352258040E+01  0.41706883734E+02  0.41800000000E+01 0.  1.
        -11    1    1    2    0    0  0.34901128041E+02  0.49598748022E+02  0.98503309451E+02  0.11567638703E+03  0.00000000000E+00 0. -1.
         11    1    1    2    0    0  0.19401892834E+02 -0.44250982595E+02  0.95970506477E+02  0.10744729415E+03  0.00000000000E+00 0.  1.
</event>
<event>
 7    1  0.6833760E-006  0.1479287E+03  0.7561462E-02  0.1203042E+00
          1   -1    0    0  501    0  0.00000000000E+00  0.00000000000E+00  0.83188239172E+03  0.83188239172E+03  0.00000000000E+00 0. -1.
         -1   -1    0    0    0  501 -0.00000000000E+00 -0.00000000000E+00 -0.32700643669E+02  0.32700643669E+02  0.00000000000E+00 0.  1.
         23    2    1    2    0    0  0.97766718257E+02  0.27631127003E+02  0.24250127224E+03  0.29116211134E+03  0.12508676056E+03 0.  0.
          5    1    3    3  502    0  0.16417111421E+02  0.66249447579E+02  0.13103770483E+03  0.14780684470E+03  0.41800000000E+01 0.  1.
         -5    1    3    3    0  502  0.81349606836E+02 -0.38618320576E+02  0.11146356741E+03  0.14335526665E+03  0.41800000000E+01 0.  1.
        -11    1    1    2    0    0  0.15790233265E+02  0.87924320090E+01  0.63034037138E+02  0.65573837505E+02  0.00000000000E+00 0.  1.
         11    1    1    2    0    0 -0.11355695152E+03 -0.36423559012E+02  0.49364643868E+03  0.50784708654E+03  0.00000000000E+00 0. -1.
</event>
<event>
 7    1  0.6833760E-006  0.2738257E+03  0.7561462E-02  0.1099110E+00
         -2   -1    0    0    0  501 -0.00000000000E+00  0.00000000000E+00  0.43955535729E+02  0.43955535729E+02  0.00000000000E+00 0.  1.
          2   -1    0    0  501    0  0.00000000000E+00 -0.00000000000E+00 -0.18956005103E+04  0.18956005103E+04  0.00000000000E+00 0. -1.
         23    2    1    2    0    0 -0.74433499697E+01  0.26452089334E+03 -0.10741827602E+04  0.11133473846E+04  0.12508832857E+03 0.  0.
          5    1    3    3  502    0  0.14267022106E+02  0.19028433381E+03 -0.93289626103E+03  0.95222086821E+03  0.41800000000E+01 0. -1.
         -5    1    3    3    0  502 -0.21710372075E+02  0.74236559525E+02 -0.14128649918E+03  0.16112651637E+03  0.41800000000E+01 0. -1.
        -11    1    1    2    0    0  0.42282081088E+02 -0.70521718226E+02 -0.21272811610E+03  0.22806652209E+03  0.00000000000E+00 0.  1.
         11    1    1    2    0    0 -0.34838731118E+02 -0.19399917511E+03 -0.56473409828E+03  0.59814213937E+03  0.00000000000E+00 0. -1.
</event>
<event>
 7    1  0.6833760E-006  0.9688736E+02  0.7561462E-02  0.1286981E+00
         -1   -1    0    0    0  501 -0.00000000000E+00  0.00000000000E+00  0.14315585089E+03  0.14315585089E+03  0.00000000000E+00 0.  1.
          1   -1    0    0  501    0  0.00000000000E+00 -0.00000000000E+00 -0.10496672881E+03  0.10496672881E+03  0.00000000000E+00 0. -1.
         23    2    1    2    0    0 -0.17292612094E+02 -0.54452228402E+02  0.98818868839E+01  0.13787372346E+03  0.12508969710E+03 0.  0.
          5    1    3    3  502    0  0.18888513687E+02 -0.82296705122E+02 -0.14769509639E+02  0.85820361443E+02  0.41800000000E+01 0. -1.
         -5    1    3    3    0  502 -0.36181125781E+02  0.27844476720E+02  0.24651396523E+02  0.52053362016E+02  0.41800000000E+01 0. -1.
        -11    1    1    2    0    0  0.24800614964E+02  0.39157947949E+02 -0.26129110240E+02  0.53208512402E+02  0.00000000000E+00 0. -1.
         11    1    1    2    0    0 -0.75080028701E+01  0.15294280454E+02  0.54436345435E+02  0.57040343845E+02  0.00000000000E+00 0.  1.
</event>
<event>
 7    1  0.6833760E-006  0.7337859E+02  0.7561462E-02  0.1348967E+00
          4   -1    0    0  501    0  0.00000000000E+00  0.00000000000E+00  0.28088693945E+03  0.28088693945E+03  0.00000000000E+00 0.  1.
         -4   -1    0    0    0  501 -0.00000000000E+00 -0.00000000000E+00 -0.42823963859E+02  0.42823963859E+02  0.00000000000E+00 0. -1.
         23    2    1    2    0    0 -0.43890346965E+01 -0.53744292658E+01  0.11955864759E+03  0.17317335404E+03  0.12508633906E+03 0.  0.
          5    1    3    3  502    0  0.23342279153E+02  0.37826528775E+02  0.18431921691E+01  0.44683084412E+02  0.41800000000E+01 0. -1.
         -5    1    3    3    0  502 -0.27731313849E+02 -0.43200958041E+02  0.11771545542E+03  0.12849026962E+03  0.41800000000E+01 0. -1.
        -11    1    1    2    0    0 -0.20650088387E+02 -0.80883623011E+01  0.12003582837E+03  0.12206739060E+03  0.00000000000E+00 0.  1.
         11    1    1    2    0    0  0.25039123083E+02  0.13462791567E+02 -0.15315003682E+01  0.28470158674E+02  0.00000000000E+00 0. -1.
</event>
<event>
 7    1  0.6833760E-006  0.8821515E+02  0.7561462E-02  0.1307232E+00
         -3   -1    0    0    0  501 -0.00000000000E+00  0.00000000000E+00  0.12243180841E+03  0.12243180841E+03  0.00000000000E+00 0.  1.
          3   -1    0    0  501    0  0.00000000000E+00 -0.00000000000E+00 -0.94212917758E+02  0.94212917758E+02  0.00000000000E+00 0. -1.
         23    2    1    2    0    0 -0.27616262513E+02 -0.68363782985E+01  0.45276851193E+02  0.13604138299E+03  0.12509144898E+03 0.  0.
          5    1    3    3  502    0  0.42378220610E+02  0.32434805146E+01 -0.12640696852E+02  0.44538672688E+02  0.41800000000E+01 0. -1.
         -5    1    3    3    0  502 -0.69994483123E+02 -0.10079858813E+02  0.57917548045E+02  0.91502710304E+02  0.41800000000E+01 0. -1.
        -11    1    1    2    0    0 -0.79627456532E+01  0.22604901449E+02  0.16597458641E+02  0.29152401637E+02  0.00000000000E+00 0.  1.
         11    1    1    2    0    0  0.35579008167E+02 -0.15768523151E+02 -0.33655419185E+02  0.51450941536E+02  0.00000000000E+00 0. -1.
</event>
<event>
 7    1  0.6833760E-006  0.8279390E+02  0.7561462E-02  0.1321305E+00
          2   -1    0    0  501    0  0.00000000000E+00  0.00000000000E+00  0.21538299033E+03  0.21538299033E+03  0.00000000000E+00 0. -1.
         -2   -1    0    0    0  501 -0.00000000000E+00 -0.00000000000E+00 -0.95348610858E+02  0.95348610858E+02  0.00000000000E+00 0.  1.
         23    2    1    2    0    0  0.45100057139E+02  0.14195367994E+02 -0.21914146077E+02  0.13552108333E+03  0.12510080176E+03 0.  0.
          5    1    3    3  502    0  0.11753086975E+02 -0.29483461120E+02  0.40911516666E+02  0.51948379464E+02  0.41800000000E+01 0. -1.
         -5    1    3    3    0  502  0.33346970164E+02  0.43678829114E+02 -0.62825662743E+02  0.83572703863E+02  0.41800000000E+01 0. -1.
        -11    1    1    2    0    0 -0.59407222826E+02 -0.16445465953E+01  0.40323149948E+02  0.71818375637E+02  0.00000000000E+00 0.  1.
         11    1    1    2    0    0  0.14307165686E+02 -0.12550821399E+02  0.10162537560E+03  0.10339214222E+03  0.00000000000E+00 0. -1.
</event>
<event>
 7    1  0.6833760E-006  0.1092526E+03  0.7561462E-02  0.1261960E+00
          1   -1    0    0  501    0  0.00000000000E+00  0.00000000000E+00  0.71275617109E+03  0.71275617109E+03  0.00000000000E+00 0. -1.
         -1   -1    0    0    0  501 -0.00000000000E+00 -0.00000000000E+00 -0.19649399820E+02  0.19649399820E+02  0.00000000000E+00 0.  1.
         23    2    1    2    0    0  0.18483419678E+02  0.39551928093E+02  0.34934668127E+03  0.37362598065E+03  0.12508907979E+03 0.  0.
          5    1    3    3  502    0  0.42099862379E+01 -0.45118845750E+02  0.99768247699E+02  0.10965678217E+03  0.41800000000E+01 0.  1.
         -5    1    3    3    0  502  0.14273433440E+02  0.84670773843E+02  0.24957843357E+03  0.26396919848E+03  0.41800000000E+01 0.  1.
        -11    1    1    2    0    0 -0.42648583215E+02 -0.45273044358E+02  0.31361436475E+03  0.31972256719E+03  0.00000000000E+00 0. -1.
         11    1    1    2    0    0  0.24165163536E+02  0.57211162644E+01  0.30145725261E+02  0.39057023076E+02  0.00000000000E+00 0.  1.
</event>
<event>
 7    1  0.6833760E-006  0.9366730E+02  0.7561462E-02  0.1294206E+00
         -4   -1    0    0    0  501 -0.00000000000E+00  0.00000000000E+00  0.56330520852E+02  0.56330520852E+02  0.00000000000E+00 0.  1.
          4   -1    0    0  501    0  0.00000000000E+00 -0.00000000000E+00 -0.22613453505E+03  0.22613453505E+03  0.00000000000E+00 0. -1.
         23    2    1    2    0    0 -0.19394693668E+02 -0.23913052133E+02 -0.89804808008E+02  0.15703488541E+03  0.12508822283E+03 0.  0.
          5    1    3    3  502    0  0.43718507526E+02  0.58097227977E+01 -0.13737516244E+01  0.44321782148E+02  0.41800000000E+01 0.  1.
         -5    1    3    3    0  502 -0.63113201194E+02 -0.29722774931E+02 -0.88431056383E+02  0.11271310327E+03  0.41800000000E+01 0.  1.
        -11    1    1    2    0    0 -0.59046682846E+01 -0.20882391538E+02  0.83022882878E+01  0.23235046260E+02  0.00000000000E+00 0.  1.
         11    1    1    2    0    0  0.25299361953E+02  0.44795443672E+02 -0.88301494478E+02  0.10219512423E+03  0.00000000000E+00 0. -1.
</event>
<event>
 7    1  0.6833760E-006  0.8680213E+02  0.7561462E-02  0.1310786E+00
         -2   -1    0    0    0  501 -0.00000000000E+00  0.00000000000E+00  0.32714849664E+02  0.32714849664E+02  0.00000000000E+00 0.  1.
          2   -1    0    0  501    0  0.00000000000E+00 -0.00000000000E+00 -0.34503032866E+03  0.34503032866E+03  0.00000000000E+00 0. -1.
         23    2    1    2    0    0  0.37583386325E+01  0.39096451554E+01 -0.17349607025E+03  0.21211643751E+03  0.12191425773E+03 0.  0.
          5    1    3    3  502    0  0.43002173973E+02  0.65860452050E+01 -0.16625413900E+03  0.17190251334E+03  0.41800000000E+01 0. -1.
         -5    1    3    3    0  502 -0.39243835341E+02 -0.26764000496E+01 -0.72419312539E+01  0.40213924178E+02  0.41800000000E+01 0.  1.
        -11    1    1    2    0    0 -0.36677118920E+02  0.26720862105E+02 -0.69536761868E+02  0.83033588233E+02  0.00000000000E+00 0.  1.
         11    1    1    2    0    0  0.32918780287E+02 -0.30630507260E+02 -0.69282646875E+02  0.82595152573E+02  0.00000000000E+00 0. -1.
</event>
<event>
 7    1  0.6833760E-006  0.1352352E+03  0.7561462E-02  0.1219888E+00
          1   -1    0    0  501    0  0.00000000000E+00  0.00000000000E+00  0.68878924542E+03  0.68878924542E+03  0.00000000000E+00 0. -1.
         -1   -1    0    0    0  501 -0.00000000000E+00 -0.00000000000E+00 -0.58093093317E+02  0.58093093317E+02  0.00000000000E+00 0.  1.
         23    2    1    2    0    0 -0.85747608945E+02  0.22192147169E+02  0.67680649465E+02  0.16787470922E+03  0.12552331994E+03 0.  0.
          5    1    3    3  502    0 -0.80793199810E+02 -0.32429631571E+02  0.71504615310E+02  0.11273688194E+03  0.41800000000E+01 0.  1.
         -5    1    3    3    0  502 -0.49544091349E+01  0.54621778740E+02 -0.38239658450E+01  0.55137827282E+02  0.41800000000E+01 0.  1.
        -11    1    1    2    0    0 -0.19200234324E+02  0.51035484350E+01  0.37677975558E+02  0.42594894610E+02  0.00000000000E+00 0.  1.
         11    1    1    2    0    0  0.10494784327E+03 -0.27295695604E+02  0.52533752708E+03  0.53641273490E+03  0.00000000000E+00 0. -1.
</event>
<event>
 6    1  0.6833760E-006  0.7879755E+02  0.7561462E-02  0.1332499E+00
         -4   -1    0    0    0  501 -0.00000000000E+00  0.00000000000E+00  0.89121059671E+02  0.89121059671E+02  0.00000000000E+00 0.  1.
          4   -1    0    0  501    0  0.00000000000E+00 -0.00000000000E+00 -0.16761234452E+03  0.16761234452E+03  0.00000000000E+00 0. -1.
          5    1    1    2  502    0  0.44126645865E+01 -0.34461080558E+02 -0.41823495599E+02  0.54531778497E+02  0.41800000000E+01 0. -1.
         -5    1    1    2    0  502  0.29348147706E+02  0.50224299506E+02  0.61395727987E+02  0.84679996751E+02  0.41800000000E+01 0.  1.
        -11    1    1    2    0    0 -0.36371704046E+02 -0.31630208502E+02 -0.66925843341E+02  0.82476902536E+02  0.00000000000E+00 0. -1.
         11    1    1    2    0    0  0.26108917533E+01  0.15866989553E+02 -0.31137673896E+02  0.35044726406E+02  0.00000000000E+00 0.  1.
</event>
<event>
 6    1  0.6833760E-006  0.2641623E+03  0.7561462E-02  0.1104668E+00
         -2   -1    0    0    0  501 -0.00000000000E+00  0.00000000000E+00  0.10062973089E+03  0.10062973089E+03  0.00000000000E+00 0.  1.
          2   -1    0    0  501    0  0.00000000000E+00 -0.00000000000E+00 -0.11171179771E+04  0.11171179771E+04  0.00000000000E+00 0. -1.
          5    1    1    2  502    0  0.76342772114E+02 -0.11475384339E+03 -0.36182160993E+03  0.38720668027E+03  0.41800000000E+01 0. -1.
         -5    1    1    2    0  502  0.12555890903E+03  0.11401379431E+03 -0.39777377748E+02  0.17425239485E+03  0.41800000000E+01 0.  1.
        -11    1    1    2    0    0 -0.38593580391E+02  0.37034756818E+02 -0.83278653244E+02  0.98976622220E+02  0.00000000000E+00 0.  1.
         11    1    1    2    0    0 -0.16330810075E+03 -0.36294707737E+02 -0.53161060532E+03  0.55731201070E+03  0.00000000000E+00 0. -1.
</event>
<event>
 7    1  0.6833760E-006  0.2360249E+03  0.7561462E-02  0.1122470E+00
         -2   -1    0    0    0  501 -0.00000000000E+00  0.00000000000E+00  0.51148847329E+02  0.51148847329E+02  0.00000000000E+00 0.  1.
          2   -1    0    0  501    0  0.00000000000E+00 -0.00000000000E+00 -0.11223259593E+04  0.11223259593E+04  0.00000000000E+00 0. -1.
         23    2    1    2    0    0 -0.11320974523E+03  0.17848984975E+03 -0.48195625689E+03  0.54092653215E+03  0.12507840242E+03 0.  0.
          5    1    3    3  502    0 -0.76073559386E+02  0.17160512440E+02 -0.18718072831E+03  0.20281954313E+03  0.41800000000E+01 0.  1.
         -5    1    3    3    0  502 -0.37136185848E+02  0.16132933731E+03 -0.29477552858E+03  0.33810698902E+03  0.41800000000E+01 0.  1.
        -11    1    1    2    0    0  0.56114237225E+02 -0.19475660638E+02 -0.18938861884E+03  0.19848465413E+03  0.00000000000E+00 0.  1.
         11    1    1    2    0    0  0.57095508009E+02 -0.15901418911E+03 -0.39983223619E+03  0.43406362031E+03  0.00000000000E+00 0. -1.
</event>
<event>
 6    1  0.6833760E-006  0.2278881E+03  0.7561462E-02  0.1128135E+00
         -1   -1    0    0    0  501 -0.00000000000E+00  0.00000000000E+00  0.10042445987E+03  0.10042445987E+03  0.00000000000E+00 0.  1.
          1   -1    0    0  501    0  0.00000000000E+00 -0.00000000000E+00 -0.61197046557E+03  0.61197046557E+03  0.00000000000E+00 0. -1.
          5    1    1    2  502    0  0.37455414539E+02 -0.75738285083E+02 -0.74344956489E+02  0.11262255929E+03  0.41800000000E+01 0. -1.
         -5    1    1    2    0  502 -0.16861265756E+03  0.11950391680E+03 -0.11336877789E+03  0.23575700757E+03  0.41800000000E+01 0.  1.
        -11    1    1    2    0    0 -0.98286124752E+01 -0.18906521160E+02 -0.26429535029E+02  0.33949646351E+02  0.00000000000E+00 0.  1.
         11    1    1    2    0    0  0.14098585550E+03 -0.24859110554E+02 -0.29740273630E+03  0.33006571222E+03  0.00000000000E+00 0. -1.
</event>
<event>
 7    1  0.6833760E-006  0.1138345E+03  0.7561462E-02  0.1253629E+00
         -1   -1    0    0    0  501 -0.00000000000E+00  0.00000000000E+00  0.63364636030E+03  0.63364636030E+03  0.00000000000E+00 0.  1.
          1   -1    0    0  501    0  0.00000000000E+00 -0.00000000000E+00 -0.30086596376E+02  0.30086596376E+02  0.00000000000E+00 0. -1.
         23    2    1    2    0    0 -0.31540442090E+02 -0.73354665444E+02  0.42050564154E+03  0.44474196107E+03  0.12080857148E+03 0.  0.
          5    1    3    3  502    0 -0.77604344554E+01  0.30303430835E+02  0.48940533199E+02  0.58233756990E+02  0.41800000000E+01 0. -1.
         -5    1    3    3    0  502 -0.23780007635E+02 -0.10365809628E+03  0.37156510834E+03  0.38650820408E+03  0.41800000000E+01 0.  1.
        -11    1    1    2    0    0 -0.71272376554E+01  0.33100809462E+02  0.15073741599E+03  0.15449346162E+03  0.00000000000E+00 0.  1.
         11    1    1    2    0    0  0.38667679746E+02  0.40253855982E+02  0.32316706401E+02  0.64497533991E+02  0.00000000000E+00 0. -1.
</event>
<event>
 7    1  0.6833760E-006  0.1124129E+03  0.7561462E-02  0.1256166E+00
         -1   -1    0    0    0  501 -0.00000000000E+00  0.00000000000E+00  0.20573166012E+02  0.20573166012E+02  0.00000000000E+00 0.  1.
          1   -1    0    0  501    0  0.00000000000E+00 -0.00000000000E+00 -0.88029197826E+03  0.88029197826E+03  0.00000000000E+00 0. -1.
         23    2    1    2    0    0 -0.66328820335E+02  0.23969395994E+02 -0.36860711908E+03  0.39559292764E+03  0.12509401188E+03 0.  0.
          5    1    3    3  502    0  0.21026410157E+02  0.38836486824E+01 -0.67981559875E+01  0.22822795096E+02  0.41800000000E+01 0. -1.
         -5    1    3    3    0  502 -0.87355230491E+02  0.20085747312E+02 -0.36180896310E+03  0.37277013254E+03  0.41800000000E+01 0. -1.
        -11    1    1    2    0    0 -0.97101117875E+01 -0.35135488657E+02 -0.94584162486E+02  0.10136544099E+03  0.00000000000E+00 0.  1.
         11    1    1    2    0    0  0.76038932122E+02  0.11166092663E+02 -0.39652753068E+03  0.40390677564E+03  0.00000000000E+00 0. -1.
</event>
<event>
 7    1  0.6833760E-006  0.1013700E+03  0.7561462E-02  0.1277441E+00
         -2   -1    0    0    0  501 -0.00000000000E+00  0.00000000000E+00  0.14484658598E+03  0.14484658598E+03  0.00000000000E+00 0.  1.
          2   -1    0    0  501    0  0.00000000000E+00 -0.00000000000E+00 -0.11039928795E+03  0.11039928795E+03  0.00000000000E+00 0. -1.
         23    2    1    2    0    0  0.11258578310E+02 -0.44110037920E+02  0.65309687448E+02  0.14827379669E+03  0.12508921807E+03 0.  0.
          5    1    3    3  502    0 -0.25702599356E+02  0.15400770971E+02  0.71682939064E+02  0.77805677897E+02  0.41800000000E+01 0.  1.
         -5    1    3    3    0  502  0.36961177667E+02 -0.59510808891E+02 -0.63732516162E+01  0.70468118788E+02  0.41800000000E+01 0.  1.
        -11    1    1    2    0    0 -0.25001894262E+02 -0.22898761608E+02 -0.78412926006E+01  0.34798475103E+02  0.00000000000E+00 0. -1.
         11    1    1    2    0    0  0.13743315951E+02  0.67008799528E+02 -0.23021096810E+02  0.72173602140E+02  0.00000000000E+00 0.  1.
</event>
<event>
 7    1  0.6833760E-006  0.6945265E+02  0.7561462E-02  0.1361964E+00
          3   -1    0    0  501    0  0.00000000000E+00  0.00000000000E+00  0.80556218064E+02  0.80556218064E+02  0.00000000000E+00 0. -1.
         -3   -1    0    0    0  501 -0.00000000000E+00 -0.00000000000E+00 -0.16516556914E+03  0.16516556914E+03  0.00000000000E+00 0.  1.
         23    2    1    2    0    0  0.23757048743E+02  0.24505740197E+02 -0.63279335889E+02  0.14428350643E+03  0.12509407344E+03 0.  0.
          5    1    3    3  502    0 -0.99351455715E+01  0.26375354672E+02  0.32161092083E+02  0.42967135064E+02  0.41800000000E+01 0.  1.
         -5    1    3    3    0  502  0.33692194315E+02 -0.18696144750E+01 -0.95440427973E+02  0.10131637137E+03  0.41800000000E+01 0.  1.
        -11    1    1    2    0    0  0.59198025758E+01  0.21146911759E+02 -0.38518876237E+02  0.44338919316E+02  0.00000000000E+00 0.  1.
         11    1    1    2    0    0 -0.29676851319E+02 -0.45652651956E+02  0.17188861047E+02  0.57099361458E+02  0.00000000000E+00 0. -1.
</event>
<event>
 7    1  0.6833760E-006  0.1154832E+03  0.7561462E-02  0.1250740E+00
          2   -1    0    0  501    0  0.00000000000E+00  0.00000000000E+00  0.66656865230E+03  0.66656865230E+03  0.00000000000E+00 0. -1.
         -2   -1    0    0    0  501 -0.00000000000E+00 -0.00000000000E+00 -0.23101265720E+02  0.23101265720E+02  0.00000000000E+00 0.  1.
         23    2    1    2    0    0  0.24309297794E+02 -0.37264051418E+02  0.24747019592E+03  0.28083609029E+03  0.12509140761E+03 0.  0.
          5    1    3    3  502    0 -0.49855410276E+02 -0.22808205827E+02  0.12937688054E+03  0.14057604990E+03  0.41800000000E+01 0. -1.
         -5    1    3    3    0  502  0.74164708071E+02 -0.14455845592E+02  0.11809331537E+03  0.14026004039E+03  0.41800000000E+01 0. -1.
        -11    1    1    2    0    0 -0.33012022750E+02 -0.22475250742E+02  0.12635059088E+03  0.13251189515E+03  0.00000000000E+00 0.  1.
         11    1    1    2    0    0  0.87027249553E+01  0.59739302160E+02  0.26964659978E+03  0.27632193257E+03  0.00000000000E+00 0. -1.
</event>
<event>
 7    1  0.6833760E-006  0.1435038E+03  0.7561462E-02  0.1208691E+00
          2   -1    0    0  501    0  0.00000000000E+00  0.00000000000E+00  0.56477664598E+03  0.56477664598E+03  0.00000000000E+00 0. -1.
         -2   -1    0    0    0  501 -0.00000000000E+00 -0.00000000000E+00 -0.44958106034E+02  0.44958106034E+02  0.00000000000E+00 0.  1.
         23    2    1    2    0    0 -0.87180491143E+02  0.75748572083E+02  0.27021753653E+03  0.31937784693E+03  0.12508560210E+03 0.  0.
          5    1    3    3  502    0 -0.11493642264E+03  0.34407958271E+02  0.18307273890E+03  0.21892324904E+03  0.41800000000E+01 0. -1.
         -5    1    3    3    0  502  0.27755931494E+02  0.41340613812E+02  0.87144797634E+02  0.10045459789E+03  0.41800000000E+01 0. -1.
        -11    1    1    2    0    0  0.17301395258E+02 -0.25921751190E+02  0.17152241455E+03  0.17433076078E+03  0.00000000000E+00 0. -1.
         11    1    1    2    0    0  0.69879095885E+02 -0.49826820893E+02  0.78078588862E+02  0.11602614430E+03  0.00000000000E+00 0.  1.
</event>
<event>
 7    1  0.6833760E-006  0.1625813E+03  0.7561462E-02  0.1185813E+00
         -2   -1    0    0    0  501 -0.00000000000E+00  0.00000000000E+00  0.89182877855E+02  0.89182877855E+02  0.00000000000E+00 0.  1.
          2   -1    0    0  501    0  0.00000000000E+00 -0.00000000000E+00 -0.40532989862E+03  0.40532989862E+03  0.00000000000E+00 0. -1.
         23    2    1    2    0    0 -0.10354622029E+03 -0.69917145034E+02 -0.45571413484E+02  0.18257537736E+03  0.12508712078E+03 0.  0.
          5    1    3    3  502    0 -0.66753917334E+02 -0.10579938413E+03 -0.34535881558E+02  0.12984527206E+03  0.41800000000E+01 0.  1.
         -5    1    3    3    0  502 -0.36792302958E+02  0.35882239097E+02 -0.11035531926E+02  0.52730105296E+02  0.41800000000E+01 0.  1.
        -11    1    1    2    0    0  0.18240492970E+02 -0.18214130335E+02 -0.90192549124E+02  0.93803870097E+02  0.00000000000E+00 0. -1.
         11    1    1    2    0    0  0.85305727322E+02  0.88131275370E+02 -0.18038305816E+03  0.21813352902E+03  0.00000000000E+00 0.  1.
</event>
<event>
 7    1  0.6833760E-006  0.9843878E+02  0.7561462E-02  0.1283614E+00
          2   -1    0    0  501    0  0.00000000000E+00  0.00000000000E+00  0.12501858136E+03  0.12501858136E+03  0.00000000000E+00 0. -1.
         -2   -1    0    0    0  501 -0.00000000000E+00 -0.00000000000E+00 -0.84720239762E+02  0.84720239762E+02  0.00000000000E+00 0.  1.
         23    2    1    2    0    0 -0.11446605176E+02  0.72078914455E+01  0.15508444434E+02  0.11844181167E+03  0.11664035508E+03 0.  0.
          5    1    3    3  502    0 -0.54293314886E+02  0.32888693296E+02 -0.59932753073E+01  0.63896963441E+02  0.41800000000E+01 0. -1.
         -5    1    3    3    0  502  0.42846709710E+02 -0.25680801851E+02  0.21501719741E+02  0.54544848231E+02  0.41800000000E+01 0.  1.
        -11    1    1    2    0    0 -0.34329706756E+02 -0.13577050945E+02  0.25849974076E+02  0.45067574131E+02  0.00000000000E+00 0. -1.
         11    1    1    2    0    0  0.45776311932E+02  0.63691594990E+01 -0.10600769113E+01  0.46229435319E+02  0.00000000000E+00 0.  1.
</event>
<event>
 7    1  0.6833760E-006  0.1019414E+03  0.7561462E-02  0.1276266E+00
         -3   -1    0    0    0  501 -0.00000000000E+00  0.00000000000E+00  0.35907970363E+03  0.35907970363E+03  0.00000000000E+00 0.  1.
          3   -1    0    0  501    0  0.00000000000E+00 -0.00000000000E+00 -0.41930219978E+02  0.41930219978E+02  0.00000000000E+00 0. -1.
         23    2    1    2    0    0 -0.12962846035E+02 -0.46583759826E+02  0.22361374537E+03  0.26076515656E+03  0.12512904419E+03 0.  0.
          5    1    3    3  502    0 -0.55944822289E+02 -0.64272233226E+02  0.12114318799E+03  0.14816844300E+03  0.41800000000E+01 0. -1.
         -5    1    3    3    0  502  0.42981976254E+02  0.17688473401E+02  0.10247055738E+03  0.11259671356E+03  0.41800000000E+01 0. -1.
        -11    1    1    2    0    0  0.89560098194E+01 -0.10997521454E+02  0.79616157920E+02  0.80869575193E+02  0.00000000000E+00 0.  1.
         11    1    1    2    0    0  0.40068362160E+01  0.57581281280E+02  0.13919580357E+02  0.59375191853E+02  0.00000000000E+00 0. -1.
</event>
<event>
 7    1  0.6833760E-006  0.1508408E+03  0.7561462E-02  0.1199444E+00
         -2   -1    0    0    0  501 -0.00000000000E+00  0.00000000000E+00  0.49088615850E+03  0.49088615850E+03  0.00000000000E+00 0.  1.
          2   -1    0    0  501    0  0.00000000000E+00 -0.00000000000E+00 -0.58576016784E+02  0.58576016784E+02  0.00000000000E+00 0. -1.
         23    2    1    2    0    0  0.11074198327E+03 -0.63318768424E+02  0.25585238505E+03  0.31205953403E+03  0.12509059336E+03 0.  0.
          5    1    3    3  502    0  0.73267282965E+01 -0.35675776286E+02  0.17242394121E+03  0.17627799029E+03  0.41800000000E+01 0.  1.
         -5    1    3    3    0  502  0.10341525497E+03 -0.27642992138E+02  0.83428443848E+02  0.13578154373E+03  0.41800000000E+01 0.  1.
        -11    1    1    2    0    0 -0.17862911350E+02  0.62509732760E+02  0.60262027626E+02  0.88645712052E+02  0.00000000000E+00 0.  1.
         11    1    1    2    0    0 -0.92879071921E+02  0.80903566324E+00  0.11619572903E+03  0.14875692920E+03  0.00000000000E+00 0. -1.
</event>
<event>
 7    1  0.6833760E-006  0.3502128E+03  0.7561462E-02  0.1062528E+00
         -2   -1    0    0    0  501 -0.00000000000E+00  0.00000000000E+00  0.13074547515E+03  0.13074547515E+03  0.00000000000E+00 0.  1.
          2   -1    0    0  501    0  0.00000000000E+00 -0.00000000000E+00 -0.11003459277E+04  0.11003459277E+04  0.00000000000E+00 0. -1.
         23    2    1    2    0    0 -0.28413950045E+03 -0.17459647997E+03 -0.25778603746E+03  0.43968109782E+03  0.12508653059E+03 0.  0.
          5    1    3    3  502    0 -0.18051372259E+03 -0.40564201461E+02 -0.15561705323E+03  0.24179495060E+03  0.41800000000E+01 0.  1.
         -5    1    3    3    0  502 -0.10362577786E+03 -0.13403227851E+03 -0.10216898423E+03  0.19788614721E+03  0.41800000000E+01 0.  1.
        -11    1    1    2    0    0  0.20680353627E+03  0.17121639419E+03 -0.54961187871E+03  0.61168290271E+03  0.00000000000E+00 0. -1.
         11    1    1    2    0    0  0.77335964185E+02  0.33800857770E+01 -0.16220253642E+03  0.17972740236E+03  0.00000000000E+00 0.  1.
</event>
<event>
 7    1  0.6833760E-006  0.1160990E+03  0.7561462E-02  0.1249675E+00
          1   -1    0    0  501    0  0.00000000000E+00  0.00000000000E+00  0.21758020178E+03  0.21758020178E+03  0.00000000000E+00 0. -1.
         -1   -1    0    0    0  501 -0.00000000000E+00 -0.00000000000E+00 -0.85789753367E+02  0.85789753367E+02  0.00000000000E+00 0.  1.
         23    2    1    2    0    0  0.78124991319E+02  0.13445931936E+02  0.47946343404E+02  0.15566253758E+03  0.12509063276E+03 0.  0.
          5    1    3    3  502    0 -0.12858667148E+02  0.44288694722E+02 -0.38019053763E+01  0.46462465340E+02  0.41800000000E+01 0.  1.
         -5    1    3    3    0  502  0.90983658467E+02 -0.30842762786E+02  0.51748248780E+02  0.10920007224E+03  0.41800000000E+01 0.  1.
        -11    1    1    2    0    0 -0.90446160909E+01  0.12936186770E+02  0.70900686975E+02  0.72636474460E+02  0.00000000000E+00 0. -1.
         11    1    1    2    0    0 -0.69080375228E+02 -0.26382118706E+02  0.12943418030E+02  0.75070943110E+02  0.00000000000E+00 0.  1.
</event>
<event>
 7    1  0.6833760E-006  0.1314933E+03  0.7561462E-02  0.1225257E+00
          1   -1    0    0  501    0  0.00000000000E+00  0.00000000000E+00  0.23883155705E+03  0.23883155705E+03  0.00000000000E+00 0. -1.
         -1   -1    0    0    0  501 -0.00000000000E+00 -0.00000000000E+00 -0.10764719740E+03  0.10764719740E+03  0.00000000000E+00 0.  1.
         23    2    1    2    0    0 -0.51888414709E+02  0.73535317860E+02 -0.12295519445E+02  0.15459557401E+03  0.12509500850E+03 0.  0.
          5    1    3    3  502    0 -0.86638209300E+02  0.19377389371E+02  0.38167301424E+00  0.88877897161E+02  0.41800000000E+01 0. -1.
         -5    1    3    3    0  502  0.34749794591E+02  0.54157928489E+02 -0.12677192459E+02  0.65717676853E+02  0.41800000000E+01 0. -1.
        -11    1    1    2    0    0  0.32119282342E+02 -0.82041453713E+02  0.14567939360E+03  0.17024962304E+03  0.00000000000E+00 0.  1.
         11    1    1    2    0    0  0.19769132367E+02  0.85061358534E+01 -0.21995145084E+01  0.21633557399E+02  0.00000000000E+00 0. -1.
</event>
<event>
 7    1  0.6833760E-006  0.1401118E+03  0.7561462E-02  0.1213179E+00
          2   -1    0    0  501    0  0.00000000000E+00  0.00000000000E+00  0.19874178701E+03  0.19874178701E+03  0.00000000000E+00 0. -1.
         -2   -1    0    0    0  501 -0.00000000000E+00 -0.00000000000E+00 -0.14232051897E+03  0.14232051897E+03  0.00000000000E+00 0.  1.
         23    2    1    2    0    0 -0.63643841234E+02 -0.93191987747E+02 -0.32904692237E+02  0.17166036848E+03  0.12509707522E+03 0.  0.
          5    1    3    3  502    0 -0.62719857692E+02 -0.89861705285E+01  0.26202003937E+02  0.68691696878E+02  0.41800000000E+01 0.  1.
         -5    1    3    3    0  502 -0.92398354169E+00 -0.84205817218E+02 -0.59106696174E+02  0.10296867160E+03  0.41800000000E+01 0.  1.
        -11    1    1    2    0    0  0.59360024718E+02  0.25536154228E+02  0.76960782333E+02  0.10049213763E+03  0.00000000000E+00 0. -1.
         11    1    1    2    0    0  0.42838165156E+01  0.67655833519E+02  0.12365177935E+02  0.68909799872E+02  0.00000000000E+00 0.  1.
</event>
<event>
 7    1  0.8606792E-006  0.1998334E+03  0.7561462E-02  0.1149880E+00
         -1   -1    0    0    0  501 -0.00000000000E+00  0.00000000000E+00  0.27720135809E+03  0.27720135809E+03  0.00000000000E+00 0.  1.
          1   -1    0    0  501    0  0.00000000000E+00 -0.00000000000E+00 -0.28682722846E+03  0.28682722846E+03  0.00000000000E+00 0. -1.
         23    2    1    2    0    0 -0.18631839969E+03 -0.28346479126E+02  0.17440080336E+03  0.28562446818E+03  0.12509047793E+03 0.  0.
          5    1    3    3  502    0 -0.15619739212E+03 -0.38560251696E+02  0.68394747501E+02  0.17487090153E+03  0.41800000000E+01 0.  1.
         -5    1    3    3    0  502 -0.30121007566E+02  0.10213772570E+02  0.10600605585E+03  0.11075356665E+03  0.41800000000E+01 0.  1.
        -11    1    1    2    0    0  0.61201313833E+02  0.50791599098E+02 -0.51388752654E+02  0.94689974406E+02  0.00000000000E+00 0.  1.
         11    1    1    2    0    0  0.12511708586E+03 -0.22445119972E+02 -0.13263792107E+03  0.18371414396E+03  0.00000000000E+00 0. -1.
</event>
<event>
 7    1  0.6833760E-006  0.1434283E+03  0.7561462E-02  0.1208789E+00
         -1   -1    0    0    0  501 -0.00000000000E+00  0.00000000000E+00  0.24629265901E+02  0.24629265901E+02  0.00000000000E+00 0.  1.
          1   -1    0    0  501    0  0.00000000000E+00 -0.00000000000E+00 -0.11077005575E+04  0.11077005575E+04  0.00000000000E+00 0. -1.
         23    2    1    2    0    0 -0.71565848445E+02  0.98257066234E+02 -0.49180264994E+03  0.52181780308E+03  0.12509137219E+03 0.  0.
          5    1    3    3  502    0 -0.23353291111E+02  0.79843430255E+02 -0.44267115922E+03  0.45043931574E+03  0.41800000000E+01 0. -1.
         -5    1    3    3    0  502 -0.48212557334E+02  0.18413635979E+02 -0.49131490722E+02  0.71378487342E+02  0.41800000000E+01 0. -1.
        -11    1    1    2    0    0  0.76908996301E+02 -0.28803067696E+02 -0.30108903511E+03  0.31208847701E+03  0.00000000000E+00 0.  1.
         11    1    1    2    0    0 -0.53431478558E+01 -0.69453998538E+02 -0.29017960652E+03  0.29842354328E+03  0.00000000000E+00 0. -1.
</event>
<event>
 7    1  0.6833760E-006  0.1010393E+03  0.7561462E-02  0.1278126E+00
         -4   -1    0    0    0  501 -0.00000000000E+00  0.00000000000E+00  0.10491871178E+03  0.10491871178E+03  0.00000000000E+00 0.  1.
          4   -1    0    0  501    0  0.00000000000E+00 -0.00000000000E+00 -0.22421239437E+03  0.22421239437E+03  0.00000000000E+00 0. -1.
         23    2    1    2    0    0 -0.59526370052E+02  0.62642844048E+02  0.51232877790E+01  0.15213401082E+03  0.12510393491E+03 0.  0.
          5    1    3    3  502    0 -0.20964435843E+02  0.15328817479E+02  0.62778706896E+02  0.68067015911E+02  0.41800000000E+01 0.  1.
         -5    1    3    3    0  502 -0.38561934208E+02  0.47314026569E+02 -0.57655419117E+02  0.84066994912E+02  0.41800000000E+01 0.  1.
        -11    1    1    2    0    0  0.48462139403E+02  0.24906209187E+01 -0.18033941258E+02  0.51768766504E+02  0.00000000000E+00 0.  1.
         11    1    1    2    0    0  0.11064230649E+02 -0.65133464966E+02 -0.10638302911E+03  0.12522832883E+03  0.00000000000E+00 0. -1.
</event>
<event>
 7    1  0.6833760E-006  0.1023854E+03  0.7561462E-02  0.1275358E+00
         -1   -1    0    0    0  501 -0.00000000000E+00  0.00000000000E+00  0.25133929178E+02  0.25133929178E+02  0.00000000000E+00 0.  1.
          1   -1    0    0  501    0  0.00000000000E+00 -0.00000000000E+00 -0.45519421208E+03  0.45519421208E+03  0.00000000000E+00 0. -1.
         23    2    1    2    0    0 -0.26031035694E+02 -0.55978962775E+00 -0.25538702992E+03  0.28076992957E+03  0.11371583054E+03 0.  0.
          5    1    3    3  502    0 -0.33235995852E+02 -0.49388961941E+02 -0.88920402746E+02  0.10708973530E+03  0.41800000000E+01 0. -1.
         -5    1    3    3    0  502  0.72049601578E+01  0.48829172313E+02 -0.16646662717E+03  0.17368019427E+03  0.41800000000E+01 0.  1.
        -11    1    1    2    0    0  0.51492963485E+02 -0.26912676770E+02 -0.11943369354E+03  0.13281650731E+03  0.00000000000E+00 0.  1.
         11    1    1    2    0    0 -0.25461927791E+02  0.27472466398E+02 -0.55239559437E+02  0.66741704381E+02  0.00000000000E+00 0. -1.
</event>
<event>
 7    1  0.6833760E-006  0.1067321E+03  0.7561462E-02  0.1266744E+00
         -1   -1    0    0    0  501 -0.00000000000E+00  0.00000000000E+00  0.72973554426E+03  0.72973554426E+03  0.00000000000E+00 0.  1.
          1   -1    0    0  501    0  0.00000000000E+00 -0.00000000000E+00 -0.16396090170E+02  0.16396090170E+02  0.00000000000E+00 0. -1.
         23    2    1    2    0    0  0.13076266724E+02 -0.63781887675E+01  0.37887493038E+03  0.39925568568E+03  0.12508884696E+03 0.  0.
          5    1    3    3  502    0  0.63254833255E+02 -0.27816051544E+02  0.24592522945E+03  0.25548306702E+03  0.41800000000E+01 0.  1.
         -5    1    3    3    0  502 -0.50178566530E+02  0.21437862777E+02  0.13294970093E+03  0.14377261866E+03  0.41800000000E+01 0.  1.
        -11    1    1    2    0    0  0.19436305301E+02 -0.33089919007E+02  0.10528166888E+03  0.11205776415E+03  0.00000000000E+00 0. -1.
         11    1    1    2    0    0 -0.32512572025E+02  0.39468107774E+02  0.22918285483E+03  0.23481818460E+03  0.00000000000E+00 0.  1.
</event>
<event>
 7    1  0.6833760E-006  0.1110358E+03  0.7561462E-02  0.1258664E+00
          2   -1    0    0  501    0  0.00000000000E+00  0.00000000000E+00  0.12398968961E+03  0.12398968961E+03  0.00000000000E+00 0. -1.
         -2   -1    0    0    0  501 -0.00000000000E+00 -0.00000000000E+00 -0.12701942458E+03  0.12701942458E+03  0.00000000000E+00 0.  1.
         23    2    1    2    0    0 -0.19504954203E+02  0.60251260724E+02 -0.11493753308E+02  0.14067633646E+03  0.12508823933E+03 0.  0.
          5    1    3    3  502    0 -0.57778288627E+02  0.28733496227E+02 -0.46665662269E+02  0.79743970789E+02  0.41800000000E+01 0.  1.
         -5    1    3    3    0  502  0.38273334424E+02  0.31517764497E+02  0.35171908961E+02  0.60932365675E+02  0.41800000000E+01 0.  1.
        -11    1    1    2    0    0  0.49842766761E+02 -0.59072532783E+02  0.16269933606E+02  0.78984658430E+02  0.00000000000E+00 0. -1.
         11    1    1    2    0    0 -0.30337812558E+02 -0.11787279415E+01 -0.78059152674E+01  0.31348119298E+02  0.00000000000E+00 0.  1.
</event>
<event>
 7    1  0.6833760E-006  0.9016209E+02  0.7561462E-02  0.1302460E+00
         -2   -1    0    0    0  501 -0.00000000000E+00  0.00000000000E+00  0.81780322842E+02  0.81780322842E+02  0.00000000000E+00 0.  1.
          2   -1    0    0  501    0  0.00000000000E+00 -0.00000000000E+00 -0.14484016002E+03  0.14484016002E+03  0.00000000000E+00 0. -1.
         23    2    1    2    0    0 -0.69871379876E+01 -0.29011941851E+00 -0.25301892365E+02  0.12781780057E+03  0.12509316575E+03 0.  0.
          5    1    3    3  502    0 -0.32318157015E+02 -0.48860384612E+02  0.13868097102E+02  0.60345645862E+02  0.41800000000E+01 0.  1.
         -5    1    3    3    0  502  0.25331019027E+02  0.48570265194E+02 -0.39169989467E+02  0.67472154707E+02  0.41800000000E+01 0.  1.
        -11    1    1    2    0    0 -0.77817759962E+01 -0.31049742160E+02  0.15265662496E+02  0.35463826320E+02  0.00000000000E+00 0.  1.
         11    1    1    2    0    0  0.14768913984E+02  0.31339861578E+02 -0.53023607309E+02  0.63338855974E+02  0.00000000000E+00 0. -1.
</event>
<event>
 7    1  0.6833760E-006  0.9218613E+02  0.7561462E-02  0.1297642E+00
          3   -1    0    0  501    0  0.00000000000E+00  0.00000000000E+00  0.15988237714E+03  0.15988237714E+03  0.00000000000E+00 0. -1.
         -3   -1    0    0    0  501 -0.00000000000E+00 -0.00000000000E+00 -0.74277042678E+02  0.74277042678E+02  0.00000000000E+00 0.  1.
         23    2    1    2    0    0 -0.98853226605E+01  0.21684093423E+02  0.36173051010E+02  0.13238275417E+03  0.12509510171E+03 0.  0.
          5    1    3    3  502    0 -0.25455707741E+02  0.70955400785E+02  0.21948930293E+02  0.78624995377E+02  0.41800000000E+01 0. -1.
         -5    1    3    3    0  502  0.15570385080E+02 -0.49271307361E+02  0.14224120717E+02  0.53757758797E+02  0.41800000000E+01 0. -1.
        -11    1    1    2    0    0  0.28337405671E+02 -0.25576778603E+02 -0.99693981274E+01  0.39453378346E+02  0.00000000000E+00 0.  1.
         11    1    1    2    0    0 -0.18452083010E+02  0.38926851795E+01  0.59401681583E+02  0.62323287303E+02  0.00000000000E+00 0. -1.
</event>
<event>
 7    1  0.6833760E-006  0.1642792E+03  0.7561462E-02  0.1183949E+00
         -2   -1    0    0    0  501 -0.00000000000E+00  0.00000000000E+00  0.32947769782E+02  0.32947769782E+02  0.00000000000E+00 0.  1.
          2   -1    0    0  501    0  0.00000000000E+00 -0.00000000000E+00 -0.98898281820E+03  0.98898281820E+03  0.00000000000E+00 0. -1.
         23    2    1    2    0    0 -0.13430608123E+03  0.46177462634E+01 -0.35561927442E+03  0.40021501309E+03  0.12509013281E+03 0.  0.
          5    1    3    3  502    0 -0.59615540917E+02 -0.59570415956E+02 -0.14743562110E+03  0.16987460653E+03  0.41800000000E+01 0. -1.
         -5    1    3    3    0  502 -0.74690540313E+02  0.64188162220E+02 -0.20818365333E+03  0.23034040656E+03  0.41800000000E+01 0. -1.
        -11    1    1    2    0    0  0.71283374118E+01  0.15299484595E+02 -0.15884703702E+02  0.23177817732E+02  0.00000000000E+00 0.  1.
         11    1    1    2    0    0  0.12717774382E+03 -0.19917230859E+02 -0.58453107029E+03  0.59853775716E+03  0.00000000000E+00 0. -1.
</event>
<event>
 7    1  0.6833760E-006  0.8600066E+02  0.7561462E-02  0.1312836E+00
         -1   -1    0    0    0  501 -0.00000000000E+00  0.00000000000E+00  0.30265573441E+03  0.30265573441E+03  0.00000000000E+00 0.  1.
          1   -1    0    0  501    0  0.00000000000E+00 -0.00000000000E+00 -0.42596304098E+02  0.42596304098E+02  0.00000000000E+00 0. -1.
         23    2    1    2    0    0  0.15385963836E+02  0.22269679417E+02  0.18033925108E+03  0.22113369698E+03  0.12508077373E+03 0.  0.
          5    1    3    3  502    0  0.46500054740E+02  0.58493227532E+02  0.13885911392E+03  0.15774358522E+03  0.41800000000E+01 0. -1.
         -5    1    3    3    0  502 -0.31114090904E+02 -0.36223548115E+02  0.41480137159E+02  0.63390111765E+02  0.41800000000E+01 0. -1.
        -11    1    1    2    0    0  0.12132538247E+02 -0.17504233088E+02  0.91398330781E+02  0.93846958022E+02  0.00000000000E+00 0.  1.
         11    1    1    2    0    0 -0.27518502083E+02 -0.47654463285E+01 -0.11678151550E+02  0.30271383504E+02  0.00000000000E+00 0. -1.
</event>
<event>
 7    1  0.6833760E-006  0.1207038E+03  0.7561462E-02  0.1241941E+00
         -1   -1    0    0    0  501 -0.00000000000E+00  0.00000000000E+00  0.42288278550E+02  0.42288278550E+02  0.00000000000E+00 0.  1.
          1   -1    0    0  501    0  0.00000000000E+00 -0.00000000000E+00 -0.80333413741E+03  0.80333413741E+03  0.00000000000E+00 0. -1.
         23    2    1    2    0    0  0.17947050878E+02 -0.82917875885E+02 -0.14336268433E+03  0.20832788113E+03  0.12510066356E+03 0.  0.
          5    1    3    3  502    0 -0.19441435705E+01 -0.21782679659E+02  0.21728927443E+02  0.31110826334E+02  0.41800000000E+01 0. -1.
         -5    1    3    3    0  502  0.19891194449E+02 -0.61135196226E+02 -0.16509161177E+03  0.17721705480E+03  0.41800000000E+01 0. -1.
        -11    1    1    2    0    0 -0.72997706551E+02  0.62176787177E+02 -0.43205118889E+03  0.44256394775E+03  0.00000000000E+00 0.  1.
         11    1    1    2    0    0  0.55050655673E+02  0.20741088709E+02 -0.18563198564E+03  0.19473058708E+03  0.00000000000E+00 0. -1.
</event>
<event>
 7    1  0.6833760E-006  0.6900198E+02  0.7561462E-02  0.1363520E+00
          2   -1    0    0  501    0  0.00000000000E+00  0.00000000000E+00  0.23410358332E+03  0.23410358332E+03  0.00000000000E+00 0. -1.
         -2   -1    0    0    0  501 -0.00000000000E+00 -0.00000000000E+00 -0.53813246096E+02  0.53813246096E+02  0.00000000000E+00 0.  1.
         23    2    1    2    0    0 -0.28084807777E+02  0.33729915570E+02  0.76754908121E+02  0.14334550045E+03  0.11282797945E+03 0.  0.
          5    1    3    3  502    0  0.15515455842E+02 -0.13156262169E+01  0.85117203020E+02  0.86630657924E+02  0.41800000000E+01 0. -1.
         -5    1    3    3    0  502 -0.43600263618E+02  0.35045541787E+02 -0.83622948992E+01  0.56714842526E+02  0.41800000000E+01 0.  1.
        -11    1    1    2    0    0  0.34290021981E+02 -0.29827594094E+01  0.10757311819E+03  0.11294546568E+03  0.00000000000E+00 0.  1.
         11    1    1    2    0    0 -0.62052142041E+01 -0.30747156161E+02 -0.40376890869E+01  0.31625863284E+02  0.00000000000E+00 0. -1.
</event>
<event>
 6    1  0.6833760E-006  0.1097650E+03  0.7561462E-02  0.1261006E+00
          2   -1    0    0  501    0  0.00000000000E+00  0.00000000000E+00  0.11318931593E+03  0.11318931593E+03  0.00000000000E+00 0. -1.
         -2   -1    0    0    0  501 -0.00000000000E+00 -0.00000000000E+00 -0.18254980321E+03  0.18254980321E+03  0.00000000000E+00 0.  1.
          5    1    1    2  502    0 -0.44166706892E+02 -0.57527251951E+02  0.40693620719E+02  0.83267796188E+02  0.41800000000E+01 0. -1.
         -5    1    1    2    0  502  0.38440110072E+02  0.42780580520E+02 -0.10427213240E+03  0.11915523542E+03  0.41800000000E+01 0.  1.
        -11    1    1    2    0    0  0.39658527818E+02  0.32177668181E+02 -0.16537794172E+02  0.53681466023E+02  0.00000000000E+00 0. -1.
         11    1    1    2    0    0 -0.33931930997E+02 -0.17430996751E+02  0.10755818575E+02  0.39634621509E+02  0.00000000000E+00 0.  1.
</event>
<event>
 7    1  0.6833760E-006  0.9931208E+02  0.7561462E-02  0.1281749E+00
          2   -1    0    0  501    0  0.00000000000E+00  0.00000000000E+00  0.27797526392E+03  0.27797526392E+03  0.00000000000E+00 0.  1.
         -2   -1    0    0    0  501 -0.00000000000E+00 -0.00000000000E+00 -0.57113766465E+02  0.57113766465E+02  0.00000000000E+00 0. -1.
         23    2    1    2    0    0 -0.30295610317E+02  0.24393533666E+02  0.53733186703E+02  0.14158865762E+03  0.12508886491E+03 0.  0.
          5    1    3    3  502    0 -0.66718078163E+02 -0.18929143486E+01 -0.55361336288E+01  0.67104442878E+02  0.41800000000E+01 0. -1.
         -5    1    3    3    0  502  0.36422467845E+02  0.26286448015E+02  0.59269320331E+02  0.74484214742E+02  0.41800000000E+01 0. -1.
        -11    1    1    2    0    0 -0.15706861378E+02 -0.35927313860E+02  0.33050080558E+02  0.51281431342E+02  0.00000000000E+00 0.  1.
         11    1    1    2    0    0  0.46002471695E+02  0.11533780194E+02  0.13407823019E+03  0.14221894142E+03  0.00000000000E+00 0. -1.
</event>
<event>
 7    1  0.6833760E-006  0.9037827E+02  0.7561462E-02  0.1301938E+00
          2   -1    0    0  501    0  0.00000000000E+00  0.00000000000E+00  0.31714047399E+03  0.31714047399E+03  0.00000000000E+00 0. -1.
         -2   -1    0    0    0  501 -0.00000000000E+00 -0.00000000000E+00 -0.41204818461E+02  0.41204818461E+02  0.00000000000E+00 0.  1.
         23    2    1    2    0    0 -0.11339147592E+02 -0.30125168612E+02  0.12509293573E+03  0.17981075786E+03  0.12509022353E+03 0.  0.
          5    1    3    3  502    0 -0.14303789626E+02 -0.68010378673E+02  0.27254334083E+02  0.74768182613E+02  0.41800000000E+01 0.  1.
         -5    1    3    3    0  502  0.29646420347E+01  0.37885210061E+02  0.97838601643E+02  0.10504257525E+03  0.41800000000E+01 0.  1.
        -11    1    1    2    0    0  0.28689750343E+02  0.42721951296E+02  0.38775141513E+02  0.64434295966E+02  0.00000000000E+00 0.  1.
         11    1    1    2    0    0 -0.17350602752E+02 -0.12596782684E+02  0.11206757829E+03  0.11410023862E+03  0.00000000000E+00 0. -1.
</event>
<event>
 7    1  0.7370106E-006  0.1782852E+03  0.7561462E-02  0.1169473E+00
          1   -1    0    0  501    0  0.00000000000E+00  0.00000000000E+00  0.46794927900E+03  0.46794927900E+03  0.00000000000E+00 0. -1.
         -1   -1    0    0    0  501 -0.00000000000E+00 -0.00000000000E+00 -0.10317592657E+03  0.10317592657E+03  0.00000000000E+00 0.  1.
         23    2    1    2    0    0 -0.35435393635E+02 -0.15307462248E+03  0.49723015726E+02  0.20689932912E+03  0.12508975550E+03 0.  0.
          5    1    3    3  502    0 -0.55572343976E+02 -0.13990268665E+03  0.77950934629E+02  0.16957260320E+03  0.41800000000E+01 0.  1.
         -5    1    3    3    0  502  0.20136950341E+02 -0.13171935829E+02 -0.28227918903E+02  0.37326725923E+02  0.41800000000E+01 0.  1.
        -11    1    1    2    0    0 -0.28665412686E+02  0.76479915324E+02  0.12109557345E+03  0.14606512671E+03  0.00000000000E+00 0.  1.
         11    1    1    2    0    0  0.64100806321E+02  0.76594707155E+02  0.19395476325E+03  0.21816074973E+03  0.00000000000E+00 0. -1.
</event>
<event>
 7    1  0.6833760E-006  0.8174899E+02  0.7561462E-02  0.1324160E+00
          2   -1    0    0  501    0  0.00000000000E+00  0.00000000000E+00  0.26880700532E+03  0.26880700532E+03  0.00000000000E+00 0. -1.
         -2   -1    0    0    0  501 -0.00000000000E+00 -0.00000000000E+00 -0.54580845806E+02  0.54580845806E+02  0.00000000000E+00 0.  1.
         23    2    1    2    0    0  0.21636518929E+02  0.37998080727E+02  0.48129433211E+02  0.12891704481E+03  0.11131562788E+03 0.  0.
          5    1    3    3  502    0 -0.36094890374E+02 -0.14415677918E+02  0.28566823546E+02  0.48416822370E+02  0.41800000000E+01 0. -1.
         -5    1    3    3    0  502  0.57731409304E+02  0.52413758645E+02  0.19562609666E+02  0.80500222437E+02  0.41800000000E+01 0.  1.
        -11    1    1    2    0    0 -0.20829855371E+02 -0.21982865286E+02  0.17398436576E+03  0.17660036458E+03  0.00000000000E+00 0. -1.
         11    1    1    2    0    0 -0.80666355823E+00 -0.16015215441E+02 -0.78876394575E+01  0.17870441738E+02  0.00000000000E+00 0.  1.
</event>
<event>
 7    1  0.6833760E-006  0.9150499E+02  0.7561462E-02  0.1299248E+00
         -2   -1    0    0    0  501 -0.00000000000E+00  0.00000000000E+00  0.11452361000E+03  0.11452361000E+03  0.00000000000E+00 0.  1.
          2   -1    0    0  501    0  0.00000000000E+00 -0.00000000000E+00 -0.12896891157E+03  0.12896891157E+03  0.00000000000E+00 0. -1.
         23    2    1    2    0    0 -0.33342642077E+02  0.15229322075E+02  0.33714074476E+02  0.13464182770E+03  0.12509244148E+03 0.  0.
          5    1    3    3  502    0 -0.11867488851E+02 -0.34808019896E+02 -0.32189475974E+02  0.49051710513E+02  0.41800000000E+01 0. -1.
         -5    1    3    3    0  502 -0.21475153226E+02  0.50037341971E+02  0.65903550451E+02  0.85590117185E+02  0.41800000000E+01 0. -1.
        -11    1    1    2    0    0 -0.27071694845E+02  0.52878018285E+01  0.20518434667E+01  0.27659493335E+02  0.00000000000E+00 0.  1.
         11    1    1    2    0    0  0.60414336922E+02 -0.20517123904E+02 -0.50211219519E+02  0.81191200537E+02  0.00000000000E+00 0. -1.
</event>
<event>
 7    1  0.6833760E-006  0.2119024E+03  0.7561462E-02  0.1140068E+00
         -1   -1    0    0    0  501 -0.00000000000E+00  0.00000000000E+00  0.29943221600E+03  0.29943221600E+03  0.00000000000E+00 0.  1.
          1   -1    0    0  501    0  0.00000000000E+00 -0.00000000000E+00 -0.19430721614E+03  0.19430721614E+03  0.00000000000E+00 0. -1.
         23    2    1    2    0    0  0.18626993255E+03  0.82442513606E+02  0.12487280842E+03  0.26967876030E+03  0.12506062389E+03 0.  0.
          5    1    3    3  502    0  0.59317825668E+02  0.47174761699E+02  0.11459340337E+03  0.13745247571E+03  0.41800000000E+01 0. -1.
         -5    1    3    3    0  502  0.12695210688E+03  0.35267751907E+02  0.10279405053E+02  0.13222628458E+03  0.41800000000E+01 0. -1.
        -11    1    1    2    0    0 -0.11726149525E+03 -0.88340676644E+02  0.13117039280E+02  0.14739874538E+03  0.00000000000E+00 0.  1.
         11    1    1    2    0    0 -0.69008437295E+02  0.58981630378E+01 -0.32864847854E+02  0.76661926467E+02  0.00000000000E+00 0. -1.
</event>
<event>
 7    1  0.6833760E-006  0.1199487E+03  0.7561462E-02  0.1243182E+00
         -1   -1    0    0    0  501 -0.00000000000E+00  0.00000000000E+00  0.30478937721E+03  0.30478937721E+03  0.00000000000E+00 0.  1.
          1   -1    0    0  501    0  0.00000000000E+00 -0.00000000000E+00 -0.69474316831E+02  0.69474316831E+02  0.00000000000E+00 0. -1.
         23    2    1    2    0    0 -0.91054909705E+02  0.14497966750E+02  0.90225498346E+02  0.17969136176E+03  0.12508859788E+03 0.  0.
          5    1    3    3  502    0 -0.17485322652E+02  0.44478687499E+02 -0.12678867745E+02  0.49621731501E+02  0.41800000000E+01 0.  1.
         -5    1    3    3    0  502 -0.73569587053E+02 -0.29980720749E+02  0.10290436609E+03  0.13006963026E+03  0.41800000000E+01 0.  1.
        -11    1    1    2    0    0  0.91108839877E+02 -0.30718783429E+02  0.14951223053E+03  0.17775930760E+03  0.00000000000E+00 0.  1.
         11    1    1    2    0    0 -0.53930171461E-01  0.16220816678E+02 -0.44226685006E+01  0.16813024678E+02  0.00000000000E+00 0. -1.
</event>
<event>
 7    1  0.6833760E-006  0.9051939E+02  0.7561462E-02  0.1301599E+00
         -2   -1    0    0    0  501 -0.00000000000E+00  0.00000000000E+00  0.62112014806E+02  0.62112014806E+02  0.00000000000E+00 0.  1.
          2   -1    0    0  501    0  0.00000000000E+00 -0.00000000000E+00 -0.20483376648E+03  0.20483376648E+03  0.00000000000E+00 0. -1.
         23    2    1    2    0    0  0.19969454776E+02  0.24824239056E+02 -0.77738169140E+02  0.15068395942E+03  0.12508961075E+03 0.  0.
          5    1    3    3  502    0 -0.49624574409E+02 -0.69918568143E+01 -0.17636849322E+02  0.53291793937E+02  0.41800000000E+01 0.  1.
         -5    1    3    3    0  502  0.69594029185E+02  0.31816095870E+02 -0.60101319818E+02  0.97392165488E+02  0.41800000000E+01 0.  1.
        -11    1    1    2    0    0  0.94127113259E+01 -0.22795019591E+02  0.16464089175E+02  0.29652626950E+02  0.00000000000E+00 0.  1.
         11    1    1    2    0    0 -0.29382166102E+02 -0.20292194649E+01 -0.81447671705E+02  0.86609194908E+02  0.00000000000E+00 0. -1.
</event>
<event>
 7    1  0.6833760E-006  0.1210243E+03  0.7561462E-02  0.1241417E+00
         -2   -1    0    0    0  501 -0.00000000000E+00  0.00000000000E+00  0.29421845897E+03  0.29421845897E+03  0.00000000000E+00 0. -1.
          2   -1    0    0  501    0  0.00000000000E+00 -0.00000000000E+00 -0.78463292827E+02  0.78463292827E+02  0.00000000000E+00 0.  1.
         23    2    1    2    0    0  0.62858796079E+02 -0.74998266618E+02  0.16769453051E+03  0.23096523676E+03  0.12509003472E+03 0.  0.
          5    1    3    3  502    0  0.59333179136E+02 -0.14262804926E+02  0.10114127259E+02  0.61996949287E+02  0.41800000000E+01 0. -1.
         -5    1    3    3    0  502  0.35256169424E+01 -0.60735461693E+02  0.15758040325E+03  0.16896828747E+03  0.41800000000E+01 0. -1.
        -11    1    1    2    0    0 -0.16436794247E+02 -0.12634795068E+02 -0.13735536820E+02  0.24869081673E+02  0.00000000000E+00 0.  1.
         11    1    1    2    0    0 -0.46422001831E+02  0.87633061686E+02  0.61796172455E+02  0.11684743337E+03  0.00000000000E+00 0. -1.
</event>
<event>
 7    1  0.6833760E-006  0.1109071E+03  0.7561462E-02  0.1258899E+00
          1   -1    0    0  501    0  0.00000000000E+00  0.00000000000E+00  0.13511064821E+02  0.13511064821E+02  0.00000000000E+00 0. -1.
         -1   -1    0    0    0  501 -0.00000000000E+00 -0.00000000000E+00 -0.94297517271E+03  0.94297517271E+03  0.00000000000E+00 0.  1.
         23    2    1    2    0    0  0.27590497772E+02 -0.53424297369E+01 -0.55402370970E+03  0.56866330848E+03  0.12508361355E+03 0.  0.
          5    1    3    3  502    0 -0.49945745545E+02 -0.33994982009E+00 -0.23533324011E+03  0.24061151129E+03  0.41800000000E+01 0.  1.
         -5    1    3    3    0  502  0.77536243318E+02 -0.50024799168E+01 -0.31869046958E+03  0.32805179719E+03  0.41800000000E+01 0.  1.
        -11    1    1    2    0    0 -0.52135069781E+01  0.46630373065E+02 -0.23799134957E+03  0.24257257639E+03  0.00000000000E+00 0. -1.
         11    1    1    2    0    0 -0.22376990794E+02 -0.41287943328E+02 -0.13744904862E+03  0.14525035266E+03  0.00000000000E+00 0.  1.
</event>
<event>
 6    1  0.6833760E-006  0.1048858E+03  0.7561462E-02  0.1270345E+00
         -2   -1    0    0    0  501 -0.00000000000E+00  0.00000000000E+00  0.23428993148E+03  0.23428993148E+03  0.00000000000E+00 0.  1.
          2   -1    0    0  501    0  0.00000000000E+00 -0.00000000000E+00 -0.93200661447E+02  0.93200661447E+02  0.00000000000E+00 0. -1.
          5    1    1    2  502    0  0.13765302720E+02 -0.30439030398E+02 -0.31233962320E+02  0.45924404545E+02  0.41800000000E+01 0. -1.
         -5    1    1    2    0  502 -0.41773719886E+02  0.61109863220E+02  0.16272537994E+03  0.17881968776E+03  0.41800000000E+01 0.  1.
        -11    1    1    2    0    0 -0.53036189931E+01  0.31225016434E+02  0.68358054558E+01  0.32401516353E+02  0.00000000000E+00 0. -1.
         11    1    1    2    0    0  0.33312036160E+02 -0.61895849255E+02  0.27620469616E+01  0.70344984268E+02  0.00000000000E+00 0.  1.
</event>
<event>
 6    1  0.6833760E-006  0.8388264E+02  0.7561462E-02  0.1318381E+00
          2   -1    0    0  501    0  0.00000000000E+00  0.00000000000E+00  0.46071560535E+02  0.46071560535E+02  0.00000000000E+00 0. -1.
         -2   -1    0    0    0  501 -0.00000000000E+00 -0.00000000000E+00 -0.33233329035E+03  0.33233329035E+03  0.00000000000E+00 0.  1.
          5    1    1    2  502    0 -0.72077086167E+02  0.33188387063E+02 -0.98423840927E+02  0.12649624599E+03  0.41800000000E+01 0. -1.
         -5    1    1    2    0  502  0.30820474914E+02 -0.32955182791E+02 -0.19278697738E+03  0.19804099776E+03  0.41800000000E+01 0.  1.
        -11    1    1    2    0    0  0.28901230072E+02  0.54155045636E+01  0.18451067632E+02  0.34713839980E+02  0.00000000000E+00 0. -1.
         11    1    1    2    0    0  0.12355381181E+02 -0.56487088363E+01 -0.13501979140E+02  0.19153767158E+02  0.00000000000E+00 0.  1.
</event>
<event>
 7    1  0.6833760E-006  0.1157428E+03  0.7561462E-02  0.1250290E+00
          2   -1    0    0  501    0  0.00000000000E+00  0.00000000000E+00  0.71259921853E+03  0.71259921853E+03  0.00000000000E+00 0.  1.
         -2   -1    0    0    0  501 -0.00000000000E+00 -0.00000000000E+00 -0.22421490202E+02  0.22421490202E+02  0.00000000000E+00 0. -1.
         23    2    1    2    0    0  0.59637668166E+02  0.59790743577E+01  0.34849226582E+03  0.37508402074E+03  0.12509501382E+03 0.  0.
          5    1    3    3  502    0 -0.20880358524E+02 -0.31379401254E+02  0.18653286710E+03  0.19034873024E+03  0.41800000000E+01 0.  1.
         -5    1    3    3    0  502  0.80518026691E+02  0.37358475612E+02  0.16195939872E+03  0.18473529050E+03  0.41800000000E+01 0.  1.
        -11    1    1    2    0    0  0.66932501603E+01 -0.32561859093E+02  0.18172184367E+03  0.18473738856E+03  0.00000000000E+00 0.  1.
         11    1    1    2    0    0 -0.66330918327E+02  0.26582784735E+02  0.15996361884E+03  0.17519929944E+03  0.00000000000E+00 0. -1.
</event>
<event>
 7    1  0.6833760E-006  0.1199889E+03  0.7561462E-02  0.1243115E+00
          1   -1    0    0  501    0  0.00000000000E+00  0.00000000000E+00  0.32799134428E+02  0.32799134428E+02  0.00000000000E+00 0. -1.
         -1   -1    0    0    0  501 -0.00000000000E+00 -0.00000000000E+00 -0.65185497191E+03  0.65185497191E+03  0.00000000000E+00 0.  1.
         23    2    1    2    0    0 -0.49088099784E+02  0.57381575445E+02 -0.48059047402E+03  0.50231164852E+03  0.12508997474E+03 0.  0.
          5    1    3    3  502    0 -0.84156911183E+02  0.38539752862E+02 -0.22076577204E+03  0.23942158790E+03  0.41800000000E+01 0. -1.
         -5    1    3    3    0  502  0.35068811399E+02  0.18841822583E+02 -0.25982470198E+03  0.26289006062E+03  0.41800000000E+01 0. -1.
        -11    1    1    2    0    0  0.10254325704E+02 -0.66595974311E+02 -0.12158509679E+03  0.13900759242E+03  0.00000000000E+00 0.  1.
         11    1    1    2    0    0  0.38833774079E+02  0.92143988664E+01 -0.16880266670E+02  0.43334865392E+02  0.00000000000E+00 0. -1.
</event>
<event>
 7    1  0.6833760E-006  0.8131632E+02  0.7561462E-02  0.1325357E+00
         -3   -1    0    0    0  501 -0.00000000000E+00  0.00000000000E+00  0.26857935102E+02  0.26857935102E+02  0.00000000000E+00 0.  1.
          3   -1    0    0  501    0  0.00000000000E+00 -0.00000000000E+00 -0.47084599608E+03  0.47084599608E+03  0.00000000000E+00 0. -1.
         23    2    1    2    0    0 -0.26313945072E+02  0.15930044329E+02 -0.23144905431E+03  0.26488235058E+03  0.12509118629E+03 0.  0.
          5    1    3    3  502    0 -0.52752197291E+00  0.40040387512E+02 -0.22522186942E+03  0.22879220654E+03  0.41800000000E+01 0. -1.
         -5    1    3    3    0  502 -0.25786423099E+02 -0.24110343183E+02 -0.62271848934E+01  0.36090144034E+02  0.41800000000E+01 0. -1.
        -11    1    1    2    0    0 -0.29102809156E+02 -0.11274540955E+02 -0.12711509126E+03  0.13089054665E+03  0.00000000000E+00 0. -1.
         11    1    1    2    0    0  0.55416754228E+02 -0.46555033740E+01 -0.85423915401E+02  0.10193103396E+03  0.00000000000E+00 0.  1.
</event>
<event>
 7    1  0.6833760E-006  0.1748254E+03  0.7561462E-02  0.1172907E+00
          1   -1    0    0  501    0  0.00000000000E+00  0.00000000000E+00  0.68239575550E+03  0.68239575550E+03  0.00000000000E+00 0. -1.
         -1   -1    0    0    0  501 -0.00000000000E+00 -0.00000000000E+00 -0.58251775614E+02  0.58251775614E+02  0.00000000000E+00 0.  1.
         23    2    1    2    0    0 -0.10661430125E+03 -0.11122074505E+03  0.20745016356E+03  0.28704344395E+03  0.12498681927E+03 0.  0.
          5    1    3    3  502    0 -0.19897538184E+02  0.10636413707E+02 -0.83761012648E+01  0.24426968595E+02  0.41800000000E+01 0.  1.
         -5    1    3    3    0  502 -0.86716763064E+02 -0.12185715876E+03  0.21582626483E+03  0.26261647535E+03  0.41800000000E+01 0.  1.
        -11    1    1    2    0    0 -0.14765550795E+02  0.21766304053E+02  0.90544298130E+02  0.94287132772E+02  0.00000000000E+00 0.  1.
         11    1    1    2    0    0  0.12137985204E+03  0.89454441002E+02  0.32614951819E+03  0.35931695440E+03  0.00000000000E+00 0. -1.
</event>
<event>
 6    1  0.6833760E-006  0.1476689E+03  0.7561462E-02  0.1203367E+00
         -1   -1    0    0    0  501 -0.00000000000E+00  0.00000000000E+00  0.32380701008E+03  0.32380701008E+03  0.00000000000E+00 0.  1.
          1   -1    0    0  501    0  0.00000000000E+00 -0.00000000000E+00 -0.28196626551E+03  0.28196626551E+03  0.00000000000E+00 0. -1.
          5    1    1    2  502    0  0.53175227824E+02  0.68066050236E+02 -0.43820825489E+02  0.96944980248E+02  0.41800000000E+01 0. -1.
         -5    1    1    2    0  502 -0.98051019460E+02 -0.28907009571E+00  0.26824744332E+03  0.28563656843E+03  0.41800000000E+01 0.  1.
        -11    1    1    2    0    0 -0.19031482540E+02 -0.22058296535E+01 -0.25376449202E+00  0.19160569108E+02  0.00000000000E+00 0. -1.
         11    1    1    2    0    0  0.63907274176E+02 -0.65571150487E+02 -0.18233210877E+03  0.20403115781E+03  0.00000000000E+00 0.  1.
</event>
<event>
 7    1  0.6833760E-006  0.1124743E+03  0.7561462E-02  0.1256055E+00
         -2   -1    0    0    0  501 -0.00000000000E+00  0.00000000000E+00  0.31120675142E+02  0.31120675142E+02  0.00000000000E+00 0.  1.
          2   -1    0    0  501    0  0.00000000000E+00 -0.00000000000E+00 -0.68499717324E+03  0.68499717324E+03  0.00000000000E+00 0. -1.
         23    2    1    2    0    0  0.76007881145E+02 -0.32367979785E+01 -0.20385990478E+03  0.25098669327E+03  0.12509110505E+03 0.  0.
          5    1    3    3  502    0  0.15015539779E+02  0.42013002893E+02 -0.15315301768E+03  0.15957405200E+03  0.41800000000E+01 0.  1.
         -5    1    3    3    0  502  0.60992341366E+02 -0.45249800872E+02 -0.50706887098E+02  0.91412641267E+02  0.41800000000E+01 0.  1.
        -11    1    1    2    0    0 -0.23590597747E+02  0.35428983385E+02 -0.86035729620E+02  0.95988936534E+02  0.00000000000E+00 0.  1.
         11    1    1    2    0    0 -0.52417283399E+02 -0.32192185406E+02 -0.36398086370E+03  0.36914221858E+03  0.00000000000E+00 0. -1.
</event>
<event>
 7    1  0.6833760E-006  0.1281957E+03  0.7561462E-02  0.1230158E+00
         -3   -1    0    0    0  501 -0.00000000000E+00  0.00000000000E+00  0.21824989055E+03  0.21824989055E+03  0.00000000000E+00 0.  1.
          3   -1    0    0  501    0  0.00000000000E+00 -0.00000000000E+00 -0.88831895750E+02  0.88831895750E+02  0.00000000000E+00 0. -1.
         23    2    1    2    0    0 -0.71976784311E+02  0.21537416371E+02  0.11937742493E+03  0.18853716715E+03  0.12510306163E+03 0.  0.
          5    1    3    3  502    0 -0.22298994693E+01  0.63717232355E+02  0.45369993147E+02  0.78363045045E+02  0.41800000000E+01 0. -1.
         -5    1    3    3    0  502 -0.69746884842E+02 -0.42179815984E+02  0.74007431788E+02  0.11017412210E+03  0.41800000000E+01 0. -1.
        -11    1    1    2    0    0  0.97414941712E+01  0.29075524390E+02  0.21586495519E+02  0.37500128213E+02  0.00000000000E+00 0.  1.
         11    1    1    2    0    0  0.62235290140E+02 -0.50612940761E+02 -0.11545925658E+02  0.81044490933E+02  0.00000000000E+00 0. -1.
</event>
<event>
 7    1  0.6833760E-006  0.1275223E+03  0.7561462E-02  0.1231179E+00
          1   -1    0    0  501    0  0.00000000000E+00  0.00000000000E+00  0.32861539759E+02  0.32861539759E+02  0.00000000000E+00 0. -1.
         -1   -1    0    0    0  501 -0.00000000000E+00 -0.00000000000E+00 -0.55313541703E+03  0.55313541703E+03  0.00000000000E+00 0.  1.
         23    2    1    2    0    0  0.56482781899E+02  0.52040860184E+02 -0.32843340489E+03  0.35974248362E+03  0.12509035651E+03 0.  0.
          5    1    3    3  502    0  0.83695740381E+02  0.71972821693E+02 -0.22116045295E+03  0.24721343485E+03  0.41800000000E+01 0.  1.
         -5    1    3    3    0  502 -0.27212958482E+02 -0.19931961509E+02 -0.10727295194E+03  0.11252904877E+03  0.41800000000E+01 0.  1.
        -11    1    1    2    0    0 -0.23192776183E+02 -0.69309790190E+02 -0.16399638008E+03  0.17954543871E+03  0.00000000000E+00 0.  1.
         11    1    1    2    0    0 -0.33290005716E+02  0.17268930005E+02 -0.27844092305E+02  0.46709034463E+02  0.00000000000E+00 0. -1.
</event>
<event>
 7    1  0.6833760E-006  0.1312506E+03  0.7561462E-02  0.1225612E+00
          2   -1    0    0  501    0  0.00000000000E+00  0.00000000000E+00  0.12660924189E+03  0.12660924189E+03  0.00000000000E+00 0.  1.
         -2   -1    0    0    0  501 -0.00000000000E+00 -0.00000000000E+00 -0.17292486690E+03  0.17292486690E+03  0.00000000000E+00 0. -1.
         23    2    1    2    0    0  0.89895768897E+02 -0.20045913499E+02 -0.62656439585E+02  0.16750103125E+03  0.12509067964E+03 0.  0.
          5    1    3    3  502    0 -0.13973424843E+02 -0.23313452072E+02  0.20532365107E+02  0.34319441520E+02  0.41800000000E+01 0.  1.
         -5    1    3    3    0  502  0.10386919374E+03  0.32675385722E+01 -0.83188804692E+02  0.13318158973E+03  0.41800000000E+01 0.  1.
        -11    1    1    2    0    0 -0.26847702057E+02  0.53326735908E+02  0.62606473504E+01  0.60031121709E+02  0.00000000000E+00 0.  1.
         11    1    1    2    0    0 -0.63048066840E+02 -0.33280822409E+02  0.10080167225E+02  0.72001955833E+02  0.00000000000E+00 0. -1.
</event>
<event>
 7    1  0.6833760E-006  0.8705586E+02  0.7561462E-02  0.1310142E+00
          1   -1    0    0  501    0  0.00000000000E+00  0.00000000000E+00  0.33781163760E+02  0.33781163760E+02  0.00000000000E+00 0. -1.
         -1   -1    0    0    0  501 -0.00000000000E+00 -0.00000000000E+00 -0.34020947049E+03  0.34020947049E+03  0.00000000000E+00 0.  1.
         23    2    1    2    0    0 -0.11279264467E+02 -0.76687476731E-01 -0.21062689706E+03  0.24523120044E+03  0.12508966470E+03 0.  0.
          5    1    3    3  502    0  0.30814699159E+02 -0.50788250794E+02 -0.10115270407E+03  0.11738114858E+03  0.41800000000E+01 0. -1.
         -5    1    3    3    0  502 -0.42093963626E+02  0.50711563317E+02 -0.10947419299E+03  0.12785005185E+03  0.41800000000E+01 0. -1.
        -11    1    1    2    0    0  0.24104385385E+01 -0.23348971957E+02 -0.10055989414E+03  0.10326314452E+03  0.00000000000E+00 0.  1.
         11    1    1    2    0    0  0.88688259289E+01  0.23425659434E+02  0.47584844735E+01  0.25496289294E+02  0.00000000000E+00 0. -1.
</event>
<event>
 7    1  0.6833760E-006  0.9449162E+02  0.7561462E-02  0.1292325E+00
         -2   -1    0    0    0  501 -0.00000000000E+00  0.00000000000E+00  0.75578661256E+02  0.75578661256E+02  0.00000000000E+00 0.  1.
          2   -1    0    0  501    0  0.00000000000E+00 -0.00000000000E+00 -0.17419950382E+03  0.17419950382E+03  0.00000000000E+00 0. -1.
         23    2    1    2    0    0 -0.22426995098E+02 -0.28583357718E+00 -0.35608015484E+02  0.13197938356E+03  0.12509026784E+03 0.  0.
          5    1    3    3  502    0  0.49500519036E+02 -0.81960639413E+01 -0.31481066045E+02  0.59380188348E+02  0.41800000000E+01 0.  1.
         -5    1    3    3    0  502 -0.71927514134E+02  0.79102303642E+01 -0.41269494389E+01  0.72599195213E+02  0.41800000000E+01 0.  1.
        -11    1    1    2    0    0  0.22826644762E+02 -0.28976787215E+02 -0.76987145509E+02  0.85368205335E+02  0.00000000000E+00 0. -1.
         11    1    1    2    0    0 -0.39964966434E+00  0.29262620792E+02  0.13974318432E+02  0.32430576176E+02  0.00000000000E+00 0.  1.
</event>
<event>
 7    1  0.6833760E-006  0.9094073E+02  0.7561462E-02  0.1300589E+00
          1   -1    0    0  501    0  0.00000000000E+00  0.00000000000E+00  0.58002771185E+03  0.58002771185E+03  0.00000000000E+00 0. -1.
         -1   -1    0    0    0  501 -0.00000000000E+00 -0.00000000000E+00 -0.30197212519E+02  0.30197212519E+02  0.00000000000E+00 0.  1.
         23    2    1    2    0    0  0.68236519136E+02 -0.23477512430E+02  0.24446088318E+03  0.28393340864E+03  0.12509852518E+03 0.  0.
          5    1    3    3  502    0  0.64776765972E+02 -0.38561537880E+00  0.36196533280E+02  0.74322537164E+02  0.41800000000E+01 0. -1.
         -5    1    3    3    0  502  0.34597531635E+01 -0.23091897051E+02  0.20826434990E+03  0.20961087148E+03  0.41800000000E+01 0. -1.
        -11    1    1    2    0    0 -0.46217817574E+02 -0.15275267041E+02  0.61752862707E+02  0.78631014855E+02  0.00000000000E+00 0.  1.
         11    1    1    2    0    0 -0.22018701562E+02  0.38752779471E+02  0.24361675344E+03  0.24766050087E+03  0.00000000000E+00 0. -1.
</event>
<event>
 7    1  0.6833760E-006  0.1130575E+03  0.7561462E-02  0.1255010E+00
         -1   -1    0    0    0  501 -0.00000000000E+00  0.00000000000E+00  0.10653855531E+04  0.10653855531E+04  0.00000000000E+00 0.  1.
          1   -1    0    0  501    0  0.00000000000E+00 -0.00000000000E+00 -0.22056993671E+02  0.22056993671E+02  0.00000000000E+00 0. -1.
         23    2    1    2    0    0 -0.87573293865E+02 -0.38820078810E+02  0.75528275039E+03  0.77154141114E+03  0.12509210911E+03 0.  0.
          5    1    3    3  502    0 -0.72552542768E+02 -0.44135674043E+02  0.74915704803E+03  0.75396656703E+03  0.41800000000E+01 0.  1.
         -5    1    3    3    0  502 -0.15020751097E+02  0.53155952331E+01  0.61257023533E+01  0.17574844111E+02  0.41800000000E+01 0.  1.
        -11    1    1    2    0    0  0.77475585082E+02  0.62067305255E+02  0.25888124100E+03  0.27726217486E+03  0.00000000000E+00 0.  1.
         11    1    1    2    0    0  0.10097708783E+02 -0.23247226446E+02  0.29164568033E+02  0.38638960760E+02  0.00000000000E+00 0. -1.
</event>
<event>
 6    1  0.6833760E-006  0.8438712E+02  0.7561462E-02  0.1317043E+00
          1   -1    0    0  501    0  0.00000000000E+00  0.00000000000E+00  0.50434066785E+03  0.50434066785E+03  0.00000000000E+00 0. -1.
         -1   -1    0    0    0  501 -0.00000000000E+00 -0.00000000000E+00 -0.34000964305E+02  0.34000964305E+02  0.00000000000E+00 0.  1.
          5    1    1    2  502    0  0.44261977591E+02 -0.25008697612E+02  0.24319842295E+03  0.24849044839E+03  0.41800000000E+01 0. -1.
         -5    1    1    2    0  502 -0.12990428363E+02  0.39580888817E+02  0.17979714576E+00  0.41867681040E+02  0.41800000000E+01 0.  1.
        -11    1    1    2    0    0 -0.47156215691E+02  0.84691294860E+01  0.20969693379E+03  0.21510053201E+03  0.00000000000E+00 0.  1.
         11    1    1    2    0    0  0.15884666464E+02 -0.23041320692E+02  0.17264549667E+02  0.32882970715E+02  0.00000000000E+00 0. -1.
</event>
<event>
 7    1  0.6833760E-006  0.2373034E+03  0.7561462E-02  0.1121602E+00
         -1   -1    0    0    0  501 -0.00000000000E+00  0.00000000000E+00  0.12450468653E+03  0.12450468653E+03  0.00000000000E+00 0.  1.
          1   -1    0    0  501    0  0.00000000000E+00 -0.00000000000E+00 -0.62946640708E+03  0.62946640708E+03  0.00000000000E+00 0. -1.
         23    2    1    2    0    0  0.21534008890E+03  0.39151833211E+02 -0.75804577688E+02  0.26324445498E+03  0.12508832539E+03 0.  0.
          5    1    3    3  502    0  0.22372948725E+03  0.57482970934E+02 -0.65053401507E+02  0.24001790113E+03  0.41800000000E+01 0. -1.
         -5    1    3    3    0  502 -0.83893983480E+01 -0.18331137723E+02 -0.10751176181E+02  0.23226553858E+02  0.41800000000E+01 0. -1.
        -11    1    1    2    0    0 -0.12245776737E+03 -0.43620058066E+02 -0.16115068572E+03  0.20704626962E+03  0.00000000000E+00 0.  1.
         11    1    1    2    0    0 -0.92882321529E+02  0.44682248549E+01 -0.26800645715E+03  0.28368036900E+03  0.00000000000E+00 0. -1.
</event>
<event>
 7    1  0.6833760E-006  0.1030227E+03  0.7561462E-02  0.1274065E+00
         -1   -1    0    0    0  501 -0.00000000000E+00  0.00000000000E+00  0.12801720580E+03  0.12801720580E+03  0.00000000000E+00 0.  1.
          1   -1    0    0  501    0  0.00000000000E+00 -0.00000000000E+00 -0.18114705590E+03  0.18114705590E+03  0.00000000000E+00 0. -1.
         23    2    1    2    0    0  0.45760939322E+00 -0.20264039429E+02  0.76451812302E+02  0.14799609286E+03  0.12508846149E+03 0.  0.
          5    1    3    3  502    0 -0.31545392044E+02 -0.64474942621E+02  0.40764109988E+02  0.82651769783E+02  0.41800000000E+01 0. -1.
         -5    1    3    3    0  502  0.32003001437E+02  0.44210903192E+02  0.35687702314E+02  0.65344323078E+02  0.41800000000E+01 0. -1.
        -11    1    1    2    0    0 -0.32502776848E+01  0.49716552672E+02 -0.32032759615E+02  0.59231728011E+02  0.00000000000E+00 0.  1.
         11    1    1    2    0    0  0.27926682916E+01 -0.29452513243E+02 -0.97548902787E+02  0.10193644082E+03  0.00000000000E+00 0. -1.
</event>
<event>
 7    1  0.6833760E-006  0.1596394E+03  0.7561462E-02  0.1189104E+00
          2   -1    0    0  501    0  0.00000000000E+00  0.00000000000E+00  0.94502616581E+03  0.94502616581E+03  0.00000000000E+00 0. -1.
         -2   -1    0    0    0  501 -0.00000000000E+00 -0.00000000000E+00 -0.29998758368E+02  0.29998758368E+02  0.00000000000E+00 0.  1.
         23    2    1    2    0    0  0.52251036093E+02  0.11712136548E+03  0.47023671909E+03  0.50320355932E+03  0.12507463813E+03 0.  0.
          5    1    3    3  502    0  0.73501487334E+02  0.42823117294E+02  0.13876505847E+03  0.16281738810E+03  0.41800000000E+01 0.  1.
         -5    1    3    3    0  502 -0.21250451240E+02  0.74298248187E+02  0.33147166062E+03  0.34038617122E+03  0.41800000000E+01 0.  1.
        -11    1    1    2    0    0 -0.72730892582E+02 -0.11508185240E+03  0.39989638146E+03  0.42243429240E+03  0.00000000000E+00 0. -1.
         11    1    1    2    0    0  0.20479856489E+02 -0.20395130806E+01  0.44894306887E+02  0.49387072461E+02  0.00000000000E+00 0.  1.
</event>
<event>
 7    1  0.6833760E-006  0.1377348E+03  0.7561462E-02  0.1216410E+00
          2   -1    0    0  501    0  0.00000000000E+00  0.00000000000E+00  0.94348876252E+03  0.94348876252E+03  0.00000000000E+00 0. -1.
         -2   -1    0    0    0  501 -0.00000000000E+00 -0.00000000000E+00 -0.28089345165E+02  0.28089345165E+02  0.00000000000E+00 0.  1.
         23    2    1    2    0    0  0.12289171015E+02 -0.93569846931E+02  0.26011890574E+03  0.30367129011E+03  0.12509223530E+03 0.  0.
          5    1    3    3  502    0 -0.44335061788E+02 -0.74837404631E+02  0.20340457515E+03  0.22126257801E+03  0.41800000000E+01 0.  1.
         -5    1    3    3    0  502  0.56624232802E+02 -0.18732442300E+02  0.56714330590E+02  0.82408712095E+02  0.41800000000E+01 0.  1.
        -11    1    1    2    0    0 -0.19046804928E+01 -0.17217999456E+02  0.67576579173E+02  0.69761603807E+02  0.00000000000E+00 0.  1.
         11    1    1    2    0    0 -0.10384490522E+02  0.11078784639E+03  0.58770393244E+03  0.59814521377E+03  0.00000000000E+00 0. -1.
</event>
<event>
 7    1  0.6833760E-006  0.8924544E+02  0.7561462E-02  0.1304689E+00
         -2   -1    0    0    0  501 -0.00000000000E+00  0.00000000000E+00  0.60311864578E+02  0.60311864578E+02  0.00000000000E+00 0.  1.
          2   -1    0    0  501    0  0.00000000000E+00 -0.00000000000E+00 -0.25362953324E+03  0.25362953324E+03  0.00000000000E+00 0. -1.
         23    2    1    2    0    0 -0.74521419189E+01  0.25080836922E+02 -0.38549191179E+02  0.13348366162E+03  0.12508902821E+03 0.  0.
          5    1    3    3  502    0  0.36261612402E+02 -0.29362589491E+02 -0.42738461282E+02  0.63412259606E+02  0.41800000000E+01 0.  1.
         -5    1    3    3    0  502 -0.43713754320E+02  0.54443426413E+02  0.41892701024E+01  0.70071402015E+02  0.41800000000E+01 0.  1.
        -11    1    1    2    0    0  0.24521368642E+02 -0.34404806536E+02 -0.15535669355E+03  0.16099903870E+03  0.00000000000E+00 0. -1.
         11    1    1    2    0    0 -0.17069226723E+02  0.93239696140E+01  0.58821605945E+00  0.19458697500E+02  0.00000000000E+00 0.  1.
</event>
<event>
 7    1  0.6833760E-006  0.2255117E+02  0.7561462E-02  0.1698890E+00
         -1   -1    0    0    0  501 -0.00000000000E+00  0.00000000000E+00  0.12405732280E+03  0.12405732280E+03  0.00000000000E+00 0.  1.
          1   -1    0    0  501    0  0.00000000000E+00 -0.00000000000E+00 -0.98278101287E+02  0.98278101287E+02  0.00000000000E+00 0. -1.
         23    2    1    2    0    0  0.10704311328E+02 -0.12005869083E+02  0.26245939966E+02  0.12882484850E+03  0.12509304159E+03 0.  0.
          5    1    3    3  502    0  0.69119198034E+01 -0.98820388383E+01  0.76829835112E+02  0.77882766324E+02  0.41800000000E+01 0.  1.
         -5    1    3    3    0  502  0.37923915244E+01 -0.21238302445E+01 -0.50583895146E+02  0.50942082177E+02  0.41800000000E+01 0.  1.
        -11    1    1    2    0    0  0.46035773734E+01  0.98200005641E+01  0.44581790440E+02  0.45882037603E+02  0.00000000000E+00 0.  1.
         11    1    1    2    0    0 -0.15307888701E+02  0.21858685187E+01 -0.45048508889E+02  0.47628537987E+02  0.00000000000E+00 0. -1.
</event>
<event>
 7    1  0.6833760E-006  0.1206349E+03  0.7561462E-02  0.1242053E+00
          2   -1    0    0  501    0  0.00000000000E+00  0.00000000000E+00  0.21073961812E+03  0.21073961812E+03  0.00000000000E+00 0. -1.
         -2   -1    0    0    0  501 -0.00000000000E+00 -0.00000000000E+00 -0.11030513739E+03  0.11030513739E+03  0.00000000000E+00 0.  1.
         23    2    1    2    0    0  0.63904093142E+02 -0.67516533186E+02 -0.16033007082E+01  0.15585907268E+03  0.12508902666E+03 0.  0.
          5    1    3    3  502    0 -0.26486634535E+02 -0.11340712485E+02 -0.33782894369E+02  0.44597196331E+02  0.41800000000E+01 0.  1.
         -5    1    3    3    0  502  0.90390727677E+02 -0.56175820701E+02  0.32179593660E+02  0.11126187635E+03  0.41800000000E+01 0.  1.
        -11    1    1    2    0    0 -0.52741992921E+02  0.19307969906E+02  0.10114605289E+03  0.11569373162E+03  0.00000000000E+00 0.  1.
         11    1    1    2    0    0 -0.11162100221E+02  0.48208563280E+02  0.89172855206E+00  0.49491951211E+02  0.00000000000E+00 0. -1.
</event>
<event>
 7    1  0.6833760E-006  0.1088413E+03  0.7561462E-02  0.1262731E+00
         -3   -1    0    0    0  501 -0.00000000000E+00  0.00000000000E+00  0.78215652235E+02  0.78215652235E+02  0.00000000000E+00 0.  1.
          3   -1    0    0  501    0  0.00000000000E+00 -0.00000000000E+00 -0.16981154234E+03  0.16981154234E+03  0.00000000000E+00 0. -1.
         23    2    1    2    0    0 -0.29618776167E+02 -0.55051709132E+00 -0.25098517522E+02  0.13097882606E+03  0.12509173563E+03 0.  0.
          5    1    3    3  502    0  0.43227450713E+02 -0.17128003530E+02 -0.30811236244E+02  0.55935549331E+02  0.41800000000E+01 0.  1.
         -5    1    3    3    0  502 -0.72846226880E+02  0.16577486439E+02  0.57127187219E+01  0.75043276730E+02  0.41800000000E+01 0.  1.
        -11    1    1    2    0    0  0.62497076555E+02  0.62311938952E+01 -0.46526003305E+02  0.78162531554E+02  0.00000000000E+00 0. -1.
         11    1    1    2    0    0 -0.32878300388E+02 -0.56806768039E+01 -0.19971369277E+02  0.38885836961E+02  0.00000000000E+00 0.  1.
</event>
<event>
 7    1  0.6833760E-006  0.1592984E+03  0.7561462E-02  0.1189491E+00
         -1   -1    0    0    0  501 -0.00000000000E+00  0.00000000000E+00  0.63421258311E+02  0.63421258311E+02  0.00000000000E+00 0.  1.
          1   -1    0    0  501    0  0.00000000000E+00 -0.00000000000E+00 -0.54609551675E+03  0.54609551675E+03  0.00000000000E+00 0. -1.
         23    2    1    2    0    0  0.86313828142E+02  0.10605476646E+03 -0.15031510791E+03  0.23862062951E+03  0.12508989865E+03 0.  0.
          5    1    3    3  502    0  0.56158245817E+02  0.65458617150E+01 -0.11588777205E+03  0.12901180174E+03  0.41800000000E+01 0.  1.
         -5    1    3    3    0  502  0.30155582325E+02  0.99508904748E+02 -0.34427335858E+02  0.10960882776E+03  0.41800000000E+01 0.  1.
        -11    1    1    2    0    0 -0.21285601642E+02 -0.87738701505E+02 -0.13599593878E+03  0.16323618454E+03  0.00000000000E+00 0.  1.
         11    1    1    2    0    0 -0.65028226500E+02 -0.18316064958E+02 -0.19636321175E+03  0.20765996101E+03  0.00000000000E+00 0. -1.
</event>
<event>
 7    1  0.6833760E-006  0.1239577E+03  0.7561462E-02  0.1236707E+00
          1   -1    0    0  501    0  0.00000000000E+00  0.00000000000E+00  0.35785879223E+02  0.35785879223E+02  0.00000000000E+00 0. -1.
         -1   -1    0    0    0  501 -0.00000000000E+00 -0.00000000000E+00 -0.45942729847E+03  0.45942729847E+03  0.00000000000E+00 0.  1.
         23    2    1    2    0    0 -0.32228646203E+02 -0.59673866390E+02 -0.23171606258E+03  0.27191880330E+03  0.12509135049E+03 0.  0.
          5    1    3    3  502    0 -0.47714681260E+02 -0.89766504466E+02 -0.20403750696E+03  0.22799888767E+03  0.41800000000E+01 0.  1.
         -5    1    3    3    0  502  0.15486035057E+02  0.30092638076E+02 -0.27678555617E+02  0.43919915633E+02  0.41800000000E+01 0.  1.
        -11    1    1    2    0    0  0.39624081479E+02 -0.10910089919E+02 -0.91670978884E+02  0.10046226289E+03  0.00000000000E+00 0.  1.
         11    1    1    2    0    0 -0.73954352768E+01  0.70583956309E+02 -0.10025437779E+03  0.12283211151E+03  0.00000000000E+00 0. -1.
</event>
<event>
 7    1  0.6833760E-006  0.2553275E+03  0.7561462E-02  0.1109983E+00
          3   -1    0    0  501    0  0.00000000000E+00  0.00000000000E+00  0.14319103706E+03  0.14319103706E+03  0.00000000000E+00 0. -1.
         -3   -1    0    0    0  501 -0.00000000000E+00 -0.00000000000E+00 -0.63793833009E+03  0.63793833009E+03  0.00000000000E+00 0.  1.
         23    2    1    2    0    0 -0.21210834438E+03  0.10943013530E+03 -0.44529344163E+03  0.52047953023E+03  0.12509111865E+03 0.  0.
          5    1    3    3  502    0  0.85314422326E+01  0.30862061815E+02 -0.82921283934E+02  0.88986875972E+02  0.41800000000E+01 0. -1.
         -5    1    3    3    0  502 -0.22063978662E+03  0.78568073483E+02 -0.36237215770E+03  0.43149265426E+03  0.41800000000E+01 0. -1.
        -11    1    1    2    0    0  0.90479550287E+02 -0.18745520833E+02  0.18791958657E+02  0.94292530360E+02  0.00000000000E+00 0.  1.
         11    1    1    2    0    0  0.12162879410E+03 -0.90684614465E+02 -0.68245810062E+02  0.16635730656E+03  0.00000000000E+00 0. -1.
</event>
<event>
 7    1  0.6833760E-006  0.1782347E+03  0.7561462E-02  0.1169523E+00
          4   -1    0    0  501    0  0.00000000000E+00  0.00000000000E+00  0.67302771328E+03  0.67302771328E+03  0.00000000000E+00 0. -1.
         -4   -1    0    0    0  501 -0.00000000000E+00 -0.00000000000E+00 -0.57350387484E+02  0.57350387484E+02  0.00000000000E+00 0.  1.
         23    2    1    2    0    0 -0.15255937741E+03 -0.41658983151E+02  0.24381781646E+03  0.31639287042E+03  0.12508991295E+03 0.  0.
          5    1    3    3  502    0 -0.10529113745E+03  0.11238599842E+02  0.65857110107E+02  0.12476842992E+03  0.41800000000E+01 0.  1.
         -5    1    3    3    0  502 -0.47268239958E+02 -0.52897582993E+02  0.17796070635E+03  0.19162444051E+03  0.41800000000E+01 0.  1.
        -11    1    1    2    0    0  0.91340179581E+02  0.66896800311E+02  0.20018957684E+03  0.22998712350E+03  0.00000000000E+00 0.  1.
         11    1    1    2    0    0  0.61219197829E+02 -0.25237817160E+02  0.17166993250E+03  0.18399810684E+03  0.00000000000E+00 0. -1.
</event>
<event>
 7    1  0.6833760E-006  0.1091416E+03  0.7561462E-02  0.1262168E+00
         -1   -1    0    0    0  501 -0.00000000000E+00  0.00000000000E+00  0.31501557296E+02  0.31501557296E+02  0.00000000000E+00 0.  1.
          1   -1    0    0  501    0  0.00000000000E+00 -0.00000000000E+00 -0.42440013662E+03  0.42440013662E+03  0.00000000000E+00 0. -1.
         23    2    1    2    0    0  0.16312208478E+02  0.30781914322E+02 -0.26228644229E+03  0.29267094528E+03  0.12509392475E+03 0.  0.
          5    1    3    3  502    0  0.65931762422E+02 -0.21580459398E+01 -0.17361999906E+03  0.18577683099E+03  0.41800000000E+01 0.  1.
         -5    1    3    3    0  502 -0.49619553945E+02  0.32939960262E+02 -0.88666443225E+02  0.10689411429E+03  0.41800000000E+01 0.  1.
        -11    1    1    2    0    0  0.24251352003E+02 -0.43640861914E+02 -0.43243718843E+02  0.66050527038E+02  0.00000000000E+00 0.  1.
         11    1    1    2    0    0 -0.40563560481E+02  0.12858947592E+02 -0.87368418190E+02  0.97180221594E+02  0.00000000000E+00 0. -1.
</event>
<event>
 7    1  0.6833760E-006  0.7460207E+02  0.7561462E-02  0.1345108E+00
         -1   -1    0    0    0  501 -0.00000000000E+00  0.00000000000E+00  0.96382709373E+02  0.96382709373E+02  0.00000000000E+00 0. -1.
          1   -1    0    0  501    0  0.00000000000E+00 -0.00000000000E+00 -0.12195198295E+03  0.12195198295E+03  0.00000000000E+00 0.  1.
         23    2    1    2    0    0  0.16594796186E+01  0.39391126925E+01 -0.11432546599E+02  0.12568790018E+03  0.12509386335E+03 0.  0.
          5    1    3    3  502    0 -0.16115150179E+02 -0.22876659068E+02  0.49295157696E+02  0.56837703751E+02  0.41800000000E+01 0. -1.
         -5    1    3    3    0  502  0.17774629798E+02  0.26815771761E+02 -0.60727704295E+02  0.68850196430E+02  0.41800000000E+01 0. -1.
        -11    1    1    2    0    0 -0.32152204425E+02  0.29201759708E+02 -0.18886118720E+02  0.47362353191E+02  0.00000000000E+00 0.  1.
         11    1    1    2    0    0  0.30492724807E+02 -0.33140872401E+02  0.47493917376E+01  0.45284438955E+02  0.00000000000E+00 0. -1.
</event>
<event>
 7    1  0.6833760E-006  0.1458688E+03  0.7561462E-02  0.1205643E+00
          1   -1    0    0  501    0  0.00000000000E+00  0.00000000000E+00  0.11540724046E+03  0.11540724046E+03  0.00000000000E+00 0. -1.
         -1   -1    0    0    0  501 -0.00000000000E+00 -0.00000000000E+00 -0.19307801825E+03  0.19307801825E+03  0.00000000000E+00 0.  1.
         23    2    1    2    0    0  0.32393248943E+01  0.10209346433E+03 -0.34594532092E+02  0.16516387443E+03  0.12509498425E+03 0.  0.
          5    1    3    3  502    0  0.35610731399E+02  0.11727927857E+03 -0.39475711273E+02  0.12883461318E+03  0.41800000000E+01 0.  1.
         -5    1    3    3    0  502 -0.32371406505E+02 -0.15185814241E+02  0.48811791801E+01  0.36329261257E+02  0.41800000000E+01 0.  1.
        -11    1    1    2    0    0 -0.28389563916E+02 -0.10406948465E+03 -0.47221699635E+02  0.11775531364E+03  0.00000000000E+00 0. -1.
         11    1    1    2    0    0  0.25150239022E+02  0.19760203253E+01  0.41454539345E+01  0.25566070631E+02  0.00000000000E+00 0.  1.
</event>
<event>
 7    1  0.6833760E-006  0.1128926E+03  0.7561462E-02  0.1255305E+00
         -2   -1    0    0    0  501 -0.00000000000E+00  0.00000000000E+00  0.39218135734E+02  0.39218135734E+02  0.00000000000E+00 0.  1.
          2   -1    0    0  501    0  0.00000000000E+00 -0.00000000000E+00 -0.35148675755E+03  0.35148675755E+03  0.00000000000E+00 0. -1.
         23    2    1    2    0    0 -0.33800453375E+02 -0.29288738769E+02 -0.16457960904E+03  0.21150575122E+03  0.12509170324E+03 0.  0.
          5    1    3    3  502    0 -0.73612341745E+02  0.12684804078E+02 -0.90454029366E+02  0.11738434708E+03  0.41800000000E+01 0. -1.
         -5    1    3    3    0  502  0.39811888370E+02 -0.41973542847E+02 -0.74125579674E+02  0.94121404137E+02  0.41800000000E+01 0. -1.
        -11    1    1    2    0    0 -0.27081385113E+02  0.12419720152E+02 -0.17657142591E+02  0.34632723728E+02  0.00000000000E+00 0.  1.
         11    1    1    2    0    0  0.60881838488E+02  0.16869018617E+02 -0.13003187018E+03  0.14456641833E+03  0.00000000000E+00 0. -1.
</event>
<event>
 7    1  0.6833760E-006  0.1462438E+03  0.7561462E-02  0.1205166E+00
         -4   -1    0    0    0  501 -0.00000000000E+00  0.00000000000E+00  0.20974928668E+03  0.20974928668E+03  0.00000000000E+00 0.  1.
          4   -1    0    0  501    0  0.00000000000E+00 -0.00000000000E+00 -0.16865701102E+03  0.16865701102E+03  0.00000000000E+00 0. -1.
         23    2    1    2    0    0 -0.84672639259E+02 -0.46266238850E+02  0.14016684916E+03  0.21119984550E+03  0.12509439812E+03 0.  0.
          5    1    3    3  502    0 -0.61052772305E+02  0.36830028216E+02  0.66534175578E+02  0.97612298940E+02  0.41800000000E+01 0. -1.
         -5    1    3    3    0  502 -0.23619866954E+02 -0.83096267067E+02  0.73632673581E+02  0.11358754656E+03  0.41800000000E+01 0. -1.
        -11    1    1    2    0    0  0.38749219529E+02  0.72122354933E+02 -0.63677931679E+02  0.10372085170E+03  0.00000000000E+00 0. -1.
         11    1    1    2    0    0  0.45923419729E+02 -0.25856116082E+02 -0.35396641816E+02  0.63485600496E+02  0.00000000000E+00 0.  1.
</event>
<event>
 7    1  0.1037639E-005  0.1717276E+03  0.7561462E-02  0.1176058E+00
         -1   -1    0    0    0  501 -0.00000000000E+00  0.00000000000E+00  0.47842131867E+02  0.47842131867E+02  0.00000000000E+00 0.  1.
          1   -1    0    0  501    0  0.00000000000E+00 -0.00000000000E+00 -0.83255307155E+03  0.83255307155E+03  0.00000000000E+00 0. -1.
         23    2    1    2    0    0 -0.12664266168E+03 -0.10657613629E+03 -0.37055700774E+03  0.42468433903E+03  0.12508978875E+03 0.  0.
          5    1    3    3  502    0 -0.86119467848E+01 -0.31532589523E+02 -0.50891124743E+01  0.33344284296E+02  0.41800000000E+01 0.  1.
         -5    1    3    3    0  502 -0.11803071490E+03 -0.75043546765E+02 -0.36546789526E+03  0.39134005473E+03  0.41800000000E+01 0.  1.
        -11    1    1    2    0    0  0.75992782004E+02  0.37024461924E+02 -0.10495304900E+03  0.13476222093E+03  0.00000000000E+00 0.  1.
         11    1    1    2    0    0  0.50649879677E+02  0.69551674364E+02 -0.30920088294E+03  0.32094864345E+03  0.00000000000E+00 0. -1.
</event>
<event>
 7    1  0.6833760E-006  0.1739832E+03  0.7561462E-02  0.1173757E+00
          2   -1    0    0  501    0  0.00000000000E+00  0.00000000000E+00  0.65179788807E+03  0.65179788807E+03  0.00000000000E+00 0. -1.
         -2   -1    0    0    0  501 -0.00000000000E+00 -0.00000000000E+00 -0.52703216455E+02  0.52703216455E+02  0.00000000000E+00 0.  1.
         23    2    1    2    0    0  0.99259784489E+02  0.10810099890E+03  0.26289531547E+03  0.32603670215E+03  0.12509058107E+03 0.  0.
          5    1    3    3  502    0  0.10535550091E+03  0.51759034133E+02  0.10256896743E+03  0.15593795133E+03  0.41800000000E+01 0.  1.
         -5    1    3    3    0  502 -0.60957164231E+01  0.56341964770E+02  0.16032634804E+03  0.17009875082E+03  0.41800000000E+01 0.  1.
        -11    1    1    2    0    0 -0.57844980672E+02 -0.11772255915E+03  0.24793217285E+03  0.28049065057E+03  0.00000000000E+00 0.  1.
         11    1    1    2    0    0 -0.41414803817E+02  0.96215602458E+01  0.88267183294E+02  0.97973751808E+02  0.00000000000E+00 0. -1.
</event>
<event>
 7    1  0.6833760E-006  0.9643343E+02  0.7561462E-02  0.1287980E+00
         -1   -1    0    0    0  501 -0.00000000000E+00  0.00000000000E+00  0.26292655209E+02  0.26292655209E+02  0.00000000000E+00 0.  1.
          1   -1    0    0  501    0  0.00000000000E+00 -0.00000000000E+00 -0.58506560992E+03  0.58506560992E+03  0.00000000000E+00 0. -1.
         23    2    1    2    0    0 -0.82772202557E+00 -0.27934539784E+02 -0.18313514455E+03  0.22353409154E+03  0.12509190731E+03 0.  0.
          5    1    3    3  502    0  0.21064958402E+02 -0.60961505040E+02 -0.16952728504E+03  0.18143045594E+03  0.41800000000E+01 0. -1.
         -5    1    3    3    0  502 -0.21892680427E+02  0.33026965256E+02 -0.13607859510E+02  0.42103635600E+02  0.41800000000E+01 0. -1.
        -11    1    1    2    0    0  0.38831006222E+02  0.31799130335E+02 -0.28624357663E+03  0.29061042118E+03  0.00000000000E+00 0. -1.
         11    1    1    2    0    0 -0.38003284197E+02 -0.38645905512E+01 -0.89394233528E+02  0.97213752412E+02  0.00000000000E+00 0.  1.
</event>
<event>
 7    1  0.6833760E-006  0.7677832E+02  0.7561462E-02  0.1338451E+00
         -1   -1    0    0    0  501 -0.00000000000E+00  0.00000000000E+00  0.32935050965E+02  0.32935050965E+02  0.00000000000E+00 0.  1.
          1   -1    0    0  501    0  0.00000000000E+00 -0.00000000000E+00 -0.42677220468E+03  0.42677220468E+03  0.00000000000E+00 0. -1.
         23    2    1    2    0    0 -0.53838334027E+02 -0.36451828912E+01 -0.18596028182E+03  0.22680638000E+03  0.11810187987E+03 0.  0.
          5    1    3    3  502    0 -0.15327021849E+02  0.42573034265E+01 -0.18654307876E+03  0.18726674789E+03  0.41800000000E+01 0. -1.
         -5    1    3    3    0  502 -0.38511312178E+02 -0.79024863177E+01  0.58279694408E+00  0.39539632117E+02  0.41800000000E+01 0.  1.
        -11    1    1    2    0    0  0.50729500702E+02 -0.33180662031E+02 -0.83723455621E+02  0.10336370541E+03  0.00000000000E+00 0. -1.
         11    1    1    2    0    0  0.31088333250E+01  0.36825844922E+02 -0.12415341628E+03  0.12953717023E+03  0.00000000000E+00 0.  1.
</event>
<event>
 7    1  0.6833760E-006  0.1295638E+03  0.7561462E-02  0.1228104E+00
          1   -1    0    0  501    0  0.00000000000E+00  0.00000000000E+00  0.12903493873E+02  0.12903493873E+02  0.00000000000E+00 0. -1.
         -1   -1    0    0    0  501 -0.00000000000E+00 -0.00000000000E+00 -0.16672284286E+04  0.16672284286E+04  0.00000000000E+00 0.  1.
         23    2    1    2    0    0 -0.21066181362E+02  0.79495376912E+02 -0.12439693260E+04  0.12516854665E+04  0.11177443369E+03 0.  0.
          5    1    3    3  502    0  0.35592129627E+02  0.71639456227E+02 -0.63825852829E+03  0.64326544499E+03  0.41800000000E+01 0. -1.
         -5    1    3    3    0  502 -0.56658310989E+02  0.78559206850E+01 -0.60571079771E+03  0.60842002150E+03  0.41800000000E+01 0.  1.
        -11    1    1    2    0    0 -0.11811765030E+02 -0.87123523524E+02 -0.26422601326E+03  0.27846976897E+03  0.00000000000E+00 0.  1.
         11    1    1    2    0    0  0.32877946392E+02  0.76281466113E+01 -0.14612959547E+03  0.14997668703E+03  0.00000000000E+00 0. -1.
</event>
<event>
 7    1  0.6833760E-006  0.1288889E+03  0.7561462E-02  0.1229114E+00
          2   -1    0    0  501    0  0.00000000000E+00  0.00000000000E+00  0.19378646510E+03  0.19378646510E+03  0.00000000000E+00 0. -1.
         -2   -1    0    0    0  501 -0.00000000000E+00 -0.00000000000E+00 -0.11633353031E+03  0.11633353031E+03  0.00000000000E+00 0.  1.
         23    2    1    2    0    0  0.12159153053E+02  0.92873592783E+02 -0.78466480360E+01  0.15646801848E+03  0.12508925487E+03 0.  0.
          5    1    3    3  502    0  0.46674488599E+02  0.20453142677E+02  0.38244557017E+02  0.63851056943E+02  0.41800000000E+01 0. -1.
         -5    1    3    3    0  502 -0.34515335546E+02  0.72420450106E+02 -0.46091205053E+02  0.92616961539E+02  0.41800000000E+01 0. -1.
        -11    1    1    2    0    0 -0.34674530294E+02 -0.43198465802E+01  0.13554622609E+02  0.37479486651E+02  0.00000000000E+00 0. -1.
         11    1    1    2    0    0  0.22515377241E+02 -0.88553746203E+02  0.71744960224E+02  0.11617249027E+03  0.00000000000E+00 0.  1.
</event>
<event>
 7    1  0.6833760E-006  0.1257852E+03  0.7561462E-02  0.1233847E+00
         -2   -1    0    0    0  501 -0.00000000000E+00  0.00000000000E+00  0.17960642071E+03  0.17960642071E+03  0.00000000000E+00 0.  1.
          2   -1    0    0  501    0  0.00000000000E+00 -0.00000000000E+00 -0.12542142526E+03  0.12542142526E+03  0.00000000000E+00 0. -1.
         23    2    1    2    0    0 -0.93195067962E+02  0.28397022787E+02  0.66585260103E+02  0.17196667916E+03  0.12508888952E+03 0.  0.
          5    1    3    3  502    0 -0.83794979951E+02  0.63468985237E+02  0.11458063759E+02  0.10582377038E+03  0.41800000000E+01 0.  1.
         -5    1    3    3    0  502 -0.94000880103E+01 -0.35071962450E+02  0.55127196344E+02  0.66142908776E+02  0.41800000000E+01 0.  1.
        -11    1    1    2    0    0  0.78746970651E+02 -0.42623525541E+02 -0.40609388289E+02  0.98320764508E+02  0.00000000000E+00 0. -1.
         11    1    1    2    0    0  0.14448097311E+02  0.14226502754E+02  0.28209123636E+02  0.34740402312E+02  0.00000000000E+00 0.  1.
</event>
<event>
 7    1  0.6833760E-006  0.1839878E+03  0.7561462E-02  0.1163999E+00
         -2   -1    0    0    0  501 -0.00000000000E+00  0.00000000000E+00  0.13129657483E+03  0.13129657483E+03  0.00000000000E+00 0.  1.
          2   -1    0    0  501    0  0.00000000000E+00 -0.00000000000E+00 -0.30207966737E+03  0.30207966737E+03  0.00000000000E+00 0. -1.
         23    2    1    2    0    0  0.27012181100E+02  0.16102139620E+03 -0.45055752876E+02  0.21055206243E+03  0.12507838408E+03 0.  0.
          5    1    3    3  502    0  0.12245927907E+02 -0.17589463661E+02  0.85338065725E+01  0.23444620637E+02  0.41800000000E+01 0.  1.
         -5    1    3    3    0  502  0.14766253192E+02  0.17861085986E+03 -0.53589559449E+02  0.18710744179E+03  0.41800000000E+01 0.  1.
        -11    1    1    2    0    0 -0.34404714298E+02 -0.10830911307E+03 -0.37289740816E+02  0.11960381729E+03  0.00000000000E+00 0.  1.
         11    1    1    2    0    0  0.73925331986E+01 -0.52712283125E+02 -0.88437598846E+02  0.10322036247E+03  0.00000000000E+00 0. -1.
</event>
<event>
 7    1  0.6833760E-006  0.1307561E+03  0.7561462E-02  0.1226338E+00
          2   -1    0    0  501    0  0.00000000000E+00  0.00000000000E+00  0.40552984335E+03  0.40552984335E+03  0.00000000000E+00 0. -1.
         -2   -1    0    0    0  501 -0.00000000000E+00 -0.00000000000E+00 -0.51384357817E+02  0.51384357817E+02  0.00000000000E+00 0.  1.
         23    2    1    2    0    0 -0.25962715210E+02  0.82521443982E+02  0.12874703348E+03  0.19926445939E+03  0.12508666935E+03 0.  0.
          5    1    3    3  502    0 -0.90143525180E+01 -0.33012045265E+02  0.38088295628E+02  0.51373576357E+02  0.41800000000E+01 0.  1.
         -5    1    3    3    0  502 -0.16948362692E+02  0.11553348925E+03  0.90658737854E+02  0.14789088303E+03  0.41800000000E+01 0.  1.
        -11    1    1    2    0    0  0.49152869750E+02 -0.48774272574E+02  0.76327531842E+02  0.10305739365E+03  0.00000000000E+00 0.  1.
         11    1    1    2    0    0 -0.23190154539E+02 -0.33747171407E+02  0.14907092021E+03  0.15459234812E+03  0.00000000000E+00 0. -1.
</event>
<event>
 7    1  0.6833760E-006  0.1189819E+03  0.7561462E-02  0.1244786E+00
         -1   -1    0    0    0  501 -0.00000000000E+00  0.00000000000E+00  0.40933217966E+02  0.40933217966E+02  0.00000000000E+00 0.  1.
          1   -1    0    0  501    0  0.00000000000E+00 -0.00000000000E+00 -0.37252719686E+03  0.37252719686E+03  0.00000000000E+00 0. -1.
         23    2    1    2    0    0  0.45511141353E+02  0.26627323766E+02 -0.13903610672E+03  0.19431646178E+03  0.12509024738E+03 0.  0.
          5    1    3    3  502    0  0.49134807590E+02 -0.41876891685E+02 -0.49581781969E+02  0.81509072362E+02  0.41800000000E+01 0.  1.
         -5    1    3    3    0  502 -0.36236662372E+01  0.68504215451E+02 -0.89454324751E+02  0.11280738942E+03  0.41800000000E+01 0.  1.
        -11    1    1    2    0    0 -0.72263121291E+02 -0.28601251038E+02 -0.13936233110E+03  0.15956769595E+03  0.00000000000E+00 0. -1.
         11    1    1    2    0    0  0.26751979939E+02  0.19739272718E+01 -0.53195541069E+02  0.59576257093E+02  0.00000000000E+00 0.  1.
</event>
<event>
 7    1  0.6833760E-006  0.2022948E+03  0.7561462E-02  0.1147817E+00
         -1   -1    0    0    0  501 -0.00000000000E+00  0.00000000000E+00  0.12421920752E+03  0.12421920752E+03  0.00000000000E+00 0.  1.
          1   -1    0    0  501    0  0.00000000000E+00 -0.00000000000E+00 -0.34434867357E+03  0.34434867357E+03  0.00000000000E+00 0. -1.
         23    2    1    2    0    0  0.14530962943E+03  0.99133165936E+02 -0.11242818615E+03  0.24337179057E+03  0.12508980139E+03 0.  0.
          5    1    3    3  502    0 -0.22957079748E+02  0.11589462368E+02 -0.11599151190E+02  0.28519394398E+02  0.41800000000E+01 0.  1.
         -5    1    3    3    0  502  0.16826670917E+03  0.87543703568E+02 -0.10082903496E+03  0.21485239617E+03  0.41800000000E+01 0.  1.
        -11    1    1    2    0    0 -0.38626082832E+02 -0.67099214533E+02 -0.12011492436E+02  0.78348929900E+02  0.00000000000E+00 0.  1.
         11    1    1    2    0    0 -0.10668354659E+03 -0.32033951403E+02 -0.95689787469E+02  0.14684716062E+03  0.00000000000E+00 0. -1.
</event>
<event>
 7    1  0.6833760E-006  0.1392902E+03  0.7561462E-02  0.1214287E+00
          3   -1    0    0  501    0  0.00000000000E+00  0.00000000000E+00  0.15291258153E+03  0.15291258153E+03  0.00000000000E+00 0. -1.
         -3   -1    0    0    0  501 -0.00000000000E+00 -0.00000000000E+00 -0.14040971730E+03  0.14040971730E+03  0.00000000000E+00 0.  1.
         23    2    1    2    0    0 -0.70518868989E+02 -0.66529087133E+02 -0.19202512562E+02  0.15942234160E+03  0.12509083177E+03 0.  0.
          5    1    3    3  502    0 -0.10682136958E+03 -0.52523430540E+02 -0.15492264841E+02  0.12011244076E+03  0.41800000000E+01 0.  1.
         -5    1    3    3    0  502  0.36302500592E+02 -0.14005656593E+02 -0.37102477210E+01  0.39309900839E+02  0.41800000000E+01 0.  1.
        -11    1    1    2    0    0  0.57476497621E+02  0.52845405682E+01 -0.10118315596E+02  0.58599099467E+02  0.00000000000E+00 0. -1.
         11    1    1    2    0    0  0.13042371368E+02  0.61244546565E+02  0.41823692384E+02  0.75300857761E+02  0.00000000000E+00 0.  1.
</event>
<event>
 7    1  0.6833760E-006  0.1075821E+03  0.7561462E-02  0.1265114E+00
         -2   -1    0    0    0  501 -0.00000000000E+00  0.00000000000E+00  0.27450753754E+03  0.27450753754E+03  0.00000000000E+00 0.  1.
          2   -1    0    0  501    0  0.00000000000E+00 -0.00000000000E+00 -0.48411031605E+02  0.48411031605E+02  0.00000000000E+00 0. -1.
         23    2    1    2    0    0  0.34637301032E+02 -0.28664147102E+02  0.15416360898E+03  0.19927927646E+03  0.11800184635E+03 0.  0.
          5    1    3    3  502    0  0.28094588918E+02 -0.69139822175E+02  0.13390757572E+03  0.15335687846E+03  0.41800000000E+01 0. -1.
         -5    1    3    3    0  502  0.65427121144E+01  0.40475675073E+02  0.20256033258E+02  0.45922397997E+02  0.41800000000E+01 0.  1.
        -11    1    1    2    0    0 -0.20344563839E+02  0.60756692266E+02  0.36487129955E+02  0.73733219008E+02  0.00000000000E+00 0.  1.
         11    1    1    2    0    0 -0.14292737193E+02 -0.32092545165E+02  0.35445767006E+02  0.49906073681E+02  0.00000000000E+00 0. -1.
</event>
<event>
 7    1  0.6833760E-006  0.1450112E+03  0.7561462E-02  0.1206741E+00
          2   -1    0    0  501    0  0.00000000000E+00  0.00000000000E+00  0.64567028624E+02  0.64567028624E+02  0.00000000000E+00 0. -1.
         -2   -1    0    0    0  501 -0.00000000000E+00 -0.00000000000E+00 -0.34692955127E+03  0.34692955127E+03  0.00000000000E+00 0.  1.
         23    2    1    2    0    0  0.84793080320E+02 -0.56319646911E+02 -0.17128181735E+03  0.23525894697E+03  0.12509013581E+03 0.  0.
          5    1    3    3  502    0  0.30977766003E+02 -0.88829439119E+02 -0.75927335552E+02  0.12096579651E+03  0.41800000000E+01 0.  1.
         -5    1    3    3    0  502  0.53815314317E+02  0.32509792208E+02 -0.95354481798E+02  0.11429315047E+03  0.41800000000E+01 0.  1.
        -11    1    1    2    0    0 -0.98666183046E+02  0.30060853501E+02 -0.66680892224E+02  0.12282105674E+03  0.00000000000E+00 0. -1.
         11    1    1    2    0    0  0.13873102726E+02  0.26258793410E+02 -0.44399813076E+02  0.53416576189E+02  0.00000000000E+00 0.  1.
</event>
<event>
 7    1  0.6833760E-006  0.1031714E+03  0.7561462E-02  0.1273765E+00
          4   -1    0    0  501    0  0.00000000000E+00  0.00000000000E+00  0.29414321472E+02  0.29414321472E+02  0.00000000000E+00 0. -1.
         -4   -1    0    0    0  501 -0.00000000000E+00 -0.00000000000E+00 -0.63100995299E+03  0.63100995299E+03  0.00000000000E+00 0.  1.
         23    2    1    2    0    0  0.64998199466E+02 -0.48075894163E+02 -0.37270621415E+03  0.40136443016E+03  0.12508967264E+03 0.  0.
          5    1    3    3  502    0 -0.53989326279E+01  0.11085803587E+01  0.82844976851E+01  0.10792716332E+02  0.41800000000E+01 0. -1.
         -5    1    3    3    0  502  0.70397132094E+02 -0.49184474522E+02 -0.38099071183E+03  0.39057171383E+03  0.41800000000E+01 0. -1.
        -11    1    1    2    0    0 -0.78903350453E+02  0.18912938909E+02 -0.19956064480E+03  0.21542490321E+03  0.00000000000E+00 0.  1.
         11    1    1    2    0    0  0.13905150987E+02  0.29162955254E+02 -0.29328772567E+02  0.43634941083E+02  0.00000000000E+00 0. -1.
</event>
<event>
 7    1  0.6833760E-006  0.1068213E+03  0.7561462E-02  0.1266572E+00
          1   -1    0    0  501    0  0.00000000000E+00  0.00000000000E+00  0.80001050352E+02  0.80001050352E+02  0.00000000000E+00 0. -1.
         -1   -1    0    0    0  501 -0.00000000000E+00 -0.00000000000E+00 -0.27124383141E+03  0.27124383141E+03  0.00000000000E+00 0.  1.
         23    2    1    2    0    0  0.16510638139E+02 -0.20286848432E+02 -0.21825024538E+03  0.25291297042E+03  0.12509054164E+03 0.  0.
          5    1    3    3  502    0  0.54760147504E+02 -0.52320845889E+02 -0.15196802791E+03  0.16984669139E+03  0.41800000000E+01 0. -1.
         -5    1    3    3    0  502 -0.38249509364E+02  0.32033997457E+02 -0.66282217462E+02  0.83066279027E+02  0.41800000000E+01 0. -1.
        -11    1    1    2    0    0 -0.50755492372E+02  0.15963186950E+02 -0.20010732106E+01  0.53244226330E+02  0.00000000000E+00 0.  1.
         11    1    1    2    0    0  0.34244854233E+02  0.43236614815E+01  0.29008537530E+02  0.45087685011E+02  0.00000000000E+00 0. -1.
</event>
<event>
 7    1  0.6833760E-006  0.1649115E+03  0.7561462E-02  0.1183261E+00
         -1   -1    0    0    0  501 -0.00000000000E+00  0.00000000000E+00  0.53071775592E+02  0.53071775592E+02  0.00000000000E+00 0.  1.
          1   -1    0    0  501    0  0.00000000000E+00 -0.00000000000E+00 -0.63051370600E+03  0.63051370600E+03  0.00000000000E+00 0. -1.
         23    2    1    2    0    0  0.83478124100E+02  0.11328089033E+03 -0.22429147273E+03  0.29284227171E+03  0.12509506002E+03 0.  0.
          5    1    3    3  502    0  0.70980081037E+02  0.14077035713E+03 -0.18458876075E+03  0.24278580755E+03  0.41800000000E+01 0.  1.
         -5    1    3    3    0  502  0.12498043063E+02 -0.27489466803E+02 -0.39702711981E+02  0.50056464160E+02  0.41800000000E+01 0.  1.
        -11    1    1    2    0    0 -0.50732466676E+02 -0.55338141316E+02 -0.28793888901E+03  0.29756494563E+03  0.00000000000E+00 0. -1.
         11    1    1    2    0    0 -0.32745657424E+02 -0.57942749011E+02 -0.65211568664E+02  0.93178264261E+02  0.00000000000E+00 0.  1.
</event>
<event>
 7    1  0.6833760E-006  0.1080689E+03  0.7561462E-02  0.1264188E+00
         -1   -1    0    0    0  501 -0.00000000000E+00  0.00000000000E+00  0.60249242195E+02  0.60249242195E+02  0.00000000000E+00 0.  1.
          1   -1    0    0  501    0  0.00000000000E+00 -0.00000000000E+00 -0.32565184541E+03  0.32565184541E+03  0.00000000000E+00 0. -1.
         23    2    1    2    0    0  0.86167738457E+02 -0.15711790382E+02 -0.15009642015E+03  0.21412191580E+03  0.12509004748E+03 0.  0.
          5    1    3    3  502    0  0.76130219517E+02 -0.43859232089E+02 -0.15981416802E+03  0.18242116999E+03  0.41800000000E+01 0. -1.
         -5    1    3    3    0  502  0.10037518940E+02  0.28147441708E+02  0.97177478689E+01  0.31700745809E+02  0.41800000000E+01 0. -1.
        -11    1    1    2    0    0 -0.32679455493E+01 -0.10549160623E+02  0.12825610086E+02  0.16925144964E+02  0.00000000000E+00 0.  1.
         11    1    1    2    0    0 -0.82899792908E+02  0.26260951005E+02 -0.12813179316E+03  0.15485402684E+03  0.00000000000E+00 0. -1.
</event>
<event>
 7    1  0.6833760E-006  0.1045550E+03  0.7561462E-02  0.1270999E+00
         -2   -1    0    0    0  501 -0.00000000000E+00  0.00000000000E+00  0.49474791458E+02  0.49474791458E+02  0.00000000000E+00 0.  1.
          2   -1    0    0  501    0  0.00000000000E+00 -0.00000000000E+00 -0.35856827745E+03  0.35856827745E+03  0.00000000000E+00 0. -1.
         23    2    1    2    0    0  0.16417561482E+02  0.70942203557E+01 -0.56631782905E+02  0.13847162238E+03  0.12508943633E+03 0.  0.
          5    1    3    3  502    0  0.40550902916E+02  0.50416057827E+02 -0.24194265548E+01  0.64880510471E+02  0.41800000000E+01 0.  1.
         -5    1    3    3    0  502 -0.24133341434E+02 -0.43321837471E+02 -0.54212356350E+02  0.73591111907E+02  0.41800000000E+01 0.  1.
        -11    1    1    2    0    0 -0.42801867830E+02 -0.35595930171E+02 -0.14884128053E+03  0.15891128633E+03  0.00000000000E+00 0.  1.
         11    1    1    2    0    0  0.26384306348E+02  0.28501709815E+02 -0.10362042255E+03  0.11066016019E+03  0.00000000000E+00 0. -1.
</event>
<event>
 7    1  0.6833760E-006  0.1208994E+03  0.7561462E-02  0.1241621E+00
          3   -1    0    0  501    0  0.00000000000E+00  0.00000000000E+00  0.95134149781E+02  0.95134149781E+02  0.00000000000E+00 0. -1.
         -3   -1    0    0    0  501 -0.00000000000E+00 -0.00000000000E+00 -0.16487641788E+03  0.16487641788E+03  0.00000000000E+00 0.  1.
         23    2    1    2    0    0  0.55266894108E+02 -0.21750283847E+02 -0.60747871003E+02  0.15121276257E+03  0.12508993285E+03 0.  0.
          5    1    3    3  502    0  0.52614896549E+02  0.46269922345E+02 -0.33430700204E+02  0.77745206726E+02  0.41800000000E+01 0.  1.
         -5    1    3    3    0  502  0.26519975591E+01 -0.68020206193E+02 -0.27317170799E+02  0.73467555846E+02  0.41800000000E+01 0.  1.
        -11    1    1    2    0    0  0.11977121510E+02 -0.20678975172E+02  0.11743764931E+02  0.26626818597E+02  0.00000000000E+00 0.  1.
         11    1    1    2    0    0 -0.67244015618E+02  0.42429259020E+02 -0.20738162032E+02  0.82170986497E+02  0.00000000000E+00 0. -1.
</event>
<event>
 7    1  0.6833760E-006  0.1361672E+03  0.7561462E-02  0.1218581E+00
          1   -1    0    0  501    0  0.00000000000E+00  0.00000000000E+00  0.10678515842E+04  0.10678515842E+04  0.00000000000E+00 0. -1.
         -1   -1    0    0    0  501 -0.00000000000E+00 -0.00000000000E+00 -0.20134531561E+02  0.20134531561E+02  0.00000000000E+00 0.  1.
         23    2    1    2    0    0 -0.62166860512E+02  0.60575016787E+02  0.39892182194E+03  0.42698890836E+03  0.12508739598E+03 0.  0.
          5    1    3    3  502    0 -0.66800654201E+02 -0.16499284168E+02  0.12968878709E+03  0.14687139843E+03  0.41800000000E+01 0. -1.
         -5    1    3    3    0  502  0.46337936891E+01  0.77074300954E+02  0.26923303485E+03  0.28011750993E+03  0.41800000000E+01 0. -1.
        -11    1    1    2    0    0  0.40461099289E+02  0.18197289782E+02  0.20545267677E+03  0.21018811647E+03  0.00000000000E+00 0. -1.
         11    1    1    2    0    0  0.21705761223E+02 -0.78772306568E+02  0.44334255393E+03  0.45080909094E+03  0.00000000000E+00 0.  1.
</event>
<event>
 7    1  0.6833760E-006  0.1481785E+03  0.7561462E-02  0.1202729E+00
          2   -1    0    0  501    0  0.00000000000E+00  0.00000000000E+00  0.55273906608E+02  0.55273906608E+02  0.00000000000E+00 0. -1.
         -2   -1    0    0    0  501 -0.00000000000E+00 -0.00000000000E+00 -0.43684320610E+03  0.43684320610E+03  0.00000000000E+00 0.  1.
         23    2    1    2    0    0  0.60383996205E+02  0.87011687905E+02 -0.24827221519E+03  0.29749569467E+03  0.12508930681E+03 0.  0.
          5    1    3    3  502    0  0.75160676745E+02  0.10696532637E+03 -0.23520653654E+03  0.26912877142E+03  0.41800000000E+01 0. -1.
         -5    1    3    3    0  502 -0.14776680540E+02 -0.19953638466E+02 -0.13065678653E+02  0.28366923247E+02  0.41800000000E+01 0. -1.
        -11    1    1    2    0    0 -0.21432578516E+02 -0.97672213389E+02 -0.81886833919E+02  0.12924654835E+03  0.00000000000E+00 0.  1.
         11    1    1    2    0    0 -0.38951417689E+02  0.10660525484E+02 -0.51410250377E+02  0.65374869694E+02  0.00000000000E+00 0. -1.
</event>
<event>
 7    1  0.6833760E-006  0.9841965E+02  0.7561462E-02  0.1283655E+00
         -2   -1    0    0    0  501 -0.00000000000E+00  0.00000000000E+00  0.16155161297E+03  0.16155161297E+03  0.00000000000E+00 0.  1.
          2   -1    0    0  501    0  0.00000000000E+00 -0.00000000000E+00 -0.87425295777E+02  0.87425295777E+02  0.00000000000E+00 0. -1.
         23    2    1    2    0    0 -0.20643829712E+02 -0.10647077739E+02  0.83402328536E+02  0.15212829867E+03  0.12509013903E+03 0.  0.
          5    1    3    3  502    0 -0.61942813626E+02 -0.24901991340E+02  0.85055425894E+02  0.10820775946E+03  0.41800000000E+01 0.  1.
         -5    1    3    3    0  502  0.41298983913E+02  0.14254913602E+02 -0.16530973575E+01  0.43920539215E+02  0.41800000000E+01 0.  1.
        -11    1    1    2    0    0  0.51351249788E+02 -0.49999825343E+01  0.16102549588E+02  0.54048522490E+02  0.00000000000E+00 0.  1.
         11    1    1    2    0    0 -0.30707420075E+02  0.15647060273E+02 -0.25378560928E+02  0.42800087589E+02  0.00000000000E+00 0. -1.
</event>
<event>
 7    1  0.6833760E-006  0.1124013E+03  0.7561462E-02  0.1256187E+00
          1   -1    0    0  501    0  0.00000000000E+00  0.00000000000E+00  0.41202009775E+03  0.41202009775E+03  0.00000000000E+00 0. -1.
         -1   -1    0    0    0  501 -0.00000000000E+00 -0.00000000000E+00 -0.51579815841E+02  0.51579815841E+02  0.00000000000E+00 0.  1.
         23    2    1    2    0    0  0.64996627705E+02  0.63015553876E+02  0.14009307586E+03  0.20860325491E+03  0.12527460402E+03 0.  0.
          5    1    3    3  502    0  0.30339105394E+02  0.85468885092E+01  0.14035111426E+03  0.14390767281E+03  0.41800000000E+01 0. -1.
         -5    1    3    3    0  502  0.34657522311E+02  0.54468665367E+02 -0.25803839857E+00  0.64695582101E+02  0.41800000000E+01 0.  1.
        -11    1    1    2    0    0  0.21214766737E+02  0.51391484368E+00  0.34583719617E+02  0.40575412489E+02  0.00000000000E+00 0.  1.
         11    1    1    2    0    0 -0.86211394442E+02 -0.63529468719E+02  0.18576348642E+03  0.21442124619E+03  0.00000000000E+00 0. -1.
</event>
<event>
 7    1  0.6833760E-006  0.1201433E+03  0.7561462E-02  0.1242861E+00
         -2   -1    0    0    0  501 -0.00000000000E+00  0.00000000000E+00  0.22087071071E+02  0.22087071071E+02  0.00000000000E+00 0.  1.
          2   -1    0    0  501    0  0.00000000000E+00 -0.00000000000E+00 -0.76923717594E+03  0.76923717594E+03  0.00000000000E+00 0. -1.
         23    2    1    2    0    0  0.62707503902E+02  0.22164847000E+02 -0.31598608441E+03  0.34629260109E+03  0.12509136078E+03 0.  0.
          5    1    3    3  502    0  0.28103498556E+02  0.69600736333E+02 -0.23089320425E+03  0.24282342000E+03  0.41800000000E+01 0.  1.
         -5    1    3    3    0  502  0.34604005345E+02 -0.47435889333E+02 -0.85092880159E+02  0.10346918109E+03  0.41800000000E+01 0.  1.
        -11    1    1    2    0    0 -0.72233910952E+02  0.97956001244E+01 -0.23478013857E+03  0.24583613473E+03  0.00000000000E+00 0.  1.
         11    1    1    2    0    0  0.95264070501E+01 -0.31960447124E+02 -0.19638388190E+03  0.19919551119E+03  0.00000000000E+00 0. -1.
</event>
<event>
 7    1  0.6833760E-006  0.1051236E+03  0.7561462E-02  0.1269876E+00
          2   -1    0    0  501    0  0.00000000000E+00  0.00000000000E+00  0.16637667409E+03  0.16637667409E+03  0.00000000000E+00 0. -1.
         -2   -1    0    0    0  501 -0.00000000000E+00 -0.00000000000E+00 -0.89538495357E+02  0.89538495357E+02  0.00000000000E+00 0.  1.
         23    2    1    2    0    0  0.82455314990E+01  0.46957466624E+02  0.13121944162E+02  0.13450384086E+03  0.12508439281E+03 0.  0.
          5    1    3    3  502    0  0.26804769481E+02  0.71332398469E+02 -0.29523454453E+02  0.81828561647E+02  0.41800000000E+01 0. -1.
         -5    1    3    3    0  502 -0.18559237982E+02 -0.24374931845E+02  0.42645398615E+02  0.52675279211E+02  0.41800000000E+01 0. -1.
        -11    1    1    2    0    0  0.40879793776E+02 -0.31179354124E+02  0.26891643373E+02  0.58021290455E+02  0.00000000000E+00 0.  1.
         11    1    1    2    0    0 -0.49125325276E+02 -0.15778112501E+02  0.36824591194E+02  0.63390038130E+02  0.00000000000E+00 0. -1.
</event>
<event>
 7    1  0.6833760E-006  0.7780615E+02  0.7561462E-02  0.1335395E+00
          2   -1    0    0  501    0  0.00000000000E+00  0.00000000000E+00  0.16668027451E+03  0.16668027451E+03  0.00000000000E+00 0. -1.
         -2   -1    0    0    0  501 -0.00000000000E+00 -0.00000000000E+00 -0.24056264366E+03  0.24056264366E+03  0.00000000000E+00 0.  1.
         23    2    1    2    0    0  0.63754590030E+02 -0.15253539266E+02 -0.19614861981E+03  0.24169962641E+03  0.12508840931E+03 0.  0.
          5    1    3    3  502    0  0.46861223923E+02 -0.36326933052E+02 -0.20462639371E+03  0.21308461647E+03  0.41800000000E+01 0.  1.
         -5    1    3    3    0  502  0.16893366107E+02  0.21073393786E+02  0.84777738965E+01  0.28615009948E+02  0.41800000000E+01 0.  1.
        -11    1    1    2    0    0 -0.39457874453E+02 -0.12378343891E+01 -0.33062130263E+00  0.39478670200E+02  0.00000000000E+00 0.  1.
         11    1    1    2    0    0 -0.24296715577E+02  0.16491373655E+02  0.12259687197E+03  0.12606462156E+03  0.00000000000E+00 0. -1.
</event>
<event>
 7    1  0.6833760E-006  0.1668749E+03  0.7561462E-02  0.1181147E+00
         -2   -1    0    0    0  501 -0.00000000000E+00  0.00000000000E+00  0.47073251350E+02  0.47073251350E+02  0.00000000000E+00 0.  1.
          2   -1    0    0  501    0  0.00000000000E+00 -0.00000000000E+00 -0.83674414298E+03  0.83674414298E+03  0.00000000000E+00 0. -1.
         23    2    1    2    0    0  0.15028827465E+03  0.58862890719E+02 -0.33784132600E+03  0.39476054463E+03  0.12509084957E+03 0.  0.
          5    1    3    3  502    0  0.10608154386E+03  0.56233421264E+02 -0.32785294885E+03  0.34917119023E+03  0.41800000000E+01 0. -1.
         -5    1    3    3    0  502  0.44206730794E+02  0.26294694547E+01 -0.99883771457E+01  0.45589354406E+02  0.41800000000E+01 0. -1.
        -11    1    1    2    0    0 -0.82874996944E+02 -0.53273829792E+01 -0.11791421185E+03  0.14422346371E+03  0.00000000000E+00 0.  1.
         11    1    1    2    0    0 -0.67413277706E+02 -0.53535507740E+02 -0.33391535379E+03  0.34483338599E+03  0.00000000000E+00 0. -1.
</event>
<event>
 7    1  0.6833760E-006  0.2681585E+03  0.7561462E-02  0.1102338E+00
         -2   -1    0    0    0  501 -0.00000000000E+00  0.00000000000E+00  0.20529256048E+03  0.20529256048E+03  0.00000000000E+00 0.  1.
          2   -1    0    0  501    0  0.00000000000E+00 -0.00000000000E+00 -0.43525415058E+03  0.43525415058E+03  0.00000000000E+00 0. -1.
         23    2    1    2    0    0 -0.25164361622E+03  0.75570627422E+02 -0.18587112662E+02  0.29158523316E+03  0.12506413605E+03 0.  0.
          5    1    3    3  502    0 -0.14836123920E+03  0.77595104785E+02 -0.63167763342E+02  0.17899635837E+03  0.41800000000E+01 0. -1.
         -5    1    3    3    0  502 -0.10328237702E+03 -0.20244773626E+01  0.44580650680E+02  0.11258887479E+03  0.41800000000E+01 0. -1.
        -11    1    1    2    0    0  0.97881155767E+02 -0.48811221654E+02 -0.38251748124E+02  0.11587256901E+03  0.00000000000E+00 0. -1.
         11    1    1    2    0    0  0.15376246045E+03 -0.26759405768E+02 -0.17312272932E+03  0.23308890889E+03  0.00000000000E+00 0.  1.
</event>
<event>
 7    1  0.6833760E-006  0.1259866E+03  0.7561462E-02  0.1233535E+00
          2   -1    0    0  501    0  0.00000000000E+00  0.00000000000E+00  0.22528113339E+03  0.22528113339E+03  0.00000000000E+00 0. -1.
         -2   -1    0    0    0  501 -0.00000000000E+00 -0.00000000000E+00 -0.11093197535E+03  0.11093197535E+03  0.00000000000E+00 0.  1.
         23    2    1    2    0    0  0.40285732220E+02 -0.58388278704E+02 -0.36736088288E+02  0.14842166950E+03  0.12508925008E+03 0.  0.
          5    1    3    3  502    0 -0.28198475165E+02  0.22114070425E+02  0.10692103925E+01  0.36094344755E+02  0.41800000000E+01 0. -1.
         -5    1    3    3    0  502  0.68484207386E+02 -0.80502349129E+02 -0.37805298681E+02  0.11232732475E+03  0.41800000000E+01 0. -1.
        -11    1    1    2    0    0  0.22728811373E+02 -0.20321381151E+01  0.20278675631E+02  0.30527907513E+02  0.00000000000E+00 0.  1.
         11    1    1    2    0    0 -0.63014543594E+02  0.60420416819E+02  0.13080657069E+03  0.15726353172E+03  0.00000000000E+00 0. -1.
</event>
<event>
 7    1  0.6833760E-006  0.1383071E+03  0.7561462E-02  0.1215625E+00
         -1   -1    0    0    0  501 -0.00000000000E+00  0.00000000000E+00  0.64294651370E+02  0.64294651370E+02  0.00000000000E+00 0.  1.
          1   -1    0    0  501    0  0.00000000000E+00 -0.00000000000E+00 -0.32709203140E+03  0.32709203140E+03  0.00000000000E+00 0. -1.
         23    2    1    2    0    0 -0.29206145947E+02 -0.90138944445E+02 -0.12234798068E+03  0.19898545844E+03  0.12509258981E+03 0.  0.
          5    1    3    3  502    0  0.44910554646E+01 -0.10842522420E+03 -0.55862643018E+02  0.12212414219E+03  0.41800000000E+01 0. -1.
         -5    1    3    3    0  502 -0.33697201411E+02  0.18286279751E+02 -0.66485337666E+02  0.76861316243E+02  0.41800000000E+01 0. -1.
        -11    1    1    2    0    0 -0.26204395976E+02  0.32629938000E+01 -0.16185521145E+02  0.30972384341E+02  0.00000000000E+00 0. -1.
         11    1    1    2    0    0  0.55410541923E+02  0.86875950645E+02 -0.12426387820E+03  0.16142884000E+03  0.00000000000E+00 0.  1.
</event>
<event>
 7    1  0.6833760E-006  0.1109248E+03  0.7561462E-02  0.1258867E+00
          1   -1    0    0  501    0  0.00000000000E+00  0.00000000000E+00  0.87559435187E+02  0.87559435187E+02  0.00000000000E+00 0. -1.
         -1   -1    0    0    0  501 -0.00000000000E+00 -0.00000000000E+00 -0.20426300909E+03  0.20426300909E+03  0.00000000000E+00 0.  1.
         23    2    1    2    0    0 -0.55599614942E+00 -0.28469710052E+02 -0.10313658341E+03  0.16460850336E+03  0.12509185033E+03 0.  0.
          5    1    3    3  502    0  0.28484337779E+02 -0.61689438876E+02 -0.98927770572E+02  0.12008797008E+03  0.41800000000E+01 0. -1.
         -5    1    3    3    0  502 -0.29040333928E+02  0.33219728824E+02 -0.42088128341E+01  0.44520533277E+02  0.41800000000E+01 0. -1.
        -11    1    1    2    0    0  0.51972656821E+02  0.29650995973E+01 -0.38389379751E+02  0.64681476099E+02  0.00000000000E+00 0.  1.
         11    1    1    2    0    0 -0.51416660672E+02  0.25504610455E+02  0.24822389250E+02  0.62532464826E+02  0.00000000000E+00 0. -1.
</event>
<event>
 7    1  0.6833760E-006  0.1114922E+03  0.7561462E-02  0.1257831E+00
         -3   -1    0    0    0  501 -0.00000000000E+00  0.00000000000E+00  0.17380159101E+04  0.17380159101E+04  0.00000000000E+00 0.  1.
          3   -1    0    0  501    0  0.00000000000E+00 -0.00000000000E+00 -0.12435783012E+02  0.12435783012E+02  0.00000000000E+00 0. -1.
         23    2    1    2    0    0 -0.54585538457E+02 -0.50368447581E+02  0.13274612557E+04  0.13354091867E+04  0.12509096277E+03 0.  0.
          5    1    3    3  502    0 -0.87361128720E+01  0.25007016900E+02  0.81148307362E+03  0.81192605681E+03  0.41800000000E+01 0. -1.
         -5    1    3    3    0  502 -0.45849425585E+02 -0.75375464481E+02  0.51597818211E+03  0.52348312989E+03  0.41800000000E+01 0. -1.
        -11    1    1    2    0    0  0.68390416874E+02  0.15194762790E+02  0.32791981450E+03  0.33532004813E+03  0.00000000000E+00 0.  1.
         11    1    1    2    0    0 -0.13804878416E+02  0.35173684792E+02  0.70199056907E+02  0.79722458320E+02  0.00000000000E+00 0. -1.
</event>
<event>
 7    1  0.6833760E-006  0.2476117E+03  0.7561462E-02  0.1114824E+00
          2   -1    0    0  501    0  0.00000000000E+00  0.00000000000E+00  0.94937018137E+02  0.94937018137E+02  0.00000000000E+00 0. -1.
         -2   -1    0    0    0  501 -0.00000000000E+00 -0.00000000000E+00 -0.65377271099E+03  0.65377271099E+03  0.00000000000E+00 0.  1.
         23    2    1    2    0    0 -0.17264520245E+03  0.14246727600E+03 -0.29482522116E+03  0.39073350876E+03  0.12508986041E+03 0.  0.
          5    1    3    3  502    0 -0.17609818055E+03  0.82952063210E+02 -0.20392290536E+03  0.28194616102E+03  0.41800000000E+01 0. -1.
         -5    1    3    3    0  502  0.34529780976E+01  0.59515212786E+02 -0.90902315800E+02  0.10878734774E+03  0.41800000000E+01 0. -1.
        -11    1    1    2    0    0  0.13459264328E+03 -0.55043910799E+02 -0.17510774961E+03  0.22761312729E+03  0.00000000000E+00 0. -1.
         11    1    1    2    0    0  0.38052559179E+02 -0.87423365197E+02 -0.88902722086E+02  0.13036309308E+03  0.00000000000E+00 0.  1.
</event>
<event>
 7    1  0.6833760E-006  0.1077282E+03  0.7561462E-02  0.1264836E+00
         -2   -1    0    0    0  501 -0.00000000000E+00  0.00000000000E+00  0.61272020225E+02  0.61272020225E+02  0.00000000000E+00 0.  1.
          2   -1    0    0  501    0  0.00000000000E+00 -0.00000000000E+00 -0.23698005799E+03  0.23698005799E+03  0.00000000000E+00 0. -1.
         23    2    1    2    0    0 -0.42859709004E+02 -0.13227431211E+02 -0.63702310689E+02  0.14736280508E+03  0.12508354144E+03 0.  0.
          5    1    3    3  502    0  0.33962588719E+02  0.29091057074E+02 -0.25032139964E+02  0.51418162796E+02  0.41800000000E+01 0.  1.
         -5    1    3    3    0  502 -0.76822297723E+02 -0.42318488285E+02 -0.38670170724E+02  0.95944642279E+02  0.41800000000E+01 0.  1.
        -11    1    1    2    0    0 -0.14466553361E+02  0.20351259951E+02 -0.11839490758E+00  0.24969360526E+02  0.00000000000E+00 0.  1.
         11    1    1    2    0    0  0.57326262365E+02 -0.71238287400E+01 -0.11188733217E+03  0.12591991261E+03  0.00000000000E+00 0. -1.
</event>
<event>
 7    1  0.6833760E-006  0.8484282E+02  0.7561462E-02  0.1315844E+00
          3   -1    0    0  501    0  0.00000000000E+00  0.00000000000E+00  0.40223606644E+02  0.40223606644E+02  0.00000000000E+00 0. -1.
         -3   -1    0    0    0  501 -0.00000000000E+00 -0.00000000000E+00 -0.34023982823E+03  0.34023982823E+03  0.00000000000E+00 0.  1.
         23    2    1    2    0    0 -0.13413018539E+02  0.15751192101E+02 -0.23661126926E+03  0.26844100411E+03  0.12509065044E+03 0.  0.
          5    1    3    3  502    0 -0.65918372520E+02  0.25647289453E+02 -0.10867901630E+03  0.12973671907E+03  0.41800000000E+01 0.  1.
         -5    1    3    3    0  502  0.52505353981E+02 -0.98960973517E+01 -0.12793225297E+03  0.13870428504E+03  0.41800000000E+01 0.  1.
        -11    1    1    2    0    0 -0.96826733721E+00  0.13028437678E+02 -0.76264081720E+02  0.77374982330E+02  0.00000000000E+00 0.  1.
         11    1    1    2    0    0  0.14381285876E+02 -0.28779629780E+02  0.12859129401E+02  0.34647448429E+02  0.00000000000E+00 0. -1.
</event>
<event>
 7    1  0.6833760E-006  0.1102308E+03  0.7561462E-02  0.1260143E+00
          1   -1    0    0  501    0  0.00000000000E+00  0.00000000000E+00  0.25624158069E+02  0.25624158069E+02  0.00000000000E+00 0. -1.
         -1   -1    0    0    0  501 -0.00000000000E+00 -0.00000000000E+00 -0.52516895560E+03  0.52516895560E+03  0.00000000000E+00 0.  1.
         23    2    1    2    0    0 -0.33389084625E+02  0.15177652024E+02 -0.32509010419E+03  0.35025238365E+03  0.12509182354E+03 0.  0.
          5    1    3    3  502    0  0.41444590090E+02 -0.18070184005E+02 -0.15356582616E+03  0.16013781865E+03  0.41800000000E+01 0. -1.
         -5    1    3    3    0  502 -0.74833674714E+02  0.33247836029E+02 -0.17152427803E+03  0.19011456500E+03  0.41800000000E+01 0. -1.
        -11    1    1    2    0    0  0.50470497051E+02  0.19737687745E+02 -0.66401160034E+02  0.85708584424E+02  0.00000000000E+00 0.  1.
         11    1    1    2    0    0 -0.17081412426E+02 -0.34915339769E+02 -0.10805353331E+03  0.11483214560E+03  0.00000000000E+00 0. -1.
</event>
<event>
 7    1  0.6833760E-006  0.8269072E+02  0.7561462E-02  0.1321584E+00
          2   -1    0    0  501    0  0.00000000000E+00  0.00000000000E+00  0.11370979021E+03  0.11370979021E+03  0.00000000000E+00 0. -1.
         -2   -1    0    0    0  501 -0.00000000000E+00 -0.00000000000E+00 -0.12167535461E+03  0.12167535461E+03  0.00000000000E+00 0.  1.
         23    2    1    2    0    0 -0.28727216715E+02  0.16844952732E+02 -0.38679786240E+02  0.13510547746E+03  0.12509340016E+03 0.  0.
          5    1    3    3  502    0  0.19853856231E+02  0.24268401567E+02 -0.69905705594E+02  0.76729466286E+02  0.41800000000E+01 0. -1.
         -5    1    3    3    0  502 -0.48581072946E+02 -0.74234488356E+01  0.31225919354E+02  0.58376011175E+02  0.41800000000E+01 0. -1.
        -11    1    1    2    0    0  0.28779054539E+02  0.27663215491E+02 -0.86688933306E+01  0.40848955715E+02  0.00000000000E+00 0.  1.
         11    1    1    2    0    0 -0.51837823627E-01 -0.44508168222E+02  0.39383115173E+02  0.59430711643E+02  0.00000000000E+00 0. -1.
</event>
<event>
 7    1  0.6833760E-006  0.9545508E+02  0.7561462E-02  0.1290154E+00
          2   -1    0    0  501    0  0.00000000000E+00  0.00000000000E+00  0.76854244879E+02  0.76854244879E+02  0.00000000000E+00 0. -1.
         -2   -1    0    0    0  501 -0.00000000000E+00 -0.00000000000E+00 -0.19556565424E+03  0.19556565424E+03  0.00000000000E+00 0.  1.
         23    2    1    2    0    0 -0.88005529623E+01 -0.32317815652E+02 -0.11482129733E+03  0.17306767604E+03  0.12508636708E+03 0.  0.
          5    1    3    3  502    0 -0.58289518468E+02  0.13993046500E+02 -0.40897001990E+02  0.72687760217E+02  0.41800000000E+01 0.  1.
         -5    1    3    3    0  502  0.49488965506E+02 -0.46310862152E+02 -0.73924295338E+02  0.10037991583E+03  0.41800000000E+01 0.  1.
        -11    1    1    2    0    0  0.23166007197E+02  0.40295719201E+02  0.34307351463E+02  0.57770262590E+02  0.00000000000E+00 0. -1.
         11    1    1    2    0    0 -0.14365454235E+02 -0.79779035487E+01 -0.38197463499E+02  0.41581960490E+02  0.00000000000E+00 0.  1.
</event>
<event>
 7    1  0.6833760E-006  0.1747967E+03  0.7561462E-02  0.1172936E+00
         -2   -1    0    0    0  501 -0.00000000000E+00  0.00000000000E+00  0.59397971728E+02  0.59397971728E+02  0.00000000000E+00 0.  1.
          2   -1    0    0  501    0  0.00000000000E+00 -0.00000000000E+00 -0.62601757588E+03  0.62601757588E+03  0.00000000000E+00 0. -1.
         23    2    1    2    0    0  0.14295292877E+03  0.64042751171E+02 -0.32144564037E+03  0.37883606224E+03  0.12510974591E+03 0.  0.
          5    1    3    3  502    0 -0.87453429524E+01 -0.17984720425E+02 -0.98618994422E+01  0.22686133490E+02  0.41800000000E+01 0.  1.
         -5    1    3    3    0  502  0.15169827172E+03  0.82027471596E+02 -0.31158374093E+03  0.35614992875E+03  0.41800000000E+01 0.  1.
        -11    1    1    2    0    0 -0.11654145450E+03 -0.51314701624E+02 -0.24626673659E+03  0.27724071630E+03  0.00000000000E+00 0.  1.
         11    1    1    2    0    0 -0.26411474263E+02 -0.12728049547E+02  0.10927728126E+01  0.29338769068E+02  0.00000000000E+00 0. -1.
</event>
<event>
 7    1  0.6833760E-006  0.2305411E+03  0.7561462E-02  0.1126260E+00
          2   -1    0    0  501    0  0.00000000000E+00  0.00000000000E+00  0.55984597349E+03  0.55984597349E+03  0.00000000000E+00 0. -1.
         -2   -1    0    0    0  501 -0.00000000000E+00 -0.00000000000E+00 -0.10396788805E+03  0.10396788805E+03  0.00000000000E+00 0.  1.
         23    2    1    2    0    0  0.18776568386E+03 -0.98023097789E+02  0.28377408655E+03  0.37555276702E+03  0.12509064267E+03 0.  0.
          5    1    3    3  502    0  0.85637833058E+02 -0.95014703857E+02  0.22152935783E+03  0.25584049949E+03  0.41800000000E+01 0. -1.
         -5    1    3    3    0  502  0.10212785080E+03 -0.30083939318E+01  0.62244728719E+02  0.11971226753E+03  0.41800000000E+01 0. -1.
        -11    1    1    2    0    0 -0.37635619092E+01  0.36699075034E+02  0.21470819216E+02  0.42684687938E+02  0.00000000000E+00 0.  1.
         11    1    1    2    0    0 -0.18400212195E+03  0.61324022756E+02  0.15063317967E+03  0.24557640658E+03  0.00000000000E+00 0. -1.
</event>
<event>
 7    1  0.6833760E-006  0.1375798E+03  0.7561462E-02  0.1216623E+00
         -2   -1    0    0    0  501 -0.00000000000E+00  0.00000000000E+00  0.82949433498E+02  0.82949433498E+02  0.00000000000E+00 0.  1.
          2   -1    0    0  501    0  0.00000000000E+00 -0.00000000000E+00 -0.34289192555E+03  0.34289192555E+03  0.00000000000E+00 0. -1.
         23    2    1    2    0    0  0.12597084872E+03 -0.13622755537E+01 -0.10538705881E+03  0.20645740699E+03  0.12509083985E+03 0.  0.
          5    1    3    3  502    0  0.46586335226E+02  0.35667347195E+02  0.11897336879E+02  0.60012209679E+02  0.41800000000E+01 0. -1.
         -5    1    3    3    0  502  0.79384513492E+02 -0.37029622748E+02 -0.11728439569E+03  0.14644519731E+03  0.41800000000E+01 0. -1.
        -11    1    1    2    0    0 -0.94649512548E+02  0.12345819876E+02 -0.15944705861E+03  0.18583410342E+03  0.00000000000E+00 0. -1.
         11    1    1    2    0    0 -0.31321336170E+02 -0.10983544322E+02  0.48916253642E+01  0.33549848645E+02  0.00000000000E+00 0.  1.
</event>
<event>
 7    1  0.6833760E-006  0.8687871E+02  0.7561462E-02  0.1310591E+00
          1   -1    0    0  501    0  0.00000000000E+00  0.00000000000E+00  0.55221315660E+02  0.55221315660E+02  0.00000000000E+00 0. -1.
         -1   -1    0    0    0  501 -0.00000000000E+00 -0.00000000000E+00 -0.60499995253E+03  0.60499995253E+03  0.00000000000E+00 0.  1.
         23    2    1    2    0    0 -0.55728229657E+02 -0.14478502132E+02 -0.53688596241E+03  0.55295115476E+03  0.11913513464E+03 0.  0.
          5    1    3    3  502    0 -0.15157864937E+02  0.11508776012E+02 -0.67613558995E+01  0.20625254625E+02  0.41800000000E+01 0. -1.
         -5    1    3    3    0  502 -0.40570364720E+02 -0.25987278144E+02 -0.53012460651E+03  0.53232590013E+03  0.41800000000E+01 0.  1.
        -11    1    1    2    0    0  0.66561680142E+02 -0.20216489690E+02 -0.31284462107E+01  0.69634408839E+02  0.00000000000E+00 0.  1.
         11    1    1    2    0    0 -0.10833450484E+02  0.34694991822E+02 -0.97642282433E+01  0.37635704592E+02  0.00000000000E+00 0. -1.
</event>
<event>
 7    1  0.6833760E-006  0.8285470E+02  0.7561462E-02  0.1321140E+00
          1   -1    0    0  501    0  0.00000000000E+00  0.00000000000E+00  0.77970904794E+02  0.77970904794E+02  0.00000000000E+00 0. -1.
         -1   -1    0    0    0  501 -0.00000000000E+00 -0.00000000000E+00 -0.21518912028E+03  0.21518912028E+03  0.00000000000E+00 0.  1.
         23    2    1    2    0    0  0.36021694261E+02  0.17092245721E+02 -0.13602796361E+03  0.18905705956E+03  0.12509699262E+03 0.  0.
          5    1    3    3  502    0  0.29879830929E+02 -0.34085227084E+02 -0.12908900178E+03  0.13687969091E+03  0.41800000000E+01 0. -1.
         -5    1    3    3    0  502  0.61418633322E+01  0.51177472805E+02 -0.69389618273E+01  0.52177368649E+02  0.41800000000E+01 0. -1.
        -11    1    1    2    0    0  0.48751183515E+01 -0.26139152180E+02 -0.39316453875E+02  0.47463729320E+02  0.00000000000E+00 0.  1.
         11    1    1    2    0    0 -0.40896812612E+02  0.90469064591E+01  0.38126201998E+02  0.56639236198E+02  0.00000000000E+00 0. -1.
</event>
<event>
 7    1  0.6833760E-006  0.9077881E+02  0.7561462E-02  0.1300977E+00
          4   -1    0    0  501    0  0.00000000000E+00  0.00000000000E+00  0.19039435726E+02  0.19039435726E+02  0.00000000000E+00 0. -1.
         -4   -1    0    0    0  501 -0.00000000000E+00 -0.00000000000E+00 -0.79518907102E+03  0.79518907102E+03  0.00000000000E+00 0.  1.
         23    2    1    2    0    0 -0.25973399457E+01 -0.53664945397E+02 -0.50052183213E+03  0.51870626216E+03  0.12508960561E+03 0.  0.
          5    1    3    3  502    0 -0.80163408998E+01 -0.74490659322E+02 -0.48743228069E+03  0.49317422956E+03  0.41800000000E+01 0. -1.
         -5    1    3    3    0  502  0.54190009541E+01  0.20825713925E+02 -0.13089551440E+02  0.25532032600E+02  0.41800000000E+01 0. -1.
        -11    1    1    2    0    0 -0.19580699708E+02 -0.63761547478E+01 -0.11166103309E+02  0.23425221739E+02  0.00000000000E+00 0. -1.
         11    1    1    2    0    0  0.22178039654E+02  0.60041100145E+02 -0.26446169985E+03  0.27209702284E+03  0.00000000000E+00 0.  1.
</event>
<event>
 7    1  0.6833760E-006  0.7392564E+02  0.7561462E-02  0.1347231E+00
         -1   -1    0    0    0  501 -0.00000000000E+00  0.00000000000E+00  0.41608638151E+02  0.41608638151E+02  0.00000000000E+00 0.  1.
          1   -1    0    0  501    0  0.00000000000E+00 -0.00000000000E+00 -0.34094085201E+03  0.34094085201E+03  0.00000000000E+00 0. -1.
         23    2    1    2    0    0  0.14288429782E+02 -0.40716063826E+01 -0.67107615184E+02  0.13122519292E+03  0.11178498126E+03 0.  0.
          5    1    3    3  502    0 -0.13597808574E+02  0.16245458610E+02  0.24848675485E+02  0.32920273340E+02  0.41800000000E+01 0. -1.
         -5    1    3    3    0  502  0.27886238356E+02 -0.20317064992E+02 -0.91956290668E+02  0.98304919577E+02  0.41800000000E+01 0.  1.
        -11    1    1    2    0    0 -0.14251849530E+01 -0.42837883788E+02 -0.14780425636E+03  0.15389351395E+03  0.00000000000E+00 0.  1.
         11    1    1    2    0    0 -0.12863244829E+02  0.46909490171E+02 -0.84420342314E+02  0.97430783287E+02  0.00000000000E+00 0. -1.
</event>
<event>
 7    1  0.6833760E-006  0.7729140E+02  0.7561462E-02  0.1336919E+00
         -1   -1    0    0    0  501 -0.00000000000E+00  0.00000000000E+00  0.66999198572E+02  0.66999198572E+02  0.00000000000E+00 0.  1.
          1   -1    0    0  501    0  0.00000000000E+00 -0.00000000000E+00 -0.18377566875E+03  0.18377566875E+03  0.00000000000E+00 0. -1.
         23    2    1    2    0    0 -0.17563120119E+02  0.14294487639E+02 -0.54708085066E+02  0.13839474159E+03  0.12508930554E+03 0.  0.
          5    1    3    3  502    0  0.43904757430E+01  0.45900503404E+02  0.22911937207E+02  0.51658123819E+02  0.41800000000E+01 0. -1.
         -5    1    3    3    0  502 -0.21953595862E+02 -0.31606015765E+02 -0.77620022273E+02  0.86736617766E+02  0.41800000000E+01 0. -1.
        -11    1    1    2    0    0 -0.92901975337E+01 -0.34652979351E+02  0.60490420783E+01  0.36383068289E+02  0.00000000000E+00 0.  1.
         11    1    1    2    0    0  0.26853317653E+02  0.20358491712E+02 -0.68117427195E+02  0.75997057452E+02  0.00000000000E+00 0. -1.
</event>
<event>
 7    1  0.6833760E-006  0.1376697E+03  0.7561462E-02  0.1216499E+00
         -1   -1    0    0    0  501 -0.00000000000E+00  0.00000000000E+00  0.97597389028E+02  0.97597389028E+02  0.00000000000E+00 0.  1.
          1   -1    0    0  501    0  0.00000000000E+00 -0.00000000000E+00 -0.28457775391E+03  0.28457775391E+03  0.00000000000E+00 0. -1.
         23    2    1    2    0    0 -0.41242998575E+02 -0.11747973534E+03 -0.72496221924E+02  0.19080082741E+03  0.12508709126E+03 0.  0.
          5    1    3    3  502    0 -0.49216200679E+02 -0.91163108213E+02 -0.10530958507E+03  0.14778541138E+03  0.41800000000E+01 0.  1.
         -5    1    3    3    0  502  0.79732021038E+01 -0.26316627123E+02  0.32813363149E+02  0.43015416028E+02  0.41800000000E+01 0.  1.
        -11    1    1    2    0    0 -0.20114777927E+02  0.42003282858E+02 -0.81804396979E+01  0.47284243206E+02  0.00000000000E+00 0.  1.
         11    1    1    2    0    0  0.61357776502E+02  0.75476452478E+02 -0.10630370326E+03  0.14409007233E+03  0.00000000000E+00 0. -1.
</event>
<event>
 7    1  0.6833760E-006  0.1340826E+03  0.7561462E-02  0.1221521E+00
         -2   -1    0    0    0  501 -0.00000000000E+00  0.00000000000E+00  0.14968257245E+03  0.14968257245E+03  0.00000000000E+00 0.  1.
          2   -1    0    0  501    0  0.00000000000E+00 -0.00000000000E+00 -0.20518160168E+03  0.20518160168E+03  0.00000000000E+00 0. -1.
         23    2    1    2    0    0  0.80164276936E+02 -0.88694435150E+02  0.38861631236E+02  0.17733872188E+03  0.12508309947E+03 0.  0.
          5    1    3    3  502    0  0.18325525024E+02 -0.20182416814E+02 -0.44860368572E+02  0.52660040678E+02  0.41800000000E+01 0.  1.
         -5    1    3    3    0  502  0.61838751913E+02 -0.68512018336E+02  0.83721999807E+02  0.12467868120E+03  0.41800000000E+01 0.  1.
        -11    1    1    2    0    0  0.14435467392E+02  0.38477966404E+02 -0.40276835480E+02  0.57542680627E+02  0.00000000000E+00 0. -1.
         11    1    1    2    0    0 -0.94599744328E+02  0.50216468746E+02 -0.54083824984E+02  0.11998277162E+03  0.00000000000E+00 0.  1.
</event>
<event>
 7    1  0.6833760E-006  0.1089723E+03  0.7561462E-02  0.1262485E+00
         -1   -1    0    0    0  501 -0.00000000000E+00  0.00000000000E+00  0.47860009595E+02  0.47860009595E+02  0.00000000000E+00 0.  1.
          1   -1    0    0  501    0  0.00000000000E+00 -0.00000000000E+00 -0.34166805029E+03  0.34166805029E+03  0.00000000000E+00 0. -1.
         23    2    1    2    0    0  0.29755448003E+02  0.40534642530E+02 -0.11327256446E+03  0.17608598925E+03  0.12508859988E+03 0.  0.
          5    1    3    3  502    0  0.46565856544E+02 -0.24531843063E+02 -0.90922512493E+02  0.10514069620E+03  0.41800000000E+01 0. -1.
         -5    1    3    3    0  502 -0.16810408541E+02  0.65066485593E+02 -0.22350051962E+02  0.70945293046E+02  0.41800000000E+01 0. -1.
        -11    1    1    2    0    0  0.24414414820E+02  0.73672592823E+01 -0.85893867379E+01  0.26909435610E+02  0.00000000000E+00 0.  1.
         11    1    1    2    0    0 -0.54169862823E+02 -0.47901901812E+02 -0.17194608950E+03  0.18653263503E+03  0.00000000000E+00 0. -1.
</event>
<event>
 7    1  0.6833760E-006  0.1447423E+03  0.7561462E-02  0.1207087E+00
         -1   -1    0    0    0  501 -0.00000000000E+00  0.00000000000E+00  0.12162651440E+03  0.12162651440E+03  0.00000000000E+00 0.  1.
          1   -1    0    0  501    0  0.00000000000E+00 -0.00000000000E+00 -0.28669713083E+03  0.28669713083E+03  0.00000000000E+00 0. -1.
         23    2    1    2    0    0 -0.11199683566E+03  0.61300024017E+02  0.19533866358E+01  0.17875046277E+03  0.12508768156E+03 0.  0.
          5    1    3    3  502    0 -0.38438289947E+02  0.46186771591E+02 -0.57198271873E+02  0.83065243690E+02  0.41800000000E+01 0.  1.
         -5    1    3    3    0  502 -0.73558545716E+02  0.15113252426E+02  0.59151658508E+02  0.95685219083E+02  0.41800000000E+01 0.  1.
        -11    1    1    2    0    0 -0.11282699135E+02  0.68269790169E+01 -0.32895663345E+01  0.13591474862E+02  0.00000000000E+00 0.  1.
         11    1    1    2    0    0  0.12327953480E+03 -0.68127003033E+02 -0.16373443673E+03  0.21598170759E+03  0.00000000000E+00 0. -1.
</event>
<event>
 7    1  0.6833760E-006  0.9871911E+02  0.7561462E-02  0.1283013E+00
         -2   -1    0    0    0  501 -0.00000000000E+00  0.00000000000E+00  0.20380703921E+03  0.20380703921E+03  0.00000000000E+00 0.  1.
          2   -1    0    0  501    0  0.00000000000E+00 -0.00000000000E+00 -0.84068465808E+02  0.84068465808E+02  0.00000000000E+00 0. -1.
         23    2    1    2    0    0 -0.46345573599E+02  0.55238169376E+02  0.97493142290E+02  0.17421430854E+03  0.12508615015E+03 0.  0.
          5    1    3    3  502    0 -0.41595945650E+02 -0.15722859739E+02 -0.95085380685E+01  0.45665257133E+02  0.41800000000E+01 0. -1.
         -5    1    3    3    0  502 -0.47496279491E+01  0.70961029116E+02  0.10700168036E+03  0.12854905141E+03  0.41800000000E+01 0. -1.
        -11    1    1    2    0    0  0.44033173403E+02 -0.23886984463E+02 -0.25720125336E+02  0.56311927990E+02  0.00000000000E+00 0. -1.
         11    1    1    2    0    0  0.23124001956E+01 -0.31351184914E+02  0.47965556445E+02  0.57349268480E+02  0.00000000000E+00 0.  1.
</event>
<event>
 7    1  0.6833760E-006  0.9332064E+02  0.7561462E-02  0.1295004E+00
          2   -1    0    0  501    0  0.00000000000E+00  0.00000000000E+00  0.46596294657E+02  0.46596294657E+02  0.00000000000E+00 0. -1.
         -2   -1    0    0    0  501 -0.00000000000E+00 -0.00000000000E+00 -0.32190253386E+03  0.32190253386E+03  0.00000000000E+00 0.  1.
         23    2    1    2    0    0 -0.32317983550E+02  0.42117551847E+01 -0.16445266782E+03  0.20921331413E+03  0.12515326569E+03 0.  0.
          5    1    3    3  502    0 -0.36371853114E+02 -0.31814515200E+02 -0.87436145238E+01  0.49284868584E+02  0.41800000000E+01 0.  1.
         -5    1    3    3    0  502  0.40538695637E+01  0.36026270385E+02 -0.15570905330E+03  0.15992844555E+03  0.41800000000E+01 0.  1.
        -11    1    1    2    0    0 -0.27777552055E+02 -0.25680074982E+02 -0.79807278267E+02  0.88319082386E+02  0.00000000000E+00 0.  1.
         11    1    1    2    0    0  0.60095535605E+02  0.21468319797E+02 -0.31046293113E+02  0.70966431998E+02  0.00000000000E+00 0. -1.
</event>
<event>
 7    1  0.6833760E-006  0.9266084E+02  0.7561462E-02  0.1296533E+00
         -1   -1    0    0    0  501 -0.00000000000E+00  0.00000000000E+00  0.16835486876E+02  0.16835486876E+02  0.00000000000E+00 0.  1.
          1   -1    0    0  501    0  0.00000000000E+00 -0.00000000000E+00 -0.84787558429E+03  0.84787558429E+03  0.00000000000E+00 0. -1.
         23    2    1    2    0    0 -0.25437154188E+02  0.32012987821E+02 -0.40057013722E+03  0.42158260394E+03  0.12491427825E+03 0.  0.
          5    1    3    3  502    0 -0.27492859047E+02  0.52375750384E+02 -0.39571947304E+03  0.40013803902E+03  0.41800000000E+01 0.  1.
         -5    1    3    3    0  502  0.20557048589E+01 -0.20362762563E+02 -0.48506641790E+01  0.21444564921E+02  0.41800000000E+01 0.  1.
        -11    1    1    2    0    0 -0.33973165708E+02 -0.30573524391E+02 -0.19210907782E+03  0.19747104640E+03  0.00000000000E+00 0.  1.
         11    1    1    2    0    0  0.59410319896E+02 -0.14394634307E+01 -0.23836088237E+03  0.24565742083E+03  0.00000000000E+00 0. -1.
</event>
<event>
 7    1  0.6833760E-006  0.1261816E+03  0.7561462E-02  0.1233234E+00
          2   -1    0    0  501    0  0.00000000000E+00  0.00000000000E+00  0.14258232449E+03  0.14258232449E+03  0.00000000000E+00 0. -1.
         -2   -1    0    0    0  501 -0.00000000000E+00 -0.00000000000E+00 -0.15313323204E+03  0.15313323204E+03  0.00000000000E+00 0.  1.
         23    2    1    2    0    0 -0.15658449401E+02 -0.84947448279E+02 -0.56892308705E+02  0.16230992214E+03  0.12508605050E+03 0.  0.
          5    1    3    3  502    0  0.51380994346E+02 -0.29569633463E+02 -0.44791522382E+02  0.74418564085E+02  0.41800000000E+01 0.  1.
         -5    1    3    3    0  502 -0.67039443746E+02 -0.55377814816E+02 -0.12100786323E+02  0.87891358058E+02  0.41800000000E+01 0.  1.
        -11    1    1    2    0    0 -0.15806934952E+02  0.68645705710E+02 -0.54479929140E+01  0.70652478596E+02  0.00000000000E+00 0.  1.
         11    1    1    2    0    0  0.31465384352E+02  0.16301742568E+02  0.51789394069E+02  0.62753155787E+02  0.00000000000E+00 0. -1.
</event>
<event>
 7    1  0.6833760E-006  0.1671883E+03  0.7561462E-02  0.1180812E+00
          1   -1    0    0  501    0  0.00000000000E+00  0.00000000000E+00  0.35826442640E+03  0.35826442640E+03  0.00000000000E+00 0. -1.
         -1   -1    0    0    0  501 -0.00000000000E+00 -0.00000000000E+00 -0.81039936922E+02  0.81039936922E+02  0.00000000000E+00 0.  1.
         23    2    1    2    0    0  0.27233827684E+02  0.12713708252E+03  0.13758954873E+03  0.22689799311E+03  0.12508515594E+03 0.  0.
          5    1    3    3  502    0  0.74468584099E+02  0.90666572867E+02  0.11050882584E+03  0.16123172901E+03  0.41800000000E+01 0. -1.
         -5    1    3    3    0  502 -0.47234756415E+02  0.36470509657E+02  0.27080722897E+02  0.65666264100E+02  0.41800000000E+01 0. -1.
        -11    1    1    2    0    0 -0.55289714713E+02 -0.48105814990E+02  0.45184535542E+02  0.86097411349E+02  0.00000000000E+00 0.  1.
         11    1    1    2    0    0  0.28055887029E+02 -0.79031267534E+02  0.94450405203E+02  0.12630895886E+03  0.00000000000E+00 0. -1.
</event>
<event>
 7    1  0.6833760E-006  0.2149322E+03  0.7561462E-02  0.1137719E+00
          2   -1    0    0  501    0  0.00000000000E+00  0.00000000000E+00  0.48734477754E+03  0.48734477754E+03  0.00000000000E+00 0.  1.
         -2   -1    0    0    0  501 -0.00000000000E+00 -0.00000000000E+00 -0.95938776319E+02  0.95938776319E+02  0.00000000000E+00 0. -1.
         23    2    1    2    0    0 -0.80261438865E+02 -0.16768431269E+03  0.18752214427E+03  0.29218571834E+03  0.12509201460E+03 0.  0.
          5    1    3    3  502    0  0.34011492616E+02 -0.37606267299E+02  0.42353859616E+02  0.66199205392E+02  0.41800000000E+01 0.  1.
         -5    1    3    3    0  502 -0.11427293148E+03 -0.13007804539E+03  0.14516828465E+03  0.22598651294E+03  0.41800000000E+01 0.  1.
        -11    1    1    2    0    0  0.98161717682E+02  0.12109436227E+03  0.13620450506E+03  0.20700539750E+03  0.00000000000E+00 0. -1.
         11    1    1    2    0    0 -0.17900278817E+02  0.46589950420E+02  0.67679351889E+02  0.84092438031E+02  0.00000000000E+00 0.  1.
</event>
<event>
 7    1  0.6833760E-006  0.2334606E+03  0.7561462E-02  0.1124227E+00
          2   -1    0    0  501    0  0.00000000000E+00  0.00000000000E+00  0.53230393940E+03  0.53230393940E+03  0.00000000000E+00 0. -1.
         -2   -1    0    0    0  501 -0.00000000000E+00 -0.00000000000E+00 -0.14334186913E+03  0.14334186913E+03  0.00000000000E+00 0.  1.
         23    2    1    2    0    0 -0.86813882175E+02 -0.19039148564E+03  0.21031219776E+02  0.24469045490E+03  0.12508212730E+03 0.  0.
          5    1    3    3  502    0 -0.11614713215E+03 -0.17230140433E+03  0.92875773315E+01  0.20804245176E+03  0.41800000000E+01 0.  1.
         -5    1    3    3    0  502  0.29333249979E+02 -0.18090081313E+02  0.11743642445E+02  0.36648003140E+02  0.41800000000E+01 0.  1.
        -11    1    1    2    0    0  0.87384210515E+01  0.11664781322E+03  0.19439203050E+03  0.22687294650E+03  0.00000000000E+00 0.  1.
         11    1    1    2    0    0  0.78075461124E+02  0.73743672423E+02  0.17353881999E+03  0.20408240712E+03  0.00000000000E+00 0. -1.
</event>
<event>
 7    1  0.6833760E-006  0.1144065E+03  0.7561462E-02  0.1252621E+00
         -4   -1    0    0    0  501 -0.00000000000E+00  0.00000000000E+00  0.41724424021E+03  0.41724424021E+03  0.00000000000E+00 0.  1.
          4   -1    0    0  501    0  0.00000000000E+00 -0.00000000000E+00 -0.57862553632E+02  0.57862553632E+02  0.00000000000E+00 0. -1.
         23    2    1    2    0    0  0.62410449368E+02 -0.83495572961E+02  0.25031777612E+03  0.29862325113E+03  0.12510108783E+03 0.  0.
          5    1    3    3  502    0  0.38493507316E+02 -0.12960423186E+01  0.18976909625E+03  0.19368327786E+03  0.41800000000E+01 0.  1.
         -5    1    3    3    0  502  0.23916942052E+02 -0.82199530643E+02  0.60548679870E+02  0.10493997327E+03  0.41800000000E+01 0.  1.
        -11    1    1    2    0    0 -0.32759552512E+02  0.47949514785E+02  0.11595524895E+03  0.12968409312E+03  0.00000000000E+00 0.  1.
         11    1    1    2    0    0 -0.29650896856E+02  0.35546058177E+02 -0.68913384942E+01  0.46799449596E+02  0.00000000000E+00 0. -1.
</event>
<event>
 7    1  0.6833760E-006  0.9090676E+02  0.7561462E-02  0.1300671E+00
         -2   -1    0    0    0  501 -0.00000000000E+00  0.00000000000E+00  0.12450831723E+03  0.12450831723E+03  0.00000000000E+00 0.  1.
          2   -1    0    0  501    0  0.00000000000E+00 -0.00000000000E+00 -0.11498758961E+03  0.11498758961E+03  0.00000000000E+00 0. -1.
         23    2    1    2    0    0  0.51143279483E+01  0.30987151005E+02  0.50182062481E+02  0.13839280794E+03  0.12509184633E+03 0.  0.
          5    1    3    3  502    0  0.64600104216E+02  0.20539960388E+02  0.20335782352E+02  0.70894850881E+02  0.41800000000E+01 0. -1.
         -5    1    3    3    0  502 -0.59485776268E+02  0.10447190617E+02  0.29846280129E+02  0.67497957062E+02  0.41800000000E+01 0. -1.
        -11    1    1    2    0    0  0.63853046332E+01 -0.38885563271E+02 -0.63269031354E+02  0.74537436732E+02  0.00000000000E+00 0. -1.
         11    1    1    2    0    0 -0.11499632582E+02  0.78984122659E+01  0.22607696487E+02  0.26565662165E+02  0.00000000000E+00 0.  1.
</event>
<event>
 7    1  0.6833760E-006  0.1379556E+03  0.7561462E-02  0.1216107E+00
          1   -1    0    0  501    0  0.00000000000E+00  0.00000000000E+00  0.70149048565E+02  0.70149048565E+02  0.00000000000E+00 0. -1.
         -1   -1    0    0    0  501 -0.00000000000E+00 -0.00000000000E+00 -0.35282577383E+03  0.35282577383E+03  0.00000000000E+00 0.  1.
         23    2    1    2    0    0  0.89255990214E+02 -0.70787081488E+02 -0.14149447461E+03  0.22055738947E+03  0.12508969986E+03 0.  0.
          5    1    3    3  502    0 -0.13209240877E+02 -0.11641000950E+02  0.15571503919E+02  0.23873438839E+02  0.41800000000E+01 0.  1.
         -5    1    3    3    0  502  0.10246523109E+03 -0.59146080538E+02 -0.15706597853E+03  0.19668395063E+03  0.41800000000E+01 0.  1.
        -11    1    1    2    0    0  0.11450458940E+02  0.27550197178E+02 -0.56587016107E+02  0.63970436659E+02  0.00000000000E+00 0.  1.
         11    1    1    2    0    0 -0.10070644915E+03  0.43236884310E+02 -0.84595234555E+02  0.13844699627E+03  0.00000000000E+00 0. -1.
</event>
<event>
 7    1  0.6833760E-006  0.8456260E+02  0.7561462E-02  0.1316580E+00
          2   -1    0    0  501    0  0.00000000000E+00  0.00000000000E+00  0.29276780530E+02  0.29276780530E+02  0.00000000000E+00 0. -1.
         -2   -1    0    0    0  501 -0.00000000000E+00 -0.00000000000E+00 -0.44319599863E+03  0.44319599863E+03  0.00000000000E+00 0.  1.
         23    2    1    2    0    0  0.29297440999E+02  0.11740889273E+02 -0.27533767675E+03  0.30406033675E+03  0.12508262716E+03 0.  0.
          5    1    3    3  502    0  0.60355914371E+02  0.27873459846E+02 -0.25458977787E+03  0.26316001512E+03  0.41800000000E+01 0.  1.
         -5    1    3    3    0  502 -0.31058473372E+02 -0.16132570573E+02 -0.20747898882E+02  0.40900321631E+02  0.41800000000E+01 0.  1.
        -11    1    1    2    0    0 -0.11103372828E+02  0.24397628955E+02 -0.12162331472E+03  0.12454220116E+03  0.00000000000E+00 0.  1.
         11    1    1    2    0    0 -0.18194068171E+02 -0.36138518228E+02 -0.16958226625E+02  0.43870241242E+02  0.00000000000E+00 0. -1.
</event>
<event>
 7    1  0.6833760E-006  0.1504757E+03  0.7561462E-02  0.1199890E+00
         -2   -1    0    0    0  501 -0.00000000000E+00  0.00000000000E+00  0.15337872151E+03  0.15337872151E+03  0.00000000000E+00 0.  1.
          2   -1    0    0  501    0  0.00000000000E+00 -0.00000000000E+00 -0.15511746730E+03  0.15511746730E+03  0.00000000000E+00 0. -1.
         23    2    1    2    0    0  0.98737871076E+02 -0.43578861057E+02  0.15219000491E+02  0.16591692929E+03  0.12509406515E+03 0.  0.
          5    1    3    3  502    0 -0.14888932133E+02  0.26951060128E+02  0.70704695477E+01  0.31866971643E+02  0.41800000000E+01 0. -1.
         -5    1    3    3    0  502  0.11362680321E+03 -0.70529921185E+02  0.81485309429E+01  0.13404995765E+03  0.41800000000E+01 0. -1.
        -11    1    1    2    0    0  0.14522632536E+02 -0.52460925948E+00 -0.15190122863E+02  0.21021938617E+02  0.00000000000E+00 0. -1.
         11    1    1    2    0    0 -0.11326050361E+03  0.44103470317E+02 -0.17676234222E+01  0.12155732090E+03  0.00000000000E+00 0.  1.
</event>
<event>
 7    1  0.6833760E-006  0.1031623E+03  0.7561462E-02  0.1273783E+00
         -1   -1    0    0    0  501 -0.00000000000E+00  0.00000000000E+00  0.56442404287E+03  0.56442404287E+03  0.00000000000E+00 0.  1.
          1   -1    0    0  501    0  0.00000000000E+00 -0.00000000000E+00 -0.31393053536E+02  0.31393053536E+02  0.00000000000E+00 0. -1.
         23    2    1    2    0    0 -0.25815956812E+02  0.47823599902E+02  0.42325365752E+03  0.44468555971E+03  0.12509207839E+03 0.  0.
          5    1    3    3  502    0 -0.53584381142E+02  0.78038728564E+02  0.30970981988E+03  0.32388111089E+03  0.41800000000E+01 0. -1.
         -5    1    3    3    0  502  0.27768424330E+02 -0.30215128663E+02  0.11354383764E+03  0.12080444882E+03  0.41800000000E+01 0. -1.
        -11    1    1    2    0    0 -0.10554474574E+02 -0.25613801095E+02  0.10459558957E+03  0.10820213075E+03  0.00000000000E+00 0.  1.
         11    1    1    2    0    0  0.36370431386E+02 -0.22209798807E+02  0.51817422391E+01  0.42929405946E+02  0.00000000000E+00 0. -1.
</event>
<event>
 7    1  0.6833760E-006  0.7492290E+02  0.7561462E-02  0.1344110E+00
          2   -1    0    0  501    0  0.00000000000E+00  0.00000000000E+00  0.28823882556E+03  0.28823882556E+03  0.00000000000E+00 0. -1.
         -2   -1    0    0    0  501 -0.00000000000E+00 -0.00000000000E+00 -0.43134145044E+02  0.43134145044E+02  0.00000000000E+00 0.  1.
         23    2    1    2    0    0  0.63020817500E+01  0.28445891142E+02  0.11817854179E+03  0.17451238688E+03  0.12505806842E+03 0.  0.
          5    1    3    3  502    0  0.30248853091E+02  0.47269014884E+02  0.12993413260E+03  0.14159697771E+03  0.41800000000E+01 0. -1.
         -5    1    3    3    0  502 -0.23946771341E+02 -0.18823123742E+02 -0.11755590818E+02  0.32915409166E+02  0.41800000000E+01 0. -1.
        -11    1    1    2    0    0 -0.29927402797E+02 -0.65945798995E+01  0.12011985729E+03  0.12396740716E+03  0.00000000000E+00 0. -1.
         11    1    1    2    0    0  0.23625321047E+02 -0.21851311243E+02  0.68062814393E+01  0.32893176567E+02  0.00000000000E+00 0.  1.
</event>
<event>
 7    1  0.6833760E-006  0.1699340E+03  0.7561462E-02  0.1177917E+00
         -1   -1    0    0    0  501 -0.00000000000E+00  0.00000000000E+00  0.17959019246E+03  0.17959019246E+03  0.00000000000E+00 0.  1.
          1   -1    0    0  501    0  0.00000000000E+00 -0.00000000000E+00 -0.20788485732E+03  0.20788485732E+03  0.00000000000E+00 0. -1.
         23    2    1    2    0    0  0.15451661086E+03 -0.41811825291E+02 -0.17994345397E+02  0.20394749699E+03  0.12508866174E+03 0.  0.
          5    1    3    3  502    0  0.12784108365E+03 -0.70959791724E+01 -0.61483533406E+02  0.14209642103E+03  0.41800000000E+01 0.  1.
         -5    1    3    3    0  502  0.26675527216E+02 -0.34715846119E+02  0.43489188009E+02  0.61851075962E+02  0.41800000000E+01 0.  1.
        -11    1    1    2    0    0 -0.13794689141E+02  0.21580957775E+02  0.26312253267E+02  0.36720101566E+02  0.00000000000E+00 0.  1.
         11    1    1    2    0    0 -0.14072192172E+03  0.20230867516E+02 -0.36612572727E+02  0.14680745122E+03  0.00000000000E+00 0. -1.
</event>
<event>
 7    1  0.6833760E-006  0.1181811E+03  0.7561462E-02  0.1246128E+00
         -2   -1    0    0    0  501 -0.00000000000E+00  0.00000000000E+00  0.31288648256E+02  0.31288648256E+02  0.00000000000E+00 0.  1.
          2   -1    0    0  501    0  0.00000000000E+00 -0.00000000000E+00 -0.56387309356E+03  0.56387309356E+03  0.00000000000E+00 0. -1.
         23    2    1    2    0    0  0.45840005420E+02  0.68256926176E+02 -0.39159892523E+03  0.41923455294E+03  0.12509027968E+03 0.  0.
          5    1    3    3  502    0 -0.25439558479E+02  0.72490097927E+02 -0.22958760294E+03  0.24213617090E+03  0.41800000000E+01 0.  1.
         -5    1    3    3    0  502  0.71279563899E+02 -0.42331717512E+01 -0.16201132228E+03  0.17709838204E+03  0.41800000000E+01 0.  1.
        -11    1    1    2    0    0 -0.54128580718E+01 -0.35371892418E+02 -0.13576815219E+02  0.38272701985E+02  0.00000000000E+00 0.  1.
         11    1    1    2    0    0 -0.40427147348E+02 -0.32885033758E+02 -0.12740870486E+03  0.13765448690E+03  0.00000000000E+00 0. -1.
</event>
<event>
 7    1  0.6833760E-006  0.1139924E+03  0.7561462E-02  0.1253350E+00
          1   -1    0    0  501    0  0.00000000000E+00  0.00000000000E+00  0.43064638538E+03  0.43064638538E+03  0.00000000000E+00 0. -1.
         -1   -1    0    0    0  501 -0.00000000000E+00 -0.00000000000E+00 -0.34505033149E+02  0.34505033149E+02  0.00000000000E+00 0.  1.
         23    2    1    2    0    0 -0.49722140906E+02  0.10966835503E+02  0.17764837598E+03  0.22315927244E+03  0.12509417496E+03 0.  0.
          5    1    3    3  502    0  0.33381179573E+02 -0.26281560811E+02  0.71102639844E+02  0.82934199104E+02  0.41800000000E+01 0. -1.
         -5    1    3    3    0  502 -0.83103320479E+02  0.37248396314E+02  0.10654573614E+03  0.14022507333E+03  0.41800000000E+01 0. -1.
        -11    1    1    2    0    0 -0.20603040847E+02  0.66157338997E+01  0.15991252163E+02  0.26906753296E+02  0.00000000000E+00 0.  1.
         11    1    1    2    0    0  0.70325181753E+02 -0.17582569403E+02  0.20250172409E+03  0.21508539280E+03  0.00000000000E+00 0. -1.
</event>
<event>
 7    1  0.6833760E-006  0.9241451E+02  0.7561462E-02  0.1297108E+00
          2   -1    0    0  501    0  0.00000000000E+00  0.00000000000E+00  0.16102770189E+03  0.16102770189E+03  0.00000000000E+00 0. -1.
         -2   -1    0    0    0  501 -0.00000000000E+00 -0.00000000000E+00 -0.86998139004E+02  0.86998139004E+02  0.00000000000E+00 0.  1.
         23    2    1    2    0    0  0.13550626366E+02 -0.46386054845E+02  0.37737587890E+02  0.13931091656E+03  0.12509244731E+03 0.  0.
          5    1    3    3  502    0 -0.32102612802E+02  0.30550163158E+02  0.11135043763E+02  0.45884112907E+02  0.41800000000E+01 0.  1.
         -5    1    3    3    0  502  0.45653239168E+02 -0.76936218004E+02  0.26602544127E+02  0.93426803655E+02  0.41800000000E+01 0.  1.
        -11    1    1    2    0    0 -0.12416257786E+02  0.15543620067E+02  0.64134270170E+02  0.67148880798E+02  0.00000000000E+00 0. -1.
         11    1    1    2    0    0 -0.11343685806E+01  0.30842434779E+02 -0.27842295169E+02  0.41566043539E+02  0.00000000000E+00 0.  1.
</event>
<event>
 7    1  0.6833760E-006  0.8230313E+02  0.7561462E-02  0.1322640E+00
         -4   -1    0    0    0  501 -0.00000000000E+00  0.00000000000E+00  0.15548400159E+03  0.15548400159E+03  0.00000000000E+00 0.  1.
          4   -1    0    0  501    0  0.00000000000E+00 -0.00000000000E+00 -0.13171622436E+03  0.13171622436E+03  0.00000000000E+00 0. -1.
         23    2    1    2    0    0  0.57221199709E+02 -0.36721903194E+02  0.85488292069E+02  0.16607599230E+03  0.12510085238E+03 0.  0.
          5    1    3    3  502    0  0.29653809210E+01  0.13753930462E+02  0.90501872726E+02  0.91684379554E+02  0.41800000000E+01 0. -1.
         -5    1    3    3    0  502  0.54255818788E+02 -0.50475833656E+02 -0.50135806570E+01  0.74391612744E+02  0.41800000000E+01 0. -1.
        -11    1    1    2    0    0 -0.50674094428E+02  0.14746633133E+02 -0.77158774922E+02  0.93481568142E+02  0.00000000000E+00 0. -1.
         11    1    1    2    0    0 -0.65471052809E+01  0.21975270061E+02  0.15438260081E+02  0.27642665503E+02  0.00000000000E+00 0.  1.
</event>
<event>
 7    1  0.6833760E-006  0.1017143E+03  0.7561462E-02  0.1276732E+00
          1   -1    0    0  501    0  0.00000000000E+00  0.00000000000E+00  0.86498174118E+03  0.86498174118E+03  0.00000000000E+00 0. -1.
         -1   -1    0    0    0  501 -0.00000000000E+00 -0.00000000000E+00 -0.15414594035E+02  0.15414594035E+02  0.00000000000E+00 0.  1.
         23    2    1    2    0    0 -0.22931800562E+02  0.17769068618E+02  0.43489023493E+03  0.45345196520E+03  0.12509021158E+03 0.  0.
          5    1    3    3  502    0 -0.51638510721E+02  0.47685773786E+02  0.36775311528E+03  0.37443329848E+03  0.41800000000E+01 0. -1.
         -5    1    3    3    0  502  0.28706710159E+02 -0.29916705168E+02  0.67137119647E+02  0.79018666724E+02  0.41800000000E+01 0. -1.
        -11    1    1    2    0    0  0.56148887127E+02 -0.14334522725E+02  0.34311511787E+03  0.34797436712E+03  0.00000000000E+00 0.  1.
         11    1    1    2    0    0 -0.33217086565E+02 -0.34345458935E+01  0.71561794348E+02  0.78970002885E+02  0.00000000000E+00 0. -1.
</event>
<event>
 7    1  0.6833760E-006  0.9437065E+02  0.7561462E-02  0.1292600E+00
         -1   -1    0    0    0  501 -0.00000000000E+00  0.00000000000E+00  0.39787093841E+02  0.39787093841E+02  0.00000000000E+00 0.  1.
          1   -1    0    0  501    0  0.00000000000E+00 -0.00000000000E+00 -0.33573329458E+03  0.33573329458E+03  0.00000000000E+00 0. -1.
         23    2    1    2    0    0  0.17517451105E+02  0.36338727555E+02 -0.15671271446E+03  0.20453417332E+03  0.12509192207E+03 0.  0.
          5    1    3    3  502    0 -0.33094428648E+02 -0.15127299367E+02 -0.11580783101E+03  0.12146193855E+03  0.41800000000E+01 0. -1.
         -5    1    3    3    0  502  0.50611879753E+02  0.51466026922E+02 -0.40904883458E+02  0.83072234772E+02  0.41800000000E+01 0. -1.
        -11    1    1    2    0    0  0.14648901987E+02 -0.44312258681E+02 -0.26903902886E+02  0.53870089933E+02  0.00000000000E+00 0.  1.
         11    1    1    2    0    0 -0.32166353092E+02  0.79735311263E+01 -0.11232958339E+03  0.11711612517E+03  0.00000000000E+00 0. -1.
</event>
<event>
 7    1  0.6833760E-006  0.9167385E+02  0.7561462E-02  0.1298848E+00
         -1   -1    0    0    0  501 -0.00000000000E+00  0.00000000000E+00  0.71659376337E+03  0.71659376337E+03  0.00000000000E+00 0.  1.
          1   -1    0    0  501    0  0.00000000000E+00 -0.00000000000E+00 -0.20999835634E+02  0.20999835634E+02  0.00000000000E+00 0. -1.
         23    2    1    2    0    0  0.29014206792E+02 -0.20839776780E+02  0.53326515474E+03  0.54890602212E+03  0.12509986161E+03 0.  0.
          5    1    3    3  502    0  0.55800104155E+02 -0.60272306171E+02  0.33939528734E+03  0.34921774866E+03  0.41800000000E+01 0. -1.
         -5    1    3    3    0  502 -0.26785897363E+02  0.39432529391E+02  0.19386986740E+03  0.19968827346E+03  0.41800000000E+01 0. -1.
        -11    1    1    2    0    0  0.59770076642E+01  0.17036929776E+02 -0.41524741156E+01  0.18526322844E+02  0.00000000000E+00 0. -1.
         11    1    1    2    0    0 -0.34991214456E+02  0.38028470035E+01  0.16648124711E+03  0.17016125403E+03  0.00000000000E+00 0.  1.
</event>
<event>
 6    1  0.6833760E-006  0.1021340E+03  0.7561462E-02  0.1275871E+00
          2   -1    0    0  501    0  0.00000000000E+00  0.00000000000E+00  0.42934292023E+02  0.42934292023E+02  0.00000000000E+00 0. -1.
         -2   -1    0    0    0  501 -0.00000000000E+00 -0.00000000000E+00 -0.50066491960E+03  0.50066491960E+03  0.00000000000E+00 0.  1.
          5    1    1    2  502    0  0.28332963212E+02 -0.15728507588E+02 -0.17530338600E+02  0.37080020587E+02  0.41800000000E+01 0. -1.
         -5    1    1    2    0  502 -0.34075732969E+02  0.44663752644E+02 -0.32892068414E+03  0.33370989681E+03  0.41800000000E+01 0.  1.
        -11    1    1    2    0    0 -0.52738970749E+02 -0.91825442838E+01 -0.94880653827E+02  0.10894061054E+03  0.00000000000E+00 0.  1.
         11    1    1    2    0    0  0.58481740506E+02 -0.19752700772E+02 -0.16398951010E+02  0.63868683677E+02  0.00000000000E+00 0. -1.
</event>
<event>
 7    1  0.6833760E-006  0.1584703E+03  0.7561462E-02  0.1190435E+00
          2   -1    0    0  501    0  0.00000000000E+00  0.00000000000E+00  0.65666903714E+03  0.65666903714E+03  0.00000000000E+00 0. -1.
         -2   -1    0    0    0  501 -0.00000000000E+00 -0.00000000000E+00 -0.52699147110E+02  0.52699147110E+02  0.00000000000E+00 0.  1.
         23    2    1    2    0    0  0.17820443158E+02 -0.15249072310E+03  0.22746140831E+03  0.30159192797E+03  0.12509200582E+03 0.  0.
          5    1    3    3  502    0  0.34206209768E+02 -0.10548964779E+03  0.22581883226E+03  0.25161428413E+03  0.41800000000E+01 0.  1.
         -5    1    3    3    0  502 -0.16385766609E+02 -0.47001075307E+02  0.16425760543E+01  0.49977643836E+02  0.41800000000E+01 0.  1.
        -11    1    1    2    0    0 -0.24175860393E+02  0.13917953300E+03  0.32941229233E+03  0.35842415233E+03  0.00000000000E+00 0. -1.
         11    1    1    2    0    0  0.63554172351E+01  0.13311190101E+02  0.47096189382E+02  0.49352103951E+02  0.00000000000E+00 0.  1.
</event>
<event>
 7    1  0.6833760E-006  0.7574070E+02  0.7561462E-02  0.1341593E+00
          2   -1    0    0  501    0  0.00000000000E+00  0.00000000000E+00  0.18519601929E+03  0.18519601929E+03  0.00000000000E+00 0. -1.
         -2   -1    0    0    0  501 -0.00000000000E+00 -0.00000000000E+00 -0.65802431337E+02  0.65802431337E+02  0.00000000000E+00 0.  1.
         23    2    1    2    0    0 -0.29952284186E+02  0.80918484775E+00  0.62212593970E+02  0.13210242333E+03  0.11261815703E+03 0.  0.
          5    1    3    3  502    0  0.53691200579E+01 -0.84755920878E+01  0.87057954873E+02  0.87733819124E+02  0.41800000000E+01 0. -1.
         -5    1    3    3    0  502 -0.35321404244E+02  0.92847769356E+01 -0.24845360903E+02  0.44368604203E+02  0.41800000000E+01 0.  1.
        -11    1    1    2    0    0 -0.50458868578E+01 -0.46234284046E+02  0.30742019882E+02  0.55750711044E+02  0.00000000000E+00 0.  1.
         11    1    1    2    0    0  0.34998171044E+02  0.45425099198E+02  0.26438974100E+02  0.63145316256E+02  0.00000000000E+00 0. -1.
</event>
<event>
 7    1  0.6833760E-006  0.1167366E+03  0.7561462E-02  0.1248580E+00
         -3   -1    0    0    0  501 -0.00000000000E+00  0.00000000000E+00  0.99492278994E+02  0.99492278994E+02  0.00000000000E+00 0.  1.
          3   -1    0    0  501    0  0.00000000000E+00 -0.00000000000E+00 -0.17053752973E+03  0.17053752973E+03  0.00000000000E+00 0. -1.
         23    2    1    2    0    0 -0.40187937441E+02 -0.17700861944E+02  0.19268422377E+02  0.13396614200E+03  0.12508902538E+03 0.  0.
          5    1    3    3  502    0  0.25839341196E+02  0.37884487195E+02  0.93600725775E+01  0.46989246452E+02  0.41800000000E+01 0. -1.
         -5    1    3    3    0  502 -0.66027278636E+02 -0.55585349139E+02  0.99083497991E+01  0.86976895546E+02  0.41800000000E+01 0. -1.
        -11    1    1    2    0    0  0.17618823532E+02 -0.37470374651E+02 -0.29010708881E+02  0.50557622065E+02  0.00000000000E+00 0. -1.
         11    1    1    2    0    0  0.22569113909E+02  0.55171236595E+02 -0.61302964231E+02  0.85506044661E+02  0.00000000000E+00 0.  1.
</event>
<event>
 7    1  0.6833760E-006  0.1408602E+03  0.7561462E-02  0.1212176E+00
         -1   -1    0    0    0  501 -0.00000000000E+00  0.00000000000E+00  0.44302974526E+03  0.44302974526E+03  0.00000000000E+00 0.  1.
          1   -1    0    0  501    0  0.00000000000E+00 -0.00000000000E+00 -0.51779855055E+02  0.51779855055E+02  0.00000000000E+00 0. -1.
         23    2    1    2    0    0 -0.16564030756E+02  0.10450317207E+03  0.20883164692E+03  0.26543069251E+03  0.12509003030E+03 0.  0.
          5    1    3    3  502    0 -0.44675700875E+02  0.11578602381E+03  0.12499600664E+03  0.17619249596E+03  0.41800000000E+01 0.  1.
         -5    1    3    3    0  502  0.28111670119E+02 -0.11282851740E+02  0.83835640284E+02  0.89238196542E+02  0.41800000000E+01 0.  1.
        -11    1    1    2    0    0  0.33198640422E+02 -0.10520232865E+03  0.11271974138E+03  0.15771943373E+03  0.00000000000E+00 0.  1.
         11    1    1    2    0    0 -0.16634609666E+02  0.69915657853E+00  0.69698501897E+02  0.71659474079E+02  0.00000000000E+00 0. -1.
</event>
<event>
 6    1  0.6833760E-006  0.8129083E+02  0.7561462E-02  0.1325428E+00
         -2   -1    0    0    0  501 -0.00000000000E+00  0.00000000000E+00  0.51045953407E+02  0.51045953407E+02  0.00000000000E+00 0.  1.
          2   -1    0    0  501    0  0.00000000000E+00 -0.00000000000E+00 -0.64387563688E+03  0.64387563688E+03  0.00000000000E+00 0. -1.
          5    1    1    2  502    0 -0.11787719603E+02 -0.70771836920E+01 -0.42031364189E+03  0.42055923105E+03  0.41800000000E+01 0. -1.
         -5    1    1    2    0  502 -0.41193558769E+02  0.16889875472E+02  0.24816543050E+02  0.51142060835E+02  0.41800000000E+01 0.  1.
        -11    1    1    2    0    0  0.93661386712E+01 -0.45924091751E+02 -0.10365306166E+03  0.11375721492E+03  0.00000000000E+00 0.  1.
         11    1    1    2    0    0  0.43615139700E+02  0.36111399971E+02 -0.93679522969E+02  0.10946308347E+03  0.00000000000E+00 0. -1.
</event>
<event>
 7    1  0.6833760E-006  0.9958969E+02  0.7561462E-02  0.1281161E+00
         -1   -1    0    0    0  501 -0.00000000000E+00  0.00000000000E+00  0.30940791572E+03  0.30940791572E+03  0.00000000000E+00 0.  1.
          1   -1    0    0  501    0  0.00000000000E+00 -0.00000000000E+00 -0.42579235402E+02  0.42579235402E+02  0.00000000000E+00 0. -1.
         23    2    1    2    0    0  0.29691073215E+02  0.21945334049E+02  0.16828061765E+03  0.21290208775E+03  0.12508307310E+03 0.  0.
          5    1    3    3  502    0  0.30806350152E+01 -0.39287156365E+02  0.97137703902E+01  0.40801969346E+02  0.41800000000E+01 0.  1.
         -5    1    3    3    0  502  0.26610438200E+02  0.61232490414E+02  0.15856684726E+03  0.17210011840E+03  0.41800000000E+01 0.  1.
        -11    1    1    2    0    0 -0.58337766930E+02 -0.25729135159E+02  0.44356163944E+02  0.77670797127E+02  0.00000000000E+00 0.  1.
         11    1    1    2    0    0  0.28646693715E+02  0.37838011104E+01  0.54191898723E+02  0.61414266249E+02  0.00000000000E+00 0. -1.
</event>
<event>
 7    1  0.6833760E-006  0.1219316E+03  0.7561462E-02  0.1239944E+00
          1   -1    0    0  501    0  0.00000000000E+00  0.00000000000E+00  0.43220277740E+02  0.43220277740E+02  0.00000000000E+00 0. -1.
         -1   -1    0    0    0  501 -0.00000000000E+00 -0.00000000000E+00 -0.80003514561E+03  0.80003514561E+03  0.00000000000E+00 0.  1.
         23    2    1    2    0    0 -0.14649326895E+02 -0.12026016650E+03 -0.60136684617E+03  0.62607215532E+03  0.12508856692E+03 0.  0.
          5    1    3    3  502    0 -0.11968089103E+02 -0.80120854088E+02 -0.13176813820E+03  0.15473493808E+03  0.41800000000E+01 0. -1.
         -5    1    3    3    0  502 -0.26812377922E+01 -0.40139312415E+02 -0.46959870796E+03  0.47133721724E+03  0.41800000000E+01 0. -1.
        -11    1    1    2    0    0  0.47885142460E+01  0.95906713241E+02 -0.16357745445E+03  0.18968028658E+03  0.00000000000E+00 0.  1.
         11    1    1    2    0    0  0.98608126491E+01  0.24353453262E+02  0.81294327442E+01  0.27502981450E+02  0.00000000000E+00 0. -1.
</event>
<event>
 6    1  0.6833760E-006  0.1312938E+03  0.7561462E-02  0.1225548E+00
          2   -1    0    0  501    0  0.00000000000E+00  0.00000000000E+00  0.28290890450E+03  0.28290890450E+03  0.00000000000E+00 0. -1.
         -2   -1    0    0    0  501 -0.00000000000E+00 -0.00000000000E+00 -0.95557400823E+02  0.95557400823E+02  0.00000000000E+00 0.  1.
          5    1    1    2  502    0 -0.75064978850E+01 -0.30186020628E+02  0.10190168637E+03  0.10662536957E+03  0.41800000000E+01 0. -1.
         -5    1    1    2    0  502  0.10917689851E+03 -0.57535957872E+00  0.84490216195E+00  0.10926166970E+03  0.41800000000E+01 0.  1.
        -11    1    1    2    0    0 -0.47830963997E+02 -0.16201759368E+02 -0.17137849441E+01  0.50529547617E+02  0.00000000000E+00 0. -1.
         11    1    1    2    0    0 -0.53839436626E+02  0.46963139575E+02  0.86318700090E+02  0.11204971843E+03  0.00000000000E+00 0.  1.
</event>
<event>
 7    1  0.6833760E-006  0.9811517E+02  0.7561462E-02  0.1284310E+00
         -1   -1    0    0    0  501 -0.00000000000E+00  0.00000000000E+00  0.44827862388E+03  0.44827862388E+03  0.00000000000E+00 0.  1.
          1   -1    0    0  501    0  0.00000000000E+00 -0.00000000000E+00 -0.30220088184E+02  0.30220088184E+02  0.00000000000E+00 0. -1.
         23    2    1    2    0    0  0.13332148569E+02 -0.38555294091E+02  0.25922643695E+03  0.29070586421E+03  0.12508915615E+03 0.  0.
          5    1    3    3  502    0  0.21516194077E+02  0.43515998916E+02  0.87417404877E+02  0.10007928779E+03  0.41800000000E+01 0.  1.
         -5    1    3    3    0  502 -0.81840455083E+01 -0.82071293008E+02  0.17180903207E+03  0.19062657642E+03  0.41800000000E+01 0.  1.
        -11    1    1    2    0    0  0.17996348341E+02  0.24958352768E+02  0.14915589032E+03  0.15229664325E+03  0.00000000000E+00 0.  1.
         11    1    1    2    0    0 -0.31328496910E+02  0.13596941323E+02  0.96762084276E+01  0.35496204608E+02  0.00000000000E+00 0. -1.
</event>
<event>
 7    1  0.6833760E-006  0.1129787E+03  0.7561462E-02  0.1255151E+00
          2   -1    0    0  501    0  0.00000000000E+00  0.00000000000E+00  0.73632456900E+03  0.73632456900E+03  0.00000000000E+00 0. -1.
         -2   -1    0    0    0  501 -0.00000000000E+00 -0.00000000000E+00 -0.31200720918E+02  0.31200720918E+02  0.00000000000E+00 0.  1.
         23    2    1    2    0    0  0.61774053815E+02  0.89988423838E+01  0.15906193984E+03  0.21176666154E+03  0.12508958928E+03 0.  0.
          5    1    3    3  502    0  0.85239794572E+02  0.32101399295E+02  0.64882154774E+02  0.11190839479E+03  0.41800000000E+01 0. -1.
         -5    1    3    3    0  502 -0.23465740757E+02 -0.23102556912E+02  0.94179785065E+02  0.99858266758E+02  0.41800000000E+01 0. -1.
        -11    1    1    2    0    0  0.19514338376E+02  0.17263876617E+01  0.70099929306E+02  0.72785918318E+02  0.00000000000E+00 0.  1.
         11    1    1    2    0    0 -0.81288392191E+02 -0.10725230046E+02  0.47596197894E+03  0.48297271006E+03  0.00000000000E+00 0. -1.
</event>
<event>
 7    1  0.6833760E-006  0.1386932E+03  0.7561462E-02  0.1215098E+00
         -1   -1    0    0    0  501 -0.00000000000E+00  0.00000000000E+00  0.63374830140E+02  0.63374830140E+02  0.00000000000E+00 0.  1.
          1   -1    0    0  501    0  0.00000000000E+00 -0.00000000000E+00 -0.39854666051E+03  0.39854666051E+03  0.00000000000E+00 0. -1.
         23    2    1    2    0    0  0.10658210438E+03  0.26969221366E+02 -0.12382819862E+03  0.20752824117E+03  0.12508982466E+03 0.  0.
          5    1    3    3  502    0 -0.10166650467E+02  0.38102295020E+02 -0.65279536098E+02  0.76380860827E+02  0.41800000000E+01 0. -1.
         -5    1    3    3    0  502  0.11674875484E+03 -0.11133073654E+02 -0.58548662526E+02  0.13114738034E+03  0.41800000000E+01 0. -1.
        -11    1    1    2    0    0 -0.75592924692E+02  0.51215595381E+01 -0.19077328273E+03  0.20526803463E+03  0.00000000000E+00 0.  1.
         11    1    1    2    0    0 -0.30989179683E+02 -0.32090780904E+02 -0.20570349017E+02  0.49125214861E+02  0.00000000000E+00 0. -1.
</event>
<event>
 7    1  0.6833760E-006  0.9809456E+02  0.7561462E-02  0.1284355E+00
          1   -1    0    0  501    0  0.00000000000E+00  0.00000000000E+00  0.78837003900E+02  0.78837003900E+02  0.00000000000E+00 0. -1.
         -1   -1    0    0    0  501 -0.00000000000E+00 -0.00000000000E+00 -0.24107113964E+03  0.24107113964E+03  0.00000000000E+00 0.  1.
         23    2    1    2    0    0  0.10853559289E+01  0.30414095583E+02 -0.17301083037E+03  0.21565724452E+03  0.12509638076E+03 0.  0.
          5    1    3    3  502    0 -0.56718699941E+02  0.67188412631E+01 -0.43875346411E+02  0.72143413931E+02  0.41800000000E+01 0. -1.
         -5    1    3    3    0  502  0.57804055870E+02  0.23695254319E+02 -0.12913548396E+03  0.14351383058E+03  0.41800000000E+01 0. -1.
        -11    1    1    2    0    0  0.25283635283E+02 -0.40775019651E+02  0.40792952658E+02  0.62975625660E+02  0.00000000000E+00 0.  1.
         11    1    1    2    0    0 -0.26368991212E+02  0.10360924068E+02 -0.30016258029E+02  0.41275273363E+02  0.00000000000E+00 0. -1.
</event>
<event>
 7    1  0.6833760E-006  0.1736547E+03  0.7561462E-02  0.1174089E+00
         -2   -1    0    0    0  501 -0.00000000000E+00  0.00000000000E+00  0.87239368125E+02  0.87239368125E+02  0.00000000000E+00 0.  1.
          2   -1    0    0  501    0  0.00000000000E+00 -0.00000000000E+00 -0.75381997746E+03  0.75381997746E+03  0.00000000000E+00 0. -1.
         23    2    1    2    0    0  0.82771287558E+02  0.13343959765E+03 -0.62618195701E+02  0.21029902259E+03  0.12508968065E+03 0.  0.
          5    1    3    3  502    0  0.62971799108E+02  0.26908559595E+02  0.22761148676E+02  0.72284578932E+02  0.41800000000E+01 0.  1.
         -5    1    3    3    0  502  0.19799488450E+02  0.10653103805E+03 -0.85379344377E+02  0.13801444366E+03  0.41800000000E+01 0.  1.
        -11    1    1    2    0    0 -0.37867232928E+02 -0.11611850521E+03 -0.31560329930E+03  0.33841228865E+03  0.00000000000E+00 0. -1.
         11    1    1    2    0    0 -0.44904054629E+02 -0.17321092438E+02 -0.28835911434E+03  0.29234803435E+03  0.00000000000E+00 0.  1.
</event>
<event>
 7    1  0.6833760E-006  0.1375882E+03  0.7561462E-02  0.1216612E+00
          2   -1    0    0  501    0  0.00000000000E+00  0.00000000000E+00  0.77117157124E+03  0.77117157124E+03  0.00000000000E+00 0. -1.
         -2   -1    0    0    0  501 -0.00000000000E+00 -0.00000000000E+00 -0.34795655612E+02  0.34795655612E+02  0.00000000000E+00 0.  1.
         23    2    1    2    0    0  0.21444277635E+02 -0.93607391415E+02  0.21120078403E+03  0.26357887338E+03  0.12508337437E+03 0.  0.
          5    1    3    3  502    0  0.64672234205E+02 -0.28394170035E+02  0.14364464636E+03  0.16012489999E+03  0.41800000000E+01 0.  1.
         -5    1    3    3    0  502 -0.43227956570E+02 -0.65213221380E+02  0.67556137677E+02  0.10345397339E+03  0.41800000000E+01 0.  1.
        -11    1    1    2    0    0  0.26569070315E+02  0.77098197747E+01  0.50122081478E+02  0.57250151703E+02  0.00000000000E+00 0. -1.
         11    1    1    2    0    0 -0.48013347950E+02  0.85897571640E+02  0.47505305011E+03  0.48513820177E+03  0.00000000000E+00 0.  1.
</event>
<event>
 7    1  0.6833760E-006  0.8953865E+02  0.7561462E-02  0.1303973E+00
         -1   -1    0    0    0  501 -0.00000000000E+00  0.00000000000E+00  0.32948572089E+02  0.32948572089E+02  0.00000000000E+00 0.  1.
          1   -1    0    0  501    0  0.00000000000E+00 -0.00000000000E+00 -0.45281567130E+03  0.45281567130E+03  0.00000000000E+00 0. -1.
         23    2    1    2    0    0  0.19115405099E+02 -0.25043846043E+02 -0.14044777566E+03  0.19069995398E+03  0.12509317257E+03 0.  0.
          5    1    3    3  502    0 -0.14413772429E+02  0.35602782469E+02 -0.56131463436E+01  0.39042217752E+02  0.41800000000E+01 0.  1.
         -5    1    3    3    0  502  0.33529177528E+02 -0.60646628511E+02 -0.13483462931E+03  0.15165773623E+03  0.41800000000E+01 0.  1.
        -11    1    1    2    0    0  0.23664749236E+02  0.94929807797E+01 -0.22077127820E+02  0.33727386695E+02  0.00000000000E+00 0.  1.
         11    1    1    2    0    0 -0.42780154335E+02  0.15550865263E+02 -0.25734219573E+03  0.26133690271E+03  0.00000000000E+00 0. -1.
</event>
<event>
 7    1  0.6833760E-006  0.7577811E+02  0.7561462E-02  0.1341478E+00
         -2   -1    0    0    0  501 -0.00000000000E+00  0.00000000000E+00  0.62481370234E+02  0.62481370234E+02  0.00000000000E+00 0.  1.
          2   -1    0    0  501    0  0.00000000000E+00 -0.00000000000E+00 -0.32746036240E+03  0.32746036240E+03  0.00000000000E+00 0. -1.
         23    2    1    2    0    0 -0.58650880761E+02  0.31777937656E+02 -0.53829700325E+02  0.15164112722E+03  0.12509049401E+03 0.  0.
          5    1    3    3  502    0 -0.34132112922E+02 -0.44223609041E+01  0.37027039394E+02  0.50725067321E+02  0.41800000000E+01 0. -1.
         -5    1    3    3    0  502 -0.24518767840E+02  0.36200298560E+02 -0.90856739719E+02  0.10091605989E+03  0.41800000000E+01 0. -1.
        -11    1    1    2    0    0  0.23428237463E+02  0.28131757944E+01 -0.23142957212E+01  0.23709749754E+02  0.00000000000E+00 0.  1.
         11    1    1    2    0    0  0.35222643298E+02 -0.34591113451E+02 -0.20883499612E+03  0.21459085566E+03  0.00000000000E+00 0. -1.
</event>
<event>
 7    1  0.6833760E-006  0.9506737E+02  0.7561462E-02  0.1291024E+00
          2   -1    0    0  501    0  0.00000000000E+00  0.00000000000E+00  0.62323142758E+02  0.62323142758E+02  0.00000000000E+00 0. -1.
         -2   -1    0    0    0  501 -0.00000000000E+00 -0.00000000000E+00 -0.20700632547E+03  0.20700632547E+03  0.00000000000E+00 0.  1.
         23    2    1    2    0    0  0.29829377771E+02 -0.39485806797E+01 -0.10678176400E+03  0.16719835718E+03  0.12509021726E+03 0.  0.
          5    1    3    3  502    0 -0.40369456850E+02 -0.23167401428E+02 -0.13178376324E+02  0.48554747840E+02  0.41800000000E+01 0.  1.
         -5    1    3    3    0  502  0.70198834621E+02  0.19218820748E+02 -0.93603387675E+02  0.11864360934E+03  0.41800000000E+01 0.  1.
        -11    1    1    2    0    0 -0.30762659635E+02 -0.26157402600E+02 -0.54430526059E+02  0.67773395265E+02  0.00000000000E+00 0.  1.
         11    1    1    2    0    0  0.93328186410E+00  0.30105983280E+02  0.16529107346E+02  0.34357715784E+02  0.00000000000E+00 0. -1.
</event>
<event>
 6    1  0.6833760E-006  0.7330801E+02  0.7561462E-02  0.1349192E+00
          2   -1    0    0  501    0  0.00000000000E+00  0.00000000000E+00  0.39768336860E+03  0.39768336860E+03  0.00000000000E+00 0. -1.
         -2   -1    0    0    0  501 -0.00000000000E+00 -0.00000000000E+00 -0.36421323607E+02  0.36421323607E+02  0.00000000000E+00 0.  1.
          5    1    1    2  502    0 -0.13592129096E+02 -0.51918075962E+02  0.26427808871E+03  0.26970467767E+03  0.41800000000E+01 0. -1.
         -5    1    1    2    0  502  0.17317718012E+02 -0.15582537518E+02 -0.18197852386E+02  0.29855536573E+02  0.41800000000E+01 0.  1.
        -11    1    1    2    0    0  0.52472613380E+01  0.15930670748E+02  0.34647095670E+02  0.38493392426E+02  0.00000000000E+00 0. -1.
         11    1    1    2    0    0 -0.89728502535E+01  0.51569942732E+02  0.80534712995E+02  0.96051085534E+02  0.00000000000E+00 0.  1.
</event>
<event>
 7    1  0.6833760E-006  0.1023621E+03  0.7561462E-02  0.1275406E+00
         -1   -1    0    0    0  501 -0.00000000000E+00  0.00000000000E+00  0.34992138658E+02  0.34992138658E+02  0.00000000000E+00 0.  1.
          1   -1    0    0  501    0  0.00000000000E+00 -0.00000000000E+00 -0.58513032689E+03  0.58513032689E+03  0.00000000000E+00 0. -1.
         23    2    1    2    0    0 -0.57583796994E+02  0.54196943361E+02 -0.19372415163E+03  0.24378368703E+03  0.12509291264E+03 0.  0.
          5    1    3    3  502    0 -0.14475194109E+02 -0.17848603019E+02  0.84427310465E+01  0.24836585549E+02  0.41800000000E+01 0. -1.
         -5    1    3    3    0  502 -0.43108602885E+02  0.72045546380E+02 -0.20216688268E+03  0.21894710148E+03  0.41800000000E+01 0. -1.
        -11    1    1    2    0    0 -0.72986579698E+01 -0.25203389528E+02 -0.21368228997E+02  0.33839067102E+02  0.00000000000E+00 0.  1.
         11    1    1    2    0    0  0.64882454964E+02 -0.28993553833E+02 -0.33504580760E+03  0.34249971141E+03  0.00000000000E+00 0. -1.
</event>
<event>
 7    1  0.6833760E-006  0.2076187E+03  0.7561462E-02  0.1143466E+00
         -2   -1    0    0    0  501 -0.00000000000E+00  0.00000000000E+00  0.40936854126E+02  0.40936854126E+02  0.00000000000E+00 0. -1.
          2   -1    0    0  501    0  0.00000000000E+00 -0.00000000000E+00 -0.12886571536E+04  0.12886571536E+04  0.00000000000E+00 0.  1.
         23    2    1    2    0    0  0.45271725753E+02 -0.18958024795E+03 -0.49063406143E+03  0.54255080469E+03  0.12509753740E+03 0.  0.
          5    1    3    3  502    0  0.40790251888E+02 -0.16226527941E+02 -0.19375935824E+03  0.19871413176E+03  0.41800000000E+01 0.  1.
         -5    1    3    3    0  502  0.44814738656E+01 -0.17335372001E+03 -0.29687470320E+03  0.34383667293E+03  0.41800000000E+01 0.  1.
        -11    1    1    2    0    0 -0.48444993821E+01  0.91013629141E+02 -0.19899100702E+03  0.21887067126E+03  0.00000000000E+00 0. -1.
         11    1    1    2    0    0 -0.40427226371E+02  0.98566618813E+02 -0.55809523106E+03  0.56817253181E+03  0.00000000000E+00 0.  1.
</event>
<event>
 7    1  0.6833760E-006  0.1334384E+03  0.7561462E-02  0.1222441E+00
         -1   -1    0    0    0  501 -0.00000000000E+00  0.00000000000E+00  0.10706379635E+03  0.10706379635E+03  0.00000000000E+00 0.  1.
          1   -1    0    0  501    0  0.00000000000E+00 -0.00000000000E+00 -0.25808029089E+03  0.25808029089E+03  0.00000000000E+00 0. -1.
         23    2    1    2    0    0 -0.68600920113E+02 -0.47252580158E+02  0.21706397555E+02  0.15184991382E+03  0.12509330941E+03 0.  0.
          5    1    3    3  502    0 -0.10810111618E+02  0.42047681600E+02  0.10084969634E+02  0.44766561781E+02  0.41800000000E+01 0. -1.
         -5    1    3    3    0  502 -0.57790808495E+02 -0.89300261757E+02  0.11621427921E+02  0.10708335204E+03  0.41800000000E+01 0. -1.
        -11    1    1    2    0    0  0.13948791085E+02  0.59238907583E+02 -0.12776230840E+03  0.14151686964E+03  0.00000000000E+00 0. -1.
         11    1    1    2    0    0  0.54652129028E+02 -0.11986327425E+02 -0.44960583695E+02  0.71777303785E+02  0.00000000000E+00 0.  1.
</event>
<event>
 7    1  0.6833760E-006  0.1185237E+03  0.7561462E-02  0.1245553E+00
          2   -1    0    0  501    0  0.00000000000E+00  0.00000000000E+00  0.67797733706E+03  0.67797733706E+03  0.00000000000E+00 0. -1.
         -2   -1    0    0    0  501 -0.00000000000E+00 -0.00000000000E+00 -0.25744321214E+02  0.25744321214E+02  0.00000000000E+00 0.  1.
         23    2    1    2    0    0 -0.39054512966E+02 -0.51962676170E+02  0.25749046797E+03  0.29355443758E+03  0.12508993578E+03 0.  0.
          5    1    3    3  502    0 -0.76407498056E+02 -0.18107891076E+02  0.20972168019E+03  0.22397914416E+03  0.41800000000E+01 0. -1.
         -5    1    3    3    0  502  0.37352985090E+02 -0.33854785093E+02  0.47768787784E+02  0.69575293425E+02  0.41800000000E+01 0. -1.
        -11    1    1    2    0    0  0.27518514325E+02 -0.20586361573E+02  0.17876494592E+03  0.18203838278E+03  0.00000000000E+00 0.  1.
         11    1    1    2    0    0  0.11535998641E+02  0.72549037742E+02  0.21597760195E+03  0.22812883791E+03  0.00000000000E+00 0. -1.
</event>
<event>
 7    1  0.6833760E-006  0.9660345E+02  0.7561462E-02  0.1287605E+00
          2   -1    0    0  501    0  0.00000000000E+00  0.00000000000E+00  0.67364578335E+03  0.67364578335E+03  0.00000000000E+00 0. -1.
         -2   -1    0    0    0  501 -0.00000000000E+00 -0.00000000000E+00 -0.29633684390E+02  0.29633684390E+02  0.00000000000E+00 0.  1.
         23    2    1    2    0    0 -0.39255864896E+02  0.62429906796E+01  0.16901204160E+03  0.21399231068E+03  0.12509053107E+03 0.  0.
          5    1    3    3  502    0 -0.39196565344E+02 -0.24245448364E+02  0.17637890176E+03  0.18234912089E+03  0.41800000000E+01 0.  1.
         -5    1    3    3    0  502 -0.59299551845E-01  0.30488439044E+02 -0.73668601615E+01  0.31643189795E+02  0.41800000000E+01 0.  1.
        -11    1    1    2    0    0 -0.25818792569E+01 -0.53200346756E+02  0.18315583698E+03  0.19074329245E+03  0.00000000000E+00 0.  1.
         11    1    1    2    0    0  0.41837744153E+02  0.46957356077E+02  0.29184422038E+03  0.29854386461E+03  0.00000000000E+00 0. -1.
</event>
<event>
 7    1  0.6833760E-006  0.1431989E+03  0.7561462E-02  0.1209088E+00
         -3   -1    0    0    0  501 -0.00000000000E+00  0.00000000000E+00  0.58307016752E+03  0.58307016752E+03  0.00000000000E+00 0.  1.
          3   -1    0    0  501    0  0.00000000000E+00 -0.00000000000E+00 -0.38875177531E+02  0.38875177531E+02  0.00000000000E+00 0. -1.
         23    2    1    2    0    0 -0.10286096738E+03  0.11059941574E+01  0.34944521059E+03  0.38361472984E+03  0.12027761185E+03 0.  0.
          5    1    3    3  502    0  0.18965990813E+02 -0.19082791671E+02  0.11963340250E+03  0.12269264501E+03  0.41800000000E+01 0. -1.
         -5    1    3    3    0  502 -0.12182695819E+03  0.20188785828E+02  0.22981180809E+03  0.26092208483E+03  0.41800000000E+01 0.  1.
        -11    1    1    2    0    0  0.10653647094E+03 -0.26637875453E+02  0.14106854213E+03  0.17877340302E+03  0.00000000000E+00 0. -1.
         11    1    1    2    0    0 -0.36755035679E+01  0.25531881296E+02  0.53681237268E+02  0.59557212188E+02  0.00000000000E+00 0.  1.
</event>
<event>
 7    1  0.6833760E-006  0.1448475E+03  0.7561462E-02  0.1206951E+00
          1   -1    0    0  501    0  0.00000000000E+00  0.00000000000E+00  0.23528733792E+03  0.23528733792E+03  0.00000000000E+00 0. -1.
         -1   -1    0    0    0  501 -0.00000000000E+00 -0.00000000000E+00 -0.10274989689E+03  0.10274989689E+03  0.00000000000E+00 0.  1.
         23    2    1    2    0    0 -0.52767866689E+02 -0.80811640784E+02  0.13980138432E+02  0.15862076077E+03  0.12510048935E+03 0.  0.
          5    1    3    3  502    0 -0.53142675566E+01 -0.10435263738E+03  0.13845280448E+02  0.10548402039E+03  0.41800000000E+01 0. -1.
         -5    1    3    3    0  502 -0.47453599132E+02  0.23540996593E+02  0.13485798399E+00  0.53136740377E+02  0.41800000000E+01 0. -1.
        -11    1    1    2    0    0  0.58234506383E+02  0.77810345811E+01  0.70725732328E+02  0.91945263316E+02  0.00000000000E+00 0.  1.
         11    1    1    2    0    0 -0.54666396943E+01  0.73030606203E+02  0.47831570274E+02  0.87471210731E+02  0.00000000000E+00 0. -1.
</event>
<event>
 7    1  0.6833760E-006  0.2528362E+03  0.7561462E-02  0.1111525E+00
         -2   -1    0    0    0  501 -0.00000000000E+00  0.00000000000E+00  0.10010737655E+03  0.10010737655E+03  0.00000000000E+00 0.  1.
          2   -1    0    0  501    0  0.00000000000E+00 -0.00000000000E+00 -0.91959009575E+03  0.91959009575E+03  0.00000000000E+00 0. -1.
         23    2    1    2    0    0  0.13887981153E+03 -0.20051835698E+03 -0.17670586366E+03  0.32614019971E+03  0.12508898464E+03 0.  0.
          5    1    3    3  502    0  0.14853984996E+03 -0.18361597310E+03 -0.11779378336E+03  0.26395408768E+03  0.41800000000E+01 0. -1.
         -5    1    3    3    0  502 -0.96600384377E+01 -0.16902383875E+02 -0.58912080303E+02  0.62186112026E+02  0.41800000000E+01 0. -1.
        -11    1    1    2    0    0 -0.76298520561E+02  0.64824836651E+02 -0.16541879089E+03  0.19335744120E+03  0.00000000000E+00 0.  1.
         11    1    1    2    0    0 -0.62581290964E+02  0.13569352033E+03 -0.47735806465E+03  0.50019983139E+03  0.00000000000E+00 0. -1.
</event>
<event>
 7    1  0.6833760E-006  0.1195514E+03  0.7561462E-02  0.1243839E+00
         -4   -1    0    0    0  501 -0.00000000000E+00  0.00000000000E+00  0.29007440383E+03  0.29007440383E+03  0.00000000000E+00 0. -1.
          4   -1    0    0  501    0  0.00000000000E+00 -0.00000000000E+00 -0.51592660444E+02  0.51592660444E+02  0.00000000000E+00 0.  1.
         23    2    1    2    0    0  0.47089301632E+02 -0.23147539558E+02  0.17009262286E+03  0.21755875620E+03  0.12508837328E+03 0.  0.
          5    1    3    3  502    0  0.46951407652E+02  0.46278009114E+02  0.85466527848E+02  0.10801892700E+03  0.41800000000E+01 0.  1.
         -5    1    3    3    0  502  0.13789397981E+00 -0.69425548672E+02  0.84626095014E+02  0.10953982920E+03  0.41800000000E+01 0.  1.
        -11    1    1    2    0    0 -0.37311072081E+02 -0.30976521304E+02  0.29750777825E+02  0.56892615980E+02  0.00000000000E+00 0. -1.
         11    1    1    2    0    0 -0.97782295509E+01  0.54124060861E+02  0.38638342700E+02  0.67215692095E+02  0.00000000000E+00 0.  1.
</event>
<event>
 7    1  0.6833760E-006  0.1065093E+03  0.7561462E-02  0.1267174E+00
         -2   -1    0    0    0  501 -0.00000000000E+00  0.00000000000E+00  0.46399495987E+03  0.46399495987E+03  0.00000000000E+00 0.  1.
          2   -1    0    0  501    0  0.00000000000E+00 -0.00000000000E+00 -0.35517939774E+02  0.35517939774E+02  0.00000000000E+00 0. -1.
         23    2    1    2    0    0  0.20310091984E+02 -0.14514887750E+02  0.36677409798E+03  0.38538374361E+03  0.11564691560E+03 0.  0.
          5    1    3    3  502    0 -0.40083384583E+02 -0.35392065826E+02  0.18726658727E+03  0.19479610661E+03  0.41800000000E+01 0. -1.
         -5    1    3    3    0  502  0.60393476567E+02  0.20877178075E+02  0.17950751071E+03  0.19058763700E+03  0.41800000000E+01 0.  1.
        -11    1    1    2    0    0  0.29628452646E+02  0.30879902445E+02  0.21068623047E+02  0.47700109625E+02  0.00000000000E+00 0.  1.
         11    1    1    2    0    0 -0.49938544629E+02 -0.16365014695E+02  0.40634299067E+02  0.66429046406E+02  0.00000000000E+00 0. -1.
</event>
<event>
 7    1  0.6833760E-006  0.1070749E+03  0.7561462E-02  0.1266085E+00
         -2   -1    0    0    0  501 -0.00000000000E+00  0.00000000000E+00  0.31425418617E+02  0.31425418617E+02  0.00000000000E+00 0.  1.
          2   -1    0    0  501    0  0.00000000000E+00 -0.00000000000E+00 -0.54832690187E+03  0.54832690187E+03  0.00000000000E+00 0. -1.
         23    2    1    2    0    0  0.46790647509E+02 -0.17196774675E+02 -0.24470727777E+03  0.27930988464E+03  0.12508903273E+03 0.  0.
          5    1    3    3  502    0  0.32651093172E+02  0.32321460091E+02 -0.22785577161E+02  0.51453139791E+02  0.41800000000E+01 0.  1.
         -5    1    3    3    0  502  0.14139554337E+02 -0.49518234766E+02 -0.22192170061E+03  0.22785674484E+03  0.41800000000E+01 0.  1.
        -11    1    1    2    0    0  0.34091821725E+02  0.72972882271E+01 -0.34009861921E+02  0.48704963114E+02  0.00000000000E+00 0.  1.
         11    1    1    2    0    0 -0.80882469235E+02  0.98994864480E+01 -0.23818434356E+03  0.25173747274E+03  0.00000000000E+00 0. -1.
</event>
<event>
 7    1  0.6833760E-006  0.9666016E+02  0.7561462E-02  0.1287480E+00
          2   -1    0    0  501    0  0.00000000000E+00  0.00000000000E+00  0.31456698650E+02  0.31456698650E+02  0.00000000000E+00 0. -1.
         -2   -1    0    0    0  501 -0.00000000000E+00 -0.00000000000E+00 -0.69781277748E+03  0.69781277748E+03  0.00000000000E+00 0.  1.
         23    2    1    2    0    0  0.19022173604E+02 -0.46284301820E+02 -0.57311991145E+03  0.58874073580E+03  0.12508053970E+03 0.  0.
          5    1    3    3  502    0 -0.49858315020E+02 -0.30219039396E+02 -0.17896792588E+03  0.18827116830E+03  0.41800000000E+01 0. -1.
         -5    1    3    3    0  502  0.68880488624E+02 -0.16065262423E+02 -0.39415198557E+03  0.40046956751E+03  0.41800000000E+01 0. -1.
        -11    1    1    2    0    0 -0.24656936575E+02  0.89058389043E+01  0.11909705585E+02  0.28794436528E+02  0.00000000000E+00 0. -1.
         11    1    1    2    0    0  0.56347629709E+01  0.37378462915E+02 -0.10514587296E+03  0.11173430380E+03  0.00000000000E+00 0.  1.
</event>
<event>
 7    1  0.6833760E-006  0.7668783E+02  0.7561462E-02  0.1338723E+00
          1   -1    0    0  501    0  0.00000000000E+00  0.00000000000E+00  0.15829997579E+03  0.15829997579E+03  0.00000000000E+00 0. -1.
         -1   -1    0    0    0  501 -0.00000000000E+00 -0.00000000000E+00 -0.10796918202E+03  0.10796918202E+03  0.00000000000E+00 0.  1.
         23    2    1    2    0    0  0.63738997550E+02 -0.13360187777E+02 -0.81252870091E+00  0.14103007174E+03  0.12509063317E+03 0.  0.
          5    1    3    3  502    0  0.27589841961E+02 -0.22106468021E+02  0.59916440653E+02  0.69694673888E+02  0.41800000000E+01 0. -1.
         -5    1    3    3    0  502  0.36149155589E+02  0.87462802439E+01 -0.60728969354E+02  0.71335397852E+02  0.41800000000E+01 0. -1.
        -11    1    1    2    0    0 -0.21030062199E+02  0.28162270753E+02  0.68362767246E+02  0.76869011673E+02  0.00000000000E+00 0. -1.
         11    1    1    2    0    0 -0.42708935352E+02 -0.14802082976E+02 -0.17219444772E+02  0.48370074401E+02  0.00000000000E+00 0.  1.
</event>
<event>
 6    1  0.6833760E-006  0.5076502E+03  0.7561462E-02  0.1011801E+00
          2   -1    0    0  501    0  0.00000000000E+00  0.00000000000E+00  0.15161181324E+04  0.15161181324E+04  0.00000000000E+00 0. -1.
         -2   -1    0    0    0  501 -0.00000000000E+00 -0.00000000000E+00 -0.26012422568E+03  0.26012422568E+03  0.00000000000E+00 0.  1.
          5    1    1    2  502    0 -0.55230369526E+02 -0.81633915329E+01  0.15814604159E+03  0.16776375518E+03  0.41800000000E+01 0. -1.
         -5    1    1    2    0  502 -0.37163785506E+03  0.26882881866E+03  0.76351865889E+02  0.46500613854E+03  0.41800000000E+01 0.  1.
        -11    1    1    2    0    0  0.33843223120E+03 -0.19632710431E+03  0.67577969445E+03  0.78087060543E+03  0.00000000000E+00 0. -1.
         11    1    1    2    0    0  0.88435993383E+02 -0.64338322819E+02  0.34571630478E+03  0.36260185893E+03  0.00000000000E+00 0.  1.
</event>
<event>
 7    1  0.6833760E-006  0.2102812E+03  0.7561462E-02  0.1141344E+00
          1   -1    0    0  501    0  0.00000000000E+00  0.00000000000E+00  0.45946806857E+03  0.45946806857E+03  0.00000000000E+00 0. -1.
         -1   -1    0    0    0  501 -0.00000000000E+00 -0.00000000000E+00 -0.11789987072E+03  0.11789987072E+03  0.00000000000E+00 0.  1.
         23    2    1    2    0    0  0.13775586623E+03  0.11896379978E+03  0.56044860047E+02  0.22785751363E+03  0.12509578666E+03 0.  0.
          5    1    3    3  502    0  0.51054600853E+02 -0.21633224477E+02  0.15371602031E+02  0.57691656403E+02  0.41800000000E+01 0. -1.
         -5    1    3    3    0  502  0.86701265372E+02  0.14059702426E+03  0.40673258016E+02  0.17016585722E+03  0.41800000000E+01 0. -1.
        -11    1    1    2    0    0 -0.13774290311E+03 -0.77087973920E+02  0.24348980720E+03  0.29017744449E+03  0.00000000000E+00 0. -1.
         11    1    1    2    0    0 -0.12963119484E-01 -0.41875825860E+02  0.42033530605E+02  0.59332981170E+02  0.00000000000E+00 0.  1.
</event>
<event>
 7    1  0.6833760E-006  0.1510341E+03  0.7561462E-02  0.1199208E+00
          3   -1    0    0  501    0  0.00000000000E+00  0.00000000000E+00  0.11168019224E+03  0.11168019224E+03  0.00000000000E+00 0. -1.
         -3   -1    0    0    0  501 -0.00000000000E+00 -0.00000000000E+00 -0.32098717817E+03  0.32098717817E+03  0.00000000000E+00 0.  1.
         23    2    1    2    0    0 -0.31634961901E+02 -0.13339268791E+03 -0.19251096854E+03  0.26739897450E+03  0.12508940225E+03 0.  0.
          5    1    3    3  502    0 -0.97293592479E+01 -0.10190903266E+03 -0.20302255529E+03  0.22741095340E+03  0.41800000000E+01 0.  1.
         -5    1    3    3    0  502 -0.21905602653E+02 -0.31483655248E+02  0.10511586757E+02  0.39988021100E+02  0.41800000000E+01 0.  1.
        -11    1    1    2    0    0 -0.28020667146E+02  0.61682853292E+02  0.93561502713E+01  0.68392029692E+02  0.00000000000E+00 0. -1.
         11    1    1    2    0    0  0.59655629048E+02  0.71709834620E+02 -0.26152167664E+02  0.96876366219E+02  0.00000000000E+00 0.  1.
</event>
<event>
 7    1  0.6833760E-006  0.1061790E+03  0.7561462E-02  0.1267814E+00
         -1   -1    0    0    0  501 -0.00000000000E+00  0.00000000000E+00  0.68057519064E+02  0.68057519064E+02  0.00000000000E+00 0.  1.
          1   -1    0    0  501    0  0.00000000000E+00 -0.00000000000E+00 -0.24384359044E+03  0.24384359044E+03  0.00000000000E+00 0. -1.
         23    2    1    2    0    0 -0.29675237068E+02  0.50894284865E+02 -0.53552539706E+02  0.14827908726E+03  0.12509182740E+03 0.  0.
          5    1    3    3  502    0 -0.44275640748E+02  0.75643289156E+02 -0.72315926964E+02  0.11370710290E+03  0.41800000000E+01 0.  1.
         -5    1    3    3    0  502  0.14600403680E+02 -0.24749004291E+02  0.18763387258E+02  0.34571984357E+02  0.41800000000E+01 0.  1.
        -11    1    1    2    0    0  0.39050288877E+02 -0.66645142757E+02 -0.57367893450E+02  0.96216294428E+02  0.00000000000E+00 0. -1.
         11    1    1    2    0    0 -0.93750518085E+01  0.15750857892E+02 -0.64865638215E+02  0.67405727812E+02  0.00000000000E+00 0.  1.
</event>
<event>
 7    1  0.6833760E-006  0.1432985E+03  0.7561462E-02  0.1208958E+00
          1   -1    0    0  501    0  0.00000000000E+00  0.00000000000E+00  0.47514485379E+02  0.47514485379E+02  0.00000000000E+00 0. -1.
         -1   -1    0    0    0  501 -0.00000000000E+00 -0.00000000000E+00 -0.63880891582E+03  0.63880891582E+03  0.00000000000E+00 0.  1.
         23    2    1    2    0    0 -0.10445182306E+03 -0.66838861972E+02 -0.42883277625E+03  0.46359717927E+03  0.12508867990E+03 0.  0.
          5    1    3    3  502    0 -0.12873518423E+02 -0.69567233193E+02 -0.10245874249E+03  0.12458167491E+03  0.41800000000E+01 0.  1.
         -5    1    3    3    0  502 -0.91578304642E+02  0.27283712204E+01 -0.32637403375E+03  0.33901550436E+03  0.41800000000E+01 0.  1.
        -11    1    1    2    0    0  0.47768986664E+02  0.29947520586E+02 -0.14086816184E+03  0.15173189875E+03  0.00000000000E+00 0.  1.
         11    1    1    2    0    0  0.56682836401E+02  0.36891341386E+02 -0.21593492356E+02  0.70994323181E+02  0.00000000000E+00 0. -1.
</event>
<event>
 7    1  0.6833760E-006  0.7370115E+02  0.7561462E-02  0.1347941E+00
          3   -1    0    0  501    0  0.00000000000E+00  0.00000000000E+00  0.13450084708E+02  0.13450084708E+02  0.00000000000E+00 0. -1.
         -3   -1    0    0    0  501 -0.00000000000E+00 -0.00000000000E+00 -0.15386217022E+04  0.15386217022E+04  0.00000000000E+00 0.  1.
         23    2    1    2    0    0 -0.11381335976E+02 -0.44021098973E+02 -0.12850627731E+04  0.12911315909E+04  0.11647773305E+03 0.  0.
          5    1    3    3  502    0  0.17934898429E+02 -0.16531686623E+02 -0.11472710355E+04  0.11475379116E+04  0.41800000000E+01 0. -1.
         -5    1    3    3    0  502 -0.29316234405E+02 -0.27489412350E+02 -0.13779173756E+03  0.14359367928E+03  0.41800000000E+01 0.  1.
        -11    1    1    2    0    0  0.28315422807E+00  0.61524114614E+02 -0.22960541882E+03  0.23770558514E+03  0.00000000000E+00 0.  1.
         11    1    1    2    0    0  0.11098181748E+02 -0.17503015642E+02 -0.10503425654E+02  0.23234610932E+02  0.00000000000E+00 0. -1.
</event>
<event>
 7    1  0.6833760E-006  0.1045293E+03  0.7561462E-02  0.1271050E+00
         -3   -1    0    0    0  501 -0.00000000000E+00  0.00000000000E+00  0.23476655611E+02  0.23476655611E+02  0.00000000000E+00 0.  1.
          3   -1    0    0  501    0  0.00000000000E+00 -0.00000000000E+00 -0.53576964827E+03  0.53576964827E+03  0.00000000000E+00 0. -1.
         23    2    1    2    0    0  0.15753020277E+02  0.51962916372E-01 -0.26650483567E+03  0.29482236012E+03  0.12508891335E+03 0.  0.
          5    1    3    3  502    0 -0.55225534395E+01  0.57350071329E+02 -0.81189587195E+02  0.99643116907E+02  0.41800000000E+01 0.  1.
         -5    1    3    3    0  502  0.21275573717E+02 -0.57298108413E+02 -0.18531524847E+03  0.19517924321E+03  0.41800000000E+01 0.  1.
        -11    1    1    2    0    0  0.34607481350E+02  0.14628054345E+02 -0.15576699104E+03  0.16023424490E+03  0.00000000000E+00 0. -1.
         11    1    1    2    0    0 -0.50360501627E+02 -0.14680017261E+02 -0.90021165950E+02  0.10418969887E+03  0.00000000000E+00 0.  1.
</event>
<event>
 7    1  0.6833760E-006  0.1557666E+03  0.7561462E-02  0.1193561E+00
         -1   -1    0    0    0  501 -0.00000000000E+00  0.00000000000E+00  0.12274380843E+03  0.12274380843E+03  0.00000000000E+00 0.  1.
          1   -1    0    0  501    0  0.00000000000E+00 -0.00000000000E+00 -0.29204897277E+03  0.29204897277E+03  0.00000000000E+00 0. -1.
         23    2    1    2    0    0  0.14011126156E+03 -0.28454224416E+02 -0.23354592873E+02  0.19139807246E+03  0.12508787563E+03 0.  0.
          5    1    3    3  502    0  0.23285265685E+02  0.24741710406E+02 -0.49641773809E+02  0.60300364334E+02  0.41800000000E+01 0. -1.
         -5    1    3    3    0  502  0.11682599588E+03 -0.53195934822E+02  0.26287180936E+02  0.13109770813E+03  0.41800000000E+01 0. -1.
        -11    1    1    2    0    0 -0.49067217270E+02 -0.99291368935E+01 -0.37020480398E+01  0.50198453460E+02  0.00000000000E+00 0.  1.
         11    1    1    2    0    0 -0.91044044293E+02  0.38383361309E+02 -0.14224852343E+03  0.17319625528E+03  0.00000000000E+00 0. -1.
</event>
<event>
 7    1  0.6833760E-006  0.1016808E+03  0.7561462E-02  0.1276801E+00
          2   -1    0    0  501    0  0.00000000000E+00  0.00000000000E+00  0.22509947818E+03  0.22509947818E+03  0.00000000000E+00 0. -1.
         -2   -1    0    0    0  501 -0.00000000000E+00 -0.00000000000E+00 -0.74900363849E+02  0.74900363849E+02  0.00000000000E+00 0.  1.
         23    2    1    2    0    0 -0.29382966678E+02 -0.61049414400E+02  0.53250941372E+02  0.15189924444E+03  0.12508928002E+03 0.  0.
          5    1    3    3  502    0 -0.48137012700E+02 -0.50338861064E+02  0.87055495616E+02  0.11156748918E+03  0.41800000000E+01 0. -1.
         -5    1    3    3    0  502  0.18754046022E+02 -0.10710553335E+02 -0.33804554244E+02  0.40331755263E+02  0.41800000000E+01 0. -1.
        -11    1    1    2    0    0  0.58435078190E+02  0.58072861532E+02  0.66122526950E+02  0.10563760779E+03  0.00000000000E+00 0.  1.
         11    1    1    2    0    0 -0.29052111513E+02  0.29765528678E+01  0.30825646006E+02  0.42462989791E+02  0.00000000000E+00 0. -1.
</event>
<event>
 7    1  0.6833760E-006  0.1219994E+03  0.7561462E-02  0.1239835E+00
          1   -1    0    0  501    0  0.00000000000E+00  0.00000000000E+00  0.11019608920E+03  0.11019608920E+03  0.00000000000E+00 0. -1.
         -1   -1    0    0    0  501 -0.00000000000E+00 -0.00000000000E+00 -0.26222302194E+03  0.26222302194E+03  0.00000000000E+00 0.  1.
         23    2    1    2    0    0 -0.10879414687E+03  0.97211101213E+01 -0.15958110611E+03  0.23031474343E+03  0.12509230688E+03 0.  0.
          5    1    3    3  502    0 -0.37399803112E+02  0.40995920068E+02 -0.34468184694E+01  0.55756288368E+02  0.41800000000E+01 0.  1.
         -5    1    3    3    0  502 -0.71394343755E+02 -0.31274809946E+02 -0.15613428764E+03  0.17455845506E+03  0.41800000000E+01 0.  1.
        -11    1    1    2    0    0  0.73896865003E+02  0.60756368957E+00  0.47669533183E+02  0.87940321723E+02  0.00000000000E+00 0. -1.
         11    1    1    2    0    0  0.34897281863E+02 -0.10328673811E+02 -0.40115359810E+02  0.54164045979E+02  0.00000000000E+00 0.  1.
</event>
<event>
 7    1  0.6833760E-006  0.1462492E+03  0.7561462E-02  0.1205159E+00
          2   -1    0    0  501    0  0.00000000000E+00  0.00000000000E+00  0.55450539257E+03  0.55450539257E+03  0.00000000000E+00 0. -1.
         -2   -1    0    0    0  501 -0.00000000000E+00 -0.00000000000E+00 -0.53262247153E+02  0.53262247153E+02  0.00000000000E+00 0.  1.
         23    2    1    2    0    0  0.10938503540E+03  0.79189460356E+02  0.31125782714E+03  0.36161436336E+03  0.12508979268E+03 0.  0.
          5    1    3    3  502    0  0.35432915290E+02  0.74868470761E+02  0.25600934908E+03  0.26910785685E+03  0.41800000000E+01 0. -1.
         -5    1    3    3    0  502  0.73952120108E+02  0.43209895951E+01  0.55248478056E+02  0.92506506512E+02  0.41800000000E+01 0. -1.
        -11    1    1    2    0    0 -0.92020344146E+02 -0.62175781122E+02  0.89102551851E+02  0.14238271047E+03  0.00000000000E+00 0.  1.
         11    1    1    2    0    0 -0.17364691252E+02 -0.17013679234E+02  0.10088276642E+03  0.10377056589E+03  0.00000000000E+00 0. -1.
</event>
<event>
 7    1  0.6833760E-006  0.1190396E+03  0.7561462E-02  0.1244690E+00
          1   -1    0    0  501    0  0.00000000000E+00  0.00000000000E+00  0.24318932619E+03  0.24318932619E+03  0.00000000000E+00 0. -1.
         -1   -1    0    0    0  501 -0.00000000000E+00 -0.00000000000E+00 -0.11325986664E+03  0.11325986664E+03  0.00000000000E+00 0.  1.
         23    2    1    2    0    0 -0.18163367369E+02 -0.88782407784E+02 -0.19379108626E+02  0.15568026485E+03  0.12509424914E+03 0.  0.
          5    1    3    3  502    0  0.94668246848E+01  0.26736555738E+01  0.41142323979E+02  0.42508027785E+02  0.41800000000E+01 0. -1.
         -5    1    3    3    0  502 -0.27630192054E+02 -0.91456063358E+02 -0.60521432606E+02  0.11317223707E+03  0.41800000000E+01 0. -1.
        -11    1    1    2    0    0  0.17975041457E+02 -0.17730175661E+02  0.45507552557E+02  0.52042276892E+02  0.00000000000E+00 0.  1.
         11    1    1    2    0    0  0.18832591154E+00  0.10651258344E+03  0.10380101563E+03  0.14872665109E+03  0.00000000000E+00 0. -1.
</event>
<event>
 7    1  0.6833760E-006  0.1500202E+03  0.7561462E-02  0.1200448E+00
          1   -1    0    0  501    0  0.00000000000E+00  0.00000000000E+00  0.73365893077E+03  0.73365893077E+03  0.00000000000E+00 0. -1.
         -1   -1    0    0    0  501 -0.00000000000E+00 -0.00000000000E+00 -0.32465395187E+02  0.32465395187E+02  0.00000000000E+00 0.  1.
         23    2    1    2    0    0  0.10244577107E+03  0.27250658694E+02  0.31917073004E+03  0.35882534991E+03  0.12509173599E+03 0.  0.
          5    1    3    3  502    0  0.46943870343E+02 -0.47705106942E+02  0.97901109285E+02  0.11866593357E+03  0.41800000000E+01 0.  1.
         -5    1    3    3    0  502  0.55501900727E+02  0.74955765636E+02  0.22126962076E+03  0.24015941634E+03  0.41800000000E+01 0.  1.
        -11    1    1    2    0    0 -0.48039669704E+01  0.27336438261E+02  0.53810461126E+02  0.60546880036E+02  0.00000000000E+00 0. -1.
         11    1    1    2    0    0 -0.97641804100E+02 -0.54587096955E+02  0.32821234441E+03  0.34675209601E+03  0.00000000000E+00 0.  1.
</event>
<event>
 7    1  0.6833760E-006  0.2199334E+03  0.7561462E-02  0.1133933E+00
         -1   -1    0    0    0  501 -0.00000000000E+00  0.00000000000E+00  0.43126169936E+03  0.43126169936E+03  0.00000000000E+00 0.  1.
          1   -1    0    0  501    0  0.00000000000E+00 -0.00000000000E+00 -0.20509977006E+03  0.20509977006E+03  0.00000000000E+00 0. -1.
         23    2    1    2    0    0 -0.18315433544E+03 -0.95795651265E+02  0.31355557413E+03  0.39437447896E+03  0.12038195131E+03 0.  0.
          5    1    3    3  502    0 -0.23692648164E+02 -0.37855051054E+02  0.90335603116E+01  0.45753951515E+02  0.41800000000E+01 0. -1.
         -5    1    3    3    0  502 -0.15946168727E+03 -0.57940600211E+02  0.30452201381E+03  0.34862052745E+03  0.41800000000E+01 0.  1.
        -11    1    1    2    0    0  0.58094812241E+02  0.80550876141E+02 -0.31807999588E+02  0.10428422553E+03  0.00000000000E+00 0.  1.
         11    1    1    2    0    0  0.12505952320E+03  0.15244775124E+02 -0.55585645245E+02  0.13770276493E+03  0.00000000000E+00 0. -1.
</event>
<event>
 7    1  0.6833760E-006  0.6753677E+02  0.7561462E-02  0.1368675E+00
          1   -1    0    0  501    0  0.00000000000E+00  0.00000000000E+00  0.23158860036E+03  0.23158860036E+03  0.00000000000E+00 0. -1.
         -1   -1    0    0    0  501 -0.00000000000E+00 -0.00000000000E+00 -0.59051446609E+02  0.59051446609E+02  0.00000000000E+00 0.  1.
         23    2    1    2    0    0  0.26194886264E+02  0.92869941573E+01  0.76082646438E+02  0.14902488249E+03  0.12508967258E+03 0.  0.
          5    1    3    3  502    0 -0.13792338856E+02 -0.89916357087E+01 -0.29799437474E+02  0.34300976628E+02  0.41800000000E+01 0.  1.
         -5    1    3    3    0  502  0.39987225121E+02  0.18278629866E+02  0.10588208391E+03  0.11472390586E+03  0.41800000000E+01 0.  1.
        -11    1    1    2    0    0 -0.47986371586E+02 -0.16844339623E+02  0.96060193084E+01  0.51756151734E+02  0.00000000000E+00 0.  1.
         11    1    1    2    0    0  0.21791485321E+02  0.75573454660E+01  0.86848488006E+02  0.89859012747E+02  0.00000000000E+00 0. -1.
</event>
<event>
 6    1  0.6833760E-006  0.9721471E+02  0.7561462E-02  0.1286264E+00
          1   -1    0    0  501    0  0.00000000000E+00  0.00000000000E+00  0.28344185098E+03  0.28344185098E+03  0.00000000000E+00 0. -1.
         -1   -1    0    0    0  501 -0.00000000000E+00 -0.00000000000E+00 -0.52468785232E+02  0.52468785232E+02  0.00000000000E+00 0.  1.
          5    1    1    2  502    0  0.45547719215E+02 -0.25730568407E+02  0.45375715815E+02  0.69376399892E+02  0.41800000000E+01 0. -1.
         -5    1    1    2    0  502 -0.78389517235E+02  0.13977809226E+02  0.31988477760E+02  0.85912924945E+02  0.41800000000E+01 0.  1.
        -11    1    1    2    0    0  0.43763544637E+02 -0.29909990610E+01  0.15606201125E+03  0.16210967051E+03  0.00000000000E+00 0. -1.
         11    1    1    2    0    0 -0.10921746616E+02  0.14743758242E+02 -0.24531390845E+01  0.18511640868E+02  0.00000000000E+00 0.  1.
</event>
<event>
 7    1  0.6833760E-006  0.1163687E+03  0.7561462E-02  0.1249211E+00
         -2   -1    0    0    0  501 -0.00000000000E+00  0.00000000000E+00  0.19312527480E+03  0.19312527480E+03  0.00000000000E+00 0. -1.
          2   -1    0    0  501    0  0.00000000000E+00 -0.00000000000E+00 -0.92105318303E+02  0.92105318303E+02  0.00000000000E+00 0.  1.
         23    2    1    2    0    0 -0.57352681858E+02  0.29353928757E+01  0.10918577986E+03  0.17569381036E+03  0.12509529898E+03 0.  0.
          5    1    3    3  502    0 -0.35498324741E+02  0.63267158862E+02  0.49204851878E+02  0.87757930116E+02  0.41800000000E+01 0. -1.
         -5    1    3    3    0  502 -0.21854357117E+02 -0.60331765987E+02  0.59980927986E+02  0.87935880243E+02  0.41800000000E+01 0. -1.
        -11    1    1    2    0    0  0.44773162074E+02  0.34340581330E+02 -0.30660731789E+02  0.64218315472E+02  0.00000000000E+00 0.  1.
         11    1    1    2    0    0  0.12579519784E+02 -0.37275974206E+02  0.22494908423E+02  0.45318467272E+02  0.00000000000E+00 0. -1.
</event>
<event>
 7    1  0.6833760E-006  0.1033767E+03  0.7561462E-02  0.1273351E+00
          3   -1    0    0  501    0  0.00000000000E+00  0.00000000000E+00  0.71048236084E+03  0.71048236084E+03  0.00000000000E+00 0.  1.
         -3   -1    0    0    0  501 -0.00000000000E+00 -0.00000000000E+00 -0.20963261024E+02  0.20963261024E+02  0.00000000000E+00 0. -1.
         23    2    1    2    0    0 -0.15582123220E+02 -0.43086682839E+02  0.34707935586E+03  0.37176755133E+03  0.12509103945E+03 0.  0.
          5    1    3    3  502    0 -0.36251629602E+02  0.12118923804E+02  0.27891320300E+03  0.28155123188E+03  0.41800000000E+01 0. -1.
         -5    1    3    3    0  502  0.20669506382E+02 -0.55205606642E+02  0.68166152862E+02  0.90216319449E+02  0.41800000000E+01 0. -1.
        -11    1    1    2    0    0  0.58405081509E+01  0.75313009073E+02  0.25604513217E+03  0.26695555919E+03  0.00000000000E+00 0.  1.
         11    1    1    2    0    0  0.97416150691E+01 -0.32226326235E+02  0.86394611784E+02  0.92722511355E+02  0.00000000000E+00 0. -1.
</event>
<event>
 7    1  0.6833760E-006  0.1253289E+03  0.7561462E-02  0.1234556E+00
         -2   -1    0    0    0  501 -0.00000000000E+00  0.00000000000E+00  0.18944991665E+02  0.18944991665E+02  0.00000000000E+00 0.  1.
          2   -1    0    0  501    0  0.00000000000E+00 -0.00000000000E+00 -0.89140629655E+03  0.89140629655E+03  0.00000000000E+00 0. -1.
         23    2    1    2    0    0  0.65261801693E+02  0.17577216462E+02 -0.39423524110E+03  0.41909144627E+03  0.12509258058E+03 0.  0.
          5    1    3    3  502    0  0.18426961612E+02 -0.52860997728E+02 -0.18619680481E+03  0.19447508971E+03  0.41800000000E+01 0. -1.
         -5    1    3    3    0  502  0.46834840081E+02  0.70438214190E+02 -0.20803843629E+03  0.22461635657E+03  0.41800000000E+01 0. -1.
        -11    1    1    2    0    0 -0.23861152203E+02  0.35340772150E+02 -0.13703873423E+03  0.14351982247E+03  0.00000000000E+00 0. -1.
         11    1    1    2    0    0 -0.41400649490E+02 -0.52917988613E+02 -0.34118732956E+03  0.34774001948E+03  0.00000000000E+00 0.  1.
</event>
<event>
 7    1  0.6833760E-006  0.1070922E+03  0.7561462E-02  0.1266051E+00
         -2   -1    0    0    0  501 -0.00000000000E+00  0.00000000000E+00  0.53522745606E+02  0.53522745606E+02  0.00000000000E+00 0.  1.
          2   -1    0    0  501    0  0.00000000000E+00 -0.00000000000E+00 -0.28710554711E+03  0.28710554711E+03  0.00000000000E+00 0. -1.
         23    2    1    2    0    0 -0.26809802922E+02  0.30754374159E+02 -0.80570389593E+02  0.15428306391E+03  0.12508828509E+03 0.  0.
          5    1    3    3  502    0 -0.28761488424E+02  0.77355427053E+02 -0.37832305383E+02  0.90883667628E+02  0.41800000000E+01 0. -1.
         -5    1    3    3    0  502  0.19516855021E+01 -0.46601052894E+02 -0.42738084209E+02  0.63399396283E+02  0.41800000000E+01 0. -1.
        -11    1    1    2    0    0  0.51896808550E+02 -0.11652263489E+02 -0.33768775348E+02  0.63003048899E+02  0.00000000000E+00 0.  1.
         11    1    1    2    0    0 -0.25087005628E+02 -0.19102110670E+02 -0.11924363656E+03  0.12334217990E+03  0.00000000000E+00 0. -1.
</event>
<event>
 7    1  0.6833760E-006  0.9582935E+02  0.7561462E-02  0.1289319E+00
          2   -1    0    0  501    0  0.00000000000E+00  0.00000000000E+00  0.20084279874E+03  0.20084279874E+03  0.00000000000E+00 0. -1.
         -2   -1    0    0    0  501 -0.00000000000E+00 -0.00000000000E+00 -0.88492014548E+02  0.88492014548E+02  0.00000000000E+00 0.  1.
         23    2    1    2    0    0 -0.72125841960E+02  0.24242751489E+02  0.52115971913E+02  0.15533505221E+03  0.12499222311E+03 0.  0.
          5    1    3    3  502    0 -0.18051511597E+00  0.75846933724E+01  0.76854340896E+02  0.77340948234E+02  0.41800000000E+01 0. -1.
         -5    1    3    3    0  502 -0.71945326844E+02  0.16658058117E+02 -0.24738368983E+02  0.77994103974E+02  0.41800000000E+01 0. -1.
        -11    1    1    2    0    0  0.79504087086E+02  0.42299978308E+01  0.16522433383E+02  0.81312874441E+02  0.00000000000E+00 0.  1.
         11    1    1    2    0    0 -0.73782451263E+01 -0.28472749320E+02  0.43712378897E+02  0.52686886640E+02  0.00000000000E+00 0. -1.
</event>
<event>
 6    1  0.6833760E-006  0.1302012E+03  0.7561462E-02  0.1227157E+00
          2   -1    0    0  501    0  0.00000000000E+00  0.00000000000E+00  0.34092472534E+03  0.34092472534E+03  0.00000000000E+00 0. -1.
         -2   -1    0    0    0  501 -0.00000000000E+00 -0.00000000000E+00 -0.14476623078E+03  0.14476623078E+03  0.00000000000E+00 0.  1.
          5    1    1    2  502    0  0.65398251146E+02 -0.11060156570E+02  0.72700638788E+02  0.98499307594E+02  0.41800000000E+01 0. -1.
         -5    1    1    2    0  502 -0.68347563362E+02 -0.60937595352E+02 -0.99914877314E+02  0.13559216443E+03  0.41800000000E+01 0.  1.
        -11    1    1    2    0    0 -0.34085546457E+02  0.44987469331E+02  0.17944054116E+03  0.18810796019E+03  0.00000000000E+00 0. -1.
         11    1    1    2    0    0  0.37034858673E+02  0.27010282591E+02  0.43932191925E+02  0.63491523921E+02  0.00000000000E+00 0.  1.
</event>
<event>
 7    1  0.6833760E-006  0.1447679E+03  0.7561462E-02  0.1207054E+00
         -1   -1    0    0    0  501 -0.00000000000E+00  0.00000000000E+00  0.26078718846E+03  0.26078718846E+03  0.00000000000E+00 0.  1.
          1   -1    0    0  501    0  0.00000000000E+00 -0.00000000000E+00 -0.82775664613E+02  0.82775664613E+02  0.00000000000E+00 0. -1.
         23    2    1    2    0    0  0.85365713305E+02 -0.48107297522E+02  0.11197733598E+03  0.19437348065E+03  0.12506202111E+03 0.  0.
          5    1    3    3  502    0  0.27836847841E+02  0.42253968782E+02  0.26536123296E+02  0.57288098372E+02  0.41800000000E+01 0. -1.
         -5    1    3    3    0  502  0.57528865464E+02 -0.90361266304E+02  0.85441212687E+02  0.13708538228E+03  0.41800000000E+01 0. -1.
        -11    1    1    2    0    0 -0.19077394555E+02  0.61103341698E+02  0.18639107867E+02  0.66670695899E+02  0.00000000000E+00 0. -1.
         11    1    1    2    0    0 -0.66288318750E+02 -0.12996044175E+02  0.47395080002E+02  0.82518676524E+02  0.00000000000E+00 0.  1.
</event>
<event>
 7    1  0.6833760E-006  0.2505603E+03  0.7561462E-02  0.1112951E+00
         -2   -1    0    0    0  501 -0.00000000000E+00  0.00000000000E+00  0.90029246693E+02  0.90029246693E+02  0.00000000000E+00 0. -1.
          2   -1    0    0  501    0  0.00000000000E+00 -0.00000000000E+00 -0.73468767237E+03  0.73468767237E+03  0.00000000000E+00 0.  1.
         23    2    1    2    0    0 -0.29103046478E+02 -0.22594400718E+03 -0.25371004163E+03  0.36319951695E+03  0.12508965664E+03 0.  0.
          5    1    3    3  502    0  0.37763057800E+02 -0.19372183515E+02 -0.38311848037E+02  0.57328876917E+02  0.41800000000E+01 0.  1.
         -5    1    3    3    0  502 -0.66866104278E+02 -0.20657182367E+03 -0.21539819359E+03  0.30587064004E+03  0.41800000000E+01 0.  1.
        -11    1    1    2    0    0  0.54950758686E+02  0.11585892517E+03 -0.24858415102E+03  0.27970869948E+03  0.00000000000E+00 0.  1.
         11    1    1    2    0    0 -0.25847712208E+02  0.11008508201E+03 -0.14236423303E+03  0.18180870263E+03  0.00000000000E+00 0. -1.
</event>
<event>
 7    1  0.6833760E-006  0.1218325E+03  0.7561462E-02  0.1240104E+00
         -2   -1    0    0    0  501 -0.00000000000E+00  0.00000000000E+00  0.24016939452E+03  0.24016939452E+03  0.00000000000E+00 0.  1.
          2   -1    0    0  501    0  0.00000000000E+00 -0.00000000000E+00 -0.92603628339E+02  0.92603628339E+02  0.00000000000E+00 0. -1.
         23    2    1    2    0    0  0.83286027050E+02 -0.39418026015E+01  0.14373153000E+03  0.20798775719E+03  0.12509218327E+03 0.  0.
          5    1    3    3  502    0  0.76403546502E+02 -0.44638358270E+02  0.41831371295E+02  0.97966427778E+02  0.41800000000E+01 0. -1.
         -5    1    3    3    0  502  0.68824805475E+01  0.40696555669E+02  0.10190015870E+03  0.11002132941E+03  0.41800000000E+01 0. -1.
        -11    1    1    2    0    0 -0.97970471647E+02  0.81737639563E+01  0.22307738359E+02  0.10081001400E+03  0.00000000000E+00 0.  1.
         11    1    1    2    0    0  0.14684444597E+02 -0.42319613548E+01 -0.18473502176E+02  0.23975251671E+02  0.00000000000E+00 0. -1.
</event>
<event>
 7    1  0.6833760E-006  0.1226745E+03  0.7561462E-02  0.1238749E+00
         -2   -1    0    0    0  501 -0.00000000000E+00  0.00000000000E+00  0.51169649170E+03  0.51169649170E+03  0.00000000000E+00 0. -1.
          2   -1    0    0  501    0  0.00000000000E+00 -0.00000000000E+00 -0.35760924859E+02  0.35760924859E+02  0.00000000000E+00 0.  1.
         23    2    1    2    0    0 -0.18190592451E+02  0.72398401743E+02  0.30943495645E+03  0.34200899608E+03  0.12509090653E+03 0.  0.
          5    1    3    3  502    0  0.13573178231E+01  0.10615237178E+03  0.21786247324E+03  0.24238749553E+03  0.41800000000E+01 0.  1.
         -5    1    3    3    0  502 -0.19547910274E+02 -0.33753970035E+02  0.91572483217E+02  0.99621500549E+02  0.41800000000E+01 0.  1.
        -11    1    1    2    0    0  0.23120163413E+02 -0.84078142726E+02  0.17103795505E+03  0.19198348394E+03  0.00000000000E+00 0. -1.
         11    1    1    2    0    0 -0.49295709622E+01  0.11679740982E+02 -0.45373446602E+01  0.13464936534E+02  0.00000000000E+00 0.  1.
</event>
<event>
 7    1  0.6833760E-006  0.1094317E+03  0.7561462E-02  0.1261626E+00
          1   -1    0    0  501    0  0.00000000000E+00  0.00000000000E+00  0.87966085913E+03  0.87966085913E+03  0.00000000000E+00 0. -1.
         -1   -1    0    0    0  501 -0.00000000000E+00 -0.00000000000E+00 -0.17259636177E+02  0.17259636177E+02  0.00000000000E+00 0.  1.
         23    2    1    2    0    0 -0.15546748562E+01 -0.50560529143E+02  0.42537487776E+03  0.44626492675E+03  0.12509921700E+03 0.  0.
          5    1    3    3  502    0 -0.37441899788E+02 -0.66786239684E+02  0.37188535515E+03  0.37970842425E+03  0.41800000000E+01 0. -1.
         -5    1    3    3    0  502  0.35887224932E+02  0.16225710541E+02  0.53489522616E+02  0.66556502504E+02  0.41800000000E+01 0. -1.
        -11    1    1    2    0    0  0.43454521255E+02  0.40689264175E+02  0.32946583463E+03  0.33480090774E+03  0.00000000000E+00 0.  1.
         11    1    1    2    0    0 -0.41899846399E+02  0.98712649675E+01  0.10756051056E+03  0.11585466081E+03  0.00000000000E+00 0. -1.
</event>
<event>
 7    1  0.6833760E-006  0.1296579E+03  0.7561462E-02  0.1227964E+00
         -2   -1    0    0    0  501 -0.00000000000E+00  0.00000000000E+00  0.42504816186E+03  0.42504816186E+03  0.00000000000E+00 0.  1.
          2   -1    0    0  501    0  0.00000000000E+00 -0.00000000000E+00 -0.58941904245E+02  0.58941904245E+02  0.00000000000E+00 0. -1.
         23    2    1    2    0    0 -0.10929298264E+02  0.10955801036E+03  0.27789251999E+03  0.32402847508E+03  0.12509113800E+03 0.  0.
          5    1    3    3  502    0 -0.37887547115E+02  0.51110254937E+02  0.24190705162E+03  0.25016838011E+03  0.41800000000E+01 0. -1.
         -5    1    3    3    0  502  0.26958248851E+02  0.58447755424E+02  0.35985468369E+02  0.73860094970E+02  0.41800000000E+01 0. -1.
        -11    1    1    2    0    0  0.37279789092E+02 -0.31953782092E+02  0.48026072774E+02  0.68682825589E+02  0.00000000000E+00 0.  1.
         11    1    1    2    0    0 -0.26350490829E+02 -0.77604228270E+02  0.40187664852E+02  0.91278765430E+02  0.00000000000E+00 0. -1.
</event>
<event>
 7    1  0.6833760E-006  0.1486885E+03  0.7561462E-02  0.1202094E+00
         -2   -1    0    0    0  501 -0.00000000000E+00  0.00000000000E+00  0.31817587482E+02  0.31817587482E+02  0.00000000000E+00 0.  1.
          2   -1    0    0  501    0  0.00000000000E+00 -0.00000000000E+00 -0.69829599347E+03  0.69829599347E+03  0.00000000000E+00 0. -1.
         23    2    1    2    0    0  0.21778335639E+02  0.99611377175E+02 -0.35900528690E+03  0.39361039381E+03  0.12509046218E+03 0.  0.
          5    1    3    3  502    0 -0.48646402329E+02  0.67527256064E+02 -0.20220209346E+03  0.21869970684E+03  0.41800000000E+01 0. -1.
         -5    1    3    3    0  502  0.70424737968E+02  0.32084121110E+02 -0.15680319344E+03  0.17491068697E+03  0.41800000000E+01 0. -1.
        -11    1    1    2    0    0 -0.57384212051E+02 -0.67529155121E+02 -0.19111858142E+03  0.21066429870E+03  0.00000000000E+00 0.  1.
         11    1    1    2    0    0  0.35605876412E+02 -0.32082222053E+02 -0.11635453766E+03  0.12583888843E+03  0.00000000000E+00 0. -1.
</event>
<event>
 7    1  0.6833760E-006  0.1174656E+03  0.7561462E-02  0.1247338E+00
          2   -1    0    0  501    0  0.00000000000E+00  0.00000000000E+00  0.10588410260E+03  0.10588410260E+03  0.00000000000E+00 0.  1.
         -2   -1    0    0    0  501 -0.00000000000E+00 -0.00000000000E+00 -0.15720329217E+03  0.15720329217E+03  0.00000000000E+00 0. -1.
         23    2    1    2    0    0  0.44108403763E+02 -0.50270764826E+02 -0.41906868038E+02  0.14791337710E+03  0.12509788350E+03 0.  0.
          5    1    3    3  502    0  0.79361942399E+02 -0.37727055815E+02  0.45800927117E+01  0.88091420076E+02  0.41800000000E+01 0. -1.
         -5    1    3    3    0  502 -0.35253538635E+02 -0.12543709011E+02 -0.46486960750E+02  0.59821957021E+02  0.41800000000E+01 0. -1.
        -11    1    1    2    0    0 -0.64428802378E+02  0.11377277538E+02  0.11722855790E+02  0.66467573808E+02  0.00000000000E+00 0.  1.
         11    1    1    2    0    0  0.20320398615E+02  0.38893487288E+02 -0.21135177331E+02  0.48706443866E+02  0.00000000000E+00 0. -1.
</event>
<event>
 7    1  0.6833760E-006  0.1540072E+03  0.7561462E-02  0.1195634E+00
         -1   -1    0    0    0  501 -0.00000000000E+00  0.00000000000E+00  0.55039531724E+02  0.55039531724E+02  0.00000000000E+00 0.  1.
          1   -1    0    0  501    0  0.00000000000E+00 -0.00000000000E+00 -0.58962633570E+03  0.58962633570E+03  0.00000000000E+00 0. -1.
         23    2    1    2    0    0 -0.11499912070E+03 -0.70280682452E+02 -0.19337413004E+03  0.26684237879E+03  0.12508848413E+03 0.  0.
          5    1    3    3  502    0 -0.70548080075E+02 -0.97757025430E+02 -0.88549285000E+02  0.14963928594E+03  0.41800000000E+01 0.  1.
         -5    1    3    3    0  502 -0.44451040628E+02  0.27476342978E+02 -0.10482484504E+03  0.11720309285E+03  0.41800000000E+01 0.  1.
        -11    1    1    2    0    0  0.76837977308E+02  0.42982173135E+02 -0.10514735815E+03  0.13714047138E+03  0.00000000000E+00 0.  1.
         11    1    1    2    0    0  0.38161143395E+02  0.27298509317E+02 -0.23606531578E+03  0.24068301725E+03  0.00000000000E+00 0. -1.
</event>
<event>
 7    1  0.6833760E-006  0.1418082E+03  0.7561462E-02  0.1210916E+00
          1   -1    0    0  501    0  0.00000000000E+00  0.00000000000E+00  0.15329097124E+03  0.15329097124E+03  0.00000000000E+00 0. -1.
         -1   -1    0    0    0  501 -0.00000000000E+00 -0.00000000000E+00 -0.18815109262E+03  0.18815109262E+03  0.00000000000E+00 0.  1.
         23    2    1    2    0    0  0.94067783315E+02  0.53825775453E+02 -0.89897194810E+02  0.18835243172E+03  0.12509664639E+03 0.  0.
          5    1    3    3  502    0  0.82845404252E+02  0.78832188881E+02 -0.10625679686E+03  0.15615970764E+03  0.41800000000E+01 0.  1.
         -5    1    3    3    0  502  0.11222379063E+02 -0.25006413429E+02  0.16359602055E+02  0.32192724081E+02  0.41800000000E+01 0.  1.
        -11    1    1    2    0    0 -0.22843777793E+02 -0.65420185639E+02  0.37655324320E+02  0.78864201781E+02  0.00000000000E+00 0.  1.
         11    1    1    2    0    0 -0.71224005522E+02  0.11594410186E+02  0.17381749104E+02  0.74225430360E+02  0.00000000000E+00 0. -1.
</event>
<event>
 7    1  0.6833760E-006  0.7082952E+02  0.7561462E-02  0.1357295E+00
         -2   -1    0    0    0  501 -0.00000000000E+00  0.00000000000E+00  0.22181264594E+03  0.22181264594E+03  0.00000000000E+00 0.  1.
          2   -1    0    0  501    0  0.00000000000E+00 -0.00000000000E+00 -0.13516526839E+03  0.13516526839E+03  0.00000000000E+00 0. -1.
         23    2    1    2    0    0 -0.26513732871E+01 -0.56099670158E+02  0.17296401358E+03  0.22072515156E+03  0.12509532271E+03 0.  0.
          5    1    3    3  502    0 -0.12412297067E+02 -0.62620392187E+02  0.18950696703E+03  0.20001435346E+03  0.41800000000E+01 0. -1.
         -5    1    3    3    0  502  0.97609237801E+01  0.65207220287E+01 -0.16542953452E+02  0.20710798095E+02  0.41800000000E+01 0. -1.
        -11    1    1    2    0    0 -0.12309814565E+02  0.75971553257E+01  0.16285425733E+02  0.21782180676E+02  0.00000000000E+00 0.  1.
         11    1    1    2    0    0  0.14961187852E+02  0.48502514833E+02 -0.10260206177E+03  0.11447058210E+03  0.00000000000E+00 0. -1.
</event>
<event>
 7    1  0.6833760E-006  0.1969983E+03  0.7561462E-02  0.1152297E+00
         -2   -1    0    0    0  501 -0.00000000000E+00  0.00000000000E+00  0.14128243406E+03  0.14128243406E+03  0.00000000000E+00 0.  1.
          2   -1    0    0  501    0  0.00000000000E+00 -0.00000000000E+00 -0.36353009008E+03  0.36353009008E+03  0.00000000000E+00 0. -1.
         23    2    1    2    0    0 -0.17207027657E+03  0.47363945754E+02 -0.17901271078E+02  0.21868152127E+03  0.12509847643E+03 0.  0.
          5    1    3    3  502    0  0.60155880491E+01 -0.39938991619E+01 -0.31698581110E+02  0.32778208836E+02  0.41800000000E+01 0.  1.
         -5    1    3    3    0  502 -0.17808586461E+03  0.51357844916E+02  0.13797310031E+02  0.18590331243E+03  0.41800000000E+01 0.  1.
        -11    1    1    2    0    0 -0.54751917673E+01 -0.19858267728E+02 -0.22291386850E+02  0.30351844257E+02  0.00000000000E+00 0. -1.
         11    1    1    2    0    0  0.17754546833E+03 -0.27505678026E+02 -0.18205499809E+03  0.25577915861E+03  0.00000000000E+00 0.  1.
</event>
<event>
 7    1  0.6833760E-006  0.1103921E+03  0.7561462E-02  0.1259845E+00
         -1   -1    0    0    0  501 -0.00000000000E+00  0.00000000000E+00  0.52250520663E+02  0.52250520663E+02  0.00000000000E+00 0.  1.
          1   -1    0    0  501    0  0.00000000000E+00 -0.00000000000E+00 -0.38075611449E+03  0.38075611449E+03  0.00000000000E+00 0. -1.
         23    2    1    2    0    0  0.75390949707E+02 -0.40920427043E+02 -0.20223669163E+03  0.25279499104E+03  0.12508937368E+03 0.  0.
          5    1    3    3  502    0  0.75188591119E+01 -0.61317937594E+02 -0.35029612026E+02  0.71140486587E+02  0.41800000000E+01 0.  1.
         -5    1    3    3    0  502  0.67872090595E+02  0.20397510551E+02 -0.16720707960E+03  0.18165450445E+03  0.41800000000E+01 0.  1.
        -11    1    1    2    0    0 -0.12663820833E+02  0.15928561764E+02  0.13888688349E+02  0.24637108232E+02  0.00000000000E+00 0.  1.
         11    1    1    2    0    0 -0.62727128875E+02  0.24991865279E+02 -0.14015759055E+03  0.15557453589E+03  0.00000000000E+00 0. -1.
</event>
<event>
 7    1  0.6833760E-006  0.5379362E+02  0.7561462E-02  0.1425892E+00
          2   -1    0    0  501    0  0.00000000000E+00  0.00000000000E+00  0.39031868817E+03  0.39031868817E+03  0.00000000000E+00 0.  1.
         -2   -1    0    0    0  501 -0.00000000000E+00 -0.00000000000E+00 -0.37917624273E+02  0.37917624273E+02  0.00000000000E+00 0. -1.
         23    2    1    2    0    0 -0.10373142615E+02  0.27228019229E+02  0.11713517949E+03  0.17383588992E+03  0.12509715915E+03 0.  0.
          5    1    3    3  502    0 -0.48995510621E+01  0.37102091773E+01 -0.26809212928E+02  0.27820452019E+02  0.41800000000E+01 0. -1.
         -5    1    3    3    0  502 -0.54735915530E+01  0.23517810052E+02  0.14394439242E+03  0.14601543790E+03  0.41800000000E+01 0. -1.
        -11    1    1    2    0    0  0.29193776064E+02  0.12446977133E+02  0.27342492243E+02  0.41890520200E+02  0.00000000000E+00 0. -1.
         11    1    1    2    0    0 -0.18820633449E+02 -0.39674996362E+02  0.20792339216E+03  0.21250990233E+03  0.00000000000E+00 0.  1.
</event>
<event>
 7    1  0.6833760E-006  0.1333994E+03  0.7561462E-02  0.1222497E+00
         -2   -1    0    0    0  501 -0.00000000000E+00  0.00000000000E+00  0.56577623260E+02  0.56577623260E+02  0.00000000000E+00 0.  1.
          2   -1    0    0  501    0  0.00000000000E+00 -0.00000000000E+00 -0.59695544092E+03  0.59695544092E+03  0.00000000000E+00 0. -1.
         23    2    1    2    0    0  0.43181077979E+02 -0.92715947411E+02 -0.94889864212E+02  0.18738037654E+03  0.12508583766E+03 0.  0.
          5    1    3    3  502    0  0.65392745130E+02 -0.82407131235E+02 -0.11463584180E+03  0.15564702060E+03  0.41800000000E+01 0. -1.
         -5    1    3    3    0  502 -0.22211667151E+02 -0.10308816176E+02  0.19745977593E+02  0.31733355947E+02  0.41800000000E+01 0. -1.
        -11    1    1    2    0    0  0.23040855239E+02  0.37759494076E+00 -0.60265922668E+02  0.64521353233E+02  0.00000000000E+00 0. -1.
         11    1    1    2    0    0 -0.66221933218E+02  0.92338352470E+02 -0.38522203078E+03  0.40163133441E+03  0.00000000000E+00 0.  1.
</event>
<event>
 7    1  0.6833760E-006  0.1290488E+03  0.7561462E-02  0.1228874E+00
         -2   -1    0    0    0  501 -0.00000000000E+00  0.00000000000E+00  0.18904531814E+03  0.18904531814E+03  0.00000000000E+00 0.  1.
          2   -1    0    0  501    0  0.00000000000E+00 -0.00000000000E+00 -0.11071244595E+03  0.11071244595E+03  0.00000000000E+00 0. -1.
         23    2    1    2    0    0 -0.93950197554E+02  0.15741102991E+02  0.39127090282E+02  0.16202905126E+03  0.12509221524E+03 0.  0.
          5    1    3    3  502    0  0.37253457662E+01  0.33212451530E+02  0.51927090171E+02  0.61893781847E+02  0.41800000000E+01 0.  1.
         -5    1    3    3    0  502 -0.97675543320E+02 -0.17471348538E+02 -0.12799999889E+02  0.10013526941E+03  0.41800000000E+01 0.  1.
        -11    1    1    2    0    0  0.32154552840E+02 -0.46136674920E+02 -0.40872422280E+01  0.56384515517E+02  0.00000000000E+00 0.  1.
         11    1    1    2    0    0  0.61795644714E+02  0.30395571928E+02  0.43293024137E+02  0.81344197318E+02  0.00000000000E+00 0. -1.
</event>
<event>
 7    1  0.6833760E-006  0.1055707E+03  0.7561462E-02  0.1268999E+00
          2   -1    0    0  501    0  0.00000000000E+00  0.00000000000E+00  0.19153508001E+02  0.19153508001E+02  0.00000000000E+00 0. -1.
         -2   -1    0    0    0  501 -0.00000000000E+00 -0.00000000000E+00 -0.10090478093E+04  0.10090478093E+04  0.00000000000E+00 0.  1.
         23    2    1    2    0    0 -0.61640100063E+01  0.27875565580E+02 -0.82092339500E+03  0.83088953030E+03  0.12508856432E+03 0.  0.
          5    1    3    3  502    0 -0.55442353512E+02  0.35119471105E+02 -0.27809581249E+03  0.28576561224E+03  0.41800000000E+01 0.  1.
         -5    1    3    3    0  502  0.49278343505E+02 -0.72439055244E+01 -0.54282758251E+03  0.54512391806E+03  0.41800000000E+01 0.  1.
        -11    1    1    2    0    0 -0.31727490583E+02 -0.43975212566E+02 -0.12898459674E+03  0.13991954536E+03  0.00000000000E+00 0. -1.
         11    1    1    2    0    0  0.37891500589E+02  0.16099646985E+02 -0.39986309608E+02  0.57392241689E+02  0.00000000000E+00 0.  1.
</event>
<event>
 7    1  0.6833760E-006  0.1299994E+03  0.7561462E-02  0.1227457E+00
          1   -1    0    0  501    0  0.00000000000E+00  0.00000000000E+00  0.67547242236E+02  0.67547242236E+02  0.00000000000E+00 0. -1.
         -1   -1    0    0    0  501 -0.00000000000E+00 -0.00000000000E+00 -0.33572275046E+03  0.33572275046E+03  0.00000000000E+00 0.  1.
         23    2    1    2    0    0 -0.73348666568E+02 -0.66644216673E+02 -0.14795608373E+03  0.21762244148E+03  0.12508815219E+03 0.  0.
          5    1    3    3  502    0 -0.33968517975E+02  0.97804741828E+01  0.10659508238E+02  0.37156633385E+02  0.41800000000E+01 0.  1.
         -5    1    3    3    0  502 -0.39380148593E+02 -0.76424690856E+02 -0.15861559197E+03  0.18046580809E+03  0.41800000000E+01 0.  1.
        -11    1    1    2    0    0 -0.13715402181E+01 -0.22198938784E+02 -0.35662830874E+02  0.42029888314E+02  0.00000000000E+00 0.  1.
         11    1    1    2    0    0  0.74720206786E+02  0.88843155457E+02 -0.84556593624E+02  0.14361766291E+03  0.00000000000E+00 0. -1.
</event>
<event>
 7    1  0.6833760E-006  0.1396311E+03  0.7561462E-02  0.1213826E+00
          2   -1    0    0  501    0  0.00000000000E+00  0.00000000000E+00  0.11492775330E+03  0.11492775330E+03  0.00000000000E+00 0. -1.
         -2   -1    0    0    0  501 -0.00000000000E+00 -0.00000000000E+00 -0.28640702637E+03  0.28640702637E+03  0.00000000000E+00 0.  1.
         23    2    1    2    0    0  0.25098835888E+02  0.12568716870E+03 -0.16701997520E+03  0.24491142760E+03  0.12513480457E+03 0.  0.
          5    1    3    3  502    0  0.11193038329E+02  0.90493101438E+01  0.19409357246E+02  0.24522839758E+02  0.41800000000E+01 0.  1.
         -5    1    3    3    0  502  0.13905797559E+02  0.11663785856E+03 -0.18642933244E+03  0.22038858784E+03  0.41800000000E+01 0.  1.
        -11    1    1    2    0    0 -0.47253811773E+02 -0.10961037114E+03  0.18385028344E+02  0.12076988638E+03  0.00000000000E+00 0. -1.
         11    1    1    2    0    0  0.22154975885E+02 -0.16076797563E+02 -0.22844326212E+02  0.35653465700E+02  0.00000000000E+00 0.  1.
</event>
<event>
 7    1  0.6833760E-006  0.1689381E+03  0.7561462E-02  0.1178960E+00
          2   -1    0    0  501    0  0.00000000000E+00  0.00000000000E+00  0.30950125243E+03  0.30950125243E+03  0.00000000000E+00 0. -1.
         -2   -1    0    0    0  501 -0.00000000000E+00 -0.00000000000E+00 -0.12846403991E+03  0.12846403991E+03  0.00000000000E+00 0.  1.
         23    2    1    2    0    0 -0.15516444697E+03 -0.60055318836E+02  0.11013461547E+03  0.23549946284E+03  0.12509083321E+03 0.  0.
          5    1    3    3  502    0 -0.13106859804E+03 -0.65069466842E+02  0.13581093192E+03  0.19968749219E+03  0.41800000000E+01 0. -1.
         -5    1    3    3    0  502 -0.24095848927E+02  0.50141480057E+01 -0.25676316452E+02  0.35811970656E+02  0.41800000000E+01 0. -1.
        -11    1    1    2    0    0  0.79134039602E+02  0.34275413138E+02  0.84849577856E+02  0.12098120115E+03  0.00000000000E+00 0. -1.
         11    1    1    2    0    0  0.76030407368E+02  0.25779905698E+02 -0.13946980803E+02  0.81484628341E+02  0.00000000000E+00 0.  1.
</event>
<event>
 7    1  0.6833760E-006  0.8467899E+02  0.7561462E-02  0.1316274E+00
          1   -1    0    0  501    0  0.00000000000E+00  0.00000000000E+00  0.15578820802E+03  0.15578820802E+03  0.00000000000E+00 0. -1.
         -1   -1    0    0    0  501 -0.00000000000E+00 -0.00000000000E+00 -0.13471459110E+03  0.13471459110E+03  0.00000000000E+00 0.  1.
         23    2    1    2    0    0  0.45124260408E+02  0.42563210325E+02 -0.60216723039E+02  0.15205665657E+03  0.12508935736E+03 0.  0.
          5    1    3    3  502    0  0.73961388382E+01  0.38415253020E+02 -0.93475847221E+02  0.10141814901E+03  0.41800000000E+01 0. -1.
         -5    1    3    3    0  502  0.37728121569E+02  0.41479573048E+01  0.33259124182E+02  0.50638507564E+02  0.41800000000E+01 0. -1.
        -11    1    1    2    0    0 -0.48060642243E+02  0.10946397511E+01  0.81577744693E+02  0.94688711039E+02  0.00000000000E+00 0. -1.
         11    1    1    2    0    0  0.29363818350E+01 -0.43657850076E+02 -0.28740473331E+00  0.43757431517E+02  0.00000000000E+00 0.  1.
</event>
<event>
 7    1  0.6833760E-006  0.3331243E+03  0.7561462E-02  0.1069763E+00
          1   -1    0    0  501    0  0.00000000000E+00  0.00000000000E+00  0.14306194918E+04  0.14306194918E+04  0.00000000000E+00 0. -1.
         -1   -1    0    0    0  501 -0.00000000000E+00 -0.00000000000E+00 -0.12121867136E+03  0.12121867136E+03  0.00000000000E+00 0.  1.
         23    2    1    2    0    0  0.22328793839E+03  0.23651949307E+03  0.22284903681E+03  0.41365538338E+03  0.12510039551E+03 0.  0.
          5    1    3    3  502    0  0.21470888867E+03  0.23491911657E+03  0.23677697391E+03  0.39669598684E+03  0.41800000000E+01 0.  1.
         -5    1    3    3    0  502  0.85790497216E+01  0.16003765023E+01 -0.13927937099E+02  0.16959396537E+02  0.41800000000E+01 0.  1.
        -11    1    1    2    0    0 -0.16799863049E+03 -0.11162128853E+03  0.68146878705E+03  0.71069160655E+03  0.00000000000E+00 0. -1.
         11    1    1    2    0    0 -0.55289307902E+02 -0.12489820454E+03  0.40508299659E+03  0.42749117323E+03  0.00000000000E+00 0.  1.
</event>
<event>
 7    1  0.6833760E-006  0.8939109E+02  0.7561462E-02  0.1304333E+00
         -1   -1    0    0    0  501 -0.00000000000E+00  0.00000000000E+00  0.14012826430E+03  0.14012826430E+03  0.00000000000E+00 0.  1.
          1   -1    0    0  501    0  0.00000000000E+00 -0.00000000000E+00 -0.24173602955E+03  0.24173602955E+03  0.00000000000E+00 0. -1.
         23    2    1    2    0    0 -0.12933725222E+02 -0.21274814421E+02  0.10471493419E+03  0.15429054301E+03  0.11054616792E+03 0.  0.
          5    1    3    3  502    0 -0.29600819809E+01  0.42040298505E+02  0.17146662564E+02  0.45690581314E+02  0.41800000000E+01 0. -1.
         -5    1    3    3    0  502 -0.99736432407E+01 -0.63315112925E+02  0.87568271625E+02  0.10859996169E+03  0.41800000000E+01 0.  1.
        -11    1    1    2    0    0  0.32900497770E+02 -0.10618115648E+02 -0.25710989158E+02  0.43084128133E+02  0.00000000000E+00 0.  1.
         11    1    1    2    0    0 -0.19966772549E+02  0.31892930069E+02 -0.18061171028E+03  0.18448962270E+03  0.00000000000E+00 0. -1.
</event>
<event>
 7    1  0.6833760E-006  0.9216281E+02  0.7561462E-02  0.1297697E+00
          1   -1    0    0  501    0  0.00000000000E+00  0.00000000000E+00  0.21289118141E+03  0.21289118141E+03  0.00000000000E+00 0. -1.
         -1   -1    0    0    0  501 -0.00000000000E+00 -0.00000000000E+00 -0.87080423062E+02  0.87080423062E+02  0.00000000000E+00 0.  1.
         23    2    1    2    0    0 -0.10973639692E+02 -0.73359649025E+02  0.29836601798E+02  0.14845654617E+03  0.12508822655E+03 0.  0.
          5    1    3    3  502    0 -0.25078737881E+02  0.72799697151E+01 -0.35053184467E+02  0.43910581800E+02  0.41800000000E+01 0.  1.
         -5    1    3    3    0  502  0.14105098190E+02 -0.80639618740E+02  0.64889786265E+02  0.10454596437E+03  0.41800000000E+01 0.  1.
        -11    1    1    2    0    0  0.14943564381E+02  0.49013788402E+02 -0.12036645011E+01  0.51255344874E+02  0.00000000000E+00 0.  1.
         11    1    1    2    0    0 -0.39699246891E+01  0.24345860623E+02  0.97177821048E+02  0.10025971342E+03  0.00000000000E+00 0. -1.
</event>
<event>
 7    1  0.6833760E-006  0.1206448E+03  0.7561462E-02  0.1242037E+00
         -3   -1    0    0    0  501 -0.00000000000E+00  0.00000000000E+00  0.77590750106E+02  0.77590750106E+02  0.00000000000E+00 0.  1.
          3   -1    0    0  501    0  0.00000000000E+00 -0.00000000000E+00 -0.31158071373E+03  0.31158071373E+03  0.00000000000E+00 0. -1.
         23    2    1    2    0    0 -0.59424563864E+02  0.79779948309E+02 -0.67366039164E+02  0.17344328879E+03  0.12509305437E+03 0.  0.
          5    1    3    3  502    0 -0.61267454691E+02  0.79658956552E+02  0.52164343023E+01  0.10071709860E+03  0.41800000000E+01 0.  1.
         -5    1    3    3    0  502  0.18428908275E+01  0.12099175674E+00 -0.72582473467E+02  0.72726190194E+02  0.41800000000E+01 0.  1.
        -11    1    1    2    0    0  0.72502265527E+02 -0.20375642976E+02 -0.79893982093E+02  0.10979432457E+03  0.00000000000E+00 0.  1.
         11    1    1    2    0    0 -0.13077701663E+02 -0.59404305333E+02 -0.86729942363E+02  0.10593385047E+03  0.00000000000E+00 0. -1.
</event>
<event>
 7    1  0.6833760E-006  0.9813690E+02  0.7561462E-02  0.1284263E+00
         -1   -1    0    0    0  501 -0.00000000000E+00  0.00000000000E+00  0.39465242411E+02  0.39465242411E+02  0.00000000000E+00 0.  1.
          1   -1    0    0  501    0  0.00000000000E+00 -0.00000000000E+00 -0.34598827542E+03  0.34598827542E+03  0.00000000000E+00 0. -1.
         23    2    1    2    0    0 -0.87778162738E+01 -0.88454871738E+01 -0.10190385487E+03  0.16182365914E+03  0.12508880172E+03 0.  0.
          5    1    3    3  502    0  0.34708291227E+02  0.35213099936E+02 -0.94987191813E+01  0.50520549809E+02  0.41800000000E+01 0.  1.
         -5    1    3    3    0  502 -0.43486107500E+02 -0.44058587110E+02 -0.92405135692E+02  0.11130310933E+03  0.41800000000E+01 0.  1.
        -11    1    1    2    0    0 -0.37572421942E+02  0.70181916742E+01 -0.54940952638E+02  0.66928694756E+02  0.00000000000E+00 0.  1.
         11    1    1    2    0    0  0.46350238216E+02  0.18272954996E+01 -0.14967822550E+03  0.15670116394E+03  0.00000000000E+00 0. -1.
</event>
<event>
 7    1  0.6833760E-006  0.1219510E+03  0.7561462E-02  0.1239913E+00
          1   -1    0    0  501    0  0.00000000000E+00  0.00000000000E+00  0.67512691778E+03  0.67512691778E+03  0.00000000000E+00 0. -1.
         -1   -1    0    0    0  501 -0.00000000000E+00 -0.00000000000E+00 -0.28918745528E+02  0.28918745528E+02  0.00000000000E+00 0.  1.
         23    2    1    2    0    0 -0.35136009982E+02 -0.81658828423E+02  0.34483843758E+03  0.37744418918E+03  0.12509142437E+03 0.  0.
          5    1    3    3  502    0 -0.21650645666E+02  0.10779667562E+02  0.50959796706E+01  0.25067770130E+02  0.41800000000E+01 0. -1.
         -5    1    3    3    0  502 -0.13485364316E+02 -0.92438495985E+02  0.33974245791E+03  0.35237641905E+03  0.41800000000E+01 0. -1.
        -11    1    1    2    0    0 -0.14433494846E+01 -0.18841632698E+02  0.47801565435E+02  0.51401167676E+02  0.00000000000E+00 0. -1.
         11    1    1    2    0    0  0.36579359466E+02  0.10050046112E+03  0.25356816923E+03  0.27520030645E+03  0.00000000000E+00 0.  1.
</event>
<event>
 7    1  0.6833760E-006  0.1427795E+03  0.7561462E-02  0.1209637E+00
          1   -1    0    0  501    0  0.00000000000E+00  0.00000000000E+00  0.75900804973E+03  0.75900804973E+03  0.00000000000E+00 0. -1.
         -1   -1    0    0    0  501 -0.00000000000E+00 -0.00000000000E+00 -0.42635132639E+02  0.42635132639E+02  0.00000000000E+00 0.  1.
         23    2    1    2    0    0 -0.42388869237E+02  0.90663014013E+02  0.14868011546E+03  0.21855176287E+03  0.12506997231E+03 0.  0.
          5    1    3    3  502    0  0.11170872994E+02 -0.26521300164E+02  0.42734859446E+02  0.51690505682E+02  0.41800000000E+01 0.  1.
         -5    1    3    3    0  502 -0.53559742231E+02  0.11718431418E+03  0.10594525602E+03  0.16686125719E+03  0.41800000000E+01 0.  1.
        -11    1    1    2    0    0 -0.10692506824E+02 -0.69669211958E+02  0.39412447217E+03  0.40037760721E+03  0.00000000000E+00 0.  1.
         11    1    1    2    0    0  0.53081376061E+02 -0.20993802055E+02  0.17356832946E+03  0.18271381228E+03  0.00000000000E+00 0. -1.
</event>
<event>
 7    1  0.6833760E-006  0.9795177E+02  0.7561462E-02  0.1284663E+00
          2   -1    0    0  501    0  0.00000000000E+00  0.00000000000E+00  0.65534473034E+03  0.65534473034E+03  0.00000000000E+00 0. -1.
         -2   -1    0    0    0  501 -0.00000000000E+00 -0.00000000000E+00 -0.20485852588E+02  0.20485852588E+02  0.00000000000E+00 0.  1.
         23    2    1    2    0    0  0.19129590912E+02  0.23151482171E+02  0.27895015957E+03  0.30718428752E+03  0.12508821927E+03 0.  0.
          5    1    3    3  502    0  0.38921590208E+02  0.53739249707E+02  0.25466479905E+03  0.26320035983E+03  0.41800000000E+01 0.  1.
         -5    1    3    3    0  502 -0.19791999296E+02 -0.30587767536E+02  0.24285360525E+02  0.43983927687E+02  0.41800000000E+01 0.  1.
        -11    1    1    2    0    0  0.24703762271E+02 -0.38975168486E+02  0.22518340317E+03  0.22986279536E+03  0.00000000000E+00 0. -1.
         11    1    1    2    0    0 -0.43833353183E+02  0.15823686315E+02  0.13072531501E+03  0.13878350004E+03  0.00000000000E+00 0.  1.
</event>
<event>
 7    1  0.6833760E-006  0.1932912E+03  0.7561462E-02  0.1155526E+00
         -2   -1    0    0    0  501 -0.00000000000E+00  0.00000000000E+00  0.18378426882E+03  0.18378426882E+03  0.00000000000E+00 0.  1.
          2   -1    0    0  501    0  0.00000000000E+00 -0.00000000000E+00 -0.35564659994E+03  0.35564659994E+03  0.00000000000E+00 0. -1.
         23    2    1    2    0    0  0.12383550898E+03  0.12242075383E+03  0.72216181196E+02  0.22623933340E+03  0.12508790867E+03 0.  0.
          5    1    3    3  502    0  0.14255576872E+03  0.91472168821E+02  0.32794206551E+02  0.17257530891E+03  0.41800000000E+01 0. -1.
         -5    1    3    3    0  502 -0.18720259737E+02  0.30948585006E+02  0.39421974646E+02  0.53664024481E+02  0.41800000000E+01 0. -1.
        -11    1    1    2    0    0 -0.39806732721E+02 -0.73291427358E+02 -0.17492170484E+03  0.19378805979E+03  0.00000000000E+00 0.  1.
         11    1    1    2    0    0 -0.84028776260E+02 -0.49129326469E+02 -0.69156807476E+02  0.11940347558E+03  0.00000000000E+00 0. -1.
</event>
<event>
 7    1  0.6833760E-006  0.1237253E+03  0.7561462E-02  0.1237075E+00
         -1   -1    0    0    0  501 -0.00000000000E+00  0.00000000000E+00  0.26660959552E+03  0.26660959552E+03  0.00000000000E+00 0.  1.
          1   -1    0    0  501    0  0.00000000000E+00 -0.00000000000E+00 -0.11897888570E+03  0.11897888570E+03  0.00000000000E+00 0. -1.
         23    2    1    2    0    0 -0.47169346004E+02  0.51054519266E+02  0.21552501842E+03  0.25502659339E+03  0.11728605472E+03 0.  0.
          5    1    3    3  502    0  0.11055439169E+02 -0.32172903894E+02  0.46146323399E+02  0.57482815201E+02  0.41800000000E+01 0. -1.
         -5    1    3    3    0  502 -0.58224785173E+02  0.83227423160E+02  0.16937869502E+03  0.19754377819E+03  0.41800000000E+01 0.  1.
        -11    1    1    2    0    0 -0.58474814381E+01  0.21147332645E+02 -0.12966338290E+02  0.25485851876E+02  0.00000000000E+00 0.  1.
         11    1    1    2    0    0  0.53016827442E+02 -0.72201851911E+02 -0.54927970304E+02  0.10507603596E+03  0.00000000000E+00 0. -1.
</event>
<event>
 7    1  0.6833760E-006  0.1109024E+03  0.7561462E-02  0.1258908E+00
         -1   -1    0    0    0  501 -0.00000000000E+00  0.00000000000E+00  0.74110260741E+03  0.74110260741E+03  0.00000000000E+00 0.  1.
          1   -1    0    0  501    0  0.00000000000E+00 -0.00000000000E+00 -0.19298492971E+02  0.19298492971E+02  0.00000000000E+00 0. -1.
         23    2    1    2    0    0  0.40226885650E+02  0.29980402476E+02  0.36268305680E+03  0.38692190674E+03  0.12511009298E+03 0.  0.
          5    1    3    3  502    0  0.68160639519E+02 -0.14898609276E+02  0.12327072168E+03  0.14170739064E+03  0.41800000000E+01 0.  1.
         -5    1    3    3    0  502 -0.27933753870E+02  0.44879011752E+02  0.23941233512E+03  0.24521451610E+03  0.41800000000E+01 0.  1.
        -11    1    1    2    0    0 -0.16645922028E+02 -0.59107370795E+02  0.26815140858E+03  0.27509261336E+03  0.00000000000E+00 0.  1.
         11    1    1    2    0    0 -0.23580963622E+02  0.29126968318E+02  0.90969649065E+02  0.98386580283E+02  0.00000000000E+00 0. -1.
</event>
<event>
 7    1  0.6833760E-006  0.1766151E+03  0.7561462E-02  0.1171120E+00
          2   -1    0    0  501    0  0.00000000000E+00  0.00000000000E+00  0.43251525001E+03  0.43251525001E+03  0.00000000000E+00 0. -1.
         -2   -1    0    0    0  501 -0.00000000000E+00 -0.00000000000E+00 -0.89274093412E+02  0.89274093412E+02  0.00000000000E+00 0.  1.
         23    2    1    2    0    0 -0.69557362425E+02 -0.13576638637E+03  0.10225334105E+03  0.22219935706E+03  0.12508425236E+03 0.  0.
          5    1    3    3  502    0 -0.40786225464E+02 -0.40715885979E+01 -0.14640535558E+02  0.43725412551E+02  0.41800000000E+01 0.  1.
         -5    1    3    3    0  502 -0.28771136961E+02 -0.13169479777E+03  0.11689387660E+03  0.17847394451E+03  0.41800000000E+01 0.  1.
        -11    1    1    2    0    0  0.70255022344E+02  0.38922285066E+02  0.12368215794E+03  0.14747199270E+03  0.00000000000E+00 0.  1.
         11    1    1    2    0    0 -0.69765991897E+00  0.96844101303E+02  0.11730565761E+03  0.15211799366E+03  0.00000000000E+00 0. -1.
</event>
<event>
 7    1  0.6833760E-006  0.1063159E+03  0.7561462E-02  0.1267548E+00
          2   -1    0    0  501    0  0.00000000000E+00  0.00000000000E+00  0.39637903206E+03  0.39637903206E+03  0.00000000000E+00 0. -1.
         -2   -1    0    0    0  501 -0.00000000000E+00 -0.00000000000E+00 -0.39628502067E+02  0.39628502067E+02  0.00000000000E+00 0.  1.
         23    2    1    2    0    0 -0.20961147474E+02 -0.27513579132E+02  0.11105158451E+03  0.17081016968E+03  0.12508913983E+03 0.  0.
          5    1    3    3  502    0 -0.16253696507E+02 -0.69036972463E+02  0.10723991070E+03  0.12863964033E+03  0.41800000000E+01 0.  1.
         -5    1    3    3    0  502 -0.47074509664E+01  0.41523393332E+02  0.38116738119E+01  0.42170529350E+02  0.41800000000E+01 0.  1.
        -11    1    1    2    0    0  0.78192080457E+01  0.62098398241E+02  0.14573781164E+03  0.15860914482E+03  0.00000000000E+00 0. -1.
         11    1    1    2    0    0  0.13141939428E+02 -0.34584819109E+02  0.99961133846E+02  0.10658821963E+03  0.00000000000E+00 0.  1.
</event>
<event>
 7    1  0.6833760E-006  0.1057986E+03  0.7561462E-02  0.1268554E+00
          1   -1    0    0  501    0  0.00000000000E+00  0.00000000000E+00  0.36863839695E+02  0.36863839695E+02  0.00000000000E+00 0. -1.
         -1   -1    0    0    0  501 -0.00000000000E+00 -0.00000000000E+00 -0.34181672274E+03  0.34181672274E+03  0.00000000000E+00 0.  1.
         23    2    1    2    0    0 -0.23137879501E+02  0.80314994361E+01 -0.19796238319E+03  0.23546827601E+03  0.12512528680E+03 0.  0.
          5    1    3    3  502    0 -0.59392134586E+02 -0.33857887025E+02 -0.13581523187E+03  0.15210861834E+03  0.41800000000E+01 0.  1.
         -5    1    3    3    0  502  0.36254255085E+02  0.41889386461E+02 -0.62147151320E+02  0.83359657671E+02  0.41800000000E+01 0.  1.
        -11    1    1    2    0    0 -0.16915530167E+02 -0.35265436015E+02 -0.76668183966E+02  0.86068557387E+02  0.00000000000E+00 0.  1.
         11    1    1    2    0    0  0.40053409668E+02  0.27233936579E+02 -0.30322315889E+02  0.57143729039E+02  0.00000000000E+00 0. -1.
</event>
<event>
 7    1  0.6833760E-006  0.1222073E+03  0.7561462E-02  0.1239500E+00
          2   -1    0    0  501    0  0.00000000000E+00  0.00000000000E+00  0.35906539704E+03  0.35906539704E+03  0.00000000000E+00 0. -1.
         -2   -1    0    0    0  501 -0.00000000000E+00 -0.00000000000E+00 -0.47552960943E+02  0.47552960943E+02  0.00000000000E+00 0.  1.
         23    2    1    2    0    0  0.51647577257E+02 -0.48564702588E+02  0.15015961679E+03  0.20789755479E+03  0.12508988848E+03 0.  0.
          5    1    3    3  502    0 -0.28914049663E+02 -0.55323027523E+02  0.71776624184E+02  0.95215628032E+02  0.41800000000E+01 0. -1.
         -5    1    3    3    0  502  0.80561626919E+02  0.67583249357E+01  0.78382992606E+02  0.11268192676E+03  0.41800000000E+01 0. -1.
        -11    1    1    2    0    0 -0.53360751343E+02  0.10680833581E+01  0.13316687502E+03  0.14346402751E+03  0.00000000000E+00 0. -1.
         11    1    1    2    0    0  0.17131740869E+01  0.47496619230E+02  0.28185944283E+02  0.55256775683E+02  0.00000000000E+00 0.  1.
</event>
<event>
 7    1  0.6833760E-006  0.1030328E+03  0.7561462E-02  0.1274045E+00
          1   -1    0    0  501    0  0.00000000000E+00  0.00000000000E+00  0.26786638549E+03  0.26786638549E+03  0.00000000000E+00 0. -1.
         -1   -1    0    0    0  501 -0.00000000000E+00 -0.00000000000E+00 -0.52135210506E+02  0.52135210506E+02  0.00000000000E+00 0.  1.
         23    2    1    2    0    0 -0.13609786049E+02  0.47072931438E+02  0.90070727618E+02  0.15518757636E+03  0.11648759905E+03 0.  0.
          5    1    3    3  502    0 -0.42527215848E+02 -0.38269629180E+01 -0.52752011124E+01  0.43226263772E+02  0.41800000000E+01 0.  1.
         -5    1    3    3    0  502  0.28917429798E+02  0.50899894356E+02  0.95345928731E+02  0.11196131259E+03  0.41800000000E+01 0. -1.
        -11    1    1    2    0    0 -0.31388587811E+02  0.89272395587E+01  0.24813646517E+02  0.40995805937E+02  0.00000000000E+00 0.  1.
         11    1    1    2    0    0  0.44998373860E+02 -0.56000170996E+02  0.10084680085E+03  0.12381821370E+03  0.00000000000E+00 0. -1.
</event>
<event>
 7    1  0.6833760E-006  0.2280879E+03  0.7561462E-02  0.1127993E+00
          3   -1    0    0  501    0  0.00000000000E+00  0.00000000000E+00  0.47086245904E+03  0.47086245904E+03  0.00000000000E+00 0. -1.
         -3   -1    0    0    0  501 -0.00000000000E+00 -0.00000000000E+00 -0.12943104642E+03  0.12943104642E+03  0.00000000000E+00 0.  1.
         23    2    1    2    0    0 -0.21503581033E+03  0.35138049282E+02  0.14158594971E+03  0.28839186787E+03  0.12509278981E+03 0.  0.
          5    1    3    3  502    0 -0.17680151254E+03  0.48454548258E+02  0.52955350326E+02  0.19086214819E+03  0.41800000000E+01 0.  1.
         -5    1    3    3    0  502 -0.38234297792E+02 -0.13316498976E+02  0.88630599388E+02  0.97529719678E+02  0.41800000000E+01 0.  1.
        -11    1    1    2    0    0  0.94716583026E+02 -0.55937736472E+02  0.56705127454E+02  0.12375674907E+03  0.00000000000E+00 0.  1.
         11    1    1    2    0    0  0.12031922730E+03  0.20799687190E+02  0.14314033544E+03  0.18814488852E+03  0.00000000000E+00 0. -1.
</event>
<event>
 7    1  0.6833760E-006  0.1339490E+03  0.7561462E-02  0.1221711E+00
         -2   -1    0    0    0  501 -0.00000000000E+00  0.00000000000E+00  0.77758012527E+03  0.77758012527E+03  0.00000000000E+00 0.  1.
          2   -1    0    0  501    0  0.00000000000E+00 -0.00000000000E+00 -0.28316093194E+02  0.28316093194E+02  0.00000000000E+00 0. -1.
         23    2    1    2    0    0  0.76677865505E+02 -0.63742468007E+02  0.44612134423E+03  0.47393438752E+03  0.12508777963E+03 0.  0.
          5    1    3    3  502    0  0.40490799743E+02 -0.96066403421E+02  0.36196689426E+03  0.37670381425E+03  0.41800000000E+01 0.  1.
         -5    1    3    3    0  502  0.36187065762E+02  0.32323935415E+02  0.84154449974E+02  0.97230573276E+02  0.41800000000E+01 0.  1.
        -11    1    1    2    0    0 -0.48039638467E+02  0.35097189190E+01  0.47074950862E+02  0.67351139483E+02  0.00000000000E+00 0. -1.
         11    1    1    2    0    0 -0.28638227038E+02  0.60232749088E+02  0.25606773698E+03  0.26461069146E+03  0.00000000000E+00 0.  1.
</event>
<event>
 7    1  0.6833760E-006  0.9376227E+02  0.7561462E-02  0.1293988E+00
         -2   -1    0    0    0  501 -0.00000000000E+00  0.00000000000E+00  0.12767278554E+03  0.12767278554E+03  0.00000000000E+00 0.  1.
          2   -1    0    0  501    0  0.00000000000E+00 -0.00000000000E+00 -0.15892907254E+03  0.15892907254E+03  0.00000000000E+00 0. -1.
         23    2    1    2    0    0  0.47727637391E+02  0.37043855496E+02  0.54533538108E+02  0.14916650190E+03  0.12500625548E+03 0.  0.
          5    1    3    3  502    0  0.29356903907E+02 -0.91548249410E+01 -0.34933865142E+02  0.46727785744E+02  0.41800000000E+01 0. -1.
         -5    1    3    3    0  502  0.18370733484E+02  0.46198680437E+02  0.89467403250E+02  0.10243871615E+03  0.41800000000E+01 0. -1.
        -11    1    1    2    0    0  0.17469360357E+02 -0.37532690096E+02 -0.25427377116E+02  0.48584286391E+02  0.00000000000E+00 0.  1.
         11    1    1    2    0    0 -0.65196997748E+02  0.48883460025E+00 -0.60362447999E+02  0.88851069791E+02  0.00000000000E+00 0. -1.
</event>
<event>
 7    1  0.6833760E-006  0.3602597E+03  0.7561462E-02  0.1058481E+00
          2   -1    0    0  501    0  0.00000000000E+00  0.00000000000E+00  0.51268513424E+03  0.51268513424E+03  0.00000000000E+00 0. -1.
         -2   -1    0    0    0  501 -0.00000000000E+00 -0.00000000000E+00 -0.27969520207E+03  0.27969520207E+03  0.00000000000E+00 0.  1.
         23    2    1    2    0    0  0.30874716351E+03 -0.16536387545E+03  0.19208721211E+02  0.37241953320E+03  0.12512917911E+03 0.  0.
          5    1    3    3  502    0  0.70876762505E+02 -0.78935021061E+02 -0.38270143645E+02  0.11285534683E+03  0.41800000000E+01 0. -1.
         -5    1    3    3    0  502  0.23787040100E+03 -0.86428854386E+02  0.57478864856E+02  0.25956418638E+03  0.41800000000E+01 0. -1.
        -11    1    1    2    0    0 -0.13875258326E+03  0.12443926999E+03  0.11801717972E+03  0.22060250676E+03  0.00000000000E+00 0.  1.
         11    1    1    2    0    0 -0.16999458025E+03  0.40924605452E+02  0.95764031235E+02  0.19935829635E+03  0.00000000000E+00 0. -1.
</event>
<event>
 7    1  0.6833760E-006  0.1446391E+03  0.7561462E-02  0.1207220E+00
          1   -1    0    0  501    0  0.00000000000E+00  0.00000000000E+00  0.23243101680E+03  0.23243101680E+03  0.00000000000E+00 0. -1.
         -1   -1    0    0    0  501 -0.00000000000E+00 -0.00000000000E+00 -0.11507699546E+03  0.11507699546E+03  0.00000000000E+00 0.  1.
         23    2    1    2    0    0  0.71569972105E+02 -0.73856643028E+02 -0.76861792402E+01  0.16212103633E+03  0.12508832257E+03 0.  0.
          5    1    3    3  502    0  0.96653409715E+02 -0.16205122472E+02  0.33614745303E+01  0.98149169710E+02  0.41800000000E+01 0. -1.
         -5    1    3    3    0  502 -0.25083437610E+02 -0.57651520556E+02 -0.11047653770E+02  0.63971866618E+02  0.41800000000E+01 0. -1.
        -11    1    1    2    0    0  0.13125001533E+02 -0.33781953424E+01  0.41206426320E+02  0.43377960292E+02  0.00000000000E+00 0. -1.
         11    1    1    2    0    0 -0.84694973638E+02  0.77234838370E+02  0.83833774262E+02  0.14200901565E+03  0.00000000000E+00 0.  1.
</event>
<event>
 7    1  0.6833760E-006  0.3324839E+03  0.7561462E-02  0.1070043E+00
         -2   -1    0    0    0  501 -0.00000000000E+00  0.00000000000E+00  0.40715545261E+03  0.40715545261E+03  0.00000000000E+00 0.  1.
          2   -1    0    0  501    0  0.00000000000E+00 -0.00000000000E+00 -0.37324423061E+03  0.37324423061E+03  0.00000000000E+00 0. -1.
         23    2    1    2    0    0 -0.17815262100E+03 -0.26793405501E+03  0.20752337349E+03  0.40279084987E+03  0.12508998360E+03 0.  0.
          5    1    3    3  502    0 -0.90928830921E+02 -0.44894710124E+02  0.34078168703E+02  0.10706251105E+03  0.41800000000E+01 0.  1.
         -5    1    3    3    0  502 -0.87223790080E+02 -0.22303934488E+03  0.17344520478E+03  0.29572833883E+03  0.41800000000E+01 0.  1.
        -11    1    1    2    0    0  0.17936934548E+02  0.52435614658E+02 -0.71168649174E+02  0.90200908703E+02  0.00000000000E+00 0. -1.
         11    1    1    2    0    0  0.16021568645E+03  0.21549844035E+03 -0.10244350232E+03  0.28740792464E+03  0.00000000000E+00 0.  1.
</event>
<event>
 7    1  0.6833760E-006  0.1397599E+03  0.7561462E-02  0.1213652E+00
         -2   -1    0    0    0  501 -0.00000000000E+00  0.00000000000E+00  0.19556432783E+03  0.19556432783E+03  0.00000000000E+00 0.  1.
          2   -1    0    0  501    0  0.00000000000E+00 -0.00000000000E+00 -0.16443327405E+03  0.16443327405E+03  0.00000000000E+00 0. -1.
         23    2    1    2    0    0  0.12410058283E+03  0.67234911228E+00  0.82306680977E+02  0.19448174593E+03  0.12508938026E+03 0.  0.
          5    1    3    3  502    0 -0.14675020404E+02 -0.53257605937E+01  0.48974403274E+02  0.51572129351E+02  0.41800000000E+01 0. -1.
         -5    1    3    3    0  502  0.13877560324E+03  0.59981097060E+01  0.33332277703E+02  0.14290961658E+03  0.41800000000E+01 0. -1.
        -11    1    1    2    0    0 -0.42181696739E+02  0.37782223960E+01 -0.69563173087E+02  0.81440810128E+02  0.00000000000E+00 0. -1.
         11    1    1    2    0    0 -0.81918886093E+02 -0.44505715083E+01  0.18387545891E+02  0.84075045818E+02  0.00000000000E+00 0.  1.
</event>
<event>
 7    1  0.6833760E-006  0.3673632E+03  0.7561462E-02  0.1055706E+00
          2   -1    0    0  501    0  0.00000000000E+00  0.00000000000E+00  0.14884124878E+04  0.14884124878E+04  0.00000000000E+00 0. -1.
         -2   -1    0    0    0  501 -0.00000000000E+00 -0.00000000000E+00 -0.99695486565E+02  0.99695486565E+02  0.00000000000E+00 0.  1.
         23    2    1    2    0    0  0.35649605047E+03 -0.11811723102E+02  0.50787368657E+03  0.63309684495E+03  0.12508790016E+03 0.  0.
          5    1    3    3  502    0  0.17942116407E+03  0.56448358620E+02  0.25675385473E+03  0.31830549104E+03  0.41800000000E+01 0.  1.
         -5    1    3    3    0  502  0.17707488640E+03 -0.68260081722E+02  0.25111983184E+03  0.31479135390E+03  0.41800000000E+01 0.  1.
        -11    1    1    2    0    0 -0.22312088306E+03  0.10929867147E+02  0.42603908209E+03  0.48105268934E+03  0.00000000000E+00 0.  1.
         11    1    1    2    0    0 -0.13337516742E+03  0.88185595440E+00  0.45480423258E+03  0.47395844008E+03  0.00000000000E+00 0. -1.
</event>
<event>
 7    1  0.6833760E-006  0.1439710E+03  0.7561462E-02  0.1208083E+00
          2   -1    0    0  501    0  0.00000000000E+00  0.00000000000E+00  0.35139978796E+03  0.35139978796E+03  0.00000000000E+00 0. -1.
         -2   -1    0    0    0  501 -0.00000000000E+00 -0.00000000000E+00 -0.72677493093E+02  0.72677493093E+02  0.00000000000E+00 0.  1.
         23    2    1    2    0    0  0.88959329417E+01  0.93288579667E+02  0.57332852547E+02  0.16646896380E+03  0.12507183220E+03 0.  0.
          5    1    3    3  502    0  0.63689922911E+02  0.74688226766E+02  0.37428504410E+02  0.10513373788E+03  0.41800000000E+01 0.  1.
         -5    1    3    3    0  502 -0.54793989969E+02  0.18600352900E+02  0.19904348136E+02  0.61335225927E+02  0.41800000000E+01 0.  1.
        -11    1    1    2    0    0 -0.48534548442E+02 -0.71591201564E+02  0.14817802456E+03  0.17157397675E+03  0.00000000000E+00 0.  1.
         11    1    1    2    0    0  0.39638615500E+02 -0.21697378103E+02  0.73211417762E+02  0.86034340505E+02  0.00000000000E+00 0. -1.
</event>
<event>
 7    1  0.6833760E-006  0.1174212E+03  0.7561462E-02  0.1247413E+00
         -3   -1    0    0    0  501 -0.00000000000E+00  0.00000000000E+00  0.14556330448E+03  0.14556330448E+03  0.00000000000E+00 0.  1.
          3   -1    0    0  501    0  0.00000000000E+00 -0.00000000000E+00 -0.26067391203E+03  0.26067391203E+03  0.00000000000E+00 0. -1.
         23    2    1    2    0    0 -0.30627401856E+02  0.10807707875E+03  0.60664403987E+02  0.17873360170E+03  0.12508732059E+03 0.  0.
          5    1    3    3  502    0 -0.66899882076E+01  0.94182194526E+02 -0.17134153261E+02  0.96052554968E+02  0.41800000000E+01 0.  1.
         -5    1    3    3    0  502 -0.23937413648E+02  0.13894884219E+02  0.77798557248E+02  0.82681046737E+02  0.41800000000E+01 0.  1.
        -11    1    1    2    0    0  0.14150700760E+02 -0.52008171072E+02 -0.14277699034E+02  0.55757913160E+02  0.00000000000E+00 0.  1.
         11    1    1    2    0    0  0.16476701096E+02 -0.56068907673E+02 -0.16149731251E+03  0.17174570165E+03  0.00000000000E+00 0. -1.
</event>
<event>
 7    1  0.6833760E-006  0.1276451E+03  0.7561462E-02  0.1230992E+00
          1   -1    0    0  501    0  0.00000000000E+00  0.00000000000E+00  0.88588215048E+02  0.88588215048E+02  0.00000000000E+00 0. -1.
         -1   -1    0    0    0  501 -0.00000000000E+00 -0.00000000000E+00 -0.24627827966E+03  0.24627827966E+03  0.00000000000E+00 0.  1.
         23    2    1    2    0    0  0.29594156416E+02 -0.79134150404E+02 -0.14761951968E+03  0.21112726156E+03  0.12508065451E+03 0.  0.
          5    1    3    3  502    0 -0.37631293447E+02 -0.13132627440E+02 -0.53348659895E+01  0.40429115067E+02  0.41800000000E+01 0. -1.
         -5    1    3    3    0  502  0.67225449862E+02 -0.66001522964E+02 -0.14228465369E+03  0.17069814650E+03  0.41800000000E+01 0. -1.
        -11    1    1    2    0    0 -0.56173681324E+02  0.26851991316E+02  0.70024774362E+01  0.62654182633E+02  0.00000000000E+00 0. -1.
         11    1    1    2    0    0  0.26579524909E+02  0.52282159088E+02 -0.17073022374E+02  0.61085050514E+02  0.00000000000E+00 0.  1.
</event>
<event>
 6    1  0.6833760E-006  0.1079157E+03  0.7561462E-02  0.1264479E+00
         -4   -1    0    0    0  501 -0.00000000000E+00  0.00000000000E+00  0.54400252567E+03  0.54400252567E+03  0.00000000000E+00 0.  1.
          4   -1    0    0  501    0  0.00000000000E+00 -0.00000000000E+00 -0.25942785466E+02  0.25942785466E+02  0.00000000000E+00 0. -1.
          5    1    1    2  502    0 -0.28413062655E+02  0.32746780442E+02  0.55850116433E+02  0.70826278063E+02  0.41800000000E+01 0. -1.
         -5    1    1    2    0  502  0.45075320060E+02 -0.60529260610E+02  0.30708644598E+03  0.31625169340E+03  0.41800000000E+01 0.  1.
        -11    1    1    2    0    0 -0.47402382491E+02 -0.95252195276E+01  0.72555536322E+02  0.87189572334E+02  0.00000000000E+00 0. -1.
         11    1    1    2    0    0  0.30740125085E+02  0.37307699695E+02  0.82567641467E+02  0.95677767345E+02  0.00000000000E+00 0.  1.
</event>
<event>
 7    1  0.6833760E-006  0.1243926E+03  0.7561462E-02  0.1236022E+00
          1   -1    0    0  501    0  0.00000000000E+00  0.00000000000E+00  0.13086309031E+04  0.13086309031E+04  0.00000000000E+00 0. -1.
         -1   -1    0    0    0  501 -0.00000000000E+00 -0.00000000000E+00 -0.13030482264E+02  0.13030482264E+02  0.00000000000E+00 0.  1.
         23    2    1    2    0    0  0.66940367413E+02 -0.92781175509E+01  0.66337947572E+03  0.67844746752E+03  0.12510611942E+03 0.  0.
          5    1    3    3  502    0  0.53698886577E+02 -0.58624911847E+02  0.26258922020E+03  0.27439209477E+03  0.41800000000E+01 0. -1.
         -5    1    3    3    0  502  0.13241480836E+02  0.49346794296E+02  0.40079025552E+03  0.40405537275E+03  0.41800000000E+01 0. -1.
        -11    1    1    2    0    0 -0.35725180249E+02 -0.43685348902E+02  0.27324276703E+03  0.27900951228E+03  0.00000000000E+00 0.  1.
         11    1    1    2    0    0 -0.31215187164E+02  0.52963466453E+02  0.35897817809E+03  0.36420440557E+03  0.00000000000E+00 0. -1.
</event>
<event>
 7    1  0.6833760E-006  0.1155388E+03  0.7561462E-02  0.1250644E+00
          2   -1    0    0  501    0  0.00000000000E+00  0.00000000000E+00  0.96582657051E+02  0.96582657051E+02  0.00000000000E+00 0. -1.
         -2   -1    0    0    0  501 -0.00000000000E+00 -0.00000000000E+00 -0.21366490031E+03  0.21366490031E+03  0.00000000000E+00 0.  1.
         23    2    1    2    0    0  0.63771107597E+02 -0.49173605203E+01 -0.13673828464E+03  0.19604828421E+03  0.12508651669E+03 0.  0.
          5    1    3    3  502    0 -0.19241650845E+02 -0.43354453188E+02 -0.59805711169E+02  0.76446355223E+02  0.41800000000E+01 0.  1.
         -5    1    3    3    0  502  0.83012758442E+02  0.38437092668E+02 -0.76932573475E+02  0.11960192899E+03  0.41800000000E+01 0.  1.
        -11    1    1    2    0    0 -0.22763218776E+02 -0.30254087734E+02  0.41274656894E+02  0.56009563964E+02  0.00000000000E+00 0. -1.
         11    1    1    2    0    0 -0.41007888821E+02  0.35171448254E+02 -0.21618615506E+02  0.58189709178E+02  0.00000000000E+00 0.  1.
</event>
<event>
 7    1  0.6833760E-006  0.2057657E+03  0.7561462E-02  0.1144964E+00
         -1   -1    0    0    0  501 -0.00000000000E+00  0.00000000000E+00  0.79710337370E+02  0.79710337370E+02  0.00000000000E+00 0.  1.
          1   -1    0    0  501    0  0.00000000000E+00 -0.00000000000E+00 -0.63801127115E+03  0.63801127115E+03  0.00000000000E+00 0. -1.
         23    2    1    2    0    0  0.16078282836E+02 -0.19715117871E+03 -0.28286247858E+03  0.36713069730E+03  0.12508664464E+03 0.  0.
          5    1    3    3  502    0 -0.14580779314E+02 -0.11261115249E+03 -0.63852243831E+02  0.13033975691E+03  0.41800000000E+01 0. -1.
         -5    1    3    3    0  502  0.30659062150E+02 -0.84540026223E+02 -0.21901023475E+03  0.23679094039E+03  0.41800000000E+01 0. -1.
        -11    1    1    2    0    0  0.24803014617E+02  0.83052897945E+02 -0.16611577700E+03  0.18736975412E+03  0.00000000000E+00 0. -1.
         11    1    1    2    0    0 -0.40881297454E+02  0.11409828077E+03 -0.10932267821E+03  0.16322115710E+03  0.00000000000E+00 0.  1.
</event>
<event>
 7    1  0.6833760E-006  0.7617744E+02  0.7561462E-02  0.1340263E+00
         -1   -1    0    0    0  501 -0.00000000000E+00  0.00000000000E+00  0.36293466127E+02  0.36293466127E+02  0.00000000000E+00 0.  1.
          1   -1    0    0  501    0  0.00000000000E+00 -0.00000000000E+00 -0.34319718884E+03  0.34319718884E+03  0.00000000000E+00 0. -1.
         23    2    1    2    0    0  0.75475717429E+01 -0.15008494875E+02 -0.12623122237E+03  0.17850524683E+03  0.12509029094E+03 0.  0.
          5    1    3    3  502    0 -0.17594187396E+02  0.29623693531E+02  0.72627003345E+01  0.35458960288E+02  0.41800000000E+01 0.  1.
         -5    1    3    3    0  502  0.25141759139E+02 -0.44632188406E+02 -0.13349392270E+03  0.14304628654E+03  0.41800000000E+01 0.  1.
        -11    1    1    2    0    0  0.20692241599E+02  0.28285157772E+02 -0.15942942269E+03  0.16323590240E+03  0.00000000000E+00 0. -1.
         11    1    1    2    0    0 -0.28239813342E+02 -0.13276662897E+02 -0.21243077651E+02  0.37749505737E+02  0.00000000000E+00 0.  1.
</event>
<event>
 7    1  0.6833760E-006  0.8687007E+02  0.7561462E-02  0.1310613E+00
         -3   -1    0    0    0  501 -0.00000000000E+00  0.00000000000E+00  0.10773544953E+03  0.10773544953E+03  0.00000000000E+00 0.  1.
          3   -1    0    0  501    0  0.00000000000E+00 -0.00000000000E+00 -0.11280234768E+03  0.11280234768E+03  0.00000000000E+00 0. -1.
         23    2    1    2    0    0 -0.11146313841E+02 -0.66864046577E+01  0.11789041590E+02  0.12631545659E+03  0.12509062616E+03 0.  0.
          5    1    3    3  502    0 -0.51780756984E+02 -0.28394965415E+02  0.40628529422E+02  0.71802998947E+02  0.41800000000E+01 0. -1.
         -5    1    3    3    0  502  0.40634443143E+02  0.21708560757E+02 -0.28839487832E+02  0.54512457641E+02  0.41800000000E+01 0. -1.
        -11    1    1    2    0    0  0.90276721683E+01 -0.30103152104E+02 -0.39876441742E+02  0.50772327476E+02  0.00000000000E+00 0. -1.
         11    1    1    2    0    0  0.21186416728E+01  0.36789556761E+02  0.23020502002E+02  0.43450013138E+02  0.00000000000E+00 0.  1.
</event>
<event>
 7    1  0.6833760E-006  0.1207270E+03  0.7561462E-02  0.1241903E+00
         -2   -1    0    0    0  501 -0.00000000000E+00  0.00000000000E+00  0.21849228207E+02  0.21849228207E+02  0.00000000000E+00 0.  1.
          2   -1    0    0  501    0  0.00000000000E+00 -0.00000000000E+00 -0.71531714562E+03  0.71531714562E+03  0.00000000000E+00 0. -1.
         23    2    1    2    0    0 -0.39967542222E+02  0.47458459499E+02 -0.37092179711E+03  0.39632076682E+03  0.12504983337E+03 0.  0.
          5    1    3    3  502    0  0.37722425354E+02  0.37618409481E+02 -0.21810990265E+03  0.22456074488E+03  0.41800000000E+01 0.  1.
         -5    1    3    3    0  502 -0.77689967575E+02  0.98400500183E+01 -0.15281189447E+03  0.17176002194E+03  0.41800000000E+01 0.  1.
        -11    1    1    2    0    0  0.36903852174E+02  0.20061769309E+02 -0.10694412708E+03  0.11489741168E+03  0.00000000000E+00 0. -1.
         11    1    1    2    0    0  0.30636900472E+01 -0.67520228809E+02 -0.21560199322E+03  0.22594819534E+03  0.00000000000E+00 0.  1.
</event>
<event>
 7    1  0.6833760E-006  0.1049579E+03  0.7561462E-02  0.1270203E+00
          2   -1    0    0  501    0  0.00000000000E+00  0.00000000000E+00  0.40786397046E+03  0.40786397046E+03  0.00000000000E+00 0. -1.
         -2   -1    0    0    0  501 -0.00000000000E+00 -0.00000000000E+00 -0.29096983268E+02  0.29096983268E+02  0.00000000000E+00 0.  1.
         23    2    1    2    0    0 -0.34790662669E+02  0.11619144319E+02  0.21176192191E+03  0.24301986545E+03  0.11344667783E+03 0.  0.
          5    1    3    3  502    0  0.31770491116E+02 -0.26012828915E+02  0.92490077626E+02  0.10128138147E+03  0.41800000000E+01 0. -1.
         -5    1    3    3    0  502 -0.66561153784E+02  0.37631973234E+02  0.11927184428E+03  0.14173848398E+03  0.41800000000E+01 0.  1.
        -11    1    1    2    0    0  0.55399519077E+02 -0.31248000504E+02  0.14373137769E+03  0.15717586705E+03  0.00000000000E+00 0. -1.
         11    1    1    2    0    0 -0.20608856408E+02  0.19628856185E+02  0.23273687593E+02  0.36765221225E+02  0.00000000000E+00 0.  1.
</event>
<event>
 7    1  0.6833760E-006  0.9313384E+02  0.7561462E-02  0.1295435E+00
          2   -1    0    0  501    0  0.00000000000E+00  0.00000000000E+00  0.75041404212E+03  0.75041404212E+03  0.00000000000E+00 0. -1.
         -2   -1    0    0    0  501 -0.00000000000E+00 -0.00000000000E+00 -0.23275597183E+02  0.23275597183E+02  0.00000000000E+00 0.  1.
         23    2    1    2    0    0 -0.33091519420E+01 -0.67813754782E+02  0.30858996334E+03  0.33974255057E+03  0.12485022775E+03 0.  0.
          5    1    3    3  502    0 -0.21790788874E+02 -0.37205829875E+02  0.29949669046E+03  0.30261337091E+03  0.41800000000E+01 0. -1.
         -5    1    3    3    0  502  0.18481636932E+02 -0.30607924908E+02  0.90932728817E+01  0.37129179664E+02  0.41800000000E+01 0.  1.
        -11    1    1    2    0    0 -0.32254802128E+02  0.22151008871E+01  0.64840461682E+02  0.72453877766E+02  0.00000000000E+00 0.  1.
         11    1    1    2    0    0  0.35563954070E+02  0.65598653895E+02  0.35370801992E+03  0.36149321097E+03  0.00000000000E+00 0. -1.
</event>
<event>
 7    1  0.6833760E-006  0.2108713E+03  0.7561462E-02  0.1140878E+00
         -2   -1    0    0    0  501 -0.00000000000E+00  0.00000000000E+00  0.52423453665E+02  0.52423453665E+02  0.00000000000E+00 0.  1.
          2   -1    0    0  501    0  0.00000000000E+00 -0.00000000000E+00 -0.97129568480E+03  0.97129568480E+03  0.00000000000E+00 0. -1.
         23    2    1    2    0    0  0.39128462587E+02  0.17804623043E+03 -0.30308471451E+03  0.37515204209E+03  0.12508882350E+03 0.  0.
          5    1    3    3  502    0  0.75714934225E+02  0.66988253378E+02 -0.17104382393E+03  0.19873006682E+03  0.41800000000E+01 0. -1.
         -5    1    3    3    0  502 -0.36586471639E+02  0.11105797705E+03 -0.13204089058E+03  0.17642197527E+03  0.41800000000E+01 0. -1.
        -11    1    1    2    0    0 -0.55132962945E+02 -0.49732479033E+02 -0.21992613471E+03  0.23212166595E+03  0.00000000000E+00 0.  1.
         11    1    1    2    0    0  0.16004500359E+02 -0.12831375139E+03 -0.39586138191E+03  0.41644543042E+03  0.00000000000E+00 0. -1.
</event>
<event>
 7    1  0.6833760E-006  0.9944746E+02  0.7561462E-02  0.1281462E+00
          1   -1    0    0  501    0  0.00000000000E+00  0.00000000000E+00  0.98272183175E+03  0.98272183175E+03  0.00000000000E+00 0. -1.
         -1   -1    0    0    0  501 -0.00000000000E+00 -0.00000000000E+00 -0.13599669641E+02  0.13599669641E+02  0.00000000000E+00 0.  1.
         23    2    1    2    0    0  0.28796813427E+02  0.32731035485E+02  0.55609901064E+03  0.57165845184E+03  0.12508676500E+03 0.  0.
          5    1    3    3  502    0  0.60835577304E+02  0.11893268920E+02  0.49881034284E+03  0.50266454802E+03  0.41800000000E+01 0. -1.
         -5    1    3    3    0  502 -0.32038763877E+02  0.20837766565E+02  0.57288667802E+02  0.68993903822E+02  0.41800000000E+01 0. -1.
        -11    1    1    2    0    0  0.29460798926E+02 -0.26684805098E+02  0.14799953390E+03  0.15324450898E+03  0.00000000000E+00 0. -1.
         11    1    1    2    0    0 -0.58257612353E+02 -0.60462303876E+01  0.26502361756E+03  0.27141854057E+03  0.00000000000E+00 0.  1.
</event>
<event>
 7    1  0.6833760E-006  0.1152623E+03  0.7561462E-02  0.1251124E+00
         -2   -1    0    0    0  501 -0.00000000000E+00  0.00000000000E+00  0.20270248006E+03  0.20270248006E+03  0.00000000000E+00 0.  1.
          2   -1    0    0  501    0  0.00000000000E+00 -0.00000000000E+00 -0.66826009569E+02  0.66826009569E+02  0.00000000000E+00 0. -1.
         23    2    1    2    0    0 -0.43996914789E+02 -0.99812410515E+00  0.84463633694E+02  0.15722060666E+03  0.12508992357E+03 0.  0.
          5    1    3    3  502    0  0.22858194558E+02  0.44159116948E+02  0.45501332245E+02  0.67530499066E+02  0.41800000000E+01 0.  1.
         -5    1    3    3    0  502 -0.66855109347E+02 -0.45157241053E+02  0.38962301448E+02  0.89690107590E+02  0.41800000000E+01 0.  1.
        -11    1    1    2    0    0  0.63682798332E+02  0.25335095209E+02  0.36004748490E+02  0.77419040077E+02  0.00000000000E+00 0.  1.
         11    1    1    2    0    0 -0.19685883542E+02 -0.24336971104E+02  0.15408088308E+02  0.34888842897E+02  0.00000000000E+00 0. -1.
</event>
<event>
 7    1  0.6833760E-006  0.1139245E+03  0.7561462E-02  0.1253470E+00
         -2   -1    0    0    0  501 -0.00000000000E+00  0.00000000000E+00  0.39352601912E+02  0.39352601912E+02  0.00000000000E+00 0.  1.
          2   -1    0    0  501    0  0.00000000000E+00 -0.00000000000E+00 -0.40806252179E+03  0.40806252179E+03  0.00000000000E+00 0. -1.
         23    2    1    2    0    0  0.52205046339E+02  0.37215979547E+02 -0.19746282184E+03  0.24238491949E+03  0.12509391347E+03 0.  0.
          5    1    3    3  502    0 -0.38809788139E+02  0.29783947468E+02 -0.65834992636E+02  0.82127960145E+02  0.41800000000E+01 0.  1.
         -5    1    3    3    0  502  0.91014834479E+02  0.74320320782E+01 -0.13162782920E+03  0.16025695934E+03  0.41800000000E+01 0.  1.
        -11    1    1    2    0    0 -0.34470462309E+02 -0.53246487733E+02 -0.48156065328E+02  0.79639235654E+02  0.00000000000E+00 0.  1.
         11    1    1    2    0    0 -0.17734584031E+02  0.16030508186E+02 -0.12309103271E+03  0.12539096856E+03  0.00000000000E+00 0. -1.
</event>
<event>
 7    1  0.6833760E-006  0.2180957E+03  0.7561462E-02  0.1135311E+00
         -1   -1    0    0    0  501 -0.00000000000E+00  0.00000000000E+00  0.23219060613E+03  0.23219060613E+03  0.00000000000E+00 0.  1.
          1   -1    0    0  501    0  0.00000000000E+00 -0.00000000000E+00 -0.22522021786E+03  0.22522021786E+03  0.00000000000E+00 0. -1.
         23    2    1    2    0    0  0.27027805026E+02 -0.19704723825E+03 -0.26657529270E+02  0.23646689520E+03  0.12509137585E+03 0.  0.
          5    1    3    3  502    0 -0.25378748650E+02 -0.17633850836E+03 -0.15556663644E+02  0.17888217518E+03  0.41800000000E+01 0.  1.
         -5    1    3    3    0  502  0.52406553676E+02 -0.20708729887E+02 -0.11100865625E+02  0.57584720016E+02  0.41800000000E+01 0.  1.
        -11    1    1    2    0    0 -0.72529279534E+01  0.15332200055E+03  0.61605556072E+02  0.16539493752E+03  0.00000000000E+00 0.  1.
         11    1    1    2    0    0 -0.19774877073E+02  0.43725237694E+02 -0.27977638534E+02  0.55548991283E+02  0.00000000000E+00 0. -1.
</event>
<event>
 7    1  0.6833760E-006  0.1361097E+03  0.7561462E-02  0.1218662E+00
         -1   -1    0    0    0  501 -0.00000000000E+00  0.00000000000E+00  0.32466770639E+02  0.32466770639E+02  0.00000000000E+00 0.  1.
          1   -1    0    0  501    0  0.00000000000E+00 -0.00000000000E+00 -0.93251470136E+03  0.93251470136E+03  0.00000000000E+00 0. -1.
         23    2    1    2    0    0 -0.73827365861E+02  0.84508973323E+02 -0.26501732638E+03  0.31380553496E+03  0.12508990354E+03 0.  0.
          5    1    3    3  502    0 -0.48780516002E+02  0.63043725457E+01 -0.20792414263E+03  0.21370354546E+03  0.41800000000E+01 0. -1.
         -5    1    3    3    0  502 -0.25046849859E+02  0.78204600777E+02 -0.57093183743E+02  0.10010198949E+03  0.41800000000E+01 0. -1.
        -11    1    1    2    0    0  0.69571186088E+02 -0.15225365294E+02 -0.39243778830E+03  0.39884756408E+03  0.00000000000E+00 0.  1.
         11    1    1    2    0    0  0.42561797730E+01 -0.69283608029E+02 -0.24259281604E+03  0.25232837296E+03  0.00000000000E+00 0. -1.
</event>
<event>
 6    1  0.6833760E-006  0.1321851E+03  0.7561462E-02  0.1224249E+00
         -1   -1    0    0    0  501 -0.00000000000E+00  0.00000000000E+00  0.21121151720E+03  0.21121151720E+03  0.00000000000E+00 0.  1.
          1   -1    0    0  501    0  0.00000000000E+00 -0.00000000000E+00 -0.15099013306E+03  0.15099013306E+03  0.00000000000E+00 0. -1.
          5    1    1    2  502    0  0.16205940473E+02 -0.33266501803E+01 -0.24713437097E+02  0.30032074207E+02  0.41800000000E+01 0. -1.
         -5    1    1    2    0  502 -0.81087870305E+02  0.78455299740E+02  0.14596637970E+03  0.18453761993E+03  0.41800000000E+01 0.  1.
        -11    1    1    2    0    0 -0.58762249023E+01 -0.62191547579E+02 -0.29825222847E+02  0.69223280241E+02  0.00000000000E+00 0.  1.
         11    1    1    2    0    0  0.70758154734E+02 -0.12937101981E+02 -0.31206335621E+02  0.78408675872E+02  0.00000000000E+00 0. -1.
</event>
<event>
 7    1  0.6833760E-006  0.9172471E+02  0.7561462E-02  0.1298728E+00
         -1   -1    0    0    0  501 -0.00000000000E+00  0.00000000000E+00  0.28687275227E+02  0.28687275227E+02  0.00000000000E+00 0.  1.
          1   -1    0    0  501    0  0.00000000000E+00 -0.00000000000E+00 -0.48639500797E+03  0.48639500797E+03  0.00000000000E+00 0. -1.
         23    2    1    2    0    0 -0.25949677595E+02  0.40536513991E+02 -0.24111435138E+03  0.27586264387E+03  0.12508986014E+03 0.  0.
          5    1    3    3  502    0 -0.33799052021E+02  0.55248013555E+02 -0.24873201549E+03  0.25705992852E+03  0.41800000000E+01 0. -1.
         -5    1    3    3    0  502  0.78493744254E+01 -0.14711499564E+02  0.76176641105E+01  0.18802715357E+02  0.41800000000E+01 0. -1.
        -11    1    1    2    0    0 -0.32491961822E+02 -0.24681866902E+02 -0.94582061089E+02  0.10300819587E+03  0.00000000000E+00 0.  1.
         11    1    1    2    0    0  0.58441639418E+02 -0.15854647089E+02 -0.12201132028E+03  0.13621144345E+03  0.00000000000E+00 0. -1.
</event>
<event>
 7    1  0.6833760E-006  0.2066703E+03  0.7561462E-02  0.1144230E+00
         -1   -1    0    0    0  501 -0.00000000000E+00  0.00000000000E+00  0.36296506595E+03  0.36296506595E+03  0.00000000000E+00 0.  1.
          1   -1    0    0  501    0  0.00000000000E+00 -0.00000000000E+00 -0.12879428169E+03  0.12879428169E+03  0.00000000000E+00 0. -1.
         23    2    1    2    0    0 -0.15321749736E+03  0.91818114350E+02  0.18552040878E+03  0.28631254864E+03  0.12510350041E+03 0.  0.
          5    1    3    3  502    0  0.18283778598E+02  0.27844673946E+02  0.41409138386E+02  0.53308644410E+02  0.41800000000E+01 0. -1.
         -5    1    3    3    0  502 -0.17150127595E+03  0.63973440404E+02  0.14411127039E+03  0.23300390423E+03  0.41800000000E+01 0. -1.
        -11    1    1    2    0    0  0.78797479359E+02 -0.40271609823E+00  0.24434121098E+01  0.78836382440E+02  0.00000000000E+00 0. -1.
         11    1    1    2    0    0  0.74420017998E+02 -0.91415398252E+02  0.46206963373E+02  0.12661041656E+03  0.00000000000E+00 0.  1.
</event>
<event>
 7    1  0.6833760E-006  0.2045819E+03  0.7561462E-02  0.1145930E+00
         -1   -1    0    0    0  501 -0.00000000000E+00  0.00000000000E+00  0.28910790360E+03  0.28910790360E+03  0.00000000000E+00 0.  1.
          1   -1    0    0  501    0  0.00000000000E+00 -0.00000000000E+00 -0.20374421982E+03  0.20374421982E+03  0.00000000000E+00 0. -1.
         23    2    1    2    0    0  0.19250233558E+03 -0.33656619157E+02  0.13714076964E+03  0.26952958674E+03  0.12509472497E+03 0.  0.
          5    1    3    3  502    0  0.89694037448E+02 -0.52249781618E+02  0.91940951066E+01  0.10429316285E+03  0.41800000000E+01 0. -1.
         -5    1    3    3    0  502  0.10280829813E+03  0.18593162461E+02  0.12794667454E+03  0.16523642389E+03  0.41800000000E+01 0. -1.
        -11    1    1    2    0    0 -0.62054030361E+02  0.32965587155E+02 -0.60301337691E+02  0.92594189601E+02  0.00000000000E+00 0. -1.
         11    1    1    2    0    0 -0.13044830522E+03  0.69103200176E+00  0.85242518222E+01  0.13072834708E+03  0.00000000000E+00 0.  1.
</event>
<event>
 7    1  0.6833760E-006  0.1031248E+03  0.7561462E-02  0.1273859E+00
         -1   -1    0    0    0  501 -0.00000000000E+00  0.00000000000E+00  0.14233254797E+04  0.14233254797E+04  0.00000000000E+00 0.  1.
          1   -1    0    0  501    0  0.00000000000E+00 -0.00000000000E+00 -0.14631333204E+02  0.14631333204E+02  0.00000000000E+00 0. -1.
         23    2    1    2    0    0  0.48915795007E+02 -0.13447809236E+02  0.11336357228E+04  0.11416440305E+04  0.12509013414E+03 0.  0.
          5    1    3    3  502    0  0.46112504450E+02  0.42326064918E+02  0.32046579596E+03  0.32654809388E+03  0.41800000000E+01 0. -1.
         -5    1    3    3    0  502  0.28032905565E+01 -0.55773874153E+02  0.81316992687E+03  0.81509593658E+03  0.41800000000E+01 0. -1.
        -11    1    1    2    0    0 -0.17786069481E+02 -0.29516032015E+02  0.20784390613E+03  0.21068134642E+03  0.00000000000E+00 0.  1.
         11    1    1    2    0    0 -0.31129725526E+02  0.42963841250E+02  0.67214517538E+02  0.85631436016E+02  0.00000000000E+00 0. -1.
</event>
<event>
 7    1  0.6833760E-006  0.1526360E+03  0.7561462E-02  0.1197271E+00
          2   -1    0    0  501    0  0.00000000000E+00  0.00000000000E+00  0.23869819754E+03  0.23869819754E+03  0.00000000000E+00 0.  1.
         -2   -1    0    0    0  501 -0.00000000000E+00 -0.00000000000E+00 -0.12589107582E+03  0.12589107582E+03  0.00000000000E+00 0. -1.
         23    2    1    2    0    0  0.11711749928E+03  0.62920169937E+02  0.78241243580E+02  0.19860855420E+03  0.12509280229E+03 0.  0.
          5    1    3    3  502    0  0.10685149081E+03  0.18548665261E+02  0.10034670154E+03  0.14781145755E+03  0.41800000000E+01 0. -1.
         -5    1    3    3    0  502  0.10266008460E+02  0.44371504676E+02 -0.22105457962E+02  0.50797096655E+02  0.41800000000E+01 0. -1.
        -11    1    1    2    0    0 -0.81751582508E+02 -0.34606897652E+01  0.48908339251E+02  0.95327452837E+02  0.00000000000E+00 0.  1.
         11    1    1    2    0    0 -0.35365916767E+02 -0.59459480172E+02 -0.14342461108E+02  0.70653266320E+02  0.00000000000E+00 0. -1.
</event>
<event>
 7    1  0.6833760E-006  0.1689544E+03  0.7561462E-02  0.1178943E+00
          1   -1    0    0  501    0  0.00000000000E+00  0.00000000000E+00  0.43918905541E+03  0.43918905541E+03  0.00000000000E+00 0. -1.
         -1   -1    0    0    0  501 -0.00000000000E+00 -0.00000000000E+00 -0.79192173523E+02  0.79192173523E+02  0.00000000000E+00 0.  1.
         23    2    1    2    0    0  0.12018494504E+03 -0.88050470440E+02  0.16734476314E+03  0.25661020061E+03  0.12508884422E+03 0.  0.
          5    1    3    3  502    0  0.11560357815E+03 -0.99777883804E+02  0.88277100740E+02  0.17643733248E+03  0.41800000000E+01 0. -1.
         -5    1    3    3    0  502  0.45813668914E+01  0.11727413363E+02  0.79067662405E+02  0.80172868135E+02  0.41800000000E+01 0. -1.
        -11    1    1    2    0    0 -0.45680381567E+02 -0.11908065688E+02  0.26789329224E+02  0.54278609496E+02  0.00000000000E+00 0.  1.
         11    1    1    2    0    0 -0.74504563471E+02  0.99958536129E+02  0.16586278951E+03  0.20749241882E+03  0.00000000000E+00 0. -1.
</event>
<event>
 7    1  0.6833760E-006  0.8280308E+02  0.7561462E-02  0.1321280E+00
          1   -1    0    0  501    0  0.00000000000E+00  0.00000000000E+00  0.13263591131E+03  0.13263591131E+03  0.00000000000E+00 0.  1.
         -1   -1    0    0    0  501 -0.00000000000E+00 -0.00000000000E+00 -0.13187077125E+03  0.13187077125E+03  0.00000000000E+00 0. -1.
         23    2    1    2    0    0  0.21189804155E+01  0.28617196960E+01 -0.73070915509E+02  0.14490017574E+03  0.12507606773E+03 0.  0.
          5    1    3    3  502    0 -0.55223466808E+02  0.15467651698E+02 -0.95284247385E+01  0.58285013626E+02  0.41800000000E+01 0. -1.
         -5    1    3    3    0  502  0.57342447224E+02 -0.12605932002E+02 -0.63542490771E+02  0.86615162117E+02  0.41800000000E+01 0. -1.
        -11    1    1    2    0    0 -0.25542622283E+02 -0.36837639368E+01  0.88347659061E+02  0.92039689979E+02  0.00000000000E+00 0.  1.
         11    1    1    2    0    0  0.23423641868E+02  0.82204424082E+00 -0.14511603487E+02  0.27566816843E+02  0.00000000000E+00 0. -1.
</event>
<event>
 7    1  0.6833760E-006  0.1127570E+03  0.7561462E-02  0.1255548E+00
          4   -1    0    0  501    0  0.00000000000E+00  0.00000000000E+00  0.54103527844E+02  0.54103527844E+02  0.00000000000E+00 0. -1.
         -4   -1    0    0    0  501 -0.00000000000E+00 -0.00000000000E+00 -0.33480792838E+03  0.33480792838E+03  0.00000000000E+00 0.  1.
         23    2    1    2    0    0  0.73322586341E+01 -0.70079961282E+02 -0.20921713187E+03  0.25374222429E+03  0.12509334568E+03 0.  0.
          5    1    3    3  502    0  0.45199656774E+02 -0.22542348656E+02 -0.19197143845E+02  0.54195656535E+02  0.41800000000E+01 0.  1.
         -5    1    3    3    0  502 -0.37867398140E+02 -0.47537612625E+02 -0.19001998802E+03  0.19954656776E+03  0.41800000000E+01 0.  1.
        -11    1    1    2    0    0  0.39058779737E+02  0.49779914788E+02 -0.31704571800E+02  0.70772933131E+02  0.00000000000E+00 0. -1.
         11    1    1    2    0    0 -0.46391038371E+02  0.20300046493E+02 -0.39782696866E+02  0.64396298797E+02  0.00000000000E+00 0.  1.
</event>
<event>
 7    1  0.6833760E-006  0.1186287E+03  0.7561462E-02  0.1245377E+00
          2   -1    0    0  501    0  0.00000000000E+00  0.00000000000E+00  0.26273897454E+03  0.26273897454E+03  0.00000000000E+00 0.  1.
         -2   -1    0    0    0  501 -0.00000000000E+00 -0.00000000000E+00 -0.13503753335E+03  0.13503753335E+03  0.00000000000E+00 0. -1.
         23    2    1    2    0    0  0.37356127955E+02 -0.87015997623E+02 -0.60369212620E+02  0.16811100492E+03  0.12509837731E+03 0.  0.
          5    1    3    3  502    0  0.67893172898E+02 -0.88598337169E+02 -0.74400222052E+02  0.13420884366E+03  0.41800000000E+01 0. -1.
         -5    1    3    3    0  502 -0.30537044944E+02  0.15823395455E+01  0.14031009432E+02  0.33902161259E+02  0.41800000000E+01 0. -1.
        -11    1    1    2    0    0 -0.74893389233E+01  0.17135244015E+02 -0.72691158392E+01  0.20063569723E+02  0.00000000000E+00 0. -1.
         11    1    1    2    0    0 -0.29866789031E+02  0.69880753608E+02  0.19533976966E+03  0.20960193325E+03  0.00000000000E+00 0.  1.
</event>
<event>
 7    1  0.6833760E-006  0.1009990E+03  0.7561462E-02  0.1278209E+00
         -3   -1    0    0    0  501 -0.00000000000E+00  0.00000000000E+00  0.40955441297E+03  0.40955441297E+03  0.00000000000E+00 0.  1.
          3   -1    0    0  501    0  0.00000000000E+00 -0.00000000000E+00 -0.42164849990E+02  0.42164849990E+02  0.00000000000E+00 0. -1.
         23    2    1    2    0    0 -0.71305114607E+01 -0.16705572712E+02  0.33066568910E+03  0.35400072619E+03  0.12508715296E+03 0.  0.
          5    1    3    3  502    0 -0.35802473419E+02  0.38391695853E+02  0.80417299862E+02  0.96125719402E+02  0.41800000000E+01 0. -1.
         -5    1    3    3    0  502  0.28671961959E+02 -0.55097268565E+02  0.25024838924E+03  0.25787500678E+03  0.41800000000E+01 0. -1.
        -11    1    1    2    0    0 -0.27195022835E+02 -0.22269463726E+02  0.28252699920E+02  0.45096710905E+02  0.00000000000E+00 0.  1.
         11    1    1    2    0    0  0.34325534296E+02  0.38975036438E+02  0.84711739601E+01  0.52621825874E+02  0.00000000000E+00 0. -1.
</event>
<event>
 7    1  0.6833760E-006  0.1271755E+03  0.7561462E-02  0.1231708E+00
          2   -1    0    0  501    0  0.00000000000E+00  0.00000000000E+00  0.26061144600E+02  0.26061144600E+02  0.00000000000E+00 0. -1.
         -2   -1    0    0    0  501 -0.00000000000E+00 -0.00000000000E+00 -0.91732268382E+03  0.91732268382E+03  0.00000000000E+00 0.  1.
         23    2    1    2    0    0  0.42207470134E+02 -0.97413474972E+02 -0.59862050504E+03  0.62069693956E+03  0.12508927247E+03 0.  0.
          5    1    3    3  502    0  0.43607410367E+02 -0.35680530250E+02 -0.77469103333E+02  0.95883475370E+02  0.41800000000E+01 0.  1.
         -5    1    3    3    0  502 -0.13999402328E+01 -0.61732944722E+02 -0.52115140171E+03  0.52481346419E+03  0.41800000000E+01 0.  1.
        -11    1    1    2    0    0 -0.39957631362E+01 -0.15891774658E+02 -0.36508760350E+02  0.40017548739E+02  0.00000000000E+00 0. -1.
         11    1    1    2    0    0 -0.38211706998E+02  0.11330524963E+03 -0.25613227383E+03  0.28266934012E+03  0.00000000000E+00 0.  1.
</event>
<event>
 7    1  0.1210924E-005  0.9331483E+02  0.7561462E-02  0.1295017E+00
         -1   -1    0    0    0  501 -0.00000000000E+00  0.00000000000E+00  0.21164620381E+03  0.21164620381E+03  0.00000000000E+00 0.  1.
          1   -1    0    0  501    0  0.00000000000E+00 -0.00000000000E+00 -0.53493005012E+02  0.53493005012E+02  0.00000000000E+00 0. -1.
         23    2    1    2    0    0  0.93253651715E+01  0.28247500110E+02  0.15237700741E+03  0.19937646820E+03  0.12508932803E+03 0.  0.
          5    1    3    3  502    0  0.44876897634E+02  0.62383220455E+02  0.74464430827E+02  0.10708886961E+03  0.41800000000E+01 0.  1.
         -5    1    3    3    0  502 -0.35551532462E+02 -0.34135720345E+02  0.77912576584E+02  0.92287598592E+02  0.41800000000E+01 0.  1.
        -11    1    1    2    0    0  0.20728697920E+02 -0.20532063199E+02  0.15768861290E+02  0.33164763275E+02  0.00000000000E+00 0.  1.
         11    1    1    2    0    0 -0.30054063092E+02 -0.77154369109E+01 -0.99926699073E+01  0.32597977344E+02  0.00000000000E+00 0. -1.
</event>
<event>
 7    1  0.6833760E-006  0.7869483E+02  0.7561462E-02  0.1332797E+00
         -3   -1    0    0    0  501 -0.00000000000E+00  0.00000000000E+00  0.61818720950E+02  0.61818720950E+02  0.00000000000E+00 0.  1.
          3   -1    0    0  501    0  0.00000000000E+00 -0.00000000000E+00 -0.21668971279E+03  0.21668971279E+03  0.00000000000E+00 0. -1.
         23    2    1    2    0    0  0.35987961827E+02  0.51454971715E+01 -0.76954321298E+02  0.15129614478E+03  0.12508775448E+03 0.  0.
          5    1    3    3  502    0  0.17234872204E+02  0.44915549080E+02 -0.92603209077E+02  0.10443789590E+03  0.41800000000E+01 0. -1.
         -5    1    3    3    0  502  0.18753089622E+02 -0.39770051908E+02  0.15648887779E+02  0.46858248878E+02  0.41800000000E+01 0. -1.
        -11    1    1    2    0    0 -0.96539394392E+01 -0.28277972425E+02 -0.86168939727E+02  0.91202677838E+02  0.00000000000E+00 0. -1.
         11    1    1    2    0    0 -0.26334022388E+02  0.23132475254E+02  0.82522691844E+01  0.36009611122E+02  0.00000000000E+00 0.  1.
</event>
<event>
 7    1  0.6833760E-006  0.8202697E+02  0.7561462E-02  0.1323396E+00
         -2   -1    0    0    0  501 -0.00000000000E+00  0.00000000000E+00  0.12226875610E+03  0.12226875610E+03  0.00000000000E+00 0.  1.
          2   -1    0    0  501    0  0.00000000000E+00 -0.00000000000E+00 -0.59794137794E+02  0.59794137794E+02  0.00000000000E+00 0. -1.
         23    2    1    2    0    0 -0.64742372362E+01  0.13946000520E+02  0.44060465465E+02  0.13351205155E+03  0.12509091340E+03 0.  0.
          5    1    3    3  502    0  0.53584539320E+02  0.32219834011E+02  0.27629304471E+02  0.68485556312E+02  0.41800000000E+01 0.  1.
         -5    1    3    3    0  502 -0.60058776556E+02 -0.18273833491E+02  0.16431160994E+02  0.65026495242E+02  0.41800000000E+01 0.  1.
        -11    1    1    2    0    0 -0.63249327444E+01  0.97029110924E+01 -0.52630699436E+01  0.12722073853E+02  0.00000000000E+00 0. -1.
         11    1    1    2    0    0  0.12799169981E+02 -0.23648911612E+02  0.23677222789E+02  0.35828768492E+02  0.00000000000E+00 0.  1.
</event>
<event>
 7    1  0.6833760E-006  0.7407537E+02  0.7561462E-02  0.1346758E+00
         -1   -1    0    0    0  501 -0.00000000000E+00  0.00000000000E+00  0.52455812887E+02  0.52455812887E+02  0.00000000000E+00 0.  1.
          1   -1    0    0  501    0  0.00000000000E+00 -0.00000000000E+00 -0.27672977552E+03  0.27672977552E+03  0.00000000000E+00 0. -1.
         23    2    1    2    0    0 -0.27775521648E+02  0.19708539510E+02 -0.71541993032E+02  0.14805337687E+03  0.12506654030E+03 0.  0.
          5    1    3    3  502    0 -0.38873763678E+02  0.10088929686E+02  0.26845297149E+02  0.48488126214E+02  0.41800000000E+01 0.  1.
         -5    1    3    3    0  502  0.11098242030E+02  0.96196098238E+01 -0.98387290181E+02  0.99565250658E+02  0.41800000000E+01 0.  1.
        -11    1    1    2    0    0  0.52902054208E+02  0.97394591963E+01 -0.11555009496E+03  0.12745708631E+03  0.00000000000E+00 0. -1.
         11    1    1    2    0    0 -0.25126532560E+02 -0.29447998706E+02 -0.37181874642E+02  0.53675125228E+02  0.00000000000E+00 0.  1.
</event>
<event>
 7    1  0.6833760E-006  0.7491151E+02  0.7561462E-02  0.1344145E+00
         -2   -1    0    0    0  501 -0.00000000000E+00  0.00000000000E+00  0.38905239178E+02  0.38905239178E+02  0.00000000000E+00 0.  1.
          2   -1    0    0  501    0  0.00000000000E+00 -0.00000000000E+00 -0.32548199908E+03  0.32548199908E+03  0.00000000000E+00 0. -1.
         23    2    1    2    0    0  0.13511998970E+02  0.15258314514E+02 -0.13171682699E+03  0.18279310440E+03  0.12509438927E+03 0.  0.
          5    1    3    3  502    0 -0.39684767982E+01  0.40108521274E+02 -0.14412239957E+03  0.14971032278E+03  0.41800000000E+01 0. -1.
         -5    1    3    3    0  502  0.17480475768E+02 -0.24850206760E+02  0.12405572583E+02  0.33082781627E+02  0.41800000000E+01 0. -1.
        -11    1    1    2    0    0 -0.44996731783E+02 -0.39102008942E+01 -0.34973369293E+02  0.57123831295E+02  0.00000000000E+00 0.  1.
         11    1    1    2    0    0  0.31484732813E+02 -0.11348113620E+02 -0.11988656362E+03  0.12447030256E+03  0.00000000000E+00 0. -1.
</event>
<event>
 7    1  0.6833760E-006  0.1791724E+03  0.7561462E-02  0.1168606E+00
          2   -1    0    0  501    0  0.00000000000E+00  0.00000000000E+00  0.58728739789E+03  0.58728739789E+03  0.00000000000E+00 0. -1.
         -2   -1    0    0    0  501 -0.00000000000E+00 -0.00000000000E+00 -0.57239203147E+02  0.57239203147E+02  0.00000000000E+00 0.  1.
         23    2    1    2    0    0 -0.16319647754E+02  0.14572126575E+03  0.28761103312E+03  0.34622037314E+03  0.12508965669E+03 0.  0.
          5    1    3    3  502    0  0.50728769807E+02  0.90584465693E+02  0.13204921123E+03  0.16802803367E+03  0.41800000000E+01 0.  1.
         -5    1    3    3    0  502 -0.67048417561E+02  0.55136800052E+02  0.15556182189E+03  0.17819233947E+03  0.41800000000E+01 0.  1.
        -11    1    1    2    0    0  0.34520993238E+02 -0.14527889836E+03  0.23544175378E+03  0.27880185923E+03  0.00000000000E+00 0. -1.
         11    1    1    2    0    0 -0.18201345484E+02 -0.44236738199E+00  0.69954078343E+01  0.19504368667E+02  0.00000000000E+00 0.  1.
</event>
<event>
 7    1  0.6833760E-006  0.2263852E+03  0.7561462E-02  0.1129210E+00
          1   -1    0    0  501    0  0.00000000000E+00  0.00000000000E+00  0.79749168836E+02  0.79749168836E+02  0.00000000000E+00 0. -1.
         -1   -1    0    0    0  501 -0.00000000000E+00 -0.00000000000E+00 -0.68477290785E+03  0.68477290785E+03  0.00000000000E+00 0.  1.
         23    2    1    2    0    0 -0.16234164648E+03  0.13197302134E+03 -0.35251503818E+03  0.42858637620E+03  0.12509093165E+03 0.  0.
          5    1    3    3  502    0 -0.11562166276E+02 -0.19660200812E+02 -0.11092888086E+02  0.25704702897E+02  0.41800000000E+01 0. -1.
         -5    1    3    3    0  502 -0.15077948020E+03  0.15163322215E+03 -0.34142215009E+03  0.40288167330E+03  0.41800000000E+01 0. -1.
        -11    1    1    2    0    0  0.67607677504E+02 -0.88766644950E+02 -0.16876111051E+03  0.20231319219E+03  0.00000000000E+00 0.  1.
         11    1    1    2    0    0  0.94733968972E+02 -0.43206376393E+02 -0.83747590331E+02  0.13362250830E+03  0.00000000000E+00 0. -1.
</event>
<event>
 7    1  0.6833760E-006  0.1407321E+03  0.7561462E-02  0.1212347E+00
          1   -1    0    0  501    0  0.00000000000E+00  0.00000000000E+00  0.11731115958E+04  0.11731115958E+04  0.00000000000E+00 0. -1.
         -1   -1    0    0    0  501 -0.00000000000E+00 -0.00000000000E+00 -0.19424493899E+02  0.19424493899E+02  0.00000000000E+00 0.  1.
         23    2    1    2    0    0  0.98331953796E+02  0.30120601005E+02  0.55867892958E+03  0.58167307302E+03  0.12507994952E+03 0.  0.
          5    1    3    3  502    0 -0.57068269336E+01  0.41861674260E+02  0.69852042724E+02  0.81741959349E+02  0.41800000000E+01 0.  1.
         -5    1    3    3    0  502  0.10403878073E+03 -0.11741073255E+02  0.48882688686E+03  0.49993111367E+03  0.41800000000E+01 0.  1.
        -11    1    1    2    0    0 -0.11411952528E+03 -0.21132882628E+02  0.55376085914E+03  0.56579232400E+03  0.00000000000E+00 0. -1.
         11    1    1    2    0    0  0.15787571481E+02 -0.89877183775E+01  0.41247313186E+02  0.45070692695E+02  0.00000000000E+00 0.  1.
</event>
<event>
 7    1  0.6833760E-006  0.1182445E+03  0.7561462E-02  0.1246021E+00
          2   -1    0    0  501    0  0.00000000000E+00  0.00000000000E+00  0.12270874735E+03  0.12270874735E+03  0.00000000000E+00 0. -1.
         -2   -1    0    0    0  501 -0.00000000000E+00 -0.00000000000E+00 -0.15475958934E+03  0.15475958934E+03  0.00000000000E+00 0.  1.
         23    2    1    2    0    0 -0.21939158432E+02 -0.45466591136E+02 -0.85981593403E+02  0.15996366315E+03  0.12508797521E+03 0.  0.
          5    1    3    3  502    0 -0.64458991917E+01 -0.88276041076E+02 -0.49683609389E+02  0.10158810209E+03  0.41800000000E+01 0.  1.
         -5    1    3    3    0  502 -0.15493259240E+02  0.42809449940E+02 -0.36297984014E+02  0.58375561064E+02  0.41800000000E+01 0.  1.
        -11    1    1    2    0    0 -0.31360457531E+02  0.36483908256E+02  0.13387587420E+02  0.49937774831E+02  0.00000000000E+00 0. -1.
         11    1    1    2    0    0  0.53299615963E+02  0.89826828805E+01  0.40543163996E+02  0.67566898702E+02  0.00000000000E+00 0.  1.
</event>
<event>
 7    1  0.6833760E-006  0.1369994E+03  0.7561462E-02  0.1217424E+00
          2   -1    0    0  501    0  0.00000000000E+00  0.00000000000E+00  0.34623988646E+03  0.34623988646E+03  0.00000000000E+00 0. -1.
         -2   -1    0    0    0  501 -0.00000000000E+00 -0.00000000000E+00 -0.64102125338E+02  0.64102125338E+02  0.00000000000E+00 0.  1.
         23    2    1    2    0    0 -0.56837264651E+02  0.85815054648E+02  0.15382164394E+03  0.22339051201E+03  0.12509006536E+03 0.  0.
          5    1    3    3  502    0  0.27403043377E+02  0.36959502907E+02  0.63734098258E+01  0.46637156799E+02  0.41800000000E+01 0. -1.
         -5    1    3    3    0  502 -0.84240308029E+02  0.48855551741E+02  0.14744823412E+03  0.17675335521E+03  0.41800000000E+01 0. -1.
        -11    1    1    2    0    0 -0.95511192880E+01  0.99557522228E+01  0.24397447158E+00  0.13798565343E+02  0.00000000000E+00 0.  1.
         11    1    1    2    0    0  0.66388383939E+02 -0.95770806870E+02  0.12807214270E+03  0.17315293445E+03  0.00000000000E+00 0. -1.
</event>
<event>
 7    1  0.6833760E-006  0.1556536E+03  0.7561462E-02  0.1193693E+00
          1   -1    0    0  501    0  0.00000000000E+00  0.00000000000E+00  0.46005762078E+02  0.46005762078E+02  0.00000000000E+00 0. -1.
         -1   -1    0    0    0  501 -0.00000000000E+00 -0.00000000000E+00 -0.57645626052E+03  0.57645626052E+03  0.00000000000E+00 0.  1.
         23    2    1    2    0    0 -0.30474959556E+02  0.11577781995E+03 -0.31932339916E+03  0.36324668913E+03  0.12508995626E+03 0.  0.
          5    1    3    3  502    0 -0.77965603496E+02  0.79523599434E+02 -0.23171010378E+03  0.25711803280E+03  0.41800000000E+01 0.  1.
         -5    1    3    3    0  502  0.47490643940E+02  0.36254220517E+02 -0.87613295381E+02  0.10612865633E+03  0.41800000000E+01 0.  1.
        -11    1    1    2    0    0  0.10104359216E+02 -0.11892722456E+03 -0.20583109920E+03  0.23793323479E+03  0.00000000000E+00 0.  1.
         11    1    1    2    0    0  0.20370600340E+02  0.31494046110E+01 -0.52960000807E+01  0.21282098686E+02  0.00000000000E+00 0. -1.
</event>
<event>
 7    1  0.6833760E-006  0.9893983E+02  0.7561462E-02  0.1282541E+00
         -1   -1    0    0    0  501 -0.00000000000E+00  0.00000000000E+00  0.40661391951E+02  0.40661391951E+02  0.00000000000E+00 0.  1.
          1   -1    0    0  501    0  0.00000000000E+00 -0.00000000000E+00 -0.39471573204E+03  0.39471573204E+03  0.00000000000E+00 0. -1.
         23    2    1    2    0    0 -0.63246923837E+02  0.21268355773E+02 -0.20053468757E+03  0.24558892600E+03  0.12508894165E+03 0.  0.
          5    1    3    3  502    0 -0.62704855266E+02 -0.33660438427E+02 -0.16576199139E+03  0.18044232924E+03  0.41800000000E+01 0. -1.
         -5    1    3    3    0  502 -0.54206857088E+00  0.54928794200E+02 -0.34772696176E+02  0.65146596764E+02  0.41800000000E+01 0. -1.
        -11    1    1    2    0    0  0.54682031083E+02 -0.27206579771E+02 -0.16400249602E+03  0.17500611763E+03  0.00000000000E+00 0. -1.
         11    1    1    2    0    0  0.85648927537E+01  0.59382239980E+01  0.10482843499E+02  0.14782080366E+02  0.00000000000E+00 0.  1.
</event>
<event>
 7    1  0.6833760E-006  0.1223389E+03  0.7561462E-02  0.1239288E+00
          1   -1    0    0  501    0  0.00000000000E+00  0.00000000000E+00  0.45009604102E+03  0.45009604102E+03  0.00000000000E+00 0. -1.
         -1   -1    0    0    0  501 -0.00000000000E+00 -0.00000000000E+00 -0.38177566468E+02  0.38177566468E+02  0.00000000000E+00 0.  1.
         23    2    1    2    0    0  0.15412360124E+02 -0.67623298059E+02  0.18726830645E+03  0.23563868348E+03  0.12508284961E+03 0.  0.
          5    1    3    3  502    0  0.62392396422E+02 -0.83549421455E+01  0.57386121673E+02  0.85283383788E+02  0.41800000000E+01 0.  1.
         -5    1    3    3    0  502 -0.46980036298E+02 -0.59268355913E+02  0.12988218478E+03  0.15035529969E+03  0.41800000000E+01 0.  1.
        -11    1    1    2    0    0 -0.11587056806E+02 -0.17307362268E+02  0.13010238950E+02  0.24557503775E+02  0.00000000000E+00 0.  1.
         11    1    1    2    0    0 -0.38253033188E+01  0.84930660327E+02  0.21163992915E+03  0.22807742023E+03  0.00000000000E+00 0. -1.
</event>
<event>
 7    1  0.6833760E-006  0.9657695E+02  0.7561462E-02  0.1287663E+00
         -3   -1    0    0    0  501 -0.00000000000E+00  0.00000000000E+00  0.20775250362E+02  0.20775250362E+02  0.00000000000E+00 0.  1.
          3   -1    0    0  501    0  0.00000000000E+00 -0.00000000000E+00 -0.66365245995E+03  0.66365245995E+03  0.00000000000E+00 0. -1.
         23    2    1    2    0    0  0.90353992391E+01 -0.23228615300E+02 -0.25671628950E+03  0.28665794135E+03  0.12509322537E+03 0.  0.
          5    1    3    3  502    0  0.15970869090E+02 -0.60126257160E+02 -0.23490132855E+03  0.24303568054E+03  0.41800000000E+01 0.  1.
         -5    1    3    3    0  502 -0.69354698512E+01  0.36897641860E+02 -0.21814960949E+02  0.43622260809E+02  0.41800000000E+01 0.  1.
        -11    1    1    2    0    0  0.18506618250E+02  0.50793654845E+02 -0.17936806744E+03  0.18733764680E+03  0.00000000000E+00 0. -1.
         11    1    1    2    0    0 -0.27542017489E+02 -0.27565039545E+02 -0.20679285265E+03  0.21043212217E+03  0.00000000000E+00 0.  1.
</event>
<event>
 7    1  0.6833760E-006  0.1008671E+03  0.7561462E-02  0.1278483E+00
          1   -1    0    0  501    0  0.00000000000E+00  0.00000000000E+00  0.34360211870E+03  0.34360211870E+03  0.00000000000E+00 0. -1.
         -1   -1    0    0    0  501 -0.00000000000E+00 -0.00000000000E+00 -0.39946544788E+02  0.39946544788E+02  0.00000000000E+00 0.  1.
         23    2    1    2    0    0 -0.28998755933E+02 -0.37232228499E+02  0.15329820663E+03  0.20342120736E+03  0.12511067407E+03 0.  0.
          5    1    3    3  502    0 -0.44728502741E+02 -0.64773734358E+02  0.45587910860E+02  0.91060450453E+02  0.41800000000E+01 0.  1.
         -5    1    3    3    0  502  0.15729746807E+02  0.27541505859E+02  0.10771029577E+03  0.11236075691E+03  0.41800000000E+01 0.  1.
        -11    1    1    2    0    0  0.12228443607E+02 -0.24265429546E+02  0.16298901092E+02  0.31685960312E+02  0.00000000000E+00 0.  1.
         11    1    1    2    0    0  0.16770312327E+02  0.61497658045E+02  0.13405846620E+03  0.14844149581E+03  0.00000000000E+00 0. -1.
</event>
<event>
 7    1  0.6833760E-006  0.9801424E+02  0.7561462E-02  0.1284528E+00
         -2   -1    0    0    0  501 -0.00000000000E+00  0.00000000000E+00  0.76152458898E+02  0.76152458898E+02  0.00000000000E+00 0.  1.
          2   -1    0    0  501    0  0.00000000000E+00 -0.00000000000E+00 -0.18266914596E+03  0.18266914596E+03  0.00000000000E+00 0. -1.
         23    2    1    2    0    0 -0.95219735261E+01 -0.44263038103E+02 -0.52193327181E+02  0.14290653319E+03  0.12509296265E+03 0.  0.
          5    1    3    3  502    0  0.54890503699E+02 -0.16575351876E+02 -0.38060129148E+01  0.57616558562E+02  0.41800000000E+01 0.  1.
         -5    1    3    3    0  502 -0.64412477225E+02 -0.27687686227E+02 -0.48387314266E+02  0.85289974632E+02  0.41800000000E+01 0.  1.
        -11    1    1    2    0    0 -0.78045933018E+01 -0.92216117836E+01  0.19610618100E+02  0.23033153122E+02  0.00000000000E+00 0.  1.
         11    1    1    2    0    0  0.17326566828E+02  0.53484649887E+02 -0.73933977978E+02  0.92881918537E+02  0.00000000000E+00 0. -1.
</event>
<event>
 7    1  0.7775948E-006  0.1761151E+03  0.7561462E-02  0.1171617E+00
          1   -1    0    0  501    0  0.00000000000E+00  0.00000000000E+00  0.47598893308E+03  0.47598893308E+03  0.00000000000E+00 0. -1.
         -1   -1    0    0    0  501 -0.00000000000E+00 -0.00000000000E+00 -0.77207559769E+02  0.77207559769E+02  0.00000000000E+00 0.  1.
         23    2    1    2    0    0 -0.12923254400E+03 -0.79441247583E+02  0.14679886299E+03  0.24537656784E+03  0.12509113326E+03 0.  0.
          5    1    3    3  502    0 -0.89587714412E+02  0.51022396615E+01  0.11651335644E+03  0.14712180685E+03  0.41800000000E+01 0.  1.
         -5    1    3    3    0  502 -0.39644829589E+02 -0.84543487244E+02  0.30285506549E+02  0.98254760981E+02  0.41800000000E+01 0.  1.
        -11    1    1    2    0    0  0.36223483045E+02 -0.12332407722E+02  0.24362970497E+02  0.45362796823E+02  0.00000000000E+00 0.  1.
         11    1    1    2    0    0  0.93009060956E+02  0.91773655305E+02  0.22761953982E+03  0.26245712819E+03  0.00000000000E+00 0. -1.
</event>
<event>
 7    1  0.6833760E-006  0.1274020E+03  0.7561462E-02  0.1231362E+00
         -1   -1    0    0    0  501 -0.00000000000E+00  0.00000000000E+00  0.38880587898E+02  0.38880587898E+02  0.00000000000E+00 0.  1.
          1   -1    0    0  501    0  0.00000000000E+00 -0.00000000000E+00 -0.76572305202E+03  0.76572305202E+03  0.00000000000E+00 0. -1.
         23    2    1    2    0    0 -0.69635411075E+02 -0.10561494425E+02 -0.12014745063E+03  0.18719837823E+03  0.12508871762E+03 0.  0.
          5    1    3    3  502    0 -0.10274854241E+03 -0.21898364350E+02 -0.71599822864E+02  0.12720380640E+03  0.41800000000E+01 0.  1.
         -5    1    3    3    0  502  0.33113131334E+02  0.11336869925E+02 -0.48547627770E+02  0.59994571826E+02  0.41800000000E+01 0.  1.
        -11    1    1    2    0    0 -0.20086087024E+02  0.14235711199E+02 -0.14056707782E+03  0.14270672630E+03  0.00000000000E+00 0. -1.
         11    1    1    2    0    0  0.89721498099E+02 -0.36742167748E+01 -0.46612793567E+03  0.47469853539E+03  0.00000000000E+00 0.  1.
</event>
<event>
 7    1  0.6833760E-006  0.1356158E+03  0.7561462E-02  0.1219353E+00
         -3   -1    0    0    0  501 -0.00000000000E+00  0.00000000000E+00  0.10271553156E+03  0.10271553156E+03  0.00000000000E+00 0. -1.
          3   -1    0    0  501    0  0.00000000000E+00 -0.00000000000E+00 -0.21005527198E+03  0.21005527198E+03  0.00000000000E+00 0.  1.
         23    2    1    2    0    0  0.50992782200E+02  0.82968248357E+02 -0.19325145553E+02  0.15970413109E+03  0.12509178297E+03 0.  0.
          5    1    3    3  502    0  0.82227058728E+02  0.23339398817E+02  0.10002259931E+02  0.86159934586E+02  0.41800000000E+01 0.  1.
         -5    1    3    3    0  502 -0.31234276528E+02  0.59628849540E+02 -0.29327405484E+02  0.73544196508E+02  0.41800000000E+01 0.  1.
        -11    1    1    2    0    0  0.13998825762E+01 -0.61619121221E+02 -0.70930382306E+02  0.93968052578E+02  0.00000000000E+00 0.  1.
         11    1    1    2    0    0 -0.52392664776E+02 -0.21349127136E+02 -0.17084212560E+02  0.59098619870E+02  0.00000000000E+00 0. -1.
</event>
<event>
 7    1  0.6833760E-006  0.1109605E+03  0.7561462E-02  0.1258802E+00
          1   -1    0    0  501    0  0.00000000000E+00  0.00000000000E+00  0.28192885455E+03  0.28192885455E+03  0.00000000000E+00 0. -1.
         -1   -1    0    0    0  501 -0.00000000000E+00 -0.00000000000E+00 -0.77650908554E+02  0.77650908554E+02  0.00000000000E+00 0.  1.
         23    2    1    2    0    0  0.26796904320E+02 -0.56845727670E+02  0.15573614153E+02  0.14085021697E+03  0.12508691110E+03 0.  0.
          5    1    3    3  502    0 -0.23838964663E+02  0.10993121420E+02  0.44040786127E+02  0.51441308279E+02  0.41800000000E+01 0.  1.
         -5    1    3    3    0  502  0.50635868983E+02 -0.67838849090E+02 -0.28467171974E+02  0.89408908693E+02  0.41800000000E+01 0.  1.
        -11    1    1    2    0    0 -0.48334072363E+02 -0.15324722606E+01  0.84667173809E+02  0.97504160646E+02  0.00000000000E+00 0. -1.
         11    1    1    2    0    0  0.21537168043E+02  0.58378199931E+02  0.10403715803E+03  0.12122538548E+03  0.00000000000E+00 0.  1.
</event>
<event>
 7    1  0.6833760E-006  0.1270954E+03  0.7561462E-02  0.1231830E+00
          2   -1    0    0  501    0  0.00000000000E+00  0.00000000000E+00  0.19775627810E+03  0.19775627810E+03  0.00000000000E+00 0. -1.
         -2   -1    0    0    0  501 -0.00000000000E+00 -0.00000000000E+00 -0.15132255638E+03  0.15132255638E+03  0.00000000000E+00 0.  1.
         23    2    1    2    0    0 -0.64997887068E+02 -0.92123236882E+02 -0.51543583098E+02  0.17611006992E+03  0.12508636885E+03 0.  0.
          5    1    3    3  502    0 -0.34298337709E+01 -0.70955257389E+02 -0.78113662367E+02  0.10566753976E+03  0.41800000000E+01 0. -1.
         -5    1    3    3    0  502 -0.61568053297E+02 -0.21167979493E+02  0.26570079270E+02  0.70442530158E+02  0.41800000000E+01 0. -1.
        -11    1    1    2    0    0  0.43872122455E+02  0.32683760131E+02 -0.20100607699E+01  0.54745151834E+02  0.00000000000E+00 0.  1.
         11    1    1    2    0    0  0.21125764613E+02  0.59439476751E+02  0.99987365587E+02  0.11822361272E+03  0.00000000000E+00 0. -1.
</event>
<event>
 7    1  0.6833760E-006  0.8237889E+02  0.7561462E-02  0.1322433E+00
         -1   -1    0    0    0  501 -0.00000000000E+00  0.00000000000E+00  0.34564890905E+03  0.34564890905E+03  0.00000000000E+00 0.  1.
          1   -1    0    0  501    0  0.00000000000E+00 -0.00000000000E+00 -0.43412050293E+02  0.43412050293E+02  0.00000000000E+00 0. -1.
         23    2    1    2    0    0 -0.45657090721E+02  0.25708233907E+02  0.22646751056E+03  0.26399716550E+03  0.12514586221E+03 0.  0.
          5    1    3    3  502    0 -0.33252368573E+02  0.61819733513E+02  0.57842990976E+02  0.91053190347E+02  0.41800000000E+01 0.  1.
         -5    1    3    3    0  502 -0.12404722148E+02 -0.36111499606E+02  0.16862451959E+03  0.17294397515E+03  0.41800000000E+01 0.  1.
        -11    1    1    2    0    0  0.33347857414E+02 -0.77187228371E+01  0.91820972702E+02  0.97993618691E+02  0.00000000000E+00 0.  1.
         11    1    1    2    0    0  0.12309233307E+02 -0.17989511070E+02 -0.16051624511E+02  0.27070175149E+02  0.00000000000E+00 0. -1.
</event>
<event>
 7    1  0.6833760E-006  0.1149583E+03  0.7561462E-02  0.1251654E+00
         -2   -1    0    0    0  501 -0.00000000000E+00  0.00000000000E+00  0.13472548867E+03  0.13472548867E+03  0.00000000000E+00 0. -1.
          2   -1    0    0  501    0  0.00000000000E+00 -0.00000000000E+00 -0.18842113373E+03  0.18842113373E+03  0.00000000000E+00 0.  1.
         23    2    1    2    0    0 -0.82105981015E+02  0.49808658947E+02  0.35515636725E+02  0.16165977284E+03  0.12510086762E+03 0.  0.
          5    1    3    3  502    0 -0.47464118061E+02  0.20513839456E+02  0.81704476491E+02  0.96781992081E+02  0.41800000000E+01 0. -1.
         -5    1    3    3    0  502 -0.34641862954E+02  0.29294819491E+02 -0.46188839766E+02  0.64877780763E+02  0.41800000000E+01 0. -1.
        -11    1    1    2    0    0  0.73554544502E+01  0.25399463781E+02 -0.71150731560E+01  0.27383566907E+02  0.00000000000E+00 0.  1.
         11    1    1    2    0    0  0.74750526564E+02 -0.75208122728E+02 -0.82096208624E+02  0.13410328265E+03  0.00000000000E+00 0. -1.
</event>
<event>
 7    1  0.6833760E-006  0.1035274E+03  0.7561462E-02  0.1273048E+00
         -2   -1    0    0    0  501 -0.00000000000E+00  0.00000000000E+00  0.20325700313E+02  0.20325700313E+02  0.00000000000E+00 0.  1.
          2   -1    0    0  501    0  0.00000000000E+00 -0.00000000000E+00 -0.74892479375E+03  0.74892479375E+03  0.00000000000E+00 0. -1.
         23    2    1    2    0    0 -0.54170533946E+02 -0.22751678454E+02 -0.41640506996E+03  0.43874090673E+03  0.12509322654E+03 0.  0.
          5    1    3    3  502    0 -0.39685467986E+02  0.49345819923E+02 -0.16560064431E+03  0.17734427566E+03  0.41800000000E+01 0.  1.
         -5    1    3    3    0  502 -0.14485065959E+02 -0.72097498378E+02 -0.25080442565E+03  0.26139663107E+03  0.41800000000E+01 0.  1.
        -11    1    1    2    0    0  0.35530269337E+01  0.18834964376E+02 -0.59261853242E+01  0.20062391581E+02  0.00000000000E+00 0.  1.
         11    1    1    2    0    0  0.50617507012E+02  0.39167140781E+01 -0.30626783815E+03  0.31044719575E+03  0.00000000000E+00 0. -1.
</event>
<event>
 6    1  0.6833760E-006  0.1991772E+03  0.7561462E-02  0.1150435E+00
          1   -1    0    0  501    0  0.00000000000E+00  0.00000000000E+00  0.61915237423E+03  0.61915237423E+03  0.00000000000E+00 0. -1.
         -1   -1    0    0    0  501 -0.00000000000E+00 -0.00000000000E+00 -0.74430682952E+02  0.74430682952E+02  0.00000000000E+00 0.  1.
          5    1    1    2  502    0  0.13414612504E+03  0.13241888154E+03  0.18442761085E+03  0.26374411670E+03  0.41800000000E+01 0. -1.
         -5    1    1    2    0  502 -0.34561603521E+02 -0.84199521994E+02  0.15106186334E+03  0.17641208263E+03  0.41800000000E+01 0.  1.
        -11    1    1    2    0    0 -0.28664777729E+01 -0.16748497350E+02 -0.37538509324E+01  0.17401731383E+02  0.00000000000E+00 0. -1.
         11    1    1    2    0    0 -0.96718043748E+02 -0.31470862193E+02  0.21298606802E+03  0.23602512646E+03  0.00000000000E+00 0.  1.
</event>
<event>
 7    1  0.6833760E-006  0.2294054E+03  0.7561462E-02  0.1127059E+00
          2   -1    0    0  501    0  0.00000000000E+00  0.00000000000E+00  0.12728324038E+04  0.12728324038E+04  0.00000000000E+00 0. -1.
         -2   -1    0    0    0  501 -0.00000000000E+00 -0.00000000000E+00 -0.49607596327E+02  0.49607596327E+02  0.00000000000E+00 0.  1.
         23    2    1    2    0    0 -0.21819412048E+03 -0.49978615603E+02  0.53593480317E+03  0.59412149224E+03  0.12509075933E+03 0.  0.
          5    1    3    3  502    0 -0.15317171255E+03 -0.14199961577E+02  0.47072017852E+03  0.49523547056E+03  0.41800000000E+01 0.  1.
         -5    1    3    3    0  502 -0.65022407926E+02 -0.35778654026E+02  0.65214624651E+02  0.98886021685E+02  0.41800000000E+01 0.  1.
        -11    1    1    2    0    0  0.96175869212E+02  0.50381438888E+02  0.43099111545E+03  0.44445632946E+03  0.00000000000E+00 0.  1.
         11    1    1    2    0    0  0.12201825126E+03 -0.40282328496E+00  0.25629888881E+03  0.28386217838E+03  0.00000000000E+00 0. -1.
</event>
<event>
 7    1  0.6833760E-006  0.8685702E+02  0.7561462E-02  0.1310646E+00
         -2   -1    0    0    0  501 -0.00000000000E+00  0.00000000000E+00  0.73569644257E+02  0.73569644257E+02  0.00000000000E+00 0. -1.
          2   -1    0    0  501    0  0.00000000000E+00 -0.00000000000E+00 -0.17573284017E+03  0.17573284017E+03  0.00000000000E+00 0.  1.
         23    2    1    2    0    0  0.23764499570E+01 -0.19291223655E+02 -0.28387366717E+02  0.12973701350E+03  0.12509217105E+03 0.  0.
          5    1    3    3  502    0  0.57407981978E+02 -0.14054879714E+02  0.12868868543E+02  0.60632468333E+02  0.41800000000E+01 0.  1.
         -5    1    3    3    0  502 -0.55031532021E+02 -0.52363439410E+01 -0.41256235260E+02  0.69104545164E+02  0.41800000000E+01 0.  1.
        -11    1    1    2    0    0 -0.24511958761E+02  0.26158943685E+02 -0.86136740285E+02  0.93298791439E+02  0.00000000000E+00 0.  1.
         11    1    1    2    0    0  0.22135508804E+02 -0.68677200301E+01  0.12360911090E+02  0.26266679489E+02  0.00000000000E+00 0. -1.
</event>
<event>
 7    1  0.6833760E-006  0.1339184E+03  0.7561462E-02  0.1221755E+00
         -1   -1    0    0    0  501 -0.00000000000E+00  0.00000000000E+00  0.24117009633E+03  0.24117009633E+03  0.00000000000E+00 0.  1.
          1   -1    0    0  501    0  0.00000000000E+00 -0.00000000000E+00 -0.13473730966E+03  0.13473730966E+03  0.00000000000E+00 0. -1.
         23    2    1    2    0    0  0.53482193136E+02 -0.67126948402E+02  0.17457985274E+03  0.23127774817E+03  0.12507957320E+03 0.  0.
          5    1    3    3  502    0  0.29230453551E+00 -0.90171977838E+02  0.81917517215E+02  0.12189759249E+03  0.41800000000E+01 0. -1.
         -5    1    3    3    0  502  0.53189888600E+02  0.23045029437E+02  0.92662335522E+02  0.10938015568E+03  0.41800000000E+01 0. -1.
        -11    1    1    2    0    0  0.14879156358E+02 -0.87963606787E+01  0.61062243629E+01  0.18331700169E+02  0.00000000000E+00 0.  1.
         11    1    1    2    0    0 -0.68361349494E+02  0.75923309080E+02 -0.74253290434E+02  0.12629795765E+03  0.00000000000E+00 0. -1.
</event>
<event>
 7    1  0.6833760E-006  0.1100150E+03  0.7561462E-02  0.1260542E+00
          2   -1    0    0  501    0  0.00000000000E+00  0.00000000000E+00  0.11709656373E+03  0.11709656373E+03  0.00000000000E+00 0.  1.
         -2   -1    0    0    0  501 -0.00000000000E+00 -0.00000000000E+00 -0.12168201838E+03  0.12168201838E+03  0.00000000000E+00 0. -1.
         23    2    1    2    0    0 -0.96263599283E+01  0.45061867599E+02  0.12279809936E+02  0.13386087481E+03  0.12507878060E+03 0.  0.
          5    1    3    3  502    0  0.12997322929E+02  0.85566076112E+02  0.59782680275E+01  0.86854452235E+02  0.41800000000E+01 0.  1.
         -5    1    3    3    0  502 -0.22623682857E+02 -0.40504208513E+02  0.63015419081E+01  0.47006422579E+02  0.41800000000E+01 0.  1.
        -11    1    1    2    0    0  0.41789558835E+02 -0.22035033677E+02 -0.37486661125E+02  0.60308869158E+02  0.00000000000E+00 0. -1.
         11    1    1    2    0    0 -0.32163198906E+02 -0.23026833922E+02  0.20621396536E+02  0.44608838132E+02  0.00000000000E+00 0.  1.
</event>
<event>
 7    1  0.6833760E-006  0.8661559E+02  0.7561462E-02  0.1311261E+00
          1   -1    0    0  501    0  0.00000000000E+00  0.00000000000E+00  0.10719033050E+03  0.10719033050E+03  0.00000000000E+00 0. -1.
         -1   -1    0    0    0  501 -0.00000000000E+00 -0.00000000000E+00 -0.20021630028E+03  0.20021630028E+03  0.00000000000E+00 0.  1.
         23    2    1    2    0    0  0.32596557852E+02  0.38722225496E+02 -0.13837257922E+03  0.19327695947E+03  0.12508823306E+03 0.  0.
          5    1    3    3  502    0  0.27120950290E+02 -0.19650482796E+01  0.17118922311E+02  0.32402735386E+02  0.41800000000E+01 0. -1.
         -5    1    3    3    0  502  0.54756075618E+01  0.40687273775E+02 -0.15549150154E+03  0.16087422409E+03  0.41800000000E+01 0. -1.
        -11    1    1    2    0    0  0.14602896669E+02  0.22699565005E+02  0.81170552391E+01  0.28185127786E+02  0.00000000000E+00 0.  1.
         11    1    1    2    0    0 -0.47199454521E+02 -0.61421790501E+02  0.37229554207E+02  0.85944543526E+02  0.00000000000E+00 0. -1.
</event>
<event>
 7    1  0.6833760E-006  0.1132222E+03  0.7561462E-02  0.1254717E+00
         -2   -1    0    0    0  501 -0.00000000000E+00  0.00000000000E+00  0.44186306993E+02  0.44186306993E+02  0.00000000000E+00 0.  1.
          2   -1    0    0  501    0  0.00000000000E+00 -0.00000000000E+00 -0.46737590041E+03  0.46737590041E+03  0.00000000000E+00 0. -1.
         23    2    1    2    0    0 -0.82101119982E+02 -0.24567635946E+02 -0.13558611722E+03  0.19800096417E+03  0.11608886247E+03 0.  0.
          5    1    3    3  502    0 -0.24482777893E+02 -0.43883059550E+02 -0.12679880175E+03  0.13645709163E+03  0.41800000000E+01 0. -1.
         -5    1    3    3    0  502 -0.57618342089E+02  0.19315423604E+02 -0.87873154692E+01  0.61543872541E+02  0.41800000000E+01 0.  1.
        -11    1    1    2    0    0  0.70639298572E+02 -0.16440309867E+02 -0.23470142641E+03  0.24565209922E+03  0.00000000000E+00 0. -1.
         11    1    1    2    0    0  0.11461821410E+02  0.41007945813E+02 -0.52902049784E+02  0.67909144017E+02  0.00000000000E+00 0.  1.
</event>
<event>
 7    1  0.6833760E-006  0.9667787E+02  0.7561462E-02  0.1287441E+00
         -1   -1    0    0    0  501 -0.00000000000E+00  0.00000000000E+00  0.93161604363E+03  0.93161604363E+03  0.00000000000E+00 0.  1.
          1   -1    0    0  501    0  0.00000000000E+00 -0.00000000000E+00 -0.15967975775E+02  0.15967975775E+02  0.00000000000E+00 0. -1.
         23    2    1    2    0    0 -0.17291460904E+02 -0.20105208641E+02  0.71587685809E+03  0.72682028567E+03  0.12282034717E+03 0.  0.
          5    1    3    3  502    0 -0.57418406989E+02  0.60536958776E+01  0.57617033218E+03  0.57907101877E+03  0.41800000000E+01 0. -1.
         -5    1    3    3    0  502  0.40126946086E+02 -0.26158904519E+02  0.13970652591E+03  0.14774926690E+03  0.41800000000E+01 0.  1.
        -11    1    1    2    0    0  0.21761646595E+02 -0.30010804164E+02  0.46637040214E+02  0.59575424035E+02  0.00000000000E+00 0.  1.
         11    1    1    2    0    0 -0.44701856914E+01  0.50116012805E+02  0.15313416956E+03  0.16118830971E+03  0.00000000000E+00 0. -1.
</event>
<event>
 7    1  0.6833760E-006  0.1847677E+03  0.7561462E-02  0.1163267E+00
          1   -1    0    0  501    0  0.00000000000E+00  0.00000000000E+00  0.32884054841E+03  0.32884054841E+03  0.00000000000E+00 0. -1.
         -1   -1    0    0    0  501 -0.00000000000E+00 -0.00000000000E+00 -0.11813577430E+03  0.11813577430E+03  0.00000000000E+00 0.  1.
         23    2    1    2    0    0  0.15216417846E+03 -0.39091810836E+02  0.56216233001E+02  0.20852955703E+03  0.12506879876E+03 0.  0.
          5    1    3    3  502    0 -0.79514547929E+01 -0.35781205918E+02 -0.45849238722E+01  0.37175452347E+02  0.41800000000E+01 0. -1.
         -5    1    3    3    0  502  0.16011563325E+03 -0.33106049179E+01  0.60801156874E+02  0.17135410469E+03  0.41800000000E+01 0. -1.
        -11    1    1    2    0    0 -0.29623369465E+02 -0.20650903340E+02  0.55490286664E+01  0.36534853857E+02  0.00000000000E+00 0.  1.
         11    1    1    2    0    0 -0.12254080899E+03  0.59742714176E+02  0.14893951244E+03  0.20191191181E+03  0.00000000000E+00 0. -1.
</event>
<event>
 7    1  0.6833760E-006  0.9655594E+02  0.7561462E-02  0.1287710E+00
         -2   -1    0    0    0  501 -0.00000000000E+00  0.00000000000E+00  0.34796817925E+02  0.34796817925E+02  0.00000000000E+00 0.  1.
          2   -1    0    0  501    0  0.00000000000E+00 -0.00000000000E+00 -0.37694313885E+03  0.37694313885E+03  0.00000000000E+00 0. -1.
         23    2    1    2    0    0  0.81634313677E+01  0.17087146121E+02 -0.11766451276E+03  0.16881123108E+03  0.11955618764E+03 0.  0.
          5    1    3    3  502    0  0.11083250175E+02 -0.40764185211E+02 -0.58997704312E+01  0.42858335496E+02  0.41800000000E+01 0. -1.
         -5    1    3    3    0  502 -0.29198188075E+01  0.57851331332E+02 -0.11176474232E+03  0.12595289558E+03  0.41800000000E+01 0.  1.
        -11    1    1    2    0    0  0.22186100473E+02 -0.45746955654E+02 -0.13242477003E+03  0.14184966240E+03  0.00000000000E+00 0. -1.
         11    1    1    2    0    0 -0.30349531841E+02  0.28659809534E+02 -0.92057038136E+02  0.10107906329E+03  0.00000000000E+00 0.  1.
</event>
<event>
 7    1  0.6833760E-006  0.2323894E+03  0.7561462E-02  0.1124969E+00
          2   -1    0    0  501    0  0.00000000000E+00  0.00000000000E+00  0.32232307522E+03  0.32232307522E+03  0.00000000000E+00 0. -1.
         -2   -1    0    0    0  501 -0.00000000000E+00 -0.00000000000E+00 -0.18745928572E+03  0.18745928572E+03  0.00000000000E+00 0.  1.
         23    2    1    2    0    0 -0.14066210015E+03 -0.16796869899E+03  0.82318311488E+02  0.26537540921E+03  0.12509393729E+03 0.  0.
          5    1    3    3  502    0 -0.93606079793E+02 -0.16294407688E+03  0.10211175745E+03  0.21390921853E+03  0.41800000000E+01 0. -1.
         -5    1    3    3    0  502 -0.47056020361E+02 -0.50246221077E+01 -0.19793445960E+02  0.51466190674E+02  0.41800000000E+01 0. -1.
        -11    1    1    2    0    0  0.44993741612E+02  0.10644496157E+03  0.60393322849E+02  0.13039294487E+03  0.00000000000E+00 0. -1.
         11    1    1    2    0    0  0.95668358541E+02  0.61523737414E+02 -0.78478448283E+01  0.11401400686E+03  0.00000000000E+00 0.  1.
</event>
<event>
 7    1  0.6833760E-006  0.1100933E+03  0.7561462E-02  0.1260397E+00
          1   -1    0    0  501    0  0.00000000000E+00  0.00000000000E+00  0.71061771131E+03  0.71061771131E+03  0.00000000000E+00 0. -1.
         -1   -1    0    0    0  501 -0.00000000000E+00 -0.00000000000E+00 -0.18139103414E+02  0.18139103414E+02  0.00000000000E+00 0.  1.
         23    2    1    2    0    0 -0.23294776573E+02  0.23828275861E+02  0.39245130948E+03  0.41325234453E+03  0.12509610945E+03 0.  0.
          5    1    3    3  502    0  0.34636209033E+02 -0.28012658657E+02  0.21288122683E+03  0.21753221637E+03  0.41800000000E+01 0. -1.
         -5    1    3    3    0  502 -0.57930985605E+02  0.51840934517E+02  0.17957008265E+03  0.19572012816E+03  0.41800000000E+01 0. -1.
        -11    1    1    2    0    0  0.56182182479E+02 -0.30658923775E+02  0.19913352884E+03  0.20916636810E+03  0.00000000000E+00 0.  1.
         11    1    1    2    0    0 -0.32887405906E+02  0.68306479143E+01  0.10089376957E+03  0.10633810209E+03  0.00000000000E+00 0. -1.
</event>
<event>
 7    1  0.6833760E-006  0.1415724E+03  0.7561462E-02  0.1211229E+00
          2   -1    0    0  501    0  0.00000000000E+00  0.00000000000E+00  0.66797400964E+03  0.66797400964E+03  0.00000000000E+00 0. -1.
         -2   -1    0    0    0  501 -0.00000000000E+00 -0.00000000000E+00 -0.95875997927E+02  0.95875997927E+02  0.00000000000E+00 0.  1.
         23    2    1    2    0    0 -0.54778442338E+02  0.99919855088E+02 -0.39297783985E+01  0.16925182513E+03  0.12508429943E+03 0.  0.
          5    1    3    3  502    0 -0.62884738927E+02  0.10963718935E+03  0.32408085365E+02  0.13054715652E+03  0.41800000000E+01 0. -1.
         -5    1    3    3    0  502  0.81062965887E+01 -0.97173342574E+01 -0.36337863763E+02  0.38704668612E+02  0.41800000000E+01 0. -1.
        -11    1    1    2    0    0 -0.19988968415E+02 -0.19033436907E+01  0.42377619570E+02  0.46893967799E+02  0.00000000000E+00 0. -1.
         11    1    1    2    0    0  0.74767410753E+02 -0.98016511397E+02  0.53365017054E+03  0.54770421464E+03  0.00000000000E+00 0.  1.
</event>
<event>
 7    1  0.6833760E-006  0.9280423E+02  0.7561462E-02  0.1296200E+00
         -2   -1    0    0    0  501 -0.00000000000E+00  0.00000000000E+00  0.84913497074E+02  0.84913497074E+02  0.00000000000E+00 0. -1.
          2   -1    0    0  501    0  0.00000000000E+00 -0.00000000000E+00 -0.17304090631E+03  0.17304090631E+03  0.00000000000E+00 0.  1.
         23    2    1    2    0    0 -0.15422170704E+02  0.38542461374E+02 -0.87669732876E+02  0.15826762273E+03  0.12505716159E+03 0.  0.
          5    1    3    3  502    0 -0.27442168682E+02 -0.32394787363E+02  0.26200738610E+01  0.42741455956E+02  0.41800000000E+01 0. -1.
         -5    1    3    3    0  502  0.12019997978E+02  0.70937248737E+02 -0.90289806737E+02  0.11552616678E+03  0.41800000000E+01 0. -1.
        -11    1    1    2    0    0  0.28001783344E+02 -0.47704208528E+02 -0.32435149162E+02  0.64123554821E+02  0.00000000000E+00 0.  1.
         11    1    1    2    0    0 -0.12579612640E+02  0.91617471537E+01  0.31977472798E+02  0.35563225833E+02  0.00000000000E+00 0. -1.
</event>
<event>
 7    1  0.6833760E-006  0.1125158E+03  0.7561462E-02  0.1255981E+00
          1   -1    0    0  501    0  0.00000000000E+00  0.00000000000E+00  0.10937786999E+03  0.10937786999E+03  0.00000000000E+00 0. -1.
         -1   -1    0    0    0  501 -0.00000000000E+00 -0.00000000000E+00 -0.15894325904E+03  0.15894325904E+03  0.00000000000E+00 0.  1.
         23    2    1    2    0    0 -0.17367739112E+02 -0.44685825975E+02 -0.85325650591E+02  0.15884410837E+03  0.12511004241E+03 0.  0.
          5    1    3    3  502    0  0.14750582514E+02  0.33696981930E+02  0.20482917016E+01  0.37077407873E+02  0.41800000000E+01 0.  1.
         -5    1    3    3    0  502 -0.32118321625E+02 -0.78382807906E+02 -0.87373942293E+02  0.12176670050E+03  0.41800000000E+01 0.  1.
        -11    1    1    2    0    0  0.36194779298E+02 -0.16064029768E+02  0.98848973044E+01  0.40814535347E+02  0.00000000000E+00 0.  1.
         11    1    1    2    0    0 -0.18827040187E+02  0.60749855743E+02  0.25875364230E+02  0.68662485311E+02  0.00000000000E+00 0. -1.
</event>
<event>
 7    1  0.6833760E-006  0.1418104E+03  0.7561462E-02  0.1210913E+00
         -2   -1    0    0    0  501 -0.00000000000E+00  0.00000000000E+00  0.88229129497E+02  0.88229129497E+02  0.00000000000E+00 0.  1.
          2   -1    0    0  501    0  0.00000000000E+00 -0.00000000000E+00 -0.35799678615E+03  0.35799678615E+03  0.00000000000E+00 0. -1.
         23    2    1    2    0    0  0.11336080292E+03  0.37755935940E+02 -0.50326096059E+02  0.18015968752E+03  0.12509442324E+03 0.  0.
          5    1    3    3  502    0  0.10419054481E+03 -0.61431605362E+01 -0.75198178861E+02  0.12870760099E+03  0.41800000000E+01 0. -1.
         -5    1    3    3    0  502  0.91702581142E+01  0.43899096476E+02  0.24872082802E+02  0.51452086529E+02  0.41800000000E+01 0. -1.
        -11    1    1    2    0    0 -0.76754125425E+02 -0.54232691026E+02 -0.88434784366E+02  0.12904685828E+03  0.00000000000E+00 0.  1.
         11    1    1    2    0    0 -0.36606677500E+02  0.16476755086E+02 -0.13100677623E+03  0.13701936985E+03  0.00000000000E+00 0. -1.
</event>
<event>
 7    1  0.6833760E-006  0.8625888E+02  0.7561462E-02  0.1312173E+00
         -3   -1    0    0    0  501 -0.00000000000E+00  0.00000000000E+00  0.24260568352E+03  0.24260568352E+03  0.00000000000E+00 0.  1.
          3   -1    0    0  501    0  0.00000000000E+00 -0.00000000000E+00 -0.68523634118E+02  0.68523634118E+02  0.00000000000E+00 0. -1.
         23    2    1    2    0    0  0.37757188529E+01 -0.13108018093E+02  0.16091165261E+03  0.20426843905E+03  0.12508780538E+03 0.  0.
          5    1    3    3  502    0 -0.89599111704E+01  0.54966296120E+02  0.81744669402E+02  0.99001197432E+02  0.41800000000E+01 0.  1.
         -5    1    3    3    0  502  0.12735630023E+02 -0.68074314213E+02  0.79166983205E+02  0.10526724162E+03  0.41800000000E+01 0.  1.
        -11    1    1    2    0    0  0.79037083393E+01  0.27580463775E+02  0.54471753038E+02  0.61565594829E+02  0.00000000000E+00 0.  1.
         11    1    1    2    0    0 -0.11679427192E+02 -0.14472445683E+02 -0.41301356243E+02  0.45295283762E+02  0.00000000000E+00 0. -1.
</event>
<event>
 7    1  0.6833760E-006  0.2018208E+03  0.7561462E-02  0.1148212E+00
          2   -1    0    0  501    0  0.00000000000E+00  0.00000000000E+00  0.18645578139E+03  0.18645578139E+03  0.00000000000E+00 0. -1.
         -2   -1    0    0    0  501 -0.00000000000E+00 -0.00000000000E+00 -0.22831754424E+03  0.22831754424E+03  0.00000000000E+00 0.  1.
         23    2    1    2    0    0  0.16734793826E+03  0.29511524050E+02 -0.63339301978E+02  0.22030720909E+03  0.12508851550E+03 0.  0.
          5    1    3    3  502    0  0.58753140816E+02 -0.49238063243E+02 -0.21366797280E+02  0.79688963186E+02  0.41800000000E+01 0. -1.
         -5    1    3    3    0  502  0.10859479744E+03  0.78749587293E+02 -0.41972504698E+02  0.14061824590E+03  0.41800000000E+01 0. -1.
        -11    1    1    2    0    0 -0.69817226721E+02 -0.58314911581E+02  0.17876955982E+02  0.92707387057E+02  0.00000000000E+00 0.  1.
         11    1    1    2    0    0 -0.97530711537E+02  0.28803387531E+02  0.36005831490E+01  0.10175872948E+03  0.00000000000E+00 0. -1.
</event>
<event>
 7    1  0.6833760E-006  0.7152030E+02  0.7561462E-02  0.1354998E+00
          1   -1    0    0  501    0  0.00000000000E+00  0.00000000000E+00  0.14976355865E+03  0.14976355865E+03  0.00000000000E+00 0. -1.
         -1   -1    0    0    0  501 -0.00000000000E+00 -0.00000000000E+00 -0.10383084406E+03  0.10383084406E+03  0.00000000000E+00 0.  1.
         23    2    1    2    0    0 -0.25621213585E+02 -0.11492288590E+02 -0.31222055044E+02  0.13194850319E+03  0.12508825481E+03 0.  0.
          5    1    3    3  502    0 -0.54073682712E+02  0.72559127432E+01  0.29522540062E+02  0.62174465848E+02  0.41800000000E+01 0.  1.
         -5    1    3    3    0  502  0.28452469127E+02 -0.18748201333E+02 -0.60744595106E+02  0.69774037344E+02  0.41800000000E+01 0.  1.
        -11    1    1    2    0    0  0.22190050425E+02  0.28795095333E+02 -0.58205991507E+01  0.36816235924E+02  0.00000000000E+00 0.  1.
         11    1    1    2    0    0  0.34311631605E+01 -0.17302806743E+02  0.82975368782E+02  0.84829663599E+02  0.00000000000E+00 0. -1.
</event>
<event>
 7    1  0.6833760E-006  0.2022519E+03  0.7561462E-02  0.1147853E+00
         -2   -1    0    0    0  501 -0.00000000000E+00  0.00000000000E+00  0.60503067546E+02  0.60503067546E+02  0.00000000000E+00 0.  1.
          2   -1    0    0  501    0  0.00000000000E+00 -0.00000000000E+00 -0.78291871515E+03  0.78291871515E+03  0.00000000000E+00 0. -1.
         23    2    1    2    0    0  0.17767242892E+03  0.62122485688E+02 -0.34990141842E+03  0.41654029621E+03  0.12509244791E+03 0.  0.
          5    1    3    3  502    0  0.17938856996E+03  0.77745041666E+02 -0.26083557152E+03  0.32600186857E+03  0.41800000000E+01 0. -1.
         -5    1    3    3    0  502 -0.17161410455E+01 -0.15622555978E+02 -0.89065846903E+02  0.90538427642E+02  0.41800000000E+01 0. -1.
        -11    1    1    2    0    0 -0.10115466997E+03 -0.13563590552E+02 -0.27705582505E+03  0.29525610653E+03  0.00000000000E+00 0. -1.
         11    1    1    2    0    0 -0.76517758948E+02 -0.48558895136E+02 -0.95458404121E+02  0.13162537996E+03  0.00000000000E+00 0.  1.
</event>
<event>
 7    1  0.6833760E-006  0.8337559E+02  0.7561462E-02  0.1319736E+00
          1   -1    0    0  501    0  0.00000000000E+00  0.00000000000E+00  0.15064564480E+03  0.15064564480E+03  0.00000000000E+00 0. -1.
         -1   -1    0    0    0  501 -0.00000000000E+00 -0.00000000000E+00 -0.83137658951E+02  0.83137658951E+02  0.00000000000E+00 0.  1.
         23    2    1    2    0    0  0.68071061509E+01  0.15550148929E+02  0.13188256098E+02  0.12692273966E+03  0.12508919984E+03 0.  0.
          5    1    3    3  502    0 -0.23936288261E+02 -0.18159939288E+02  0.56338860954E+02  0.63986474698E+02  0.41800000000E+01 0.  1.
         -5    1    3    3    0  502  0.30743394411E+02  0.33710088217E+02 -0.43150604856E+02  0.62936264959E+02  0.41800000000E+01 0.  1.
        -11    1    1    2    0    0 -0.48015541656E+02 -0.95979452383E+01  0.19958847404E+02  0.52876917299E+02  0.00000000000E+00 0.  1.
         11    1    1    2    0    0  0.41208435505E+02 -0.59522036911E+01  0.34360882347E+02  0.53983646795E+02  0.00000000000E+00 0. -1.
</event>
<event>
 7    1  0.6833760E-006  0.1753661E+03  0.7561462E-02  0.1172365E+00
         -4   -1    0    0    0  501 -0.00000000000E+00  0.00000000000E+00  0.15623181050E+03  0.15623181050E+03  0.00000000000E+00 0.  1.
          4   -1    0    0  501    0  0.00000000000E+00 -0.00000000000E+00 -0.23246764131E+03  0.23246764131E+03  0.00000000000E+00 0. -1.
         23    2    1    2    0    0 -0.14283910286E+03  0.59253048128E+02 -0.14560417771E+02  0.19942953138E+03  0.12508476807E+03 0.  0.
          5    1    3    3  502    0 -0.11775344238E+03  0.95592844961E+02  0.29162797668E+01  0.15175586410E+03  0.41800000000E+01 0. -1.
         -5    1    3    3    0  502 -0.25085660480E+02 -0.36339796834E+02 -0.17476697538E+02  0.47673667286E+02  0.41800000000E+01 0. -1.
        -11    1    1    2    0    0  0.79661934865E+02 -0.33904158291E+02  0.13757175962E+02  0.87662852487E+02  0.00000000000E+00 0.  1.
         11    1    1    2    0    0  0.63177167994E+02 -0.25348889837E+02 -0.75432588997E+02  0.10160706794E+03  0.00000000000E+00 0. -1.
</event>
<event>
 7    1  0.6833760E-006  0.2608893E+03  0.7561462E-02  0.1106610E+00
          2   -1    0    0  501    0  0.00000000000E+00  0.00000000000E+00  0.73494932455E+03  0.73494932455E+03  0.00000000000E+00 0.  1.
         -2   -1    0    0    0  501 -0.00000000000E+00 -0.00000000000E+00 -0.11237252875E+03  0.11237252875E+03  0.00000000000E+00 0. -1.
         23    2    1    2    0    0 -0.23302387829E+03 -0.11597296346E+03  0.23682304289E+03  0.37346913242E+03  0.12507670894E+03 0.  0.
          5    1    3    3  502    0 -0.22574081130E+03 -0.11248953585E+03  0.25149928871E+03  0.35620524166E+03  0.41800000000E+01 0. -1.
         -5    1    3    3    0  502 -0.72830669848E+01 -0.34834276072E+01 -0.14676245823E+02  0.17263890757E+02  0.41800000000E+01 0. -1.
        -11    1    1    2    0    0  0.22470457774E+02  0.14157136390E+02  0.50294408097E+01  0.27030376582E+02  0.00000000000E+00 0. -1.
         11    1    1    2    0    0  0.21055342051E+03  0.10181582707E+03  0.38072431211E+03  0.44682234430E+03  0.00000000000E+00 0.  1.
</event>
<event>
 7    1  0.6833760E-006  0.1547163E+03  0.7561462E-02  0.1194794E+00
          2   -1    0    0  501    0  0.00000000000E+00  0.00000000000E+00  0.35641668175E+03  0.35641668175E+03  0.00000000000E+00 0. -1.
         -2   -1    0    0    0  501 -0.00000000000E+00 -0.00000000000E+00 -0.89425967018E+02  0.89425967018E+02  0.00000000000E+00 0.  1.
         23    2    1    2    0    0  0.14888430020E+01 -0.11977604419E+03  0.48715570469E+02  0.17992840052E+03  0.12510997200E+03 0.  0.
          5    1    3    3  502    0 -0.91561254439E+01 -0.14372029502E+03  0.52046309113E+02  0.15318501403E+03  0.41800000000E+01 0. -1.
         -5    1    3    3    0  502  0.10644968446E+02  0.23944250828E+02 -0.33307386443E+01  0.26743386488E+02  0.41800000000E+01 0. -1.
        -11    1    1    2    0    0 -0.34028992926E+02  0.83084369981E+02  0.83952317966E+02  0.12291857706E+03  0.00000000000E+00 0.  1.
         11    1    1    2    0    0  0.32540149924E+02  0.36691674206E+02  0.13432282630E+03  0.14299567119E+03  0.00000000000E+00 0. -1.
</event>
<event>
 7    1  0.6833760E-006  0.9790473E+02  0.7561462E-02  0.1284765E+00
          2   -1    0    0  501    0  0.00000000000E+00  0.00000000000E+00  0.12255838132E+03  0.12255838132E+03  0.00000000000E+00 0. -1.
         -2   -1    0    0    0  501 -0.00000000000E+00 -0.00000000000E+00 -0.98966729583E+02  0.98966729583E+02  0.00000000000E+00 0.  1.
         23    2    1    2    0    0 -0.10192453921E+02 -0.88564232245E+01  0.22731583175E+01  0.12582601511E+03  0.12507876111E+03 0.  0.
          5    1    3    3  502    0  0.36878252834E+02  0.34879925929E+02 -0.23974101969E+02  0.56292492662E+02  0.41800000000E+01 0.  1.
         -5    1    3    3    0  502 -0.47070706755E+02 -0.43736349153E+02  0.26247260287E+02  0.69533522449E+02  0.41800000000E+01 0.  1.
        -11    1    1    2    0    0 -0.62859806252E+01 -0.33998139674E+02  0.33557950421E+02  0.48182186441E+02  0.00000000000E+00 0. -1.
         11    1    1    2    0    0  0.16478434546E+02  0.42854562898E+02 -0.12239457004E+02  0.47516909349E+02  0.00000000000E+00 0.  1.
</event>
<event>
 7    1  0.6833760E-006  0.1274481E+03  0.7561462E-02  0.1231292E+00
          2   -1    0    0  501    0  0.00000000000E+00  0.00000000000E+00  0.58765608915E+03  0.58765608915E+03  0.00000000000E+00 0. -1.
         -2   -1    0    0    0  501 -0.00000000000E+00 -0.00000000000E+00 -0.74194196489E+02  0.74194196489E+02  0.00000000000E+00 0.  1.
         23    2    1    2    0    0 -0.55258297630E+02  0.52672062518E+02  0.12280992191E+02  0.14705944424E+03  0.12509129364E+03 0.  0.
          5    1    3    3  502    0 -0.87164978616E+02  0.57971096537E+02 -0.13305950531E+02  0.10560730207E+03  0.41800000000E+01 0. -1.
         -5    1    3    3    0  502  0.31906680985E+02 -0.52990340192E+01  0.25586942722E+02  0.41452142175E+02  0.41800000000E+01 0. -1.
        -11    1    1    2    0    0 -0.22898231135E+02 -0.26665577780E+02  0.14178154994E+03  0.14607323482E+03  0.00000000000E+00 0.  1.
         11    1    1    2    0    0  0.78156528766E+02 -0.26006484738E+02  0.35939935053E+03  0.36871760658E+03  0.00000000000E+00 0. -1.
</event>
<event>
 7    1  0.6833760E-006  0.1017252E+03  0.7561462E-02  0.1276709E+00
          2   -1    0    0  501    0  0.00000000000E+00  0.00000000000E+00  0.37844604136E+03  0.37844604136E+03  0.00000000000E+00 0. -1.
         -2   -1    0    0    0  501 -0.00000000000E+00 -0.00000000000E+00 -0.47686041544E+02  0.47686041544E+02  0.00000000000E+00 0.  1.
         23    2    1    2    0    0 -0.49030108018E+02  0.46898214917E+02  0.11981097299E+03  0.18602563795E+03  0.12508986639E+03 0.  0.
          5    1    3    3  502    0  0.20914474542E+02  0.51743858357E+02  0.11817686758E+02  0.57201155961E+02  0.41800000000E+01 0. -1.
         -5    1    3    3    0  502 -0.69944582560E+02 -0.48456434400E+01  0.10799328623E+03  0.12882448199E+03  0.41800000000E+01 0. -1.
        -11    1    1    2    0    0  0.40830112686E+02 -0.13725485321E+02  0.19945585362E+03  0.20405421974E+03  0.00000000000E+00 0. -1.
         11    1    1    2    0    0  0.81999953313E+01 -0.33172729596E+02  0.11493173205E+02  0.36052225210E+02  0.00000000000E+00 0.  1.
</event>
<event>
 7    1  0.6833760E-006  0.8908666E+02  0.7561462E-02  0.1305079E+00
          4   -1    0    0  501    0  0.00000000000E+00  0.00000000000E+00  0.26213921515E+02  0.26213921515E+02  0.00000000000E+00 0. -1.
         -4   -1    0    0    0  501 -0.00000000000E+00 -0.00000000000E+00 -0.52426363485E+03  0.52426363485E+03  0.00000000000E+00 0.  1.
         23    2    1    2    0    0  0.23624289681E+02 -0.35469959195E+02 -0.36383092085E+03  0.38708749762E+03  0.12509023454E+03 0.  0.
          5    1    3    3  502    0  0.51223774851E+02 -0.38739772318E+02 -0.83863088343E+02  0.10571251135E+03  0.41800000000E+01 0.  1.
         -5    1    3    3    0  502 -0.27599485170E+02  0.32698131232E+01 -0.27996783251E+03  0.28137498627E+03  0.41800000000E+01 0.  1.
        -11    1    1    2    0    0  0.12432965071E+02  0.46395734251E+02 -0.42126450729E+02  0.63888814578E+02  0.00000000000E+00 0. -1.
         11    1    1    2    0    0 -0.36057254752E+02 -0.10925775057E+02 -0.92092341752E+02  0.99501244164E+02  0.00000000000E+00 0.  1.
</event>
<event>
 7    1  0.6833760E-006  0.1482597E+03  0.7561462E-02  0.1202628E+00
         -3   -1    0    0    0  501 -0.00000000000E+00  0.00000000000E+00  0.82291765374E+03  0.82291765374E+03  0.00000000000E+00 0.  1.
          3   -1    0    0  501    0  0.00000000000E+00 -0.00000000000E+00 -0.27344349819E+02  0.27344349819E+02  0.00000000000E+00 0. -1.
         23    2    1    2    0    0 -0.67215684271E+01 -0.10261129144E+03  0.39747635689E+03  0.42919612868E+03  0.12509039122E+03 0.  0.
          5    1    3    3  502    0 -0.47872017317E+02 -0.10987600698E+03  0.29662580674E+03  0.31995125969E+03  0.41800000000E+01 0.  1.
         -5    1    3    3    0  502  0.41150448890E+02  0.72647155408E+01  0.10085055015E+03  0.10924486899E+03  0.41800000000E+01 0.  1.
        -11    1    1    2    0    0  0.44317055559E+02  0.32200700008E+02  0.12351736471E+03  0.13512004248E+03  0.00000000000E+00 0. -1.
         11    1    1    2    0    0 -0.37595487132E+02  0.70410591435E+02  0.27457958232E+03  0.28594583240E+03  0.00000000000E+00 0.  1.
</event>
<event>
 7    1  0.6833760E-006  0.1311617E+03  0.7561462E-02  0.1225742E+00
          1   -1    0    0  501    0  0.00000000000E+00  0.00000000000E+00  0.45477851851E+03  0.45477851851E+03  0.00000000000E+00 0. -1.
         -1   -1    0    0    0  501 -0.00000000000E+00 -0.00000000000E+00 -0.45880376326E+02  0.45880376326E+02  0.00000000000E+00 0.  1.
         23    2    1    2    0    0  0.26429371180E+02  0.75525365040E+02  0.13458211140E+03  0.20040579465E+03  0.12509014908E+03 0.  0.
          5    1    3    3  502    0 -0.40239058597E+02 -0.51785965365E+01  0.56791388202E+02  0.69919481354E+02  0.41800000000E+01 0. -1.
         -5    1    3    3    0  502  0.66668429777E+02  0.80703961577E+02  0.77790723193E+02  0.13048631330E+03  0.41800000000E+01 0. -1.
        -11    1    1    2    0    0 -0.50155564738E+02 -0.15921370551E+02  0.16833175827E+03  0.17636510867E+03  0.00000000000E+00 0. -1.
         11    1    1    2    0    0  0.23726193559E+02 -0.59603994490E+02  0.10598427252E+03  0.12388799151E+03  0.00000000000E+00 0.  1.
</event>
<event>
 7    1  0.6833760E-006  0.9526733E+02  0.7561462E-02  0.1290575E+00
          3   -1    0    0  501    0  0.00000000000E+00  0.00000000000E+00  0.15299133052E+03  0.15299133052E+03  0.00000000000E+00 0. -1.
         -3   -1    0    0    0  501 -0.00000000000E+00 -0.00000000000E+00 -0.14464878861E+03  0.14464878861E+03  0.00000000000E+00 0.  1.
         23    2    1    2    0    0 -0.18224230124E+02  0.75334952720E+02 -0.62391338702E+02  0.15983704124E+03  0.12509085875E+03 0.  0.
          5    1    3    3  502    0 -0.16813499758E+01  0.37287654952E+02 -0.98033314180E+02  0.10498189958E+03  0.41800000000E+01 0.  1.
         -5    1    3    3    0  502 -0.16542880148E+02  0.38047297768E+02  0.35641975478E+02  0.54855141664E+02  0.41800000000E+01 0.  1.
        -11    1    1    2    0    0  0.42465533549E+02 -0.75964335301E+02  0.33259259759E+02  0.93166947664E+02  0.00000000000E+00 0.  1.
         11    1    1    2    0    0 -0.24241303425E+02  0.62938258062E+00  0.37474620844E+02  0.44636130226E+02  0.00000000000E+00 0. -1.
</event>
<event>
 7    1  0.6833760E-006  0.9841984E+02  0.7561462E-02  0.1283654E+00
         -1   -1    0    0    0  501 -0.00000000000E+00  0.00000000000E+00  0.33896548282E+02  0.33896548282E+02  0.00000000000E+00 0.  1.
          1   -1    0    0  501    0  0.00000000000E+00 -0.00000000000E+00 -0.37605318035E+03  0.37605318035E+03  0.00000000000E+00 0. -1.
         23    2    1    2    0    0 -0.25031334542E+02  0.69392987172E+01 -0.16620663900E+03  0.20963523572E+03  0.12509022196E+03 0.  0.
          5    1    3    3  502    0 -0.32219086397E+02 -0.50309310233E+02 -0.12501430508E+03  0.13861870400E+03  0.41800000000E+01 0. -1.
         -5    1    3    3    0  502  0.71877518550E+01  0.57248608950E+02 -0.41192333928E+02  0.71016531723E+02  0.41800000000E+01 0. -1.
        -11    1    1    2    0    0 -0.19246716621E+02  0.19608173092E+02 -0.15034670159E+02  0.31320246798E+02  0.00000000000E+00 0.  1.
         11    1    1    2    0    0  0.44278051162E+02 -0.26547471809E+02 -0.16091532291E+03  0.16899424612E+03  0.00000000000E+00 0. -1.
</event>
<event>
 7    1  0.6833760E-006  0.1164387E+03  0.7561462E-02  0.1249090E+00
         -2   -1    0    0    0  501 -0.00000000000E+00  0.00000000000E+00  0.27899072561E+03  0.27899072561E+03  0.00000000000E+00 0.  1.
          2   -1    0    0  501    0  0.00000000000E+00 -0.00000000000E+00 -0.82022860856E+02  0.82022860856E+02  0.00000000000E+00 0. -1.
         23    2    1    2    0    0 -0.26943779366E+02  0.10150089363E+03  0.11820477826E+03  0.20161446251E+03  0.12509046021E+03 0.  0.
          5    1    3    3  502    0 -0.12683184326E+02  0.91453470108E+02  0.11180357531E+02  0.93097116787E+02  0.41800000000E+01 0. -1.
         -5    1    3    3    0  502 -0.14260595040E+02  0.10047423522E+02  0.10702442073E+03  0.10851734573E+03  0.41800000000E+01 0. -1.
        -11    1    1    2    0    0  0.47382410030E+02 -0.61919671993E+02  0.11630994199E+02  0.78831583683E+02  0.00000000000E+00 0. -1.
         11    1    1    2    0    0 -0.20438630664E+02 -0.39581221637E+02  0.67132092297E+02  0.80567540274E+02  0.00000000000E+00 0.  1.
</event>
<event>
 7    1  0.6833760E-006  0.1303127E+03  0.7561462E-02  0.1226993E+00
         -2   -1    0    0    0  501 -0.00000000000E+00  0.00000000000E+00  0.27828962629E+03  0.27828962629E+03  0.00000000000E+00 0.  1.
          2   -1    0    0  501    0  0.00000000000E+00 -0.00000000000E+00 -0.79038052349E+02  0.79038052349E+02  0.00000000000E+00 0. -1.
         23    2    1    2    0    0 -0.86409969286E+02  0.27597002447E+02  0.93793490594E+02  0.18075903218E+03  0.12509329118E+03 0.  0.
          5    1    3    3  502    0 -0.10362612363E+03 -0.17053957204E+02  0.52860933423E+02  0.11764761637E+03  0.41800000000E+01 0. -1.
         -5    1    3    3    0  502  0.17216154348E+02  0.44650959650E+02  0.40932557171E+02  0.63111415804E+02  0.41800000000E+01 0. -1.
        -11    1    1    2    0    0  0.45895237195E+02 -0.44183150184E+02  0.11527105111E+03  0.13170398164E+03  0.00000000000E+00 0.  1.
         11    1    1    2    0    0  0.40514732091E+02  0.16586147737E+02 -0.98129677599E+01  0.44864664820E+02  0.00000000000E+00 0. -1.
</event>
<event>
 6    1  0.6833760E-006  0.9343571E+02  0.7561462E-02  0.1294739E+00
         -1   -1    0    0    0  501 -0.00000000000E+00  0.00000000000E+00  0.24705632499E+03  0.24705632499E+03  0.00000000000E+00 0.  1.
          1   -1    0    0  501    0  0.00000000000E+00 -0.00000000000E+00 -0.74652595447E+02  0.74652595447E+02  0.00000000000E+00 0. -1.
          5    1    1    2  502    0  0.23299543349E+02  0.41916293178E+02 -0.15204773438E+02  0.50482689007E+02  0.41800000000E+01 0. -1.
         -5    1    1    2    0  502 -0.28803534495E+02 -0.66456681369E+02  0.15485367322E+03  0.17100662738E+03  0.41800000000E+01 0.  1.
        -11    1    1    2    0    0  0.32085511463E+02  0.34894938504E+01  0.52021921513E+02  0.61220396365E+02  0.00000000000E+00 0.  1.
         11    1    1    2    0    0 -0.26581520317E+02  0.21050894340E+02 -0.19267091758E+02  0.38999207680E+02  0.00000000000E+00 0. -1.
</event>
<event>
 7    1  0.6833760E-006  0.9645925E+02  0.7561462E-02  0.1287923E+00
          2   -1    0    0  501    0  0.00000000000E+00  0.00000000000E+00  0.27261706898E+03  0.27261706898E+03  0.00000000000E+00 0. -1.
         -2   -1    0    0    0  501 -0.00000000000E+00 -0.00000000000E+00 -0.35430837022E+03  0.35430837022E+03  0.00000000000E+00 0.  1.
         23    2    1    2    0    0  0.70170847803E+02 -0.48357519247E+02 -0.32377176957E+03  0.35675295643E+03  0.12321572791E+03 0.  0.
          5    1    3    3  502    0  0.13938392925E+02 -0.20202115229E+02  0.19650716957E+01  0.24974750526E+02  0.41800000000E+01 0. -1.
         -5    1    3    3    0  502  0.56232454878E+02 -0.28155404017E+02 -0.32573684127E+03  0.33177820591E+03  0.41800000000E+01 0.  1.
        -11    1    1    2    0    0 -0.33499231882E+02  0.58087264283E+02  0.21013453496E+03  0.22057391412E+03  0.00000000000E+00 0. -1.
         11    1    1    2    0    0 -0.36671615921E+02 -0.97297450365E+01  0.31945933375E+02  0.49598568648E+02  0.00000000000E+00 0.  1.
</event>
<event>
 7    1  0.6833760E-006  0.1293125E+03  0.7561462E-02  0.1228479E+00
          4   -1    0    0  501    0  0.00000000000E+00  0.00000000000E+00  0.54112761203E+03  0.54112761203E+03  0.00000000000E+00 0. -1.
         -4   -1    0    0    0  501 -0.00000000000E+00 -0.00000000000E+00 -0.49209417050E+02  0.49209417050E+02  0.00000000000E+00 0.  1.
         23    2    1    2    0    0 -0.53534519832E+02 -0.63105523370E+02  0.10130420790E+03  0.18099131750E+03  0.12508821919E+03 0.  0.
          5    1    3    3  502    0  0.16083117018E+02 -0.72509277653E+02  0.28299692304E+02  0.79590244272E+02  0.41800000000E+01 0. -1.
         -5    1    3    3    0  502 -0.69617636850E+02  0.94037542833E+01  0.73004515595E+02  0.10140107323E+03  0.41800000000E+01 0. -1.
        -11    1    1    2    0    0  0.32901257129E+02  0.80443108462E+02  0.34980906229E+03  0.36044412393E+03  0.00000000000E+00 0. -1.
         11    1    1    2    0    0  0.20633262703E+02 -0.17337585092E+02  0.40804924799E+02  0.48901587648E+02  0.00000000000E+00 0.  1.
</event>
<event>
 7    1  0.6833760E-006  0.1033031E+03  0.7561462E-02  0.1273499E+00
          1   -1    0    0  501    0  0.00000000000E+00  0.00000000000E+00  0.85643183039E+02  0.85643183039E+02  0.00000000000E+00 0. -1.
         -1   -1    0    0    0  501 -0.00000000000E+00 -0.00000000000E+00 -0.21978124472E+03  0.21978124472E+03  0.00000000000E+00 0.  1.
         23    2    1    2    0    0 -0.70399507898E+02 -0.41242416616E+01 -0.12585573129E+03  0.19094617911E+03  0.12509067965E+03 0.  0.
          5    1    3    3  502    0 -0.77720978894E+01  0.51413950713E+02 -0.79736083753E+02  0.95284391617E+02  0.41800000000E+01 0.  1.
         -5    1    3    3    0  502 -0.62627410008E+02 -0.55538192374E+02 -0.46119647540E+02  0.95661787490E+02  0.41800000000E+01 0.  1.
        -11    1    1    2    0    0  0.26111700365E+02  0.34380814694E+01  0.40675395015E+02  0.48457497457E+02  0.00000000000E+00 0. -1.
         11    1    1    2    0    0  0.44287807533E+02  0.68616019216E+00 -0.48957725404E+02  0.66020751197E+02  0.00000000000E+00 0.  1.
</event>
<event>
 7    1  0.6833760E-006  0.1219873E+03  0.7561462E-02  0.1239854E+00
         -1   -1    0    0    0  501 -0.00000000000E+00  0.00000000000E+00  0.10105955339E+03  0.10105955339E+03  0.00000000000E+00 0.  1.
          1   -1    0    0  501    0  0.00000000000E+00 -0.00000000000E+00 -0.17875448487E+03  0.17875448487E+03  0.00000000000E+00 0. -1.
         23    2    1    2    0    0 -0.77228250891E+02  0.17492653689E+02 -0.27940990565E+02  0.15065699705E+03  0.12508651461E+03 0.  0.
          5    1    3    3  502    0 -0.35905460691E+02  0.65228433787E+02 -0.42351328846E+02  0.85761635577E+02  0.41800000000E+01 0.  1.
         -5    1    3    3    0  502 -0.41322790199E+02 -0.47735780098E+02  0.14410338281E+02  0.64895361474E+02  0.41800000000E+01 0.  1.
        -11    1    1    2    0    0  0.87080118152E+02 -0.28240163155E+02 -0.16734212947E+02  0.93061741201E+02  0.00000000000E+00 0.  1.
         11    1    1    2    0    0 -0.98518672614E+01  0.10747509466E+02 -0.33019727961E+02  0.36095300011E+02  0.00000000000E+00 0. -1.
</event>
<event>
 7    1  0.6833760E-006  0.1204329E+03  0.7561462E-02  0.1242385E+00
         -1   -1    0    0    0  501 -0.00000000000E+00  0.00000000000E+00  0.28553649030E+02  0.28553649030E+02  0.00000000000E+00 0.  1.
          1   -1    0    0  501    0  0.00000000000E+00 -0.00000000000E+00 -0.76394452712E+03  0.76394452712E+03  0.00000000000E+00 0. -1.
         23    2    1    2    0    0 -0.61445722972E+02  0.44459700061E+02 -0.22309123082E+03  0.26677654264E+03  0.12509110532E+03 0.  0.
          5    1    3    3  502    0  0.18289526781E+02  0.44015230930E+02 -0.26741009110E+02  0.54812419322E+02  0.41800000000E+01 0.  1.
         -5    1    3    3    0  502 -0.79735249754E+02  0.44446913053E+00 -0.19635022171E+03  0.21196412331E+03  0.41800000000E+01 0.  1.
        -11    1    1    2    0    0 -0.14989637405E+02 -0.32523019725E+02 -0.99805614711E+02  0.10603582776E+03  0.00000000000E+00 0. -1.
         11    1    1    2    0    0  0.76435360378E+02 -0.11936680335E+02 -0.41249403255E+03  0.41968580575E+03  0.00000000000E+00 0.  1.
</event>
<event>
 7    1  0.6833760E-006  0.1291098E+03  0.7561462E-02  0.1228783E+00
          1   -1    0    0  501    0  0.00000000000E+00  0.00000000000E+00  0.16017335810E+03  0.16017335810E+03  0.00000000000E+00 0. -1.
         -1   -1    0    0    0  501 -0.00000000000E+00 -0.00000000000E+00 -0.11103701302E+03  0.11103701302E+03  0.00000000000E+00 0.  1.
         23    2    1    2    0    0  0.54467334927E+02  0.45807998261E+02  0.26220819221E+01  0.14394261390E+03  0.12509011753E+03 0.  0.
          5    1    3    3  502    0 -0.36549341594E+02 -0.38436817189E+01 -0.12586677876E+02  0.39070770661E+02  0.41800000000E+01 0.  1.
         -5    1    3    3    0  502  0.91016676521E+02  0.49651679979E+02  0.15208759798E+02  0.10487184324E+03  0.41800000000E+01 0.  1.
        -11    1    1    2    0    0 -0.68303991750E+02  0.13553040547E+01  0.18868366986E+02  0.70875153691E+02  0.00000000000E+00 0.  1.
         11    1    1    2    0    0  0.13836656823E+02 -0.47163302315E+02  0.27645896177E+02  0.56392603529E+02  0.00000000000E+00 0. -1.
</event>
<event>
 7    1  0.6833760E-006  0.1324695E+03  0.7561462E-02  0.1223837E+00
          2   -1    0    0  501    0  0.00000000000E+00  0.00000000000E+00  0.60259409974E+03  0.60259409974E+03  0.00000000000E+00 0. -1.
         -2   -1    0    0    0  501 -0.00000000000E+00 -0.00000000000E+00 -0.35489445690E+02  0.35489445690E+02  0.00000000000E+00 0.  1.
         23    2    1    2    0    0  0.37359696171E+02 -0.79819219055E+02  0.17897586134E+03  0.23002176159E+03  0.11450238964E+03 0.  0.
          5    1    3    3  502    0  0.54420173409E+02 -0.10009567455E+03  0.16261532693E+03  0.19859988996E+03  0.41800000000E+01 0. -1.
         -5    1    3    3    0  502 -0.17060477238E+02  0.20276455490E+02  0.16360534406E+02  0.31421871633E+02  0.41800000000E+01 0.  1.
        -11    1    1    2    0    0  0.27105971994E+02  0.40039007176E+02  0.18671611755E+03  0.19287499674E+03  0.00000000000E+00 0.  1.
         11    1    1    2    0    0 -0.64465668165E+02  0.39780211880E+02  0.20141267516E+03  0.21518678711E+03  0.00000000000E+00 0. -1.
</event>
<event>
 7    1  0.6833760E-006  0.1719811E+03  0.7561462E-02  0.1175798E+00
         -1   -1    0    0    0  501 -0.00000000000E+00  0.00000000000E+00  0.64013906248E+02  0.64013906248E+02  0.00000000000E+00 0.  1.
          1   -1    0    0  501    0  0.00000000000E+00 -0.00000000000E+00 -0.64855123750E+03  0.64855123750E+03  0.00000000000E+00 0. -1.
         23    2    1    2    0    0 -0.10376162007E+03  0.10075617259E+03 -0.14701310389E+03  0.24120350226E+03  0.12509195288E+03 0.  0.
          5    1    3    3  502    0 -0.19522875768E+02  0.84343236231E+02 -0.12568206894E+03  0.15267081918E+03  0.41800000000E+01 0.  1.
         -5    1    3    3    0  502 -0.84238744303E+02  0.16412936354E+02 -0.21331034948E+02  0.88532683080E+02  0.41800000000E+01 0.  1.
        -11    1    1    2    0    0  0.75693190737E+02 -0.99815800768E+01 -0.14620860776E+03  0.16494255984E+03  0.00000000000E+00 0. -1.
         11    1    1    2    0    0  0.28068429333E+02 -0.90774592508E+02 -0.29131561960E+03  0.30641908164E+03  0.00000000000E+00 0.  1.
</event>
<event>
 7    1  0.6833760E-006  0.7599869E+02  0.7561462E-02  0.1340806E+00
          3   -1    0    0  501    0  0.00000000000E+00  0.00000000000E+00  0.10042029206E+03  0.10042029206E+03  0.00000000000E+00 0. -1.
         -3   -1    0    0    0  501 -0.00000000000E+00 -0.00000000000E+00 -0.15204651592E+03  0.15204651592E+03  0.00000000000E+00 0.  1.
         23    2    1    2    0    0  0.20636929722E+02  0.40799927092E+02 -0.72394242127E+02  0.15158547944E+03  0.12508682730E+03 0.  0.
          5    1    3    3  502    0  0.20484273905E+02 -0.10903274137E+02 -0.92871401395E+02  0.95817829559E+02  0.41800000000E+01 0. -1.
         -5    1    3    3    0  502  0.15265581714E+00  0.51703201229E+02  0.20477159268E+02  0.55767649877E+02  0.41800000000E+01 0. -1.
        -11    1    1    2    0    0  0.15275312670E+02  0.69640636770E+01 -0.21797512218E+02  0.27512995092E+02  0.00000000000E+00 0.  1.
         11    1    1    2    0    0 -0.35912242392E+02 -0.47763990769E+02  0.42565530484E+02  0.73368333450E+02  0.00000000000E+00 0. -1.
</event>
<event>
 7    1  0.6833760E-006  0.9364966E+02  0.7561462E-02  0.1294247E+00
          3   -1    0    0  501    0  0.00000000000E+00  0.00000000000E+00  0.22795612306E+03  0.22795612306E+03  0.00000000000E+00 0. -1.
         -3   -1    0    0    0  501 -0.00000000000E+00 -0.00000000000E+00 -0.79470876298E+02  0.79470876298E+02  0.00000000000E+00 0.  1.
         23    2    1    2    0    0 -0.66837980192E+02 -0.47733694207E+02  0.95443528892E+02  0.17748944709E+03  0.12508883028E+03 0.  0.
          5    1    3    3  502    0 -0.57816733899E+02 -0.20781170669E+01  0.11344666126E+03  0.12741550393E+03  0.41800000000E+01 0. -1.
         -5    1    3    3    0  502 -0.90212462922E+01 -0.45655577140E+02 -0.18003132368E+02  0.50073943162E+02  0.41800000000E+01 0. -1.
        -11    1    1    2    0    0  0.28551789429E+02  0.25583047365E+02  0.72190494395E+02  0.81738390448E+02  0.00000000000E+00 0. -1.
         11    1    1    2    0    0  0.38286190763E+02  0.22150646842E+02 -0.19148776520E+02  0.48199161828E+02  0.00000000000E+00 0.  1.
</event>
<event>
 7    1  0.6833760E-006  0.8404732E+02  0.7561462E-02  0.1317943E+00
          4   -1    0    0  501    0  0.00000000000E+00  0.00000000000E+00  0.12778107958E+03  0.12778107958E+03  0.00000000000E+00 0. -1.
         -4   -1    0    0    0  501 -0.00000000000E+00 -0.00000000000E+00 -0.13739570357E+03  0.13739570357E+03  0.00000000000E+00 0.  1.
         23    2    1    2    0    0 -0.59531444712E+01  0.32555658996E+02 -0.73253591608E+02  0.14868746480E+03  0.12508622083E+03 0.  0.
          5    1    3    3  502    0 -0.31179316652E+02  0.32155275518E+02 -0.10123546438E+03  0.11077997644E+03  0.41800000000E+01 0. -1.
         -5    1    3    3    0  502  0.25226172180E+02  0.40038347750E+00  0.27981872775E+02  0.37907488360E+02  0.41800000000E+01 0. -1.
        -11    1    1    2    0    0  0.19157806299E+02 -0.62200708593E+02  0.41039072946E+02  0.76942544797E+02  0.00000000000E+00 0.  1.
         11    1    1    2    0    0 -0.13204661827E+02  0.29645049597E+02  0.22599894670E+02  0.39546773556E+02  0.00000000000E+00 0. -1.
</event>
<event>
 7    1  0.6833760E-006  0.2082916E+03  0.7561462E-02  0.1142926E+00
          2   -1    0    0  501    0  0.00000000000E+00  0.00000000000E+00  0.12130576222E+04  0.12130576222E+04  0.00000000000E+00 0. -1.
         -2   -1    0    0    0  501 -0.00000000000E+00 -0.00000000000E+00 -0.48128628744E+02  0.48128628744E+02  0.00000000000E+00 0.  1.
         23    2    1    2    0    0 -0.18724899115E+03  0.38744005236E+02  0.34125897178E+03  0.41069068051E+03  0.12508343859E+03 0.  0.
          5    1    3    3  502    0 -0.17798892648E+03  0.12323494478E+02  0.20623341057E+03  0.27272993694E+03  0.41800000000E+01 0. -1.
         -5    1    3    3    0  502 -0.92600646637E+01  0.26420510758E+02  0.13502556121E+03  0.13796074357E+03  0.41800000000E+01 0. -1.
        -11    1    1    2    0    0  0.12698458533E+03 -0.66636092079E+02  0.61572751266E+03  0.63220710493E+03  0.00000000000E+00 0. -1.
         11    1    1    2    0    0  0.60264405819E+02  0.27892086844E+02  0.20794250902E+03  0.21828846551E+03  0.00000000000E+00 0.  1.
</event>
<event>
 7    1  0.6833760E-006  0.1158436E+03  0.7561462E-02  0.1250116E+00
         -2   -1    0    0    0  501 -0.00000000000E+00  0.00000000000E+00  0.38936458348E+03  0.38936458348E+03  0.00000000000E+00 0.  1.
          2   -1    0    0  501    0  0.00000000000E+00 -0.00000000000E+00 -0.38127732146E+02  0.38127732146E+02  0.00000000000E+00 0. -1.
         23    2    1    2    0    0 -0.23790653290E+02  0.51128199309E+02  0.20457574518E+03  0.24633169500E+03  0.12509188821E+03 0.  0.
          5    1    3    3  502    0  0.43474830498E+01 -0.38319662066E+02  0.91445745121E+02  0.99333246249E+02  0.41800000000E+01 0. -1.
         -5    1    3    3    0  502 -0.28138136340E+02  0.89447861375E+02  0.11313000006E+03  0.14699844875E+03  0.41800000000E+01 0. -1.
        -11    1    1    2    0    0 -0.30427660851E+02 -0.21403760847E+02  0.89628148090E+02  0.97042096295E+02  0.00000000000E+00 0.  1.
         11    1    1    2    0    0  0.54218314141E+02 -0.29724438462E+02  0.57032958064E+02  0.84118524331E+02  0.00000000000E+00 0. -1.
</event>
<event>
 7    1  0.6833760E-006  0.1793336E+03  0.7561462E-02  0.1168450E+00
          1   -1    0    0  501    0  0.00000000000E+00  0.00000000000E+00  0.67918425622E+03  0.67918425622E+03  0.00000000000E+00 0. -1.
         -1   -1    0    0    0  501 -0.00000000000E+00 -0.00000000000E+00 -0.96968051864E+02  0.96968051864E+02  0.00000000000E+00 0.  1.
         23    2    1    2    0    0 -0.16671076103E+03 -0.34883628939E+00  0.54015198496E+02  0.21530547140E+03  0.12508479051E+03 0.  0.
          5    1    3    3  502    0 -0.61672595963E+02 -0.28102593703E+02 -0.33518129922E+02  0.75724515840E+02  0.41800000000E+01 0.  1.
         -5    1    3    3    0  502 -0.10503816506E+03  0.27753757414E+02  0.87533328418E+02  0.13958095556E+03  0.41800000000E+01 0.  1.
        -11    1    1    2    0    0  0.55230894971E+02 -0.34645772521E+02  0.12398813781E+03  0.14008511567E+03  0.00000000000E+00 0.  1.
         11    1    1    2    0    0  0.11147986605E+03  0.34994608810E+02  0.40421286805E+03  0.42076172102E+03  0.00000000000E+00 0. -1.
</event>
<event>
 7    1  0.6833760E-006  0.1089784E+03  0.7561462E-02  0.1262474E+00
          1   -1    0    0  501    0  0.00000000000E+00  0.00000000000E+00  0.28093251849E+02  0.28093251849E+02  0.00000000000E+00 0. -1.
         -1   -1    0    0    0  501 -0.00000000000E+00 -0.00000000000E+00 -0.70054163691E+03  0.70054163691E+03  0.00000000000E+00 0.  1.
         23    2    1    2    0    0  0.75408059822E+02 -0.30643785461E+02 -0.46133804340E+03  0.48487667913E+03  0.12508871494E+03 0.  0.
          5    1    3    3  502    0 -0.39847707497E+01  0.16878479614E+02 -0.40375037172E+01  0.18290306402E+02  0.41800000000E+01 0.  1.
         -5    1    3    3    0  502  0.79392830572E+02 -0.47522265075E+02 -0.45730053968E+03  0.46658637273E+03  0.41800000000E+01 0.  1.
        -11    1    1    2    0    0  0.44549303069E+01 -0.14904225075E+02 -0.91930208710E+02  0.93237039864E+02  0.00000000000E+00 0.  1.
         11    1    1    2    0    0 -0.79862990129E+02  0.45548010536E+02 -0.11918013295E+03  0.15052116976E+03  0.00000000000E+00 0. -1.
</event>
<event>
 7    1  0.6833760E-006  0.1041095E+03  0.7561462E-02  0.1271884E+00
         -2   -1    0    0    0  501 -0.00000000000E+00  0.00000000000E+00  0.20859599831E+02  0.20859599831E+02  0.00000000000E+00 0.  1.
          2   -1    0    0  501    0  0.00000000000E+00 -0.00000000000E+00 -0.62651355649E+03  0.62651355649E+03  0.00000000000E+00 0. -1.
         23    2    1    2    0    0 -0.10634850388E+02 -0.35579084469E+02 -0.37747952518E+03  0.39947249025E+03  0.12533358387E+03 0.  0.
          5    1    3    3  502    0 -0.35241556239E+02 -0.68502862869E+02 -0.15442935326E+03  0.17262823366E+03  0.41800000000E+01 0.  1.
         -5    1    3    3    0  502  0.24606705851E+02  0.32923778400E+02 -0.22305017192E+03  0.22684425660E+03  0.41800000000E+01 0.  1.
        -11    1    1    2    0    0  0.28378493275E+02 -0.17802959537E+02 -0.43844846618E+02  0.55178390914E+02  0.00000000000E+00 0.  1.
         11    1    1    2    0    0 -0.17743642887E+02  0.53382044006E+02 -0.18432958486E+03  0.19272227515E+03  0.00000000000E+00 0. -1.
</event>
<event>
 7    1  0.6833760E-006  0.9925445E+02  0.7561462E-02  0.1281872E+00
         -3   -1    0    0    0  501 -0.00000000000E+00  0.00000000000E+00  0.68704706456E+02  0.68704706456E+02  0.00000000000E+00 0.  1.
          3   -1    0    0  501    0  0.00000000000E+00 -0.00000000000E+00 -0.18305037650E+03  0.18305037650E+03  0.00000000000E+00 0. -1.
         23    2    1    2    0    0 -0.23215651943E+01 -0.31897248522E+02 -0.54908467867E+02  0.14030479703E+03  0.12509065552E+03 0.  0.
          5    1    3    3  502    0  0.46484851583E+00 -0.79697736115E+02 -0.24730733395E+02  0.83552539161E+02  0.41800000000E+01 0.  1.
         -5    1    3    3    0  502 -0.27864137101E+01  0.47800487593E+02 -0.30177734472E+02  0.56752257870E+02  0.41800000000E+01 0.  1.
        -11    1    1    2    0    0  0.25146190560E+02 -0.64954097779E+01  0.10870579708E+02  0.28154764269E+02  0.00000000000E+00 0.  1.
         11    1    1    2    0    0 -0.22824625365E+02  0.38392658300E+02 -0.70307781887E+02  0.83295521658E+02  0.00000000000E+00 0. -1.
</event>
<event>
 7    1  0.6833760E-006  0.1967165E+03  0.7561462E-02  0.1152539E+00
         -1   -1    0    0    0  501 -0.00000000000E+00  0.00000000000E+00  0.92659994942E+03  0.92659994942E+03  0.00000000000E+00 0.  1.
          1   -1    0    0  501    0  0.00000000000E+00 -0.00000000000E+00 -0.53460687025E+02  0.53460687025E+02  0.00000000000E+00 0. -1.
         23    2    1    2    0    0  0.75472797471E+02  0.17532744920E+03  0.55861739252E+03  0.60075580573E+03  0.11143737836E+03 0.  0.
          5    1    3    3  502    0  0.44911904914E+02  0.84257146138E+02  0.12920538919E+03  0.16071045664E+03  0.41800000000E+01 0. -1.
         -5    1    3    3    0  502  0.30560892557E+02  0.91070303061E+02  0.42941200332E+03  0.44004534909E+03  0.41800000000E+01 0.  1.
        -11    1    1    2    0    0 -0.42220626354E+02 -0.15929339298E+03  0.29408393409E+03  0.33710877566E+03  0.00000000000E+00 0. -1.
         11    1    1    2    0    0 -0.33252171117E+02 -0.16034056215E+02  0.20437935784E+02  0.42196055050E+02  0.00000000000E+00 0.  1.
</event>
<event>
 7    1  0.6833760E-006  0.3205420E+03  0.7561462E-02  0.1075400E+00
          1   -1    0    0  501    0  0.00000000000E+00  0.00000000000E+00  0.81866422154E+03  0.81866422154E+03  0.00000000000E+00 0. -1.
         -1   -1    0    0    0  501 -0.00000000000E+00 -0.00000000000E+00 -0.15132802670E+03  0.15132802670E+03  0.00000000000E+00 0.  1.
         23    2    1    2    0    0 -0.14605904711E+02 -0.30592943440E+03  0.15320618462E+03  0.36458835673E+03  0.12508550503E+03 0.  0.
          5    1    3    3  502    0 -0.57987815288E+02 -0.70374649331E+02  0.42224729247E+02  0.10057623054E+03  0.41800000000E+01 0.  1.
         -5    1    3    3    0  502  0.43381910578E+02 -0.23555478507E+03  0.11098145537E+03  0.26401212618E+03  0.41800000000E+01 0.  1.
        -11    1    1    2    0    0 -0.18065701118E+02  0.13721069630E+03  0.30347425502E+03  0.33354125411E+03  0.00000000000E+00 0. -1.
         11    1    1    2    0    0  0.32671605829E+02  0.16871873810E+03  0.21065575520E+03  0.27186263740E+03  0.00000000000E+00 0.  1.
</event>
<event>
 7    1  0.6833760E-006  0.1088769E+03  0.7561462E-02  0.1262664E+00
          2   -1    0    0  501    0  0.00000000000E+00  0.00000000000E+00  0.18125756127E+03  0.18125756127E+03  0.00000000000E+00 0. -1.
         -2   -1    0    0    0  501 -0.00000000000E+00 -0.00000000000E+00 -0.84694490496E+02  0.84694490496E+02  0.00000000000E+00 0.  1.
         23    2    1    2    0    0 -0.20998302770E+02  0.91715325285E+01 -0.36915317438E+01  0.12722337259E+03  0.12508842232E+03 0.  0.
          5    1    3    3  502    0 -0.50142256910E+02  0.53083536545E+02 -0.10600746875E+02  0.73905047287E+02  0.41800000000E+01 0. -1.
         -5    1    3    3    0  502  0.29143954141E+02 -0.43912004017E+02  0.69092151315E+01  0.53318325306E+02  0.41800000000E+01 0. -1.
        -11    1    1    2    0    0 -0.72978325345E+01 -0.45282902207E+02  0.70295011269E+02  0.83935619383E+02  0.00000000000E+00 0. -1.
         11    1    1    2    0    0  0.28296135304E+02  0.36111369679E+02  0.29959591245E+02  0.54793059787E+02  0.00000000000E+00 0.  1.
</event>
<event>
 7    1  0.6833760E-006  0.1182738E+03  0.7561462E-02  0.1245972E+00
          2   -1    0    0  501    0  0.00000000000E+00  0.00000000000E+00  0.88322128602E+03  0.88322128602E+03  0.00000000000E+00 0. -1.
         -2   -1    0    0    0  501 -0.00000000000E+00 -0.00000000000E+00 -0.18929258504E+02  0.18929258504E+02  0.00000000000E+00 0.  1.
         23    2    1    2    0    0  0.32722215921E+02  0.58064512336E+02  0.54678820384E+03  0.56485955335E+03  0.12508694633E+03 0.  0.
          5    1    3    3  502    0  0.66515438372E+02  0.10071464059E+01  0.37085028721E+03  0.37679268280E+03  0.41800000000E+01 0. -1.
         -5    1    3    3    0  502 -0.33793222451E+02  0.57057365930E+02  0.17593791663E+03  0.18806687055E+03  0.41800000000E+01 0. -1.
        -11    1    1    2    0    0  0.15965951497E+02 -0.51985045065E+02  0.95208262151E+02  0.10964474315E+03  0.00000000000E+00 0. -1.
         11    1    1    2    0    0 -0.48688167419E+02 -0.60794672709E+01  0.22229556153E+03  0.22764624803E+03  0.00000000000E+00 0.  1.
</event>
<event>
 6    1  0.6833760E-006  0.1141358E+03  0.7561462E-02  0.1253097E+00
         -1   -1    0    0    0  501 -0.00000000000E+00  0.00000000000E+00  0.32913426440E+03  0.32913426440E+03  0.00000000000E+00 0.  1.
          1   -1    0    0  501    0  0.00000000000E+00 -0.00000000000E+00 -0.50624248323E+02  0.50624248323E+02  0.00000000000E+00 0. -1.
          5    1    1    2  502    0 -0.94527301673E+01  0.53499155397E+02  0.12189819878E+03  0.13352212177E+03  0.41800000000E+01 0. -1.
         -5    1    1    2    0  502 -0.17694236349E+02 -0.80863845054E+02  0.10656405930E+03  0.13500155026E+03  0.41800000000E+01 0.  1.
        -11    1    1    2    0    0 -0.74456717918E+01  0.49352794186E+02  0.49422895684E+02  0.70240721382E+02  0.00000000000E+00 0.  1.
         11    1    1    2    0    0  0.34592638308E+02 -0.21988104530E+02  0.62486231468E+00  0.40994119320E+02  0.00000000000E+00 0. -1.
</event>
<event>
 7    1  0.6833760E-006  0.1171101E+03  0.7561462E-02  0.1247942E+00
         -2   -1    0    0    0  501 -0.00000000000E+00  0.00000000000E+00  0.10068638510E+04  0.10068638510E+04  0.00000000000E+00 0.  1.
          2   -1    0    0  501    0  0.00000000000E+00 -0.00000000000E+00 -0.15789632537E+02  0.15789632537E+02  0.00000000000E+00 0. -1.
         23    2    1    2    0    0  0.43700640097E+02 -0.14190011948E+02  0.73340832794E+03  0.74541729503E+03  0.12509222936E+03 0.  0.
          5    1    3    3  502    0  0.48345670967E+02 -0.65472537932E+02  0.46326527046E+03  0.47037872012E+03  0.41800000000E+01 0.  1.
         -5    1    3    3    0  502 -0.46450308707E+01  0.51282525983E+02  0.27014305748E+03  0.27503857491E+03  0.41800000000E+01 0.  1.
        -11    1    1    2    0    0  0.26760167804E+02 -0.66715092656E+01  0.52425408342E+02  0.59237142543E+02  0.00000000000E+00 0. -1.
         11    1    1    2    0    0 -0.70460807901E+02  0.20861521214E+02  0.20524048217E+03  0.21799904596E+03  0.00000000000E+00 0.  1.
</event>
<event>
 7    1  0.6833760E-006  0.2015479E+03  0.7561462E-02  0.1148440E+00
         -2   -1    0    0    0  501 -0.00000000000E+00  0.00000000000E+00  0.86751381399E+02  0.86751381399E+02  0.00000000000E+00 0.  1.
          2   -1    0    0  501    0  0.00000000000E+00 -0.00000000000E+00 -0.55717890423E+03  0.55717890423E+03  0.00000000000E+00 0. -1.
         23    2    1    2    0    0  0.42017044020E+02 -0.19372468175E+03 -0.24353643597E+03  0.33801233950E+03  0.12509061395E+03 0.  0.
          5    1    3    3  502    0 -0.26979510112E+01  0.77866980941E+00 -0.79446012979E+02  0.79605443561E+02  0.41800000000E+01 0.  1.
         -5    1    3    3    0  502  0.44714995031E+02 -0.19450335156E+03 -0.16409042299E+03  0.25840689593E+03  0.41800000000E+01 0.  1.
        -11    1    1    2    0    0 -0.13479018879E+02  0.83464443120E+02 -0.59221230036E+02  0.10322379233E+03  0.00000000000E+00 0.  1.
         11    1    1    2    0    0 -0.28538025141E+02  0.11026023863E+03 -0.16766985683E+03  0.20269415381E+03  0.00000000000E+00 0. -1.
</event>
<event>
 7    1  0.6833760E-006  0.2339517E+03  0.7561462E-02  0.1123889E+00
         -1   -1    0    0    0  501 -0.00000000000E+00  0.00000000000E+00  0.50753265960E+03  0.50753265960E+03  0.00000000000E+00 0.  1.
          1   -1    0    0  501    0  0.00000000000E+00 -0.00000000000E+00 -0.22623527243E+03  0.22623527243E+03  0.00000000000E+00 0. -1.
         23    2    1    2    0    0  0.13205893256E+03  0.18117927001E+03  0.39125070130E+03  0.46796280743E+03  0.12508632349E+03 0.  0.
          5    1    3    3  502    0  0.88252911492E+01  0.42565214775E+02  0.11254921628E+02  0.45097992567E+02  0.41800000000E+01 0. -1.
         -5    1    3    3    0  502  0.12323364141E+03  0.13861405524E+03  0.37999577967E+03  0.42286481486E+03  0.41800000000E+01 0. -1.
        -11    1    1    2    0    0 -0.17036221872E+02 -0.90922654896E+02 -0.21661703804E+02  0.95007323090E+02  0.00000000000E+00 0. -1.
         11    1    1    2    0    0 -0.11502271068E+03 -0.90256615116E+02 -0.88291610330E+02  0.17079780151E+03  0.00000000000E+00 0.  1.
</event>
<event>
 7    1  0.6833760E-006  0.1519229E+03  0.7561462E-02  0.1198130E+00
         -2   -1    0    0    0  501 -0.00000000000E+00  0.00000000000E+00  0.56271530417E+02  0.56271530417E+02  0.00000000000E+00 0.  1.
          2   -1    0    0  501    0  0.00000000000E+00 -0.00000000000E+00 -0.45920043789E+03  0.45920043789E+03  0.00000000000E+00 0. -1.
         23    2    1    2    0    0 -0.72737108508E+01  0.11298283031E+03 -0.16188917298E+03  0.23380467833E+03  0.12505397422E+03 0.  0.
          5    1    3    3  502    0  0.38649585800E+02  0.22712667623E+01 -0.78818890673E+02  0.87913816105E+02  0.41800000000E+01 0. -1.
         -5    1    3    3    0  502 -0.45923296651E+02  0.11071156355E+03 -0.83070282310E+02  0.14589086223E+03  0.41800000000E+01 0. -1.
        -11    1    1    2    0    0 -0.67653813134E+01 -0.12578903231E+03 -0.19881460230E+03  0.23536333002E+03  0.00000000000E+00 0.  1.
         11    1    1    2    0    0  0.14039092164E+02  0.12806201996E+02 -0.42225132192E+02  0.46303959950E+02  0.00000000000E+00 0. -1.
</event>
<event>
 7    1  0.6833760E-006  0.2691274E+03  0.7561462E-02  0.1101780E+00
         -1   -1    0    0    0  501 -0.00000000000E+00  0.00000000000E+00  0.43941999877E+02  0.43941999877E+02  0.00000000000E+00 0.  1.
          1   -1    0    0  501    0  0.00000000000E+00 -0.00000000000E+00 -0.18169949569E+04  0.18169949569E+04  0.00000000000E+00 0. -1.
         23    2    1    2    0    0  0.19376402537E+03 -0.15299517502E+03 -0.63192284416E+03  0.68987361556E+03  0.12508838227E+03 0.  0.
          5    1    3    3  502    0  0.68851811445E+02  0.10733693246E+02 -0.18626399430E+03  0.19891589198E+03  0.41800000000E+01 0.  1.
         -5    1    3    3    0  502  0.12491221392E+03 -0.16372886826E+03 -0.44565884985E+03  0.49095772358E+03  0.41800000000E+01 0.  1.
        -11    1    1    2    0    0 -0.13737060705E+03  0.15360325209E+03 -0.92730595108E+03  0.94992682330E+03  0.00000000000E+00 0.  1.
         11    1    1    2    0    0 -0.56393418313E+02 -0.60807707058E+00 -0.21382416175E+03  0.22113651787E+03  0.00000000000E+00 0. -1.
</event>
<event>
 7    1  0.6833760E-006  0.6121668E+02  0.7561462E-02  0.1392796E+00
         -1   -1    0    0    0  501 -0.00000000000E+00  0.00000000000E+00  0.36380599713E+03  0.36380599713E+03  0.00000000000E+00 0.  1.
          1   -1    0    0  501    0  0.00000000000E+00 -0.00000000000E+00 -0.35935310641E+02  0.35935310641E+02  0.00000000000E+00 0. -1.
         23    2    1    2    0    0  0.32439483587E+02  0.34749797264E+02  0.23632000358E+03  0.27157858389E+03  0.12509162493E+03 0.  0.
          5    1    3    3  502    0  0.20372316688E+02 -0.99823246412E+01  0.22158324482E+03  0.22278080006E+03  0.41800000000E+01 0.  1.
         -5    1    3    3    0  502  0.12067166899E+02  0.44732121906E+02  0.14736758762E+02  0.48797783822E+02  0.41800000000E+01 0.  1.
        -11    1    1    2    0    0 -0.11776548596E+02 -0.29147503773E+02  0.10024278123E+03  0.10505655268E+03  0.00000000000E+00 0.  1.
         11    1    1    2    0    0 -0.20662934991E+02 -0.56022934911E+01 -0.86920983148E+01  0.23106171209E+02  0.00000000000E+00 0. -1.
</event>
<event>
 7    1  0.6833760E-006  0.1820373E+03  0.7561462E-02  0.1165846E+00
          2   -1    0    0  501    0  0.00000000000E+00  0.00000000000E+00  0.76438623586E+02  0.76438623586E+02  0.00000000000E+00 0. -1.
         -2   -1    0    0    0  501 -0.00000000000E+00 -0.00000000000E+00 -0.57566479944E+03  0.57566479944E+03  0.00000000000E+00 0.  1.
         23    2    1    2    0    0 -0.27260507341E+02 -0.14622770936E+03 -0.38975847949E+03  0.43552692232E+03  0.12508536880E+03 0.  0.
          5    1    3    3  502    0  0.45792443951E+02 -0.24384604381E+02 -0.11283384943E+03  0.12425983595E+03  0.41800000000E+01 0. -1.
         -5    1    3    3    0  502 -0.73052951291E+02 -0.12184310498E+03 -0.27692463006E+03  0.31126708637E+03  0.41800000000E+01 0. -1.
        -11    1    1    2    0    0  0.13605516395E+02  0.15372224539E+03 -0.12188927373E+03  0.19665358846E+03  0.00000000000E+00 0.  1.
         11    1    1    2    0    0  0.13654990946E+02 -0.74945360247E+01  0.12421577366E+02  0.19922912242E+02  0.00000000000E+00 0. -1.
</event>
<event>
 7    1  0.6833760E-006  0.1090343E+03  0.7561462E-02  0.1262369E+00
          2   -1    0    0  501    0  0.00000000000E+00  0.00000000000E+00  0.50183175584E+02  0.50183175584E+02  0.00000000000E+00 0. -1.
         -2   -1    0    0    0  501 -0.00000000000E+00 -0.00000000000E+00 -0.43311874802E+03  0.43311874802E+03  0.00000000000E+00 0.  1.
         23    2    1    2    0    0  0.84753713864E+02  0.29640866684E+02 -0.27565601774E+03  0.31574722464E+03  0.12509315234E+03 0.  0.
          5    1    3    3  502    0 -0.89170972394E+01 -0.19745653827E+02 -0.14890315008E+03  0.15052915323E+03  0.41800000000E+01 0. -1.
         -5    1    3    3    0  502  0.93670811104E+02  0.49386520512E+02 -0.12675286765E+03  0.16521807141E+03  0.41800000000E+01 0. -1.
        -11    1    1    2    0    0 -0.24915594939E+02 -0.11927281473E+02  0.14143705538E+02  0.31033712650E+02  0.00000000000E+00 0. -1.
         11    1    1    2    0    0 -0.59838118926E+02 -0.17713585211E+02 -0.12142326024E+03  0.13652098632E+03  0.00000000000E+00 0.  1.
</event>
<event>
 6    1  0.6833760E-006  0.1349839E+03  0.7561462E-02  0.1220242E+00
         -2   -1    0    0    0  501 -0.00000000000E+00  0.00000000000E+00  0.22634960053E+03  0.22634960053E+03  0.00000000000E+00 0.  1.
          2   -1    0    0  501    0  0.00000000000E+00 -0.00000000000E+00 -0.18763448518E+03  0.18763448518E+03  0.00000000000E+00 0. -1.
          5    1    1    2  502    0 -0.10652981447E+03 -0.42535626165E+02 -0.32101766151E+02  0.11918840822E+03  0.41800000000E+01 0. -1.
         -5    1    1    2    0  502  0.45844232512E+02 -0.14911472533E+02  0.14327020621E+03  0.15122126192E+03  0.41800000000E+01 0.  1.
        -11    1    1    2    0    0  0.89536761936E+01 -0.15181828427E+02  0.11546560617E+02  0.21070816165E+02  0.00000000000E+00 0.  1.
         11    1    1    2    0    0  0.51731905768E+02  0.72628927125E+02 -0.83999885333E+02  0.12250359940E+03  0.00000000000E+00 0. -1.
</event>
<event>
 7    1  0.6833760E-006  0.1454105E+03  0.7561462E-02  0.1206229E+00
          1   -1    0    0  501    0  0.00000000000E+00  0.00000000000E+00  0.17445145875E+03  0.17445145875E+03  0.00000000000E+00 0. -1.
         -1   -1    0    0    0  501 -0.00000000000E+00 -0.00000000000E+00 -0.13492215447E+03  0.13492215447E+03  0.00000000000E+00 0.  1.
         23    2    1    2    0    0  0.66244267080E+02 -0.76645031272E+02 -0.13291418446E+02  0.16151340563E+03  0.12508858723E+03 0.  0.
          5    1    3    3  502    0  0.28330745932E+02  0.33574704558E+02 -0.72799977315E+01  0.44725414679E+02  0.41800000000E+01 0.  1.
         -5    1    3    3    0  502  0.37913521148E+02 -0.11021973583E+03 -0.60114207144E+01  0.11678799096E+03  0.41800000000E+01 0.  1.
        -11    1    1    2    0    0 -0.85627413667E+02  0.64240616467E+02  0.61275840479E+02  0.12334358273E+03  0.00000000000E+00 0. -1.
         11    1    1    2    0    0  0.19383146587E+02  0.12404414805E+02 -0.84551177528E+01  0.24516624859E+02  0.00000000000E+00 0.  1.
</event>
<event>
 7    1  0.6833760E-006  0.1054755E+03  0.7561462E-02  0.1269186E+00
         -1   -1    0    0    0  501 -0.00000000000E+00  0.00000000000E+00  0.42627313050E+02  0.42627313050E+02  0.00000000000E+00 0.  1.
          1   -1    0    0  501    0  0.00000000000E+00 -0.00000000000E+00 -0.43647807553E+03  0.43647807553E+03  0.00000000000E+00 0. -1.
         23    2    1    2    0    0 -0.75836596887E+02  0.46557756580E+02 -0.20276725585E+03  0.25432767970E+03  0.12509674054E+03 0.  0.
          5    1    3    3  502    0 -0.31095779403E+02  0.46363819991E+02 -0.20175745322E+03  0.20938026084E+03  0.41800000000E+01 0.  1.
         -5    1    3    3    0  502 -0.44740817484E+02  0.19393658860E+00 -0.10098026261E+01  0.44947418857E+02  0.41800000000E+01 0.  1.
        -11    1    1    2    0    0  0.52906900874E+02 -0.62663903595E+02 -0.17292638152E+03  0.19138818772E+03  0.00000000000E+00 0. -1.
         11    1    1    2    0    0  0.22929696013E+02  0.16106147015E+02 -0.18157125117E+02  0.33389521162E+02  0.00000000000E+00 0.  1.
</event>
<event>
 7    1  0.6833760E-006  0.1006393E+03  0.7561462E-02  0.1278957E+00
          1   -1    0    0  501    0  0.00000000000E+00  0.00000000000E+00  0.21723588625E+03  0.21723588625E+03  0.00000000000E+00 0. -1.
         -1   -1    0    0    0  501 -0.00000000000E+00 -0.00000000000E+00 -0.51862105353E+02  0.51862105353E+02  0.00000000000E+00 0.  1.
         23    2    1    2    0    0  0.30364338014E+02  0.31005388662E+01  0.73103650217E+02  0.13600896391E+03  0.11055626724E+03 0.  0.
          5    1    3    3  502    0  0.40920751658E+02 -0.46834794811E+02  0.49616866622E+02  0.79670018041E+02  0.41800000000E+01 0. -1.
         -5    1    3    3    0  502 -0.10556413643E+02  0.49935333678E+02  0.23486783595E+02  0.56338945874E+02  0.41800000000E+01 0.  1.
        -11    1    1    2    0    0  0.27612537545E+02 -0.99600637973E+01  0.77391110135E+01  0.30357024554E+02  0.00000000000E+00 0. -1.
         11    1    1    2    0    0 -0.57976875559E+02  0.68595249312E+01  0.84531019663E+02  0.10273200313E+03  0.00000000000E+00 0.  1.
</event>
<event>
 7    1  0.6833760E-006  0.1070070E+03  0.7561462E-02  0.1266215E+00
          2   -1    0    0  501    0  0.00000000000E+00  0.00000000000E+00  0.57197102399E+03  0.57197102399E+03  0.00000000000E+00 0. -1.
         -2   -1    0    0    0  501 -0.00000000000E+00 -0.00000000000E+00 -0.24834400880E+02  0.24834400880E+02  0.00000000000E+00 0.  1.
         23    2    1    2    0    0 -0.45659754535E+02 -0.15836032110E+02  0.27991341740E+03  0.31037794772E+03  0.12508939242E+03 0.  0.
          5    1    3    3  502    0  0.37627062275E+02 -0.50330185296E+01  0.15613766950E+03  0.16074069593E+03  0.41800000000E+01 0. -1.
         -5    1    3    3    0  502 -0.83286816810E+02 -0.10803013580E+02  0.12377574789E+03  0.14963725179E+03  0.41800000000E+01 0. -1.
        -11    1    1    2    0    0  0.77875570844E+01  0.43907284714E+02  0.65292212193E+02  0.79066862018E+02  0.00000000000E+00 0. -1.
         11    1    1    2    0    0  0.37872197451E+02 -0.28071252604E+02  0.20193099352E+03  0.20736061513E+03  0.00000000000E+00 0.  1.
</event>
<event>
 7    1  0.6833760E-006  0.1393064E+03  0.7561462E-02  0.1214265E+00
         -1   -1    0    0    0  501 -0.00000000000E+00  0.00000000000E+00  0.88101470774E+02  0.88101470774E+02  0.00000000000E+00 0.  1.
          1   -1    0    0  501    0  0.00000000000E+00 -0.00000000000E+00 -0.42130918516E+03  0.42130918516E+03  0.00000000000E+00 0. -1.
         23    2    1    2    0    0 -0.85604096754E+02  0.27263709107E+02 -0.14394074429E+01  0.15401256252E+03  0.12508567586E+03 0.  0.
          5    1    3    3  502    0  0.32576837004E+02  0.96806908672E+01 -0.36690024968E+01  0.34436899747E+02  0.41800000000E+01 0. -1.
         -5    1    3    3    0  502 -0.11818093376E+03  0.17583018240E+02  0.22295950539E+01  0.11957566278E+03  0.41800000000E+01 0. -1.
        -11    1    1    2    0    0  0.37566867438E+02 -0.57040079871E+02 -0.21653520246E+03  0.22705139098E+03  0.00000000000E+00 0. -1.
         11    1    1    2    0    0  0.48037229316E+02  0.29776370764E+02 -0.11523310448E+03  0.12834670243E+03  0.00000000000E+00 0.  1.
</event>
<event>
 7    1  0.6833760E-006  0.9137055E+02  0.7561462E-02  0.1299566E+00
         -2   -1    0    0    0  501 -0.00000000000E+00  0.00000000000E+00  0.54237300537E+02  0.54237300537E+02  0.00000000000E+00 0.  1.
          2   -1    0    0  501    0  0.00000000000E+00 -0.00000000000E+00 -0.33300860346E+03  0.33300860346E+03  0.00000000000E+00 0. -1.
         23    2    1    2    0    0  0.20146984062E+02  0.65399010024E+02 -0.98433431826E+02  0.17326038924E+03  0.12508833079E+03 0.  0.
          5    1    3    3  502    0 -0.23884800654E+02  0.44143162010E+01 -0.94676053111E+02  0.97831474089E+02  0.41800000000E+01 0.  1.
         -5    1    3    3    0  502  0.44031784716E+02  0.60984693823E+02 -0.37573787151E+01  0.75428915151E+02  0.41800000000E+01 0.  1.
        -11    1    1    2    0    0 -0.35230870141E+02 -0.40819889649E+02 -0.17690894685E+03  0.18494391874E+03  0.00000000000E+00 0. -1.
         11    1    1    2    0    0  0.15083886079E+02 -0.24579120375E+02 -0.34289242417E+01  0.29041596015E+02  0.00000000000E+00 0.  1.
</event>
<event>
 7    1  0.6833760E-006  0.1075312E+03  0.7561462E-02  0.1265211E+00
          1   -1    0    0  501    0  0.00000000000E+00  0.00000000000E+00  0.46268992434E+03  0.46268992434E+03  0.00000000000E+00 0. -1.
         -1   -1    0    0    0  501 -0.00000000000E+00 -0.00000000000E+00 -0.27775237213E+02  0.27775237213E+02  0.00000000000E+00 0.  1.
         23    2    1    2    0    0 -0.36027297103E+01  0.29875094562E+02  0.27618739783E+03  0.30468404969E+03  0.12508952984E+03 0.  0.
          5    1    3    3  502    0 -0.41186601793E+02 -0.29547748555E+02  0.16848799565E+03  0.17599739398E+03  0.41800000000E+01 0.  1.
         -5    1    3    3    0  502  0.37583872083E+02  0.59422843117E+02  0.10769940219E+03  0.12868665571E+03  0.41800000000E+01 0.  1.
        -11    1    1    2    0    0  0.43851589812E+02 -0.30664258926E+02  0.68040999606E+02  0.86561171040E+02  0.00000000000E+00 0.  1.
         11    1    1    2    0    0 -0.40248860102E+02  0.78916436434E+00  0.90686289683E+02  0.99219940820E+02  0.00000000000E+00 0. -1.
</event>
<event>
 7    1  0.6833760E-006  0.1150783E+03  0.7561462E-02  0.1251445E+00
          1   -1    0    0  501    0  0.00000000000E+00  0.00000000000E+00  0.15484514944E+03  0.15484514944E+03  0.00000000000E+00 0. -1.
         -1   -1    0    0    0  501 -0.00000000000E+00 -0.00000000000E+00 -0.96589811436E+02  0.96589811436E+02  0.00000000000E+00 0.  1.
         23    2    1    2    0    0  0.38799766431E+02  0.39042857042E+02  0.30009441414E+02  0.14142239156E+03  0.12676734477E+03 0.  0.
          5    1    3    3  502    0 -0.22882732335E+02 -0.33892945000E+02  0.18638933637E+02  0.45135722073E+02  0.41800000000E+01 0. -1.
         -5    1    3    3    0  502  0.61682498766E+02  0.72935802042E+02  0.11370507777E+02  0.96286669486E+02  0.41800000000E+01 0.  1.
        -11    1    1    2    0    0 -0.61789552469E+02 -0.30534018692E+02  0.43157689593E+02  0.81319501122E+02  0.00000000000E+00 0. -1.
         11    1    1    2    0    0  0.22989786038E+02 -0.85088383497E+01 -0.14911793001E+02  0.28693068198E+02  0.00000000000E+00 0.  1.
</event>
<event>
 7    1  0.6833760E-006  0.1274008E+03  0.7561462E-02  0.1231364E+00
         -2   -1    0    0    0  501 -0.00000000000E+00  0.00000000000E+00  0.26284325828E+02  0.26284325828E+02  0.00000000000E+00 0.  1.
          2   -1    0    0  501    0  0.00000000000E+00 -0.00000000000E+00 -0.64659781201E+03  0.64659781201E+03  0.00000000000E+00 0. -1.
         23    2    1    2    0    0 -0.41089928814E+02  0.59629964785E+02 -0.32620074005E+03  0.35679010933E+03  0.12509254317E+03 0.  0.
          5    1    3    3  502    0 -0.89579929715E+01  0.93319017783E+02 -0.25398792617E+03  0.27076931835E+03  0.41800000000E+01 0.  1.
         -5    1    3    3    0  502 -0.32131935842E+02 -0.33689052997E+02 -0.72212813885E+02  0.86020790987E+02  0.41800000000E+01 0.  1.
        -11    1    1    2    0    0  0.12889849478E+02  0.23298042223E+02 -0.48502515087E+02  0.55330289722E+02  0.00000000000E+00 0.  1.
         11    1    1    2    0    0  0.28200079336E+02 -0.82928007008E+02 -0.24561023104E+03  0.26076173878E+03  0.00000000000E+00 0. -1.
</event>
<event>
 7    1  0.6833760E-006  0.9812191E+02  0.7561462E-02  0.1284296E+00
         -1   -1    0    0    0  501 -0.00000000000E+00  0.00000000000E+00  0.35700218825E+02  0.35700218825E+02  0.00000000000E+00 0.  1.
          1   -1    0    0  501    0  0.00000000000E+00 -0.00000000000E+00 -0.36366125171E+03  0.36366125171E+03  0.00000000000E+00 0. -1.
         23    2    1    2    0    0 -0.44647985108E+01 -0.54942533299E+01 -0.13626601586E+03  0.18511162179E+03  0.12509102366E+03 0.  0.
          5    1    3    3  502    0 -0.17049129053E+02 -0.53711433436E+02 -0.11980878329E+03  0.13246587423E+03  0.41800000000E+01 0. -1.
         -5    1    3    3    0  502  0.12584330543E+02  0.48217180106E+02 -0.16457232570E+02  0.52645747562E+02  0.41800000000E+01 0. -1.
        -11    1    1    2    0    0 -0.20128937913E+01  0.47341190450E+02 -0.63422454912E+02  0.79168477576E+02  0.00000000000E+00 0.  1.
         11    1    1    2    0    0  0.64776923020E+01 -0.41846937120E+02 -0.12827256211E+03  0.13508137116E+03  0.00000000000E+00 0. -1.
</event>
<event>
 7    1  0.6833760E-006  0.1981777E+03  0.7561462E-02  0.1151286E+00
          1   -1    0    0  501    0  0.00000000000E+00  0.00000000000E+00  0.35684028169E+03  0.35684028169E+03  0.00000000000E+00 0. -1.
         -1   -1    0    0    0  501 -0.00000000000E+00 -0.00000000000E+00 -0.16501972259E+03  0.16501972259E+03  0.00000000000E+00 0.  1.
         23    2    1    2    0    0  0.12448983628E+03  0.12043375293E+03 -0.40492551712E+02  0.21746121451E+03  0.12509086653E+03 0.  0.
          5    1    3    3  502    0  0.11622713731E+02 -0.17477505010E+02 -0.32639378607E+02  0.39030143372E+02  0.41800000000E+01 0.  1.
         -5    1    3    3    0  502  0.11286712255E+03  0.13791125794E+03 -0.78531731054E+01  0.17843107114E+03  0.41800000000E+01 0.  1.
        -11    1    1    2    0    0 -0.12349545172E+03 -0.13449893753E+03  0.21558455010E+03  0.28252042233E+03  0.00000000000E+00 0.  1.
         11    1    1    2    0    0 -0.99438455925E+00  0.14065184598E+02  0.16728560714E+02  0.21878367444E+02  0.00000000000E+00 0. -1.
</event>
<event>
 7    1  0.6833760E-006  0.9206641E+02  0.7561462E-02  0.1297923E+00
          2   -1    0    0  501    0  0.00000000000E+00  0.00000000000E+00  0.18049131444E+03  0.18049131444E+03  0.00000000000E+00 0. -1.
         -2   -1    0    0    0  501 -0.00000000000E+00 -0.00000000000E+00 -0.82346185816E+02  0.82346185816E+02  0.00000000000E+00 0.  1.
         23    2    1    2    0    0 -0.40387655515E+02  0.32244175430E+02  0.41338870779E+02  0.14151973175E+03  0.12509229660E+03 0.  0.
          5    1    3    3  502    0 -0.30684176233E+02 -0.42651883784E+02 -0.47899922477E+01  0.52925591987E+02  0.41800000000E+01 0. -1.
         -5    1    3    3    0  502 -0.97034792816E+01  0.74896059215E+02  0.46128863026E+02  0.88594139762E+02  0.41800000000E+01 0. -1.
        -11    1    1    2    0    0  0.10300764823E+02  0.16866231611E+01 -0.25384293098E+02  0.27446544221E+02  0.00000000000E+00 0.  1.
         11    1    1    2    0    0  0.30086890692E+02 -0.33930798591E+02  0.82190550947E+02  0.93871224290E+02  0.00000000000E+00 0. -1.
</event>
<event>
 7    1  0.6833760E-006  0.1732160E+03  0.7561462E-02  0.1174535E+00
         -1   -1    0    0    0  501 -0.00000000000E+00  0.00000000000E+00  0.88204872026E+03  0.88204872026E+03  0.00000000000E+00 0.  1.
          1   -1    0    0  501    0  0.00000000000E+00 -0.00000000000E+00 -0.45832005168E+02  0.45832005168E+02  0.00000000000E+00 0. -1.
         23    2    1    2    0    0 -0.13810052694E+03 -0.25045876481E+02  0.65307533335E+03  0.67959842287E+03  0.12509026288E+03 0.  0.
          5    1    3    3  502    0 -0.59452727524E+02 -0.73848645399E+02  0.35405371005E+03  0.36655115774E+03  0.41800000000E+01 0. -1.
         -5    1    3    3    0  502 -0.78647799416E+02  0.48802768918E+02  0.29902162330E+03  0.31304726513E+03  0.41800000000E+01 0. -1.
        -11    1    1    2    0    0  0.13244461010E+03 -0.77521405687E+00  0.11577236498E+03  0.17591309273E+03  0.00000000000E+00 0. -1.
         11    1    1    2    0    0  0.56559168442E+01  0.25821090538E+02  0.67369016760E+02  0.72369209828E+02  0.00000000000E+00 0.  1.
</event>
<event>
 7    1  0.6833760E-006  0.1495715E+03  0.7561462E-02  0.1201001E+00
          1   -1    0    0  501    0  0.00000000000E+00  0.00000000000E+00  0.52058123787E+02  0.52058123787E+02  0.00000000000E+00 0. -1.
         -1   -1    0    0    0  501 -0.00000000000E+00 -0.00000000000E+00 -0.55483850204E+03  0.55483850204E+03  0.00000000000E+00 0.  1.
         23    2    1    2    0    0 -0.53677859634E+01  0.11506766963E+03 -0.38081315787E+03  0.41705598570E+03  0.12509057632E+03 0.  0.
          5    1    3    3  502    0 -0.14908881914E+02  0.13247797069E+03 -0.37152650862E+03  0.39474308922E+03  0.41800000000E+01 0.  1.
         -5    1    3    3    0  502  0.95410959509E+01 -0.17410301063E+02 -0.92866492443E+01  0.22312896478E+02  0.41800000000E+01 0.  1.
        -11    1    1    2    0    0  0.27696589322E+02 -0.11953647977E+03 -0.10252140984E+03  0.15989593657E+03  0.00000000000E+00 0. -1.
         11    1    1    2    0    0 -0.22328803358E+02  0.44688101380E+01 -0.19445810547E+02  0.29944703560E+02  0.00000000000E+00 0.  1.
</event>
<event>
 7    1  0.6833760E-006  0.1378775E+03  0.7561462E-02  0.1216214E+00
         -1   -1    0    0    0  501 -0.00000000000E+00  0.00000000000E+00  0.23791838521E+02  0.23791838521E+02  0.00000000000E+00 0.  1.
          1   -1    0    0  501    0  0.00000000000E+00 -0.00000000000E+00 -0.11694585276E+04  0.11694585276E+04  0.00000000000E+00 0. -1.
         23    2    1    2    0    0  0.38431079335E+02 -0.12020057126E+03 -0.56392078313E+03  0.59125262870E+03  0.12509155089E+03 0.  0.
          5    1    3    3  502    0  0.11883969975E+02 -0.14641104682E+02 -0.26334898411E+01  0.19493546559E+02  0.41800000000E+01 0. -1.
         -5    1    3    3    0  502  0.26547109359E+02 -0.10555946658E+03 -0.56128729329E+03  0.57175908214E+03  0.41800000000E+01 0. -1.
        -11    1    1    2    0    0 -0.61520883973E+02  0.96361125253E+02 -0.51397997999E+03  0.52654126662E+03  0.00000000000E+00 0. -1.
         11    1    1    2    0    0  0.23089804638E+02  0.23839446012E+02 -0.67765925938E+02  0.75456470780E+02  0.00000000000E+00 0.  1.
</event>
<event>
 7    1  0.6833760E-006  0.1398541E+03  0.7561462E-02  0.1213525E+00
          2   -1    0    0  501    0  0.00000000000E+00  0.00000000000E+00  0.11293843096E+03  0.11293843096E+03  0.00000000000E+00 0.  1.
         -2   -1    0    0    0  501 -0.00000000000E+00 -0.00000000000E+00 -0.22029786503E+03  0.22029786503E+03  0.00000000000E+00 0. -1.
         23    2    1    2    0    0 -0.10780333028E+03  0.40055153234E+02 -0.56621642857E+02  0.17907891725E+03  0.12504908974E+03 0.  0.
          5    1    3    3  502    0 -0.50406776338E+02 -0.20726272594E+02 -0.75561182410E+02  0.93259777844E+02  0.41800000000E+01 0. -1.
         -5    1    3    3    0  502 -0.57396553943E+02  0.60781425828E+02  0.18939539553E+02  0.85819139408E+02  0.41800000000E+01 0. -1.
        -11    1    1    2    0    0  0.51137574967E+02 -0.62183902170E+02 -0.46964795389E+02  0.93207195369E+02  0.00000000000E+00 0.  1.
         11    1    1    2    0    0  0.56665755314E+02  0.22128748936E+02 -0.37729958240E+01  0.60950183365E+02  0.00000000000E+00 0. -1.
</event>
<event>
 7    1  0.6833760E-006  0.1770997E+03  0.7561462E-02  0.1170640E+00
          1   -1    0    0  501    0  0.00000000000E+00  0.00000000000E+00  0.58799152443E+03  0.58799152443E+03  0.00000000000E+00 0. -1.
         -1   -1    0    0    0  501 -0.00000000000E+00 -0.00000000000E+00 -0.61168053128E+02  0.61168053128E+02  0.00000000000E+00 0.  1.
         23    2    1    2    0    0  0.10661956061E+03  0.11017994402E+03  0.23402697002E+03  0.30646889889E+03  0.12508881853E+03 0.  0.
          5    1    3    3  502    0  0.12448823513E+03  0.12090460817E+03  0.22277056594E+03  0.28241714256E+03  0.41800000000E+01 0. -1.
         -5    1    3    3    0  502 -0.17868674516E+02 -0.10724664142E+02  0.11256404077E+02  0.24051756332E+02  0.41800000000E+01 0. -1.
        -11    1    1    2    0    0 -0.84469705425E+02 -0.10798511084E+03  0.17246643036E+03  0.22031927945E+03  0.00000000000E+00 0.  1.
         11    1    1    2    0    0 -0.22149855185E+02 -0.21948331869E+01  0.12033007093E+03  0.12237139922E+03  0.00000000000E+00 0. -1.
</event>
<event>
 7    1  0.6833760E-006  0.8109398E+02  0.7561462E-02  0.1325975E+00
         -3   -1    0    0    0  501 -0.00000000000E+00  0.00000000000E+00  0.35919446511E+03  0.35919446511E+03  0.00000000000E+00 0.  1.
          3   -1    0    0  501    0  0.00000000000E+00 -0.00000000000E+00 -0.42232310108E+02  0.42232310108E+02  0.00000000000E+00 0. -1.
         23    2    1    2    0    0  0.23638007322E+02  0.76252071942E+01  0.26669786091E+03  0.29562382642E+03  0.12509515801E+03 0.  0.
          5    1    3    3  502    0 -0.46521239907E+01  0.51288715473E+02  0.47121401136E+02  0.69929060036E+02  0.41800000000E+01 0.  1.
         -5    1    3    3    0  502  0.28290131312E+02 -0.43663508279E+02  0.21957645977E+03  0.22569476638E+03  0.41800000000E+01 0.  1.
        -11    1    1    2    0    0 -0.38385778456E+02 -0.15744661699E+02 -0.10460518839E+02  0.42787671285E+02  0.00000000000E+00 0. -1.
         11    1    1    2    0    0  0.14747771134E+02  0.81194545046E+01  0.60724812933E+02  0.63015277517E+02  0.00000000000E+00 0.  1.
</event>
<event>
 7    1  0.6833760E-006  0.1207481E+03  0.7561462E-02  0.1241868E+00
         -1   -1    0    0    0  501 -0.00000000000E+00  0.00000000000E+00  0.84954001338E+02  0.84954001338E+02  0.00000000000E+00 0.  1.
          1   -1    0    0  501    0  0.00000000000E+00 -0.00000000000E+00 -0.35040648726E+03  0.35040648726E+03  0.00000000000E+00 0. -1.
         23    2    1    2    0    0 -0.37175221725E+02 -0.65006959541E+02 -0.10207733905E+01  0.14579926491E+03  0.12509389182E+03 0.  0.
          5    1    3    3  502    0  0.29570846740E+02 -0.64176441261E+02 -0.24516170063E+02  0.74910383689E+02  0.41800000000E+01 0.  1.
         -5    1    3    3    0  502 -0.66746068465E+02 -0.83051828005E+00  0.23495396673E+02  0.70888881223E+02  0.41800000000E+01 0.  1.
        -11    1    1    2    0    0  0.20774364199E+01  0.68524029586E+02 -0.99056091794E+02  0.12046562868E+03  0.00000000000E+00 0.  1.
         11    1    1    2    0    0  0.35097785305E+02 -0.35170700448E+01 -0.16537562073E+03  0.16909559500E+03  0.00000000000E+00 0. -1.
</event>
<event>
 7    1  0.6833760E-006  0.9005496E+02  0.7561462E-02  0.1302719E+00
          1   -1    0    0  501    0  0.00000000000E+00  0.00000000000E+00  0.45946397339E+02  0.45946397339E+02  0.00000000000E+00 0. -1.
         -1   -1    0    0    0  501 -0.00000000000E+00 -0.00000000000E+00 -0.31577787704E+03  0.31577787704E+03  0.00000000000E+00 0.  1.
         23    2    1    2    0    0  0.25998984916E+01 -0.28437454893E+02 -0.21603210460E+03  0.25126457908E+03  0.12509424516E+03 0.  0.
          5    1    3    3  502    0 -0.66380018411E+01  0.29893870324E+02 -0.17851941980E+03  0.18117494914E+03  0.41800000000E+01 0. -1.
         -5    1    3    3    0  502  0.92379003327E+01 -0.58331325217E+02 -0.37512684797E+02  0.70089629938E+02  0.41800000000E+01 0. -1.
        -11    1    1    2    0    0  0.10274637126E+01  0.59106339179E+02 -0.53264949733E+02  0.79572419109E+02  0.00000000000E+00 0. -1.
         11    1    1    2    0    0 -0.36273622042E+01 -0.30668884286E+02 -0.53442537169E+00  0.30887276189E+02  0.00000000000E+00 0.  1.
</event>
<event>
 7    1  0.6833760E-006  0.1663461E+03  0.7561462E-02  0.1181713E+00
         -1   -1    0    0    0  501 -0.00000000000E+00  0.00000000000E+00  0.89834570389E+03  0.89834570389E+03  0.00000000000E+00 0.  1.
          1   -1    0    0  501    0  0.00000000000E+00 -0.00000000000E+00 -0.33346966968E+02  0.33346966968E+02  0.00000000000E+00 0. -1.
         23    2    1    2    0    0  0.47167515949E+02  0.12052488763E+03  0.35950436449E+03  0.40204644947E+03  0.12508771460E+03 0.  0.
          5    1    3    3  502    0  0.52986861858E+02 -0.10396277385E+01  0.69411897344E+02  0.87430957036E+02  0.41800000000E+01 0. -1.
         -5    1    3    3    0  502 -0.58193459087E+01  0.12156451537E+03  0.29009246714E+03  0.31461549243E+03  0.41800000000E+01 0. -1.
        -11    1    1    2    0    0  0.19095156413E+02  0.12322190578E+01  0.73894429086E+02  0.76331710397E+02  0.00000000000E+00 0. -1.
         11    1    1    2    0    0 -0.66262672362E+02 -0.12175710669E+03  0.43159994335E+03  0.45331451100E+03  0.00000000000E+00 0.  1.
</event>
<event>
 7    1  0.6833760E-006  0.1075824E+03  0.7561462E-02  0.1265113E+00
         -1   -1    0    0    0  501 -0.00000000000E+00  0.00000000000E+00  0.12914821686E+02  0.12914821686E+02  0.00000000000E+00 0.  1.
          1   -1    0    0  501    0  0.00000000000E+00 -0.00000000000E+00 -0.11081017141E+04  0.11081017141E+04  0.00000000000E+00 0. -1.
         23    2    1    2    0    0 -0.50561607504E+02 -0.34225682692E+01 -0.62957246403E+03  0.64387604827E+03  0.12508672168E+03 0.  0.
          5    1    3    3  502    0 -0.41166889666E+02  0.46998577032E+02 -0.50823094940E+03  0.51207396866E+03  0.41800000000E+01 0. -1.
         -5    1    3    3    0  502 -0.93947178372E+01 -0.50421145301E+02 -0.12134151463E+03  0.13180207961E+03  0.41800000000E+01 0. -1.
        -11    1    1    2    0    0  0.44897276326E+02 -0.38280647844E+02 -0.32690891187E+03  0.33219062311E+03  0.00000000000E+00 0.  1.
         11    1    1    2    0    0  0.56643311780E+01  0.41703216113E+02 -0.13870551655E+03  0.14494986445E+03  0.00000000000E+00 0. -1.
</event>
<event>
 7    1  0.6833760E-006  0.2689391E+03  0.7561462E-02  0.1101888E+00
          2   -1    0    0  501    0  0.00000000000E+00  0.00000000000E+00  0.97517315456E+02  0.97517315456E+02  0.00000000000E+00 0. -1.
         -2   -1    0    0    0  501 -0.00000000000E+00 -0.00000000000E+00 -0.80424693430E+03  0.80424693430E+03  0.00000000000E+00 0.  1.
         23    2    1    2    0    0  0.20265475620E+03 -0.14901762116E+03 -0.45138896574E+03  0.53167172411E+03  0.12509045608E+03 0.  0.
          5    1    3    3  502    0  0.18724228528E+03 -0.70429069573E+02 -0.33806620788E+03  0.39284368462E+03  0.41800000000E+01 0. -1.
         -5    1    3    3    0  502  0.15412470930E+02 -0.78588551583E+02 -0.11332275786E+03  0.13882803949E+03  0.41800000000E+01 0. -1.
        -11    1    1    2    0    0 -0.25689035314E+02 -0.83221206621E+00 -0.65650333015E+02  0.70502378239E+02  0.00000000000E+00 0.  1.
         11    1    1    2    0    0 -0.17696572089E+03  0.14984983322E+03 -0.18969032009E+03  0.29959014741E+03  0.00000000000E+00 0. -1.
</event>
<event>
 7    1  0.6833760E-006  0.1333757E+03  0.7561462E-02  0.1222531E+00
          3   -1    0    0  501    0  0.00000000000E+00  0.00000000000E+00  0.11595672824E+03  0.11595672824E+03  0.00000000000E+00 0. -1.
         -3   -1    0    0    0  501 -0.00000000000E+00 -0.00000000000E+00 -0.20837554990E+03  0.20837554990E+03  0.00000000000E+00 0.  1.
         23    2    1    2    0    0 -0.92364243549E+01  0.80213495770E+02 -0.12912034901E+03  0.19712110232E+03  0.12516048903E+03 0.  0.
          5    1    3    3  502    0 -0.63453891218E+02  0.27702566111E+02 -0.39297414843E+02  0.79721939848E+02  0.41800000000E+01 0.  1.
         -5    1    3    3    0  502  0.54217466863E+02  0.52510929659E+02 -0.89822934170E+02  0.11739916247E+03  0.41800000000E+01 0.  1.
        -11    1    1    2    0    0 -0.37134430573E+02 -0.11456070532E+02  0.12377251879E+02  0.40784848291E+02  0.00000000000E+00 0. -1.
         11    1    1    2    0    0  0.46370854928E+02 -0.68757425238E+02  0.24324275478E+02  0.86426327526E+02  0.00000000000E+00 0.  1.
</event>
<event>
 7    1  0.6833760E-006  0.1460773E+03  0.7561462E-02  0.1205378E+00
         -1   -1    0    0    0  501 -0.00000000000E+00  0.00000000000E+00  0.26563839348E+02  0.26563839348E+02  0.00000000000E+00 0.  1.
          1   -1    0    0  501    0  0.00000000000E+00 -0.00000000000E+00 -0.99767329482E+03  0.99767329482E+03  0.00000000000E+00 0. -1.
         23    2    1    2    0    0  0.10922058737E+03  0.48141628974E+02 -0.52184906062E+03  0.54974579032E+03  0.12508892338E+03 0.  0.
          5    1    3    3  502    0 -0.18631950758E+02  0.16812640971E+02 -0.20561505003E+03  0.20718309700E+03  0.41800000000E+01 0.  1.
         -5    1    3    3    0  502  0.12785253812E+03  0.31328988003E+02 -0.31623401059E+03  0.34256269331E+03  0.41800000000E+01 0.  1.
        -11    1    1    2    0    0 -0.40331337054E+01 -0.27529690834E+02 -0.26750946783E+02  0.38597450675E+02  0.00000000000E+00 0.  1.
         11    1    1    2    0    0 -0.10518745366E+03 -0.20611938141E+02 -0.42250944807E+03  0.43589389318E+03  0.00000000000E+00 0. -1.
</event>
<event>
 7    1  0.6833760E-006  0.7345439E+02  0.7561462E-02  0.1348725E+00
         -1   -1    0    0    0  501 -0.00000000000E+00  0.00000000000E+00  0.14861260504E+03  0.14861260504E+03  0.00000000000E+00 0.  1.
          1   -1    0    0  501    0  0.00000000000E+00 -0.00000000000E+00 -0.88582698003E+02  0.88582698003E+02  0.00000000000E+00 0. -1.
         23    2    1    2    0    0 -0.33500662648E+01 -0.40794149426E+02  0.68188278918E+02  0.13671238578E+03  0.11119914331E+03 0.  0.
          5    1    3    3  502    0 -0.17027024387E+01  0.14079699587E+01 -0.29671531375E+02  0.30045860765E+02  0.41800000000E+01 0. -1.
         -5    1    3    3    0  502 -0.16473638261E+01 -0.42202119385E+02  0.97859810293E+02  0.10666652501E+03  0.41800000000E+01 0.  1.
        -11    1    1    2    0    0  0.18525534320E+02  0.66969105362E+02 -0.14867557076E+01  0.69500121851E+02  0.00000000000E+00 0. -1.
         11    1    1    2    0    0 -0.15175468055E+02 -0.26174955936E+02 -0.66716161773E+01  0.30982795409E+02  0.00000000000E+00 0.  1.
</event>
<event>
 7    1  0.6833760E-006  0.1492008E+03  0.7561462E-02  0.1201458E+00
          3   -1    0    0  501    0  0.00000000000E+00  0.00000000000E+00  0.59814310701E+03  0.59814310701E+03  0.00000000000E+00 0. -1.
         -3   -1    0    0    0  501 -0.00000000000E+00 -0.00000000000E+00 -0.52605091702E+02  0.52605091702E+02  0.00000000000E+00 0.  1.
         23    2    1    2    0    0 -0.87666163421E+02 -0.10870250955E+03  0.29049783860E+03  0.34574347169E+03  0.12509181506E+03 0.  0.
          5    1    3    3  502    0 -0.14848679641E+02 -0.11352806451E+02 -0.99655634427E+01  0.21590608054E+02  0.41800000000E+01 0. -1.
         -5    1    3    3    0  502 -0.72817483780E+02 -0.97349703096E+02  0.30046340204E+03  0.32415286364E+03  0.41800000000E+01 0. -1.
        -11    1    1    2    0    0  0.49038428934E+02  0.79187578433E+01  0.13358365984E+03  0.14252041403E+03  0.00000000000E+00 0. -1.
         11    1    1    2    0    0  0.38627734488E+02  0.10078375170E+03  0.12145651686E+03  0.16248431299E+03  0.00000000000E+00 0.  1.
</event>
<event>
 7    1  0.6833760E-006  0.1227698E+03  0.7561462E-02  0.1238596E+00
          2   -1    0    0  501    0  0.00000000000E+00  0.00000000000E+00  0.15164776252E+03  0.15164776252E+03  0.00000000000E+00 0. -1.
         -2   -1    0    0    0  501 -0.00000000000E+00 -0.00000000000E+00 -0.19294982004E+03  0.19294982004E+03  0.00000000000E+00 0.  1.
         23    2    1    2    0    0  0.49586705195E+00 -0.74313883362E+02 -0.13290499648E+03  0.19706319169E+03  0.12508942515E+03 0.  0.
          5    1    3    3  502    0  0.29808586373E+02  0.17837584606E+02 -0.78700136216E+02  0.86127319049E+02  0.41800000000E+01 0.  1.
         -5    1    3    3    0  502 -0.29312719321E+02 -0.92151467969E+02 -0.54204860269E+02  0.11093587265E+03  0.41800000000E+01 0.  1.
        -11    1    1    2    0    0  0.23357326996E+02 -0.10533694225E+02  0.10268665950E+02  0.27603784864E+02  0.00000000000E+00 0.  1.
         11    1    1    2    0    0 -0.23853194048E+02  0.84847577587E+02  0.81334273012E+02  0.11993060600E+03  0.00000000000E+00 0. -1.
</event>
<event>
 7    1  0.6833760E-006  0.1248924E+03  0.7561462E-02  0.1235238E+00
         -2   -1    0    0    0  501 -0.00000000000E+00  0.00000000000E+00  0.26329797079E+03  0.26329797079E+03  0.00000000000E+00 0.  1.
          2   -1    0    0  501    0  0.00000000000E+00 -0.00000000000E+00 -0.64915387983E+02  0.64915387983E+02  0.00000000000E+00 0. -1.
         23    2    1    2    0    0 -0.64026303535E+02 -0.32092506588E+02  0.10844613862E+03  0.18038128249E+03  0.12509014975E+03 0.  0.
          5    1    3    3  502    0  0.29827273729E+02  0.76196976502E+01  0.59779161064E+02  0.67370220037E+02  0.41800000000E+01 0. -1.
         -5    1    3    3    0  502 -0.93853577264E+02 -0.39712204238E+02  0.48666977560E+02  0.11301106245E+03  0.41800000000E+01 0. -1.
        -11    1    1    2    0    0 -0.23085817532E+02 -0.20083393567E+01  0.24136284907E+02  0.33459657009E+02  0.00000000000E+00 0.  1.
         11    1    1    2    0    0  0.87112121066E+02  0.34100845944E+02  0.65800159275E+02  0.11437241928E+03  0.00000000000E+00 0. -1.
</event>
<event>
 7    1  0.6833760E-006  0.1324271E+03  0.7561462E-02  0.1223898E+00
          2   -1    0    0  501    0  0.00000000000E+00  0.00000000000E+00  0.43114987646E+02  0.43114987646E+02  0.00000000000E+00 0.  1.
         -2   -1    0    0    0  501 -0.00000000000E+00 -0.00000000000E+00 -0.61517163143E+03  0.61517163143E+03  0.00000000000E+00 0. -1.
         23    2    1    2    0    0  0.94347700186E+02 -0.70273669583E+02 -0.36168105203E+03  0.40037840773E+03  0.12509919587E+03 0.  0.
          5    1    3    3  502    0  0.64061769076E+02 -0.43867771124E+02 -0.66112488800E+02  0.10206186935E+03  0.41800000000E+01 0. -1.
         -5    1    3    3    0  502  0.30285931110E+02 -0.26405898459E+02 -0.29556856323E+03  0.29831653837E+03  0.41800000000E+01 0. -1.
        -11    1    1    2    0    0 -0.43776531468E+02  0.83631708951E+02 -0.15688434851E+03  0.18309381818E+03  0.00000000000E+00 0. -1.
         11    1    1    2    0    0 -0.50571168718E+02 -0.13358039369E+02 -0.53491243248E+02  0.74814393170E+02  0.00000000000E+00 0.  1.
</event>
<event>
 7    1  0.6833760E-006  0.9354414E+02  0.7561462E-02  0.1294489E+00
         -2   -1    0    0    0  501 -0.00000000000E+00  0.00000000000E+00  0.13105711689E+03  0.13105711689E+03  0.00000000000E+00 0.  1.
          2   -1    0    0  501    0  0.00000000000E+00 -0.00000000000E+00 -0.12360061099E+03  0.12360061099E+03  0.00000000000E+00 0. -1.
         23    2    1    2    0    0  0.29821688262E+02  0.23259422832E+02  0.56104285563E+02  0.14220927068E+03  0.12508178112E+03 0.  0.
          5    1    3    3  502    0  0.59137348255E+02  0.39669059791E+02  0.74944570703E+02  0.10346507305E+03  0.41800000000E+01 0.  1.
         -5    1    3    3    0  502 -0.29315659994E+02 -0.16409636958E+02 -0.18840285140E+02  0.38744197632E+02  0.41800000000E+01 0.  1.
        -11    1    1    2    0    0  0.19370032093E+02 -0.26244501648E+02  0.11592849481E+02  0.34617425802E+02  0.00000000000E+00 0.  1.
         11    1    1    2    0    0 -0.49191720355E+02  0.29850788160E+01 -0.60240629145E+02  0.77831031387E+02  0.00000000000E+00 0. -1.
</event>
<event>
 7    1  0.6833760E-006  0.2004857E+03  0.7561462E-02  0.1149330E+00
         -4   -1    0    0    0  501 -0.00000000000E+00  0.00000000000E+00  0.23344226786E+03  0.23344226786E+03  0.00000000000E+00 0.  1.
          4   -1    0    0  501    0  0.00000000000E+00 -0.00000000000E+00 -0.19606003806E+03  0.19606003806E+03  0.00000000000E+00 0. -1.
         23    2    1    2    0    0 -0.17825478287E+03 -0.27681369193E+02  0.44354791944E+02  0.22395506497E+03  0.12508995860E+03 0.  0.
          5    1    3    3  502    0 -0.13081076831E+03 -0.55576618484E+02  0.75069498437E+02  0.16078905318E+03  0.41800000000E+01 0. -1.
         -5    1    3    3    0  502 -0.47444014558E+02  0.27895249291E+02 -0.30714706493E+02  0.63166011789E+02  0.41800000000E+01 0. -1.
        -11    1    1    2    0    0  0.47749030445E+02 -0.34614079299E+02 -0.14528097344E+02  0.60738538068E+02  0.00000000000E+00 0. -1.
         11    1    1    2    0    0  0.13050575242E+03  0.62295448492E+02  0.75555351995E+01  0.14480870288E+03  0.00000000000E+00 0.  1.
</event>
<event>
 7    1  0.6833760E-006  0.1046065E+03  0.7561462E-02  0.1270897E+00
          3   -1    0    0  501    0  0.00000000000E+00  0.00000000000E+00  0.15206811177E+03  0.15206811177E+03  0.00000000000E+00 0. -1.
         -3   -1    0    0    0  501 -0.00000000000E+00 -0.00000000000E+00 -0.20383093458E+03  0.20383093458E+03  0.00000000000E+00 0.  1.
         23    2    1    2    0    0  0.23119696667E+02  0.74562983224E+02 -0.14298683761E+03  0.20539529448E+03  0.12509129635E+03 0.  0.
          5    1    3    3  502    0  0.53303752667E+02  0.80864242152E+02 -0.14476696161E+03  0.17422761343E+03  0.41800000000E+01 0. -1.
         -5    1    3    3    0  502 -0.30184056000E+02 -0.63012589282E+01  0.17801239962E+01  0.31167681052E+02  0.41800000000E+01 0. -1.
        -11    1    1    2    0    0 -0.16361091076E+02 -0.18548013355E+02  0.90771497166E+02  0.94080703645E+02  0.00000000000E+00 0. -1.
         11    1    1    2    0    0 -0.67586055914E+01 -0.56014969869E+02  0.45251763694E+00  0.56423048227E+02  0.00000000000E+00 0.  1.
</event>
<event>
 7    1  0.6833760E-006  0.1157208E+03  0.7561462E-02  0.1250328E+00
         -1   -1    0    0    0  501 -0.00000000000E+00  0.00000000000E+00  0.11091286851E+03  0.11091286851E+03  0.00000000000E+00 0.  1.
          1   -1    0    0  501    0  0.00000000000E+00 -0.00000000000E+00 -0.20163946355E+03  0.20163946355E+03  0.00000000000E+00 0. -1.
         23    2    1    2    0    0 -0.79038274705E+02 -0.34059394518E+01  0.19851595711E+02  0.14933295262E+03  0.12509034972E+03 0.  0.
          5    1    3    3  502    0 -0.58054344028E+02 -0.53921707176E+02 -0.19638969081E+02  0.81737499790E+02  0.41800000000E+01 0. -1.
         -5    1    3    3    0  502 -0.20983930677E+02  0.50515767724E+02  0.39490564792E+02  0.67595452828E+02  0.41800000000E+01 0. -1.
        -11    1    1    2    0    0  0.62286419120E+02 -0.22637417224E+02 -0.22711911397E+02  0.70056274413E+02  0.00000000000E+00 0.  1.
         11    1    1    2    0    0  0.16751855586E+02  0.26043356675E+02 -0.87866279350E+02  0.93163105033E+02  0.00000000000E+00 0. -1.
</event>
<event>
 7    1  0.6833760E-006  0.1241210E+03  0.7561462E-02  0.1236449E+00
          1   -1    0    0  501    0  0.00000000000E+00  0.00000000000E+00  0.18551033929E+02  0.18551033929E+02  0.00000000000E+00 0. -1.
         -1   -1    0    0    0  501 -0.00000000000E+00 -0.00000000000E+00 -0.83822956687E+03  0.83822956687E+03  0.00000000000E+00 0.  1.
         23    2    1    2    0    0 -0.58765214979E+02  0.20340028454E+02 -0.46891267255E+03  0.48927890698E+03  0.12509071545E+03 0.  0.
          5    1    3    3  502    0  0.26828750517E+01  0.63978520980E+02 -0.22140950349E+03  0.23052134305E+03  0.41800000000E+01 0. -1.
         -5    1    3    3    0  502 -0.61448090031E+02 -0.43638492526E+02 -0.24750316905E+03  0.25875756393E+03  0.41800000000E+01 0. -1.
        -11    1    1    2    0    0 -0.17073186060E+02 -0.27546121130E+02 -0.82759999397E+02  0.88879131250E+02  0.00000000000E+00 0. -1.
         11    1    1    2    0    0  0.75838401038E+02  0.72060926764E+01 -0.26800586100E+03  0.27862256257E+03  0.00000000000E+00 0.  1.
</event>
<event>
 7    1  0.6833760E-006  0.1064929E+03  0.7561462E-02  0.1267206E+00
         -1   -1    0    0    0  501 -0.00000000000E+00  0.00000000000E+00  0.11230810977E+04  0.11230810977E+04  0.00000000000E+00 0.  1.
          1   -1    0    0  501    0  0.00000000000E+00 -0.00000000000E+00 -0.19551036903E+02  0.19551036903E+02  0.00000000000E+00 0. -1.
         23    2    1    2    0    0  0.18740803115E+02  0.88545561356E+02  0.76378332941E+03  0.77923163134E+03  0.12508168076E+03 0.  0.
          5    1    3    3  502    0  0.33123486920E+01  0.96144852117E+02  0.75160318073E+03  0.75774640740E+03  0.41800000000E+01 0. -1.
         -5    1    3    3    0  502  0.15428454424E+02 -0.75992907612E+01  0.12180148678E+02  0.21485223941E+02  0.41800000000E+01 0. -1.
        -11    1    1    2    0    0  0.34559612302E+01 -0.69955440683E+02  0.32180475682E+03  0.32933874485E+03  0.00000000000E+00 0.  1.
         11    1    1    2    0    0 -0.22196764346E+02 -0.18590120673E+02  0.17941974552E+02  0.34061758394E+02  0.00000000000E+00 0. -1.
</event>
<event>
 6    1  0.6833760E-006  0.1018650E+03  0.7561462E-02  0.1276422E+00
         -1   -1    0    0    0  501 -0.00000000000E+00  0.00000000000E+00  0.47179603983E+02  0.47179603983E+02  0.00000000000E+00 0.  1.
          1   -1    0    0  501    0  0.00000000000E+00 -0.00000000000E+00 -0.46673493641E+03  0.46673493641E+03  0.00000000000E+00 0. -1.
          5    1    1    2  502    0  0.27811731091E+01 -0.36770844886E+02 -0.98387321040E+02  0.10515401704E+03  0.41800000000E+01 0. -1.
         -5    1    1    2    0  502 -0.54420392252E+02  0.36914352173E+02  0.51840033596E+01  0.66095346130E+02  0.41800000000E+01 0.  1.
        -11    1    1    2    0    0 -0.17352785010E+02 -0.22306947738E+02 -0.13778809796E+03  0.14065659958E+03  0.00000000000E+00 0.  1.
         11    1    1    2    0    0  0.68992004153E+02  0.22163440452E+02 -0.18856391678E+03  0.20200857765E+03  0.00000000000E+00 0. -1.
</event>
<event>
 7    1  0.6833760E-006  0.1617013E+03  0.7561462E-02  0.1186789E+00
          1   -1    0    0  501    0  0.00000000000E+00  0.00000000000E+00  0.49199278706E+03  0.49199278706E+03  0.00000000000E+00 0. -1.
         -1   -1    0    0    0  501 -0.00000000000E+00 -0.00000000000E+00 -0.65420552689E+02  0.65420552689E+02  0.00000000000E+00 0.  1.
         23    2    1    2    0    0 -0.95029209406E+02 -0.73036681049E+02  0.10542984563E+03  0.20280090093E+03  0.12509134921E+03 0.  0.
          5    1    3    3  502    0 -0.86605030879E+02 -0.10702965915E+03  0.79655994923E+02  0.15911734424E+03  0.41800000000E+01 0.  1.
         -5    1    3    3    0  502 -0.84241785276E+01  0.33992978103E+02  0.25773850709E+02  0.43683556684E+02  0.41800000000E+01 0.  1.
        -11    1    1    2    0    0  0.10664534244E+03  0.37571090908E+02  0.24068057109E+03  0.26591719244E+03  0.00000000000E+00 0.  1.
         11    1    1    2    0    0 -0.11616133038E+02  0.35465590141E+02  0.80461817655E+02  0.88695246384E+02  0.00000000000E+00 0. -1.
</event>
<event>
 7    1  0.6833760E-006  0.1205980E+03  0.7561462E-02  0.1242114E+00
          1   -1    0    0  501    0  0.00000000000E+00  0.00000000000E+00  0.13532907971E+04  0.13532907971E+04  0.00000000000E+00 0. -1.
         -1   -1    0    0    0  501 -0.00000000000E+00 -0.00000000000E+00 -0.18966102157E+02  0.18966102157E+02  0.00000000000E+00 0.  1.
         23    2    1    2    0    0  0.10444317638E+03  0.18416826573E+02  0.86386736334E+03  0.87929596340E+03  0.12508802183E+03 0.  0.
          5    1    3    3  502    0  0.74345331377E+02  0.40568899803E+02  0.80492857549E+03  0.80938281917E+03  0.41800000000E+01 0.  1.
         -5    1    3    3    0  502  0.30097845001E+02 -0.22152073230E+02  0.58938787853E+02  0.69913144227E+02  0.41800000000E+01 0.  1.
        -11    1    1    2    0    0 -0.23691946478E+02  0.18447496584E+02  0.25979806232E+02  0.39706029643E+02  0.00000000000E+00 0.  1.
         11    1    1    2    0    0 -0.80751229899E+02 -0.36864323157E+02  0.44447752534E+03  0.45325490619E+03  0.00000000000E+00 0. -1.
</event>
<event>
 7    1  0.6833760E-006  0.1139863E+03  0.7561462E-02  0.1253361E+00
         -1   -1    0    0    0  501 -0.00000000000E+00  0.00000000000E+00  0.91313365752E+02  0.91313365752E+02  0.00000000000E+00 0.  1.
          1   -1    0    0  501    0  0.00000000000E+00 -0.00000000000E+00 -0.15799319978E+03  0.15799319978E+03  0.00000000000E+00 0. -1.
         23    2    1    2    0    0  0.16792878441E+02 -0.39804801178E+02 -0.10641080254E+02  0.13277447548E+03  0.12509758506E+03 0.  0.
          5    1    3    3  502    0  0.24806009297E+02 -0.80667506982E+02 -0.25662871596E+02  0.88309909741E+02  0.41800000000E+01 0.  1.
         -5    1    3    3    0  502 -0.80131308556E+01  0.40862705803E+02  0.15021791342E+02  0.44464565744E+02  0.41800000000E+01 0.  1.
        -11    1    1    2    0    0 -0.42973281617E+02 -0.11097557587E+02 -0.30500988083E+02  0.53853217094E+02  0.00000000000E+00 0. -1.
         11    1    1    2    0    0  0.26180403176E+02  0.50902358765E+02 -0.25537765691E+02  0.62678872954E+02  0.00000000000E+00 0.  1.
</event>
<event>
 7    1  0.6833760E-006  0.1114643E+03  0.7561462E-02  0.1257882E+00
         -2   -1    0    0    0  501 -0.00000000000E+00  0.00000000000E+00  0.14864426849E+02  0.14864426849E+02  0.00000000000E+00 0.  1.
          2   -1    0    0  501    0  0.00000000000E+00 -0.00000000000E+00 -0.10277560115E+04  0.10277560115E+04  0.00000000000E+00 0. -1.
         23    2    1    2    0    0  0.24566347472E+02  0.52722467871E+02 -0.60095744995E+03  0.61658823739E+03  0.12509210122E+03 0.  0.
          5    1    3    3  502    0 -0.45195243388E+02  0.28938916103E+02 -0.37584622635E+03  0.37968135212E+03  0.41800000000E+01 0.  1.
         -5    1    3    3    0  502  0.69761590859E+02  0.23783551768E+02 -0.22511122360E+03  0.23690688527E+03  0.41800000000E+01 0.  1.
        -11    1    1    2    0    0 -0.39898860441E+02 -0.64568522300E+02 -0.38742195165E+03  0.39478700809E+03  0.00000000000E+00 0. -1.
         11    1    1    2    0    0  0.15332512969E+02  0.11846054429E+02 -0.24512183032E+02  0.31245192854E+02  0.00000000000E+00 0.  1.
</event>
<event>
 7    1  0.6833760E-006  0.1070395E+03  0.7561462E-02  0.1266153E+00
         -1   -1    0    0    0  501 -0.00000000000E+00  0.00000000000E+00  0.70767030996E+02  0.70767030996E+02  0.00000000000E+00 0.  1.
          1   -1    0    0  501    0  0.00000000000E+00 -0.00000000000E+00 -0.18307164803E+03  0.18307164803E+03  0.00000000000E+00 0. -1.
         23    2    1    2    0    0  0.38919538656E+01 -0.32832856261E+01 -0.25925848438E+02  0.12784990741E+03  0.12509005531E+03 0.  0.
          5    1    3    3  502    0 -0.35230477997E+02 -0.51646786268E+02 -0.94828396476E+01  0.63371711035E+02  0.41800000000E+01 0. -1.
         -5    1    3    3    0  502  0.39122431862E+02  0.48363500642E+02 -0.16443008791E+02  0.64478196371E+02  0.41800000000E+01 0. -1.
        -11    1    1    2    0    0  0.38870569354E+02 -0.16164075669E+02 -0.25968463119E+02  0.49462708993E+02  0.00000000000E+00 0.  1.
         11    1    1    2    0    0 -0.42762523220E+02  0.19447361295E+02 -0.60410305478E+02  0.76526062628E+02  0.00000000000E+00 0. -1.
</event>
<event>
 7    1  0.6833760E-006  0.1874397E+03  0.7561462E-02  0.1160791E+00
         -2   -1    0    0    0  501 -0.00000000000E+00  0.00000000000E+00  0.87734485095E+02  0.87734485095E+02  0.00000000000E+00 0.  1.
          2   -1    0    0  501    0  0.00000000000E+00 -0.00000000000E+00 -0.46925995970E+03  0.46925995970E+03  0.00000000000E+00 0. -1.
         23    2    1    2    0    0 -0.11218105534E+03  0.12478598673E+03 -0.24964900655E+03  0.32577281144E+03  0.12508863475E+03 0.  0.
          5    1    3    3  502    0 -0.12563834418E+03  0.70186044130E+02 -0.13208221201E+03  0.19538233659E+03  0.41800000000E+01 0.  1.
         -5    1    3    3    0  502  0.13457288848E+02  0.54599942603E+02 -0.11756679454E+03  0.13039047485E+03  0.41800000000E+01 0.  1.
        -11    1    1    2    0    0  0.84344145033E+02 -0.58566665101E+02 -0.12079166273E+03  0.15853900103E+03  0.00000000000E+00 0.  1.
         11    1    1    2    0    0  0.27836910303E+02 -0.66219321632E+02 -0.11084805327E+02  0.72682632325E+02  0.00000000000E+00 0. -1.
</event>
<event>
 7    1  0.6983994E-006  0.1674126E+03  0.7561462E-02  0.1180573E+00
         -1   -1    0    0    0  501 -0.00000000000E+00  0.00000000000E+00  0.57295821521E+03  0.57295821521E+03  0.00000000000E+00 0.  1.
          1   -1    0    0  501    0  0.00000000000E+00 -0.00000000000E+00 -0.71015798378E+02  0.71015798378E+02  0.00000000000E+00 0. -1.
         23    2    1    2    0    0  0.16610703818E+03 -0.17898778133E+02  0.31262828389E+03  0.37589353113E+03  0.12509032124E+03 0.  0.
          5    1    3    3  502    0  0.14060755202E+03 -0.16585928828E+02  0.13263178245E+03  0.19404700161E+03  0.41800000000E+01 0. -1.
         -5    1    3    3    0  502  0.25499486167E+02 -0.13128493050E+01  0.17999650144E+03  0.18184652952E+03  0.41800000000E+01 0. -1.
        -11    1    1    2    0    0 -0.92898000559E+02  0.55390000991E+01  0.16591971734E+03  0.19023688294E+03  0.00000000000E+00 0.  1.
         11    1    1    2    0    0 -0.73209037626E+02  0.12359778034E+02  0.23394415603E+02  0.77843599509E+02  0.00000000000E+00 0. -1.
</event>
<event>
 7    1  0.6833760E-006  0.1545249E+03  0.7561462E-02  0.1195020E+00
         -2   -1    0    0    0  501 -0.00000000000E+00  0.00000000000E+00  0.42686454870E+02  0.42686454870E+02  0.00000000000E+00 0.  1.
          2   -1    0    0  501    0  0.00000000000E+00 -0.00000000000E+00 -0.97037814094E+03  0.97037814094E+03  0.00000000000E+00 0. -1.
         23    2    1    2    0    0  0.50862556894E+01  0.15318792011E+03 -0.28920624958E+03  0.35040401450E+03  0.12510119790E+03 0.  0.
          5    1    3    3  502    0  0.37936973556E+01  0.96489733771E+02 -0.27542355970E+03  0.29189085375E+03  0.41800000000E+01 0. -1.
         -5    1    3    3    0  502  0.12925583339E+01  0.56698186336E+02 -0.13782689881E+02  0.58513160752E+02  0.41800000000E+01 0. -1.
        -11    1    1    2    0    0 -0.13894508138E+02 -0.47950679622E+02 -0.80155605118E+02  0.94431171042E+02  0.00000000000E+00 0.  1.
         11    1    1    2    0    0  0.88082524482E+01 -0.10523724049E+03 -0.55832983137E+03  0.56822941026E+03  0.00000000000E+00 0. -1.
</event>
<event>
 7    1  0.6833760E-006  0.1261323E+03  0.7561462E-02  0.1233310E+00
          1   -1    0    0  501    0  0.00000000000E+00  0.00000000000E+00  0.37259496357E+02  0.37259496357E+02  0.00000000000E+00 0. -1.
         -1   -1    0    0    0  501 -0.00000000000E+00 -0.00000000000E+00 -0.74440152758E+03  0.74440152758E+03  0.00000000000E+00 0.  1.
         23    2    1    2    0    0 -0.89005940194E+02  0.86124092583E+02 -0.42835856033E+03  0.46311758366E+03  0.12508966135E+03 0.  0.
          5    1    3    3  502    0 -0.67200939192E+02  0.57533751696E+02 -0.41529579732E+03  0.42463416076E+03  0.41800000000E+01 0.  1.
         -5    1    3    3    0  502 -0.21805001002E+02  0.28590340887E+02 -0.13062763006E+02  0.38483422900E+02  0.41800000000E+01 0.  1.
        -11    1    1    2    0    0  0.15104236950E+02 -0.33593232040E+02 -0.18292849969E+03  0.18659978352E+03  0.00000000000E+00 0.  1.
         11    1    1    2    0    0  0.73901703244E+02 -0.52530860543E+02 -0.95854971200E+02  0.13194365675E+03  0.00000000000E+00 0. -1.
</event>
<event>
 7    1  0.6833760E-006  0.8036030E+02  0.7561462E-02  0.1328032E+00
         -1   -1    0    0    0  501 -0.00000000000E+00  0.00000000000E+00  0.45415974792E+03  0.45415974792E+03  0.00000000000E+00 0.  1.
          1   -1    0    0  501    0  0.00000000000E+00 -0.00000000000E+00 -0.50897260138E+02  0.50897260138E+02  0.00000000000E+00 0. -1.
         23    2    1    2    0    0  0.12809611035E+02  0.17882991962E+02  0.39189537713E+03  0.41196309882E+03  0.12509084953E+03 0.  0.
          5    1    3    3  502    0 -0.35896580670E+02  0.27531841748E+02  0.54702284730E+02  0.71108221525E+02  0.41800000000E+01 0. -1.
         -5    1    3    3    0  502  0.48706191705E+02 -0.96488497861E+01  0.33719309240E+03  0.34085487729E+03  0.41800000000E+01 0. -1.
        -11    1    1    2    0    0 -0.28821725979E+02 -0.32739084557E+02  0.38557395169E+02  0.58216941420E+02  0.00000000000E+00 0.  1.
         11    1    1    2    0    0  0.16012114944E+02  0.14856092595E+02 -0.27190284517E+02  0.34876967819E+02  0.00000000000E+00 0. -1.
</event>
<event>
 7    1  0.6833760E-006  0.1058155E+03  0.7561462E-02  0.1268521E+00
          3   -1    0    0  501    0  0.00000000000E+00  0.00000000000E+00  0.12181878837E+03  0.12181878837E+03  0.00000000000E+00 0. -1.
         -3   -1    0    0    0  501 -0.00000000000E+00 -0.00000000000E+00 -0.10683378661E+03  0.10683378661E+03  0.00000000000E+00 0.  1.
         23    2    1    2    0    0  0.74678151691E+01  0.21265010187E+02 -0.22982529175E+02  0.12916133628E+03  0.12508591136E+03 0.  0.
          5    1    3    3  502    0 -0.52778260836E+02 -0.13811840830E+02  0.26185850546E+01  0.54778108325E+02  0.41800000000E+01 0. -1.
         -5    1    3    3    0  502  0.60246076005E+02  0.35076851017E+02 -0.25601114230E+02  0.74383227956E+02  0.41800000000E+01 0. -1.
        -11    1    1    2    0    0  0.17511647916E+02  0.27317650867E+02 -0.87675591778E+00  0.32460446124E+02  0.00000000000E+00 0.  1.
         11    1    1    2    0    0 -0.24979463085E+02 -0.48582661054E+02  0.38844286854E+02  0.67030792568E+02  0.00000000000E+00 0. -1.
</event>
<event>
 7    1  0.6833760E-006  0.1064716E+03  0.7561462E-02  0.1267247E+00
          1   -1    0    0  501    0  0.00000000000E+00  0.00000000000E+00  0.27678645951E+03  0.27678645951E+03  0.00000000000E+00 0. -1.
         -1   -1    0    0    0  501 -0.00000000000E+00 -0.00000000000E+00 -0.68913877079E+02  0.68913877079E+02  0.00000000000E+00 0.  1.
         23    2    1    2    0    0  0.35619417183E+02  0.34927904973E+02  0.27524888071E+02  0.13744791553E+03  0.12508240721E+03 0.  0.
          5    1    3    3  502    0 -0.10747446342E+02 -0.28982675257E+02  0.46632190527E+02  0.56102911344E+02  0.41800000000E+01 0. -1.
         -5    1    3    3    0  502  0.46366863526E+02  0.63910580230E+02 -0.19107302456E+02  0.81345004184E+02  0.41800000000E+01 0. -1.
        -11    1    1    2    0    0  0.18745517512E+02  0.18585805306E+02  0.32367585173E+02  0.41767058259E+02  0.00000000000E+00 0.  1.
         11    1    1    2    0    0 -0.54364934695E+02 -0.53513710279E+02  0.14798010919E+03  0.16648536280E+03  0.00000000000E+00 0. -1.
</event>
<event>
 7    1  0.6833760E-006  0.1692305E+03  0.7561462E-02  0.1178653E+00
         -2   -1    0    0    0  501 -0.00000000000E+00  0.00000000000E+00  0.39045279436E+03  0.39045279436E+03  0.00000000000E+00 0.  1.
          2   -1    0    0  501    0  0.00000000000E+00 -0.00000000000E+00 -0.21556397784E+03  0.21556397784E+03  0.00000000000E+00 0. -1.
         23    2    1    2    0    0  0.80297616037E+02 -0.11818125394E+03  0.32706273150E+03  0.37820026702E+03  0.12510353998E+03 0.  0.
          5    1    3    3  502    0  0.10728342445E+03 -0.95970746631E+02  0.30324142268E+03  0.33569770658E+03  0.41800000000E+01 0.  1.
         -5    1    3    3    0  502 -0.26985808415E+02 -0.22210507310E+02  0.23821308818E+02  0.42502560447E+02  0.41800000000E+01 0.  1.
        -11    1    1    2    0    0 -0.93438968098E+02  0.10050919938E+03 -0.95995173074E+02  0.16747541065E+03  0.00000000000E+00 0.  1.
         11    1    1    2    0    0  0.13141352061E+02  0.17672054563E+02 -0.56178741903E+02  0.60341094523E+02  0.00000000000E+00 0. -1.
</event>
<event>
 7    1  0.6833760E-006  0.1860174E+03  0.7561462E-02  0.1162103E+00
          1   -1    0    0  501    0  0.00000000000E+00  0.00000000000E+00  0.17951514971E+03  0.17951514971E+03  0.00000000000E+00 0. -1.
         -1   -1    0    0    0  501 -0.00000000000E+00 -0.00000000000E+00 -0.21473244851E+03  0.21473244851E+03  0.00000000000E+00 0.  1.
         23    2    1    2    0    0 -0.11304447186E+03  0.11481033238E+03 -0.42831135732E+02  0.20842812502E+03  0.12508921645E+03 0.  0.
          5    1    3    3  502    0 -0.12122740324E+03  0.51032499502E+02 -0.99405876803E+00  0.13160113926E+03  0.41800000000E+01 0.  1.
         -5    1    3    3    0  502  0.81829313728E+01  0.63777832878E+02 -0.41837076964E+02  0.76826985763E+02  0.41800000000E+01 0.  1.
        -11    1    1    2    0    0  0.63825578045E+02 -0.16291929576E+02 -0.25782821024E+02  0.70738145594E+02  0.00000000000E+00 0.  1.
         11    1    1    2    0    0  0.49218893819E+02 -0.98518402804E+02  0.33396657958E+02  0.11508132760E+03  0.00000000000E+00 0. -1.
</event>
<event>
 7    1  0.6833760E-006  0.9059673E+02  0.7561462E-02  0.1301413E+00
         -4   -1    0    0    0  501 -0.00000000000E+00  0.00000000000E+00  0.37534325308E+03  0.37534325308E+03  0.00000000000E+00 0.  1.
          4   -1    0    0  501    0  0.00000000000E+00 -0.00000000000E+00 -0.39823381192E+02  0.39823381192E+02  0.00000000000E+00 0. -1.
         23    2    1    2    0    0 -0.33261789198E+02  0.10006027993E+02  0.26268794922E+03  0.29301437216E+03  0.12508395746E+03 0.  0.
          5    1    3    3  502    0 -0.61017557459E+02  0.24545713156E+02  0.25068249086E+03  0.25920034332E+03  0.41800000000E+01 0. -1.
         -5    1    3    3    0  502  0.27755768261E+02 -0.14539685163E+02  0.12005458355E+02  0.33814028844E+02  0.41800000000E+01 0. -1.
        -11    1    1    2    0    0 -0.41929073906E+01  0.29176184279E+02 -0.22355140652E+01  0.29560577203E+02  0.00000000000E+00 0. -1.
         11    1    1    2    0    0  0.37454696589E+02 -0.39182212272E+02  0.75067436731E+02  0.92591684899E+02  0.00000000000E+00 0.  1.
</event>
<event>
 7    1  0.6833760E-006  0.1116792E+03  0.7561462E-02  0.1257491E+00
          2   -1    0    0  501    0  0.00000000000E+00  0.00000000000E+00  0.41966843388E+03  0.41966843388E+03  0.00000000000E+00 0.  1.
         -2   -1    0    0    0  501 -0.00000000000E+00 -0.00000000000E+00 -0.76582635232E+02  0.76582635232E+02  0.00000000000E+00 0. -1.
         23    2    1    2    0    0 -0.87785031125E+02 -0.24925843624E+02  0.31602185552E+02  0.15803252493E+03  0.12509225170E+03 0.  0.
          5    1    3    3  502    0 -0.82582164935E+02 -0.29138209709E+02 -0.32458661763E+02  0.93487359327E+02  0.41800000000E+01 0. -1.
         -5    1    3    3    0  502 -0.52028661901E+01  0.42123660855E+01  0.64060847315E+02  0.64545165607E+02  0.41800000000E+01 0. -1.
        -11    1    1    2    0    0  0.10639422567E+03  0.17827117543E+02  0.22574044840E+03  0.25019250073E+03  0.00000000000E+00 0. -1.
         11    1    1    2    0    0 -0.18609194547E+02  0.70987260807E+01  0.85743164700E+02  0.88026043455E+02  0.00000000000E+00 0.  1.
</event>
<event>
 6    1  0.6833760E-006  0.8128552E+02  0.7561462E-02  0.1325442E+00
          2   -1    0    0  501    0  0.00000000000E+00  0.00000000000E+00  0.28934730092E+03  0.28934730092E+03  0.00000000000E+00 0. -1.
         -2   -1    0    0    0  501 -0.00000000000E+00 -0.00000000000E+00 -0.54904620568E+02  0.54904620568E+02  0.00000000000E+00 0.  1.
          5    1    1    2  502    0 -0.12525827234E+02 -0.87639194046E+01  0.12928647809E+03  0.13025424541E+03  0.41800000000E+01 0. -1.
         -5    1    1    2    0  502  0.48623455739E+02  0.83002907758E+01 -0.20837330006E+02  0.53710352789E+02  0.41800000000E+01 0.  1.
        -11    1    1    2    0    0  0.25569302423E+02  0.20075330478E+02  0.57545379758E+02  0.66092956142E+02  0.00000000000E+00 0.  1.
         11    1    1    2    0    0 -0.61666930928E+02 -0.19611701849E+02  0.68448152514E+02  0.94194367146E+02  0.00000000000E+00 0. -1.
</event>
<event>
 7    1  0.6833760E-006  0.2100172E+03  0.7561462E-02  0.1141552E+00
          2   -1    0    0  501    0  0.00000000000E+00  0.00000000000E+00  0.14043074034E+04  0.14043074034E+04  0.00000000000E+00 0. -1.
         -2   -1    0    0    0  501 -0.00000000000E+00 -0.00000000000E+00 -0.36067820774E+02  0.36067820774E+02  0.00000000000E+00 0.  1.
         23    2    1    2    0    0  0.15087127259E+03 -0.10325426724E+03  0.48389523151E+03  0.53218879271E+03  0.12508689543E+03 0.  0.
          5    1    3    3  502    0  0.13697878049E+03 -0.12777786271E+03  0.36942226780E+03  0.41422295065E+03  0.41800000000E+01 0.  1.
         -5    1    3    3    0  502  0.13892492109E+02  0.24523595462E+02  0.11447296371E+03  0.11796584205E+03  0.41800000000E+01 0.  1.
        -11    1    1    2    0    0 -0.80220911130E+02  0.14271711140E+01  0.41949790273E+03  0.42710176983E+03  0.00000000000E+00 0.  1.
         11    1    1    2    0    0 -0.70650361464E+02  0.10182709613E+03  0.46484644843E+03  0.48108466167E+03  0.00000000000E+00 0. -1.
</event>
<event>
 7    1  0.6833760E-006  0.6309619E+02  0.7561462E-02  0.1385279E+00
          2   -1    0    0  501    0  0.00000000000E+00  0.00000000000E+00  0.40896153033E+02  0.40896153033E+02  0.00000000000E+00 0. -1.
         -2   -1    0    0    0  501 -0.00000000000E+00 -0.00000000000E+00 -0.30905134938E+03  0.30905134938E+03  0.00000000000E+00 0.  1.
         23    2    1    2    0    0 -0.23589174706E+02  0.22433500079E+02 -0.19315978710E+03  0.23242016548E+03  0.12509483954E+03 0.  0.
          5    1    3    3  502    0 -0.79463077936E+01  0.12887721164E+01  0.17698038279E+02  0.19887123976E+02  0.41800000000E+01 0.  1.
         -5    1    3    3    0  502 -0.15642866913E+02  0.21144727963E+02 -0.21085782538E+03  0.21253304150E+03  0.41800000000E+01 0.  1.
        -11    1    1    2    0    0  0.19515971505E+02  0.31146125341E+02 -0.30499474401E+02  0.47761618547E+02  0.00000000000E+00 0.  1.
         11    1    1    2    0    0  0.40732032015E+01 -0.53579625420E+02 -0.44495934845E+02  0.69765718387E+02  0.00000000000E+00 0. -1.
</event>
<event>
 7    1  0.6833760E-006  0.8717385E+02  0.7561462E-02  0.1309844E+00
          2   -1    0    0  501    0  0.00000000000E+00  0.00000000000E+00  0.34759918485E+03  0.34759918485E+03  0.00000000000E+00 0. -1.
         -2   -1    0    0    0  501 -0.00000000000E+00 -0.00000000000E+00 -0.36399593737E+02  0.36399593737E+02  0.00000000000E+00 0.  1.
         23    2    1    2    0    0  0.10933403408E+02  0.14773076985E+02  0.13452739485E+03  0.18461262135E+03  0.12508563820E+03 0.  0.
          5    1    3    3  502    0  0.20909274151E+02 -0.30424541582E+02  0.13302364053E+03  0.13811448807E+03  0.41800000000E+01 0. -1.
         -5    1    3    3    0  502 -0.99758707435E+01  0.45197618567E+02  0.15037543200E+01  0.46498133277E+02  0.41800000000E+01 0. -1.
        -11    1    1    2    0    0  0.32104023286E+02  0.17835328031E+02  0.90833977622E+02  0.97977439892E+02  0.00000000000E+00 0. -1.
         11    1    1    2    0    0 -0.43037426694E+02 -0.32608405015E+02  0.85838218640E+02  0.10140871734E+03  0.00000000000E+00 0.  1.
</event>
<event>
 7    1  0.6833760E-006  0.1429327E+03  0.7561462E-02  0.1209436E+00
          3   -1    0    0  501    0  0.00000000000E+00  0.00000000000E+00  0.31561261980E+03  0.31561261980E+03  0.00000000000E+00 0. -1.
         -3   -1    0    0    0  501 -0.00000000000E+00 -0.00000000000E+00 -0.93503061014E+02  0.93503061014E+02  0.00000000000E+00 0.  1.
         23    2    1    2    0    0 -0.87556059203E+02 -0.66065971526E+02  0.27939092131E+02  0.16870117891E+03  0.12509483921E+03 0.  0.
          5    1    3    3  502    0 -0.11806252841E+02 -0.86360278557E+02  0.77013582982E+01  0.87602903138E+02  0.41800000000E+01 0. -1.
         -5    1    3    3    0  502 -0.75749806362E+02  0.20294307031E+02  0.20237733833E+02  0.81098275767E+02  0.41800000000E+01 0. -1.
        -11    1    1    2    0    0  0.41335729396E+02  0.60840887148E+02  0.50034791087E+02  0.88959183859E+02  0.00000000000E+00 0.  1.
         11    1    1    2    0    0  0.46220329807E+02  0.52250843778E+01  0.14413567556E+03  0.15145531805E+03  0.00000000000E+00 0. -1.
</event>
<event>
 7    1  0.6833760E-006  0.2223357E+03  0.7561462E-02  0.1132154E+00
         -3   -1    0    0    0  501 -0.00000000000E+00  0.00000000000E+00  0.43771467288E+03  0.43771467288E+03  0.00000000000E+00 0.  1.
          3   -1    0    0  501    0  0.00000000000E+00 -0.00000000000E+00 -0.12784874478E+03  0.12784874478E+03  0.00000000000E+00 0. -1.
         23    2    1    2    0    0 -0.11019375345E+03 -0.16052379349E+03  0.25184693625E+03  0.34203098366E+03  0.12509101851E+03 0.  0.
          5    1    3    3  502    0  0.16575610590E+02 -0.78048840592E+02  0.94414464771E+02  0.12368482503E+03  0.41800000000E+01 0. -1.
         -5    1    3    3    0  502 -0.12676936404E+03 -0.82474952898E+02  0.15743247148E+03  0.21834615864E+03  0.41800000000E+01 0. -1.
        -11    1    1    2    0    0 -0.85695472167E+01  0.51669786994E+02  0.28899793133E+02  0.59819746494E+02  0.00000000000E+00 0.  1.
         11    1    1    2    0    0  0.11876330067E+03  0.10885400650E+03  0.29119198715E+02  0.16371268750E+03  0.00000000000E+00 0. -1.
</event>
<event>
 7    1  0.6833760E-006  0.8511001E+02  0.7561462E-02  0.1315145E+00
         -2   -1    0    0    0  501 -0.00000000000E+00  0.00000000000E+00  0.68153822574E+02  0.68153822574E+02  0.00000000000E+00 0.  1.
          2   -1    0    0  501    0  0.00000000000E+00 -0.00000000000E+00 -0.18714371990E+03  0.18714371990E+03  0.00000000000E+00 0. -1.
         23    2    1    2    0    0 -0.66271025193E+01  0.13595248150E+02 -0.72590564272E+02  0.14541306718E+03  0.12508725285E+03 0.  0.
          5    1    3    3  502    0  0.21300892393E+02  0.40696750003E+02 -0.91104740554E+02  0.10211512929E+03  0.41800000000E+01 0. -1.
         -5    1    3    3    0  502 -0.27927994912E+02 -0.27101501853E+02  0.18514176282E+02  0.43297937895E+02  0.41800000000E+01 0. -1.
        -11    1    1    2    0    0  0.41763945673E+02 -0.24181049155E+02  0.29929590286E+01  0.48351919302E+02  0.00000000000E+00 0.  1.
         11    1    1    2    0    0 -0.35136843154E+02  0.10585801005E+02 -0.49392292078E+02  0.61532555988E+02  0.00000000000E+00 0. -1.
</event>
<event>
 7    1  0.6833760E-006  0.9976542E+02  0.7561462E-02  0.1280790E+00
          4   -1    0    0  501    0  0.00000000000E+00  0.00000000000E+00  0.60081035702E+02  0.60081035702E+02  0.00000000000E+00 0. -1.
         -4   -1    0    0    0  501 -0.00000000000E+00 -0.00000000000E+00 -0.20797018209E+03  0.20797018209E+03  0.00000000000E+00 0.  1.
         23    2    1    2    0    0 -0.27646153735E+02 -0.58814861951E+01 -0.71506570500E+02  0.14683321425E+03  0.12509157240E+03 0.  0.
          5    1    3    3  502    0 -0.19709044838E+02  0.53188367360E+02 -0.65556713511E+02  0.86790575279E+02  0.41800000000E+01 0.  1.
         -5    1    3    3    0  502 -0.79371088963E+01 -0.59069853555E+02 -0.59498569888E+01  0.60042638973E+02  0.41800000000E+01 0.  1.
        -11    1    1    2    0    0  0.48428998182E+02 -0.17619887964E+02 -0.17368009678E+02  0.54382681774E+02  0.00000000000E+00 0. -1.
         11    1    1    2    0    0 -0.20782844447E+02  0.23501374159E+02 -0.59014566211E+02  0.66835321767E+02  0.00000000000E+00 0.  1.
</event>
<event>
 7    1  0.6833760E-006  0.1279795E+03  0.7561462E-02  0.1230485E+00
         -2   -1    0    0    0  501 -0.00000000000E+00  0.00000000000E+00  0.42356926229E+02  0.42356926229E+02  0.00000000000E+00 0.  1.
          2   -1    0    0  501    0  0.00000000000E+00 -0.00000000000E+00 -0.39475468223E+03  0.39475468223E+03  0.00000000000E+00 0. -1.
         23    2    1    2    0    0 -0.57959911285E+02  0.41188572925E+02 -0.20352166041E+03  0.24924722872E+03  0.12508902796E+03 0.  0.
          5    1    3    3  502    0  0.38482607755E+02 -0.55218149645E+00 -0.54184293552E+02  0.66592988157E+02  0.41800000000E+01 0.  1.
         -5    1    3    3    0  502 -0.96442519040E+02  0.41740754421E+02 -0.14933736685E+03  0.18265424057E+03  0.41800000000E+01 0.  1.
        -11    1    1    2    0    0  0.50551139886E+02 -0.67732356566E+02 -0.12758592213E+03  0.15304005160E+03  0.00000000000E+00 0. -1.
         11    1    1    2    0    0  0.74087713991E+01  0.26543783641E+02 -0.21290173472E+02  0.34824328136E+02  0.00000000000E+00 0.  1.
</event>
<event>
 7    1  0.6833760E-006  0.1252241E+03  0.7561462E-02  0.1234719E+00
          1   -1    0    0  501    0  0.00000000000E+00  0.00000000000E+00  0.57418098565E+02  0.57418098565E+02  0.00000000000E+00 0. -1.
         -1   -1    0    0    0  501 -0.00000000000E+00 -0.00000000000E+00 -0.29254644144E+03  0.29254644144E+03  0.00000000000E+00 0.  1.
         23    2    1    2    0    0  0.40286720454E+02  0.57107553811E+02 -0.12808561934E+03  0.19219239959E+03  0.12509076718E+03 0.  0.
          5    1    3    3  502    0 -0.19940730370E+02 -0.25596503442E+02 -0.67133897545E+01  0.33396941748E+02  0.41800000000E+01 0. -1.
         -5    1    3    3    0  502  0.60227450824E+02  0.82704057253E+02 -0.12137222958E+03  0.15879545785E+03  0.41800000000E+01 0. -1.
        -11    1    1    2    0    0  0.28674170402E+02 -0.29256420074E+02 -0.30708337654E+02  0.51197149972E+02  0.00000000000E+00 0. -1.
         11    1    1    2    0    0 -0.68960890857E+02 -0.27851133738E+02 -0.76334385881E+02  0.10657499043E+03  0.00000000000E+00 0.  1.
</event>
<event>
 7    1  0.6833760E-006  0.1302632E+03  0.7561462E-02  0.1227066E+00
         -3   -1    0    0    0  501 -0.00000000000E+00  0.00000000000E+00  0.22487665586E+03  0.22487665586E+03  0.00000000000E+00 0.  1.
          3   -1    0    0  501    0  0.00000000000E+00 -0.00000000000E+00 -0.10567103758E+03  0.10567103758E+03  0.00000000000E+00 0. -1.
         23    2    1    2    0    0  0.10606373184E+03  0.27547268226E+02  0.87286741054E+02  0.18781835809E+03  0.12509353810E+03 0.  0.
          5    1    3    3  502    0  0.10470135340E+03  0.54260681258E+02  0.26017694875E+02  0.12083454713E+03  0.41800000000E+01 0. -1.
         -5    1    3    3    0  502  0.13623784417E+01 -0.26713413032E+02  0.61269046180E+02  0.66983810959E+02  0.41800000000E+01 0. -1.
        -11    1    1    2    0    0 -0.29237739380E+02 -0.25187981863E+02 -0.25961579863E+02  0.46511111182E+02  0.00000000000E+00 0. -1.
         11    1    1    2    0    0 -0.76825992461E+02 -0.23592863623E+01  0.57880457086E+02  0.96218224169E+02  0.00000000000E+00 0.  1.
</event>
<event>
 7    1  0.6833760E-006  0.2209796E+03  0.7561462E-02  0.1133155E+00
         -2   -1    0    0    0  501 -0.00000000000E+00  0.00000000000E+00  0.81085278018E+02  0.81085278018E+02  0.00000000000E+00 0.  1.
          2   -1    0    0  501    0  0.00000000000E+00 -0.00000000000E+00 -0.75188479914E+03  0.75188479914E+03  0.00000000000E+00 0. -1.
         23    2    1    2    0    0  0.56861380885E+02 -0.19687035445E+03 -0.20527059877E+03  0.31587124157E+03  0.12508984544E+03 0.  0.
          5    1    3    3  502    0  0.42895843459E+02 -0.37130251765E+02 -0.19844034321E+01  0.56922045283E+02  0.41800000000E+01 0.  1.
         -5    1    3    3    0  502  0.13965537426E+02 -0.15974010269E+03 -0.20328619534E+03  0.25894919629E+03  0.41800000000E+01 0.  1.
        -11    1    1    2    0    0 -0.70547284305E+02  0.78633508045E+02 -0.23509976669E+03  0.25774415262E+03  0.00000000000E+00 0.  1.
         11    1    1    2    0    0  0.13685903419E+02  0.11823684641E+03 -0.23042915566E+03  0.25935468297E+03  0.00000000000E+00 0. -1.
</event>
<event>
 7    1  0.6833760E-006  0.1447550E+03  0.7561462E-02  0.1207070E+00
         -2   -1    0    0    0  501 -0.00000000000E+00  0.00000000000E+00  0.21976361053E+03  0.21976361053E+03  0.00000000000E+00 0.  1.
          2   -1    0    0  501    0  0.00000000000E+00 -0.00000000000E+00 -0.11121922754E+03  0.11121922754E+03  0.00000000000E+00 0. -1.
         23    2    1    2    0    0  0.75954802517E+02  0.81290451965E+02  0.43457651779E+02  0.17295706565E+03  0.12509320307E+03 0.  0.
          5    1    3    3  502    0  0.10967440143E+03  0.65727658615E+02  0.21833650768E+02  0.12977973702E+03  0.41800000000E+01 0.  1.
         -5    1    3    3    0  502 -0.33719598914E+02  0.15562793350E+02  0.21624001011E+02  0.43177328629E+02  0.41800000000E+01 0.  1.
        -11    1    1    2    0    0  0.39098317588E+01 -0.27826567702E+02  0.54524110143E+02  0.61339084125E+02  0.00000000000E+00 0.  1.
         11    1    1    2    0    0 -0.79864634276E+02 -0.53463884263E+02  0.10562621066E+02  0.96686688289E+02  0.00000000000E+00 0. -1.
</event>
<event>
 7    1  0.6833760E-006  0.1439002E+03  0.7561462E-02  0.1208175E+00
          3   -1    0    0  501    0  0.00000000000E+00  0.00000000000E+00  0.58033088399E+03  0.58033088399E+03  0.00000000000E+00 0. -1.
         -3   -1    0    0    0  501 -0.00000000000E+00 -0.00000000000E+00 -0.54950308517E+02  0.54950308517E+02  0.00000000000E+00 0.  1.
         23    2    1    2    0    0  0.73714692886E+02  0.11468470460E+03  0.20671271167E+03  0.27742432399E+03  0.12509065896E+03 0.  0.
          5    1    3    3  502    0  0.51350800417E+02  0.80358932169E+02  0.36331008269E+02  0.10213656174E+03  0.41800000000E+01 0. -1.
         -5    1    3    3    0  502  0.22363892469E+02  0.34325772433E+02  0.17038170340E+03  0.17528776225E+03  0.41800000000E+01 0. -1.
        -11    1    1    2    0    0 -0.66846736159E+02 -0.43737415198E+02  0.23355822712E+03  0.24684183818E+03  0.00000000000E+00 0. -1.
         11    1    1    2    0    0 -0.68679567266E+01 -0.70947289404E+02  0.85109636682E+02  0.11101503033E+03  0.00000000000E+00 0.  1.
</event>
<event>
 7    1  0.6833760E-006  0.6888881E+02  0.7561462E-02  0.1363913E+00
          1   -1    0    0  501    0  0.00000000000E+00  0.00000000000E+00  0.16477761986E+03  0.16477761986E+03  0.00000000000E+00 0. -1.
         -1   -1    0    0    0  501 -0.00000000000E+00 -0.00000000000E+00 -0.82124974180E+02  0.82124974180E+02  0.00000000000E+00 0.  1.
         23    2    1    2    0    0 -0.58297337376E+01 -0.13282842690E+02  0.42066784129E+00  0.12594236029E+03  0.12510348296E+03 0.  0.
          5    1    3    3  502    0 -0.21401581307E+02 -0.22476071074E+02  0.57744153930E+02  0.65689125176E+02  0.41800000000E+01 0. -1.
         -5    1    3    3    0  502  0.15571847569E+02  0.91932283844E+01 -0.57323486089E+02  0.60253235118E+02  0.41800000000E+01 0. -1.
        -11    1    1    2    0    0  0.20925476461E+02  0.46732618962E+02  0.55807583831E+02  0.75738363154E+02  0.00000000000E+00 0. -1.
         11    1    1    2    0    0 -0.15095742723E+02 -0.33449776273E+02  0.26424394004E+02  0.45221870589E+02  0.00000000000E+00 0.  1.
</event>
<event>
 7    1  0.6833760E-006  0.8372172E+02  0.7561462E-02  0.1318810E+00
          1   -1    0    0  501    0  0.00000000000E+00  0.00000000000E+00  0.31583558570E+03  0.31583558570E+03  0.00000000000E+00 0. -1.
         -1   -1    0    0    0  501 -0.00000000000E+00 -0.00000000000E+00 -0.47203466403E+02  0.47203466403E+02  0.00000000000E+00 0.  1.
         23    2    1    2    0    0  0.31323391022E+02  0.10820332722E+02  0.84371477673E+02  0.15447983628E+03  0.12508892496E+03 0.  0.
          5    1    3    3  502    0 -0.44534658476E+00  0.43665257671E+02  0.97364125064E+02  0.10678997289E+03  0.41800000000E+01 0. -1.
         -5    1    3    3    0  502  0.31768737606E+02 -0.32844924948E+02 -0.12992647392E+02  0.47689863391E+02  0.41800000000E+01 0. -1.
        -11    1    1    2    0    0  0.67738909556E+01 -0.32945374279E+02  0.14718339904E+03  0.15097760178E+03  0.00000000000E+00 0. -1.
         11    1    1    2    0    0 -0.38097281977E+02  0.22125041557E+02  0.37077242579E+02  0.57581614038E+02  0.00000000000E+00 0.  1.
</event>
<event>
 7    1  0.6833760E-006  0.2152608E+03  0.7561462E-02  0.1137466E+00
         -2   -1    0    0    0  501 -0.00000000000E+00  0.00000000000E+00  0.16729441240E+03  0.16729441240E+03  0.00000000000E+00 0.  1.
          2   -1    0    0  501    0  0.00000000000E+00 -0.00000000000E+00 -0.46602496595E+03  0.46602496595E+03  0.00000000000E+00 0. -1.
         23    2    1    2    0    0  0.96001002880E+02 -0.18363505322E+03  0.19426944271E+02  0.24281645939E+03  0.12507758176E+03 0.  0.
          5    1    3    3  502    0  0.86057146503E+02 -0.15732496424E+03 -0.33744674715E+02  0.18251890946E+03  0.41800000000E+01 0. -1.
         -5    1    3    3    0  502  0.99438563765E+01 -0.26310088979E+02  0.53171618986E+02  0.60297549928E+02  0.41800000000E+01 0. -1.
        -11    1    1    2    0    0  0.42888782871E+01  0.74012675660E+02 -0.74387394705E+02  0.10502264102E+03  0.00000000000E+00 0.  1.
         11    1    1    2    0    0 -0.10028988117E+03  0.10962237756E+03 -0.24377010311E+03  0.28548027795E+03  0.00000000000E+00 0. -1.
</event>
<event>
 7    1  0.6833760E-006  0.1419699E+03  0.7561462E-02  0.1210703E+00
         -1   -1    0    0    0  501 -0.00000000000E+00  0.00000000000E+00  0.28192178085E+02  0.28192178085E+02  0.00000000000E+00 0.  1.
          1   -1    0    0  501    0  0.00000000000E+00 -0.00000000000E+00 -0.10116941075E+04  0.10116941075E+04  0.00000000000E+00 0. -1.
         23    2    1    2    0    0  0.87363352229E+02  0.12465589856E+02 -0.24140151735E+03  0.28584757552E+03  0.12508556115E+03 0.  0.
          5    1    3    3  502    0 -0.43719709795E+00  0.53405315478E+02 -0.62163053175E+02  0.82061175002E+02  0.41800000000E+01 0. -1.
         -5    1    3    3    0  502  0.87800549327E+02 -0.40939725622E+02 -0.17923846417E+03  0.20378640052E+03  0.41800000000E+01 0. -1.
        -11    1    1    2    0    0 -0.77676411706E+02  0.34828330410E+02 -0.45131417528E+03  0.45927238360E+03  0.00000000000E+00 0. -1.
         11    1    1    2    0    0 -0.96869405225E+01 -0.47293920266E+02 -0.29078623681E+03  0.29476632648E+03  0.00000000000E+00 0.  1.
</event>
<event>
 6    1  0.6833760E-006  0.9062775E+02  0.7561462E-02  0.1301339E+00
          1   -1    0    0  501    0  0.00000000000E+00  0.00000000000E+00  0.49937947765E+02  0.49937947765E+02  0.00000000000E+00 0. -1.
         -1   -1    0    0    0  501 -0.00000000000E+00 -0.00000000000E+00 -0.33462395260E+03  0.33462395260E+03  0.00000000000E+00 0.  1.
          5    1    1    2  502    0  0.57639111709E+02 -0.22711402697E+02 -0.23249448176E+03  0.24064336987E+03  0.41800000000E+01 0.  1.
         -5    1    1    2    0  502 -0.34505664851E+02  0.87037838508E+01  0.89258608530E+00  0.35842235841E+02  0.41800000000E+01 0. -1.
        -11    1    1    2    0    0  0.28955666453E+02 -0.14652182532E+01 -0.44430054039E+02  0.53052871611E+02  0.00000000000E+00 0.  1.
         11    1    1    2    0    0 -0.52089113311E+02  0.15472837099E+02 -0.86540551160E+01  0.55023423043E+02  0.00000000000E+00 0. -1.
</event>
<event>
 7    1  0.6833760E-006  0.9131118E+02  0.7561462E-02  0.1299707E+00
         -2   -1    0    0    0  501 -0.00000000000E+00  0.00000000000E+00  0.89387033830E+02  0.89387033830E+02  0.00000000000E+00 0.  1.
          2   -1    0    0  501    0  0.00000000000E+00 -0.00000000000E+00 -0.23643196583E+03  0.23643196583E+03  0.00000000000E+00 0. -1.
         23    2    1    2    0    0 -0.50175990050E+02 -0.46108491826E+02 -0.27567082385E+01  0.14247160356E+03  0.12508771077E+03 0.  0.
          5    1    3    3  502    0 -0.40235936839E+02 -0.20458399293E+02  0.59194768643E+02  0.74558498843E+02  0.41800000000E+01 0. -1.
         -5    1    3    3    0  502 -0.99400532111E+01 -0.25650092533E+02 -0.61951476881E+02  0.67913104719E+02  0.41800000000E+01 0. -1.
        -11    1    1    2    0    0  0.15705271062E+02  0.67229442896E+02 -0.11217456685E+03  0.13171783091E+03  0.00000000000E+00 0.  1.
         11    1    1    2    0    0  0.34470718988E+02 -0.21120951070E+02 -0.32113656916E+02  0.51629565195E+02  0.00000000000E+00 0. -1.
</event>
<event>
 7    1  0.6833760E-006  0.9851182E+02  0.7561462E-02  0.1283457E+00
         -1   -1    0    0    0  501 -0.00000000000E+00  0.00000000000E+00  0.29472840423E+03  0.29472840423E+03  0.00000000000E+00 0.  1.
          1   -1    0    0  501    0  0.00000000000E+00 -0.00000000000E+00 -0.41507867411E+02  0.41507867411E+02  0.00000000000E+00 0. -1.
         23    2    1    2    0    0  0.78328900564E+00  0.36844861142E+01  0.18120443576E+03  0.22022212826E+03  0.12509416156E+03 0.  0.
          5    1    3    3  502    0 -0.38916169486E+02 -0.36860694674E+02  0.14000591898E+03  0.14997436050E+03  0.41800000000E+01 0.  1.
         -5    1    3    3    0  502  0.39699458492E+02  0.40545180788E+02  0.41198516781E+02  0.70247767755E+02  0.41800000000E+01 0.  1.
        -11    1    1    2    0    0 -0.34630451170E+02 -0.28124144283E+02  0.55280234169E+02  0.71036187466E+02  0.00000000000E+00 0.  1.
         11    1    1    2    0    0  0.33847162164E+02  0.24439658169E+02  0.16735866893E+02  0.44977955919E+02  0.00000000000E+00 0. -1.
</event>
<event>
 7    1  0.9379542E-006  0.1870688E+03  0.7561462E-02  0.1161132E+00
         -1   -1    0    0    0  501 -0.00000000000E+00  0.00000000000E+00  0.52862336365E+02  0.52862336365E+02  0.00000000000E+00 0.  1.
          1   -1    0    0  501    0  0.00000000000E+00 -0.00000000000E+00 -0.72687576428E+03  0.72687576428E+03  0.00000000000E+00 0. -1.
         23    2    1    2    0    0 -0.12089678161E+03  0.10391896286E+03 -0.28711703031E+03  0.35142387405E+03  0.12508943805E+03 0.  0.
          5    1    3    3  502    0  0.14503706685E+01 -0.22164205531E+02 -0.13789874297E+02  0.26476189587E+02  0.41800000000E+01 0.  1.
         -5    1    3    3    0  502 -0.12234715228E+03  0.12608316839E+03 -0.27332715601E+03  0.32494768446E+03  0.41800000000E+01 0.  1.
        -11    1    1    2    0    0  0.40802947719E+02 -0.83818111271E+02 -0.26637939378E+03  0.28222037090E+03  0.00000000000E+00 0.  1.
         11    1    1    2    0    0  0.80093833894E+02 -0.20100851585E+02 -0.12051700383E+03  0.14609385570E+03  0.00000000000E+00 0. -1.
</event>
<event>
 7    1  0.6833760E-006  0.1469610E+03  0.7561462E-02  0.1204258E+00
         -1   -1    0    0    0  501 -0.00000000000E+00  0.00000000000E+00  0.28503253866E+03  0.28503253866E+03  0.00000000000E+00 0.  1.
          1   -1    0    0  501    0  0.00000000000E+00 -0.00000000000E+00 -0.98480436198E+02  0.98480436198E+02  0.00000000000E+00 0. -1.
         23    2    1    2    0    0  0.10842448692E+03 -0.38898198902E+02  0.16125942456E+03  0.23435056352E+03  0.12508655152E+03 0.  0.
          5    1    3    3  502    0  0.45290020489E+01  0.30730842548E+02  0.77952511875E+02  0.84017635357E+02  0.41800000000E+01 0. -1.
         -5    1    3    3    0  502  0.10389548487E+03 -0.69629041451E+02  0.83306912681E+02  0.15033292816E+03  0.41800000000E+01 0. -1.
        -11    1    1    2    0    0 -0.68072623357E+01 -0.19210631742E+02 -0.15062575845E+02  0.25343014492E+02  0.00000000000E+00 0. -1.
         11    1    1    2    0    0 -0.10161722458E+03  0.58108830644E+02  0.40355253750E+02  0.12381939685E+03  0.00000000000E+00 0.  1.
</event>
<event>
 7    1  0.6833760E-006  0.9823407E+02  0.7561462E-02  0.1284054E+00
         -1   -1    0    0    0  501 -0.00000000000E+00  0.00000000000E+00  0.52010868474E+02  0.52010868474E+02  0.00000000000E+00 0.  1.
          1   -1    0    0  501    0  0.00000000000E+00 -0.00000000000E+00 -0.28926051122E+03  0.28926051122E+03  0.00000000000E+00 0. -1.
         23    2    1    2    0    0  0.60649537864E+00 -0.41115361215E+02 -0.79672870672E+02  0.15390669419E+03  0.12509461792E+03 0.  0.
          5    1    3    3  502    0 -0.45020245501E+02 -0.64091818952E+02 -0.34898885799E+02  0.85848636516E+02  0.41800000000E+01 0.  1.
         -5    1    3    3    0  502  0.45626740880E+02  0.22976457737E+02 -0.44773984872E+02  0.68058057678E+02  0.41800000000E+01 0.  1.
        -11    1    1    2    0    0  0.24771226495E+02  0.30439623954E+02 -0.14776897171E+02  0.41934962245E+02  0.00000000000E+00 0.  1.
         11    1    1    2    0    0 -0.25377721874E+02  0.10675737261E+02 -0.14279987491E+03  0.14542972326E+03  0.00000000000E+00 0. -1.
</event>
<event>
 7    1  0.6833760E-006  0.1006853E+03  0.7561462E-02  0.1278861E+00
          1   -1    0    0  501    0  0.00000000000E+00  0.00000000000E+00  0.51777053901E+03  0.51777053901E+03  0.00000000000E+00 0. -1.
         -1   -1    0    0    0  501 -0.00000000000E+00 -0.00000000000E+00 -0.23962871442E+02  0.23962871442E+02  0.00000000000E+00 0.  1.
         23    2    1    2    0    0  0.12547542085E+02  0.29921466488E+01  0.21424444577E+03  0.24842489123E+03  0.12509136776E+03 0.  0.
          5    1    3    3  502    0 -0.49321505453E+02 -0.17977447673E+02  0.54487163572E+02  0.75776796707E+02  0.41800000000E+01 0.  1.
         -5    1    3    3    0  502  0.61869047538E+02  0.20969594321E+02  0.15975728220E+03  0.17264809453E+03  0.41800000000E+01 0.  1.
        -11    1    1    2    0    0  0.69778030338E+01  0.37580379822E+02  0.79101566865E+02  0.87852333852E+02  0.00000000000E+00 0.  1.
         11    1    1    2    0    0 -0.19525345119E+02 -0.40572526471E+02  0.20046165493E+03  0.20545618536E+03  0.00000000000E+00 0. -1.
</event>
<event>
 7    1  0.6833760E-006  0.8937302E+02  0.7561462E-02  0.1304377E+00
         -2   -1    0    0    0  501 -0.00000000000E+00  0.00000000000E+00  0.33784385894E+03  0.33784385894E+03  0.00000000000E+00 0.  1.
          2   -1    0    0  501    0  0.00000000000E+00 -0.00000000000E+00 -0.71679591526E+02  0.71679591526E+02  0.00000000000E+00 0. -1.
         23    2    1    2    0    0 -0.57498874628E+02  0.90392426344E+01  0.27961122222E+03  0.31179863153E+03  0.12509245598E+03 0.  0.
          5    1    3    3  502    0 -0.58746224316E+02  0.27200314359E+02  0.28505519117E+03  0.29234382222E+03  0.41800000000E+01 0. -1.
         -5    1    3    3    0  502  0.12473496883E+01 -0.18161071725E+02 -0.54439689581E+01  0.19454809314E+02  0.41800000000E+01 0. -1.
        -11    1    1    2    0    0  0.43831150022E+02 -0.41260082091E+02  0.96079152904E-01  0.60196123775E+02  0.00000000000E+00 0.  1.
         11    1    1    2    0    0  0.13667724607E+02  0.32220839457E+02 -0.13543033960E+02  0.37528695155E+02  0.00000000000E+00 0. -1.
</event>
<event>
 7    1  0.6833760E-006  0.2446624E+03  0.7561462E-02  0.1116725E+00
         -1   -1    0    0    0  501 -0.00000000000E+00  0.00000000000E+00  0.19243570649E+03  0.19243570649E+03  0.00000000000E+00 0.  1.
          1   -1    0    0  501    0  0.00000000000E+00 -0.00000000000E+00 -0.31782056499E+03  0.31782056499E+03  0.00000000000E+00 0. -1.
         23    2    1    2    0    0  0.15870852448E+03  0.15530585089E+03 -0.72418725991E+02  0.26495447670E+03  0.12509236503E+03 0.  0.
          5    1    3    3  502    0 -0.17766092544E+02  0.75890458133E+01 -0.21516044314E+02  0.29217122096E+02  0.41800000000E+01 0.  1.
         -5    1    3    3    0  502  0.17647461702E+03  0.14771680507E+03 -0.50902681677E+02  0.23573735461E+03  0.41800000000E+01 0.  1.
        -11    1    1    2    0    0 -0.10629827766E+03 -0.15378937509E+03 -0.37972649771E+02  0.19076796863E+03  0.00000000000E+00 0.  1.
         11    1    1    2    0    0 -0.52410246818E+02 -0.15164757972E+01 -0.14993482733E+02  0.54533826152E+02  0.00000000000E+00 0. -1.
</event>
<event>
 7    1  0.6833760E-006  0.1110889E+03  0.7561462E-02  0.1258567E+00
          1   -1    0    0  501    0  0.00000000000E+00  0.00000000000E+00  0.69750497813E+03  0.69750497813E+03  0.00000000000E+00 0. -1.
         -1   -1    0    0    0  501 -0.00000000000E+00 -0.00000000000E+00 -0.21941428625E+02  0.21941428625E+02  0.00000000000E+00 0.  1.
         23    2    1    2    0    0  0.88471679844E+01  0.39678462806E+02  0.25078497872E+03  0.28316315754E+03  0.12504245457E+03 0.  0.
          5    1    3    3  502    0 -0.14641220170E+02 -0.38734619361E+02  0.43218628344E+02  0.60000485840E+02  0.41800000000E+01 0.  1.
         -5    1    3    3    0  502  0.23488388154E+02  0.78413082167E+02  0.20756635037E+03  0.22316267170E+03  0.41800000000E+01 0.  1.
        -11    1    1    2    0    0  0.39059555704E+02 -0.31096896261E+02  0.18523144754E+03  0.19184200532E+03  0.00000000000E+00 0. -1.
         11    1    1    2    0    0 -0.47906723689E+02 -0.85815665456E+01  0.23954712325E+03  0.24444124390E+03  0.00000000000E+00 0.  1.
</event>
<event>
 7    1  0.6833760E-006  0.1069111E+03  0.7561462E-02  0.1266399E+00
          2   -1    0    0  501    0  0.00000000000E+00  0.00000000000E+00  0.62236208035E+03  0.62236208035E+03  0.00000000000E+00 0. -1.
         -2   -1    0    0    0  501 -0.00000000000E+00 -0.00000000000E+00 -0.22700821854E+02  0.22700821854E+02  0.00000000000E+00 0.  1.
         23    2    1    2    0    0  0.44446997687E+02  0.10437427999E+02  0.29554713775E+03  0.32416209346E+03  0.12509387155E+03 0.  0.
          5    1    3    3  502    0  0.19313326294E+01  0.52664993395E+02  0.22675161207E+03  0.23283276735E+03  0.41800000000E+01 0. -1.
         -5    1    3    3    0  502  0.42515665058E+02 -0.42227565396E+02  0.68795525674E+02  0.91329326108E+02  0.41800000000E+01 0. -1.
        -11    1    1    2    0    0 -0.70828060586E+02 -0.18678383270E+02  0.24358416021E+03  0.25435946861E+03  0.00000000000E+00 0.  1.
         11    1    1    2    0    0  0.26381062899E+02  0.82409552706E+01  0.60529960535E+02  0.66541340126E+02  0.00000000000E+00 0. -1.
</event>
<event>
 7    1  0.6833760E-006  0.1038310E+03  0.7561462E-02  0.1272440E+00
          2   -1    0    0  501    0  0.00000000000E+00  0.00000000000E+00  0.10974590736E+03  0.10974590736E+03  0.00000000000E+00 0. -1.
         -2   -1    0    0    0  501 -0.00000000000E+00 -0.00000000000E+00 -0.12668741218E+03  0.12668741218E+03  0.00000000000E+00 0.  1.
         23    2    1    2    0    0 -0.41874650495E+01 -0.35299129447E+02 -0.38903361658E+02  0.13573261345E+03  0.12508520057E+03 0.  0.
          5    1    3    3  502    0  0.51152981483E+02 -0.21118193049E+02  0.14561370327E+02  0.57376924787E+02  0.41800000000E+01 0.  1.
         -5    1    3    3    0  502 -0.55340446533E+02 -0.14180936399E+02 -0.53464731984E+02  0.78355688662E+02  0.41800000000E+01 0.  1.
        -11    1    1    2    0    0 -0.36570505094E+02 -0.57683168640E+01 -0.40872219786E+01  0.37247559729E+02  0.00000000000E+00 0.  1.
         11    1    1    2    0    0  0.40757970143E+02  0.41067446312E+02  0.26049078813E+02  0.63453146366E+02  0.00000000000E+00 0. -1.
</event>
<event>
 7    1  0.6833760E-006  0.1372028E+03  0.7561462E-02  0.1217143E+00
          2   -1    0    0  501    0  0.00000000000E+00  0.00000000000E+00  0.83204140315E+03  0.83204140315E+03  0.00000000000E+00 0. -1.
         -2   -1    0    0    0  501 -0.00000000000E+00 -0.00000000000E+00 -0.24073310104E+02  0.24073310104E+02  0.00000000000E+00 0.  1.
         23    2    1    2    0    0 -0.72061928570E+02 -0.54690382168E+02  0.41431743038E+03  0.44214474174E+03  0.12509628325E+03 0.  0.
          5    1    3    3  502    0  0.31666614931E+02 -0.29430583267E+02  0.78161196483E+02  0.89418000247E+02  0.41800000000E+01 0.  1.
         -5    1    3    3    0  502 -0.10372854350E+03 -0.25259798901E+02  0.33615623389E+03  0.35272674149E+03  0.41800000000E+01 0.  1.
        -11    1    1    2    0    0  0.52653653968E+02  0.77806227727E+02  0.33611487543E+03  0.34899774474E+03  0.00000000000E+00 0. -1.
         11    1    1    2    0    0  0.19408274601E+02 -0.23115845559E+02  0.57535787244E+02  0.64972226780E+02  0.00000000000E+00 0.  1.
</event>
<event>
 7    1  0.6833760E-006  0.6855385E+02  0.7561462E-02  0.1365081E+00
          1   -1    0    0  501    0  0.00000000000E+00  0.00000000000E+00  0.36052787712E+02  0.36052787712E+02  0.00000000000E+00 0. -1.
         -1   -1    0    0    0  501 -0.00000000000E+00 -0.00000000000E+00 -0.40140107714E+03  0.40140107714E+03  0.00000000000E+00 0.  1.
         23    2    1    2    0    0 -0.34623370850E+02  0.11124488502E+02 -0.27300244472E+03  0.30249074967E+03  0.12509111382E+03 0.  0.
          5    1    3    3  502    0 -0.35929013023E+02  0.35186470179E+01 -0.78336873964E+01  0.37176792652E+02  0.41800000000E+01 0. -1.
         -5    1    3    3    0  502  0.13056421729E+01  0.76058414839E+01 -0.26516875733E+03  0.26531395702E+03  0.41800000000E+01 0. -1.
        -11    1    1    2    0    0  0.29956894928E+02  0.34748813478E+02 -0.22072299305E+02  0.50912493442E+02  0.00000000000E+00 0.  1.
         11    1    1    2    0    0  0.46664759218E+01 -0.45873301979E+02 -0.70273545396E+02  0.84050621738E+02  0.00000000000E+00 0. -1.
</event>
<event>
 7    1  0.6833760E-006  0.1122101E+03  0.7561462E-02  0.1256531E+00
         -1   -1    0    0    0  501 -0.00000000000E+00  0.00000000000E+00  0.32155193097E+03  0.32155193097E+03  0.00000000000E+00 0.  1.
          1   -1    0    0  501    0  0.00000000000E+00 -0.00000000000E+00 -0.42367988408E+02  0.42367988408E+02  0.00000000000E+00 0. -1.
         23    2    1    2    0    0  0.40994310588E+02  0.12165391330E+01  0.14725050976E+03  0.19752277777E+03  0.12510204492E+03 0.  0.
          5    1    3    3  502    0  0.26997182166E+02  0.58176529987E+02  0.41447716797E+02  0.76477069204E+02  0.41800000000E+01 0.  1.
         -5    1    3    3    0  502  0.13997128421E+02 -0.56959990854E+02  0.10580279297E+03  0.12104570856E+03  0.41800000000E+01 0.  1.
        -11    1    1    2    0    0 -0.28949923514E+02  0.45042687098E+02  0.72380533588E+02  0.90032679484E+02  0.00000000000E+00 0. -1.
         11    1    1    2    0    0 -0.12044387073E+02 -0.46259226231E+02  0.59552899206E+02  0.76364462123E+02  0.00000000000E+00 0.  1.
</event>
<event>
 7    1  0.6833760E-006  0.1988235E+03  0.7561462E-02  0.1150735E+00
         -2   -1    0    0    0  501 -0.00000000000E+00  0.00000000000E+00  0.36314103635E+03  0.36314103635E+03  0.00000000000E+00 0.  1.
          2   -1    0    0  501    0  0.00000000000E+00 -0.00000000000E+00 -0.15215682970E+03  0.15215682970E+03  0.00000000000E+00 0. -1.
         23    2    1    2    0    0  0.19008031051E+03  0.30651088172E+02  0.20042561892E+03  0.30479122039E+03  0.12512891616E+03 0.  0.
          5    1    3    3  502    0  0.79537401041E+02  0.30327109780E+02  0.16983150891E+03  0.19001617187E+03  0.41800000000E+01 0.  1.
         -5    1    3    3    0  502  0.11054290947E+03  0.32397839226E+00  0.30594110004E+02  0.11477504852E+03  0.41800000000E+01 0.  1.
        -11    1    1    2    0    0 -0.14091020256E+03  0.51051580268E+01  0.34506670201E+02  0.14516355642E+03  0.00000000000E+00 0.  1.
         11    1    1    2    0    0 -0.49170107953E+02 -0.35756246199E+02 -0.23948082461E+02  0.65343089244E+02  0.00000000000E+00 0. -1.
</event>
<event>
 7    1  0.6833760E-006  0.2346172E+03  0.7561462E-02  0.1123432E+00
          2   -1    0    0  501    0  0.00000000000E+00  0.00000000000E+00  0.13001131091E+04  0.13001131091E+04  0.00000000000E+00 0. -1.
         -2   -1    0    0    0  501 -0.00000000000E+00 -0.00000000000E+00 -0.47579610255E+02  0.47579610255E+02  0.00000000000E+00 0.  1.
         23    2    1    2    0    0 -0.20727253992E+03  0.83129939435E+02  0.65738155721E+03  0.70545554592E+03  0.12507806708E+03 0.  0.
          5    1    3    3  502    0 -0.10416174335E+03  0.10258545699E+01  0.16060462304E+03  0.19147333625E+03  0.41800000000E+01 0.  1.
         -5    1    3    3    0  502 -0.10311079658E+03  0.82104084865E+02  0.49677693417E+03  0.51398220966E+03  0.41800000000E+01 0.  1.
        -11    1    1    2    0    0  0.17640562693E+03 -0.41387157233E+02  0.38114116549E+03  0.42201946641E+03  0.00000000000E+00 0.  1.
         11    1    1    2    0    0  0.30866912993E+02 -0.41742782202E+02  0.21401077611E+03  0.22021770700E+03  0.00000000000E+00 0. -1.
</event>
<event>
 7    1  0.6833760E-006  0.1212362E+03  0.7561462E-02  0.1241072E+00
          1   -1    0    0  501    0  0.00000000000E+00  0.00000000000E+00  0.39125661394E+03  0.39125661394E+03  0.00000000000E+00 0. -1.
         -1   -1    0    0    0  501 -0.00000000000E+00 -0.00000000000E+00 -0.62536523204E+02  0.62536523204E+02  0.00000000000E+00 0.  1.
         23    2    1    2    0    0  0.34271270862E+02  0.85488415256E+02  0.84689717664E+02  0.17692511467E+03  0.12508940313E+03 0.  0.
          5    1    3    3  502    0 -0.14470907292E+02  0.97913752387E+02  0.32352760155E+02  0.10421460336E+03  0.41800000000E+01 0. -1.
         -5    1    3    3    0  502  0.48742178154E+02 -0.12425337131E+02  0.52336957508E+02  0.72710511312E+02  0.41800000000E+01 0. -1.
        -11    1    1    2    0    0 -0.28715285246E+02 -0.56084676845E+02  0.23818542481E+03  0.24637847953E+03  0.00000000000E+00 0. -1.
         11    1    1    2    0    0 -0.55559856157E+01 -0.29403738412E+02  0.58449482669E+01  0.30489542945E+02  0.00000000000E+00 0.  1.
</event>
<event>
 7    1  0.6833760E-006  0.1539579E+03  0.7561462E-02  0.1195692E+00
         -1   -1    0    0    0  501 -0.00000000000E+00  0.00000000000E+00  0.89711582665E+02  0.89711582665E+02  0.00000000000E+00 0.  1.
          1   -1    0    0  501    0  0.00000000000E+00 -0.00000000000E+00 -0.39102726332E+03  0.39102726332E+03  0.00000000000E+00 0. -1.
         23    2    1    2    0    0  0.79701834870E+02  0.12203695677E+03 -0.97967507641E+02  0.21561338641E+03  0.12508436571E+03 0.  0.
          5    1    3    3  502    0  0.82949287717E+01 -0.89496942196E+01 -0.60333709602E+02  0.61697097049E+02  0.41800000000E+01 0.  1.
         -5    1    3    3    0  502  0.71406906098E+02  0.13098665099E+03 -0.37633798039E+02  0.15391628936E+03  0.41800000000E+01 0.  1.
        -11    1    1    2    0    0 -0.43207943424E+02 -0.68041044999E+02 -0.41518802969E+02  0.90665986894E+02  0.00000000000E+00 0.  1.
         11    1    1    2    0    0 -0.36493891446E+02 -0.53995911767E+02 -0.16182937005E+03  0.17445947269E+03  0.00000000000E+00 0. -1.
</event>
<event>
 7    1  0.6833760E-006  0.1074841E+03  0.7561462E-02  0.1265301E+00
         -2   -1    0    0    0  501 -0.00000000000E+00  0.00000000000E+00  0.24758556649E+03  0.24758556649E+03  0.00000000000E+00 0.  1.
          2   -1    0    0  501    0  0.00000000000E+00 -0.00000000000E+00 -0.12689762866E+03  0.12689762866E+03  0.00000000000E+00 0. -1.
         23    2    1    2    0    0  0.36451255220E+02 -0.65147782984E+02  0.18898587984E+03  0.23861427938E+03  0.12509270127E+03 0.  0.
          5    1    3    3  502    0  0.15108347050E+02 -0.90543008916E+02  0.18282176713E+03  0.20461566302E+03  0.41800000000E+01 0.  1.
         -5    1    3    3    0  502  0.21342908170E+02  0.25395225933E+02  0.61641127110E+01  0.33998616366E+02  0.41800000000E+01 0.  1.
        -11    1    1    2    0    0 -0.48552878516E+02  0.57795027995E+02 -0.10317802234E+02  0.76184672448E+02  0.00000000000E+00 0.  1.
         11    1    1    2    0    0  0.12101623296E+02  0.73527549892E+01 -0.57980139772E+02  0.59684243317E+02  0.00000000000E+00 0. -1.
</event>
<event>
 7    1  0.6833760E-006  0.1389875E+03  0.7561462E-02  0.1214698E+00
         -1   -1    0    0    0  501 -0.00000000000E+00  0.00000000000E+00  0.56684097781E+03  0.56684097781E+03  0.00000000000E+00 0.  1.
          1   -1    0    0  501    0  0.00000000000E+00 -0.00000000000E+00 -0.49867640340E+02  0.49867640340E+02  0.00000000000E+00 0. -1.
         23    2    1    2    0    0 -0.54487249294E+02 -0.11601958527E+03  0.27051002501E+03  0.32442670610E+03  0.12509040530E+03 0.  0.
          5    1    3    3  502    0 -0.43596694270E+02 -0.52656111097E+02  0.28836514266E+02  0.74312547677E+02  0.41800000000E+01 0. -1.
         -5    1    3    3    0  502 -0.10890555024E+02 -0.63363474177E+02  0.24167351075E+03  0.25011415843E+03  0.41800000000E+01 0. -1.
        -11    1    1    2    0    0  0.63170370672E+02  0.56017910879E+02  0.19596326518E+03  0.21337784180E+03  0.00000000000E+00 0.  1.
         11    1    1    2    0    0 -0.86831213779E+01  0.60001674394E+02  0.50500047275E+02  0.78904070249E+02  0.00000000000E+00 0. -1.
</event>
<event>
 7    1  0.6833760E-006  0.1276175E+03  0.7561462E-02  0.1231034E+00
          1   -1    0    0  501    0  0.00000000000E+00  0.00000000000E+00  0.42260068338E+02  0.42260068338E+02  0.00000000000E+00 0. -1.
         -1   -1    0    0    0  501 -0.00000000000E+00 -0.00000000000E+00 -0.53003262386E+03  0.53003262386E+03  0.00000000000E+00 0.  1.
         23    2    1    2    0    0 -0.43909139307E+02 -0.81507413772E+02 -0.35155427296E+03  0.38446060198E+03  0.12509227245E+03 0.  0.
          5    1    3    3  502    0 -0.54076740427E+02 -0.11090021680E+03 -0.26362525036E+03  0.29109946233E+03  0.41800000000E+01 0. -1.
         -5    1    3    3    0  502  0.10167601120E+02  0.29392803026E+02 -0.87929022600E+02  0.93361139655E+02  0.41800000000E+01 0. -1.
        -11    1    1    2    0    0  0.27511676579E+02  0.79199201606E+02 -0.14617307691E+03  0.16851105096E+03  0.00000000000E+00 0.  1.
         11    1    1    2    0    0  0.16397462728E+02  0.23082121658E+01  0.99547943463E+01  0.19321039253E+02  0.00000000000E+00 0. -1.
</event>
<event>
 7    1  0.6833760E-006  0.1074566E+03  0.7561462E-02  0.1265354E+00
          4   -1    0    0  501    0  0.00000000000E+00  0.00000000000E+00  0.23469741956E+03  0.23469741956E+03  0.00000000000E+00 0.  1.
         -4   -1    0    0    0  501 -0.00000000000E+00 -0.00000000000E+00 -0.56711293731E+02  0.56711293731E+02  0.00000000000E+00 0. -1.
         23    2    1    2    0    0  0.10206255811E+02 -0.36434142198E+02  0.11615768355E+03  0.17485518985E+03  0.12510042204E+03 0.  0.
          5    1    3    3  502    0 -0.37364826032E+02  0.26330864762E+02  0.18901342941E+02  0.49640485780E+02  0.41800000000E+01 0.  1.
         -5    1    3    3    0  502  0.47571081843E+02 -0.62765006960E+02  0.97256340605E+02  0.12521470407E+03  0.41800000000E+01 0.  1.
        -11    1    1    2    0    0  0.36074204916E+02  0.18166947643E+02  0.44929338748E+01  0.40639546033E+02  0.00000000000E+00 0. -1.
         11    1    1    2    0    0 -0.46280460728E+02  0.18267194555E+02  0.57335508405E+02  0.75913977409E+02  0.00000000000E+00 0.  1.
</event>
<event>
 7    1  0.6833760E-006  0.1991568E+03  0.7561462E-02  0.1150452E+00
         -2   -1    0    0    0  501 -0.00000000000E+00  0.00000000000E+00  0.19240725934E+02  0.19240725934E+02  0.00000000000E+00 0.  1.
          2   -1    0    0  501    0  0.00000000000E+00 -0.00000000000E+00 -0.21644271210E+04  0.21644271210E+04  0.00000000000E+00 0. -1.
         23    2    1    2    0    0  0.14623678040E+03  0.90515667737E+02 -0.11662678325E+04  0.11854981348E+04  0.12508752291E+03 0.  0.
          5    1    3    3  502    0  0.79821968660E+02 -0.20658181370E+02 -0.41354323573E+03  0.42170343532E+03  0.41800000000E+01 0. -1.
         -5    1    3    3    0  502  0.66414811739E+02  0.11117384911E+03 -0.75272459681E+03  0.76379469950E+03  0.41800000000E+01 0. -1.
        -11    1    1    2    0    0 -0.11419219512E+03 -0.10102219684E+03 -0.89204291312E+03  0.90497839783E+03  0.00000000000E+00 0. -1.
         11    1    1    2    0    0 -0.32044585276E+02  0.10506529106E+02 -0.86875649365E+02  0.93191314252E+02  0.00000000000E+00 0.  1.
</event>
<event>
 7    1  0.6833760E-006  0.1591866E+03  0.7561462E-02  0.1189618E+00
          1   -1    0    0  501    0  0.00000000000E+00  0.00000000000E+00  0.11880582050E+04  0.11880582050E+04  0.00000000000E+00 0. -1.
         -1   -1    0    0    0  501 -0.00000000000E+00 -0.00000000000E+00 -0.27293823137E+02  0.27293823137E+02  0.00000000000E+00 0.  1.
         23    2    1    2    0    0  0.21064069909E+02 -0.11839100611E+03  0.45823308446E+03  0.48998516543E+03  0.12509107597E+03 0.  0.
          5    1    3    3  502    0 -0.27932664348E+02 -0.98627743389E+02  0.39176311483E+03  0.40497342634E+03  0.41800000000E+01 0.  1.
         -5    1    3    3    0  502  0.48996734257E+02 -0.19763262721E+02  0.66469969628E+02  0.85011739092E+02  0.41800000000E+01 0.  1.
        -11    1    1    2    0    0 -0.16429709574E+02 -0.19111560841E+02  0.31323402128E+02  0.40203763945E+02  0.00000000000E+00 0.  1.
         11    1    1    2    0    0 -0.46343603351E+01  0.13750256695E+03  0.67120789531E+03  0.68516309879E+03  0.00000000000E+00 0. -1.
</event>
<event>
 7    1  0.6833760E-006  0.1163677E+03  0.7561462E-02  0.1249212E+00
          1   -1    0    0  501    0  0.00000000000E+00  0.00000000000E+00  0.18435748384E+03  0.18435748384E+03  0.00000000000E+00 0. -1.
         -1   -1    0    0    0  501 -0.00000000000E+00 -0.00000000000E+00 -0.81945257950E+02  0.81945257950E+02  0.00000000000E+00 0.  1.
         23    2    1    2    0    0  0.52062877032E+01 -0.54809051814E+02  0.38511455253E+02  0.14199413446E+03  0.12509222375E+03 0.  0.
          5    1    3    3  502    0  0.47764919073E+02  0.12829184322E+02  0.37085443776E+02  0.61958679816E+02  0.41800000000E+01 0.  1.
         -5    1    3    3    0  502 -0.42558631369E+02 -0.67638236136E+02  0.14260114769E+01  0.80035454646E+02  0.41800000000E+01 0.  1.
        -11    1    1    2    0    0 -0.21952498745E+02 -0.17987517776E+02  0.32856047246E+02  0.43416389043E+02  0.00000000000E+00 0. -1.
         11    1    1    2    0    0  0.16746211042E+02  0.72796569590E+02  0.31044723387E+02  0.80892218281E+02  0.00000000000E+00 0.  1.
</event>
<event>
 7    1  0.6833760E-006  0.1371414E+03  0.7561462E-02  0.1217228E+00
         -1   -1    0    0    0  501 -0.00000000000E+00  0.00000000000E+00  0.37860082268E+03  0.37860082268E+03  0.00000000000E+00 0.  1.
          1   -1    0    0  501    0  0.00000000000E+00 -0.00000000000E+00 -0.68635091198E+02  0.68635091198E+02  0.00000000000E+00 0. -1.
         23    2    1    2    0    0  0.70556477743E+02  0.67127574336E+02  0.25528164281E+03  0.30050287094E+03  0.12509568538E+03 0.  0.
          5    1    3    3  502    0 -0.35986443707E+02  0.11763477963E+02  0.53765899143E+02  0.65891181922E+02  0.41800000000E+01 0.  1.
         -5    1    3    3    0  502  0.10654292145E+03  0.55364096373E+02  0.20151574367E+03  0.23461168902E+03  0.41800000000E+01 0.  1.
        -11    1    1    2    0    0 -0.36959306101E+02 -0.73113644881E+02 -0.41067735505E+00  0.81925356460E+02  0.00000000000E+00 0. -1.
         11    1    1    2    0    0 -0.33597171643E+02  0.59860705453E+01  0.55094766021E+02  0.64807686472E+02  0.00000000000E+00 0.  1.
</event>
<event>
 7    1  0.6833760E-006  0.1066610E+03  0.7561462E-02  0.1266881E+00
         -2   -1    0    0    0  501 -0.00000000000E+00  0.00000000000E+00  0.26124515721E+03  0.26124515721E+03  0.00000000000E+00 0.  1.
          2   -1    0    0  501    0  0.00000000000E+00 -0.00000000000E+00 -0.60176928175E+02  0.60176928175E+02  0.00000000000E+00 0. -1.
         23    2    1    2    0    0  0.35939332966E+01 -0.24154990623E+02  0.17851723442E+03  0.21934586264E+03  0.12509126485E+03 0.  0.
          5    1    3    3  502    0  0.36096922889E+02 -0.63125828865E+02  0.78331253067E+02  0.10696315122E+03  0.41800000000E+01 0. -1.
         -5    1    3    3    0  502 -0.32502989592E+02  0.38970838243E+02  0.10018598136E+03  0.11238271142E+03  0.41800000000E+01 0. -1.
        -11    1    1    2    0    0 -0.61181335369E+00 -0.32663642554E+02 -0.12804642526E+02  0.35089125534E+02  0.00000000000E+00 0. -1.
         11    1    1    2    0    0 -0.29821199429E+01  0.56818633177E+02  0.35355637139E+02  0.66987097213E+02  0.00000000000E+00 0.  1.
</event>
<event>
 7    1  0.6833760E-006  0.1441913E+03  0.7561462E-02  0.1207798E+00
         -1   -1    0    0    0  501 -0.00000000000E+00  0.00000000000E+00  0.85761837269E+02  0.85761837269E+02  0.00000000000E+00 0.  1.
          1   -1    0    0  501    0  0.00000000000E+00 -0.00000000000E+00 -0.29813629581E+03  0.29813629581E+03  0.00000000000E+00 0. -1.
         23    2    1    2    0    0 -0.66001763593E+02  0.65592520322E+02 -0.30800130681E+02  0.15891731732E+03  0.12508978445E+03 0.  0.
          5    1    3    3  502    0 -0.70374122725E+02 -0.17348625757E+02 -0.10984790814E+02  0.73427719522E+02  0.41800000000E+01 0. -1.
         -5    1    3    3    0  502  0.43723591318E+01  0.82941146079E+02 -0.19815339867E+02  0.85489597796E+02  0.41800000000E+01 0. -1.
        -11    1    1    2    0    0  0.73635280767E+02 -0.74868574562E+01 -0.94834753356E+02  0.12029895283E+03  0.00000000000E+00 0. -1.
         11    1    1    2    0    0 -0.76335171740E+01 -0.58105662865E+02 -0.86739574507E+02  0.10468186293E+03  0.00000000000E+00 0.  1.
</event>
<event>
 7    1  0.6833760E-006  0.1623797E+03  0.7561462E-02  0.1186036E+00
         -1   -1    0    0    0  501 -0.00000000000E+00  0.00000000000E+00  0.13000201767E+04  0.13000201767E+04  0.00000000000E+00 0.  1.
          1   -1    0    0  501    0  0.00000000000E+00 -0.00000000000E+00 -0.24791849717E+02  0.24791849717E+02  0.00000000000E+00 0. -1.
         23    2    1    2    0    0 -0.11992654047E+03 -0.63844631037E+02  0.83033114155E+03  0.85062065145E+03  0.12508867270E+03 0.  0.
          5    1    3    3  502    0 -0.98619329056E+02  0.17694494708E+02  0.45635782481E+03  0.46724597791E+03  0.41800000000E+01 0. -1.
         -5    1    3    3    0  502 -0.21307211414E+02 -0.81539125744E+02  0.37397331674E+03  0.38337467354E+03  0.41800000000E+01 0. -1.
        -11    1    1    2    0    0  0.35829010859E+02  0.37746411271E+02  0.30118606138E+03  0.30564939580E+03  0.00000000000E+00 0.  1.
         11    1    1    2    0    0  0.84097529611E+02  0.26098219766E+02  0.14371112404E+03  0.16854197915E+03  0.00000000000E+00 0. -1.
</event>
<event>
 7    1  0.6833760E-006  0.1339483E+03  0.7561462E-02  0.1221712E+00
          1   -1    0    0  501    0  0.00000000000E+00  0.00000000000E+00  0.46453524650E+02  0.46453524650E+02  0.00000000000E+00 0. -1.
         -1   -1    0    0    0  501 -0.00000000000E+00 -0.00000000000E+00 -0.50873844426E+03  0.50873844426E+03  0.00000000000E+00 0.  1.
         23    2    1    2    0    0 -0.80270292865E+00 -0.90744965777E+02 -0.35118683704E+03  0.38368561621E+03  0.12508862630E+03 0.  0.
          5    1    3    3  502    0 -0.62607519467E+02 -0.51819155154E+02 -0.18537500243E+03  0.20245071069E+03  0.41800000000E+01 0.  1.
         -5    1    3    3    0  502  0.61804816538E+02 -0.38925810623E+02 -0.16581183461E+03  0.18123490552E+03  0.41800000000E+01 0.  1.
        -11    1    1    2    0    0  0.34157260458E+02  0.39583541708E+02 -0.94854094618E+02  0.10830916158E+03  0.00000000000E+00 0.  1.
         11    1    1    2    0    0 -0.33354557529E+02  0.51161424069E+02 -0.16243987947E+02  0.63197191118E+02  0.00000000000E+00 0. -1.
</event>
<event>
 7    1  0.6833760E-006  0.1285760E+03  0.7561462E-02  0.1229584E+00
          4   -1    0    0  501    0  0.00000000000E+00  0.00000000000E+00  0.59634845396E+02  0.59634845396E+02  0.00000000000E+00 0. -1.
         -4   -1    0    0    0  501 -0.00000000000E+00 -0.00000000000E+00 -0.37908796067E+03  0.37908796067E+03  0.00000000000E+00 0.  1.
         23    2    1    2    0    0 -0.75631250941E+02  0.67673317129E+02 -0.19876597344E+03  0.25584025414E+03  0.12508620817E+03 0.  0.
          5    1    3    3  502    0  0.18153681176E+02  0.57675383873E+02 -0.11329865472E+03  0.12849149235E+03  0.41800000000E+01 0.  1.
         -5    1    3    3    0  502 -0.93784932117E+02  0.99979332568E+01 -0.85467318713E+02  0.12734876179E+03  0.41800000000E+01 0.  1.
        -11    1    1    2    0    0  0.21480584775E+02 -0.12625726356E+02  0.13295273577E+02  0.28241614468E+02  0.00000000000E+00 0. -1.
         11    1    1    2    0    0  0.54150666166E+02 -0.55047590773E+02 -0.13398241541E+03  0.15464093745E+03  0.00000000000E+00 0.  1.
</event>
<event>
 7    1  0.6833760E-006  0.1100804E+03  0.7561462E-02  0.1260421E+00
         -4   -1    0    0    0  501 -0.00000000000E+00  0.00000000000E+00  0.74728365303E+03  0.74728365303E+03  0.00000000000E+00 0.  1.
          4   -1    0    0  501    0  0.00000000000E+00 -0.00000000000E+00 -0.28054317566E+02  0.28054317566E+02  0.00000000000E+00 0. -1.
         23    2    1    2    0    0 -0.88082209492E+02 -0.36912311086E+02  0.37140591310E+03  0.40337438147E+03  0.12509014749E+03 0.  0.
          5    1    3    3  502    0 -0.75414526484E+01  0.80136232781E+01 -0.71175133706E+01  0.13755837404E+02  0.41800000000E+01 0. -1.
         -5    1    3    3    0  502 -0.80540756844E+02 -0.44925934364E+02  0.37852342647E+03  0.38961854406E+03  0.41800000000E+01 0. -1.
        -11    1    1    2    0    0  0.65077923494E+02 -0.80421333452E+01  0.27899322953E+03  0.28659559340E+03  0.00000000000E+00 0.  1.
         11    1    1    2    0    0  0.23004285998E+02  0.44954444431E+02  0.68830192834E+02  0.85367995724E+02  0.00000000000E+00 0. -1.
</event>
<event>
 7    1  0.6833760E-006  0.1265305E+03  0.7561462E-02  0.1232697E+00
          1   -1    0    0  501    0  0.00000000000E+00  0.00000000000E+00  0.10654423749E+04  0.10654423749E+04  0.00000000000E+00 0. -1.
         -1   -1    0    0    0  501 -0.00000000000E+00 -0.00000000000E+00 -0.22594426630E+02  0.22594426630E+02  0.00000000000E+00 0.  1.
         23    2    1    2    0    0 -0.39315091772E+02 -0.10196558359E+03  0.60915578713E+03  0.63139570677E+03  0.12508840415E+03 0.  0.
          5    1    3    3  502    0 -0.34674436687E+02 -0.66986313396E+02  0.58145354953E+03  0.58634050295E+03  0.41800000000E+01 0.  1.
         -5    1    3    3    0  502 -0.46406550848E+01 -0.34979270189E+02  0.27702237598E+02  0.45055203812E+02  0.41800000000E+01 0.  1.
        -11    1    1    2    0    0 -0.29602620005E+02  0.25810727882E+02  0.97620660143E+02  0.10522500687E+03  0.00000000000E+00 0. -1.
         11    1    1    2    0    0  0.68917711777E+02  0.76154855704E+02  0.33607150097E+03  0.35141608787E+03  0.00000000000E+00 0.  1.
</event>
<event>
 6    1  0.6833760E-006  0.1231959E+03  0.7561462E-02  0.1237916E+00
         -2   -1    0    0    0  501 -0.00000000000E+00  0.00000000000E+00  0.84511973853E+02  0.84511973853E+02  0.00000000000E+00 0.  1.
          2   -1    0    0  501    0  0.00000000000E+00 -0.00000000000E+00 -0.37653801640E+03  0.37653801640E+03  0.00000000000E+00 0. -1.
          5    1    1    2  502    0 -0.29042289034E+02  0.10298720324E+02 -0.74486128894E+02  0.80716627719E+02  0.41800000000E+01 0. -1.
         -5    1    1    2    0  502  0.44488769005E+02  0.82748937332E+02  0.31160112351E+02  0.99070995750E+02  0.41800000000E+01 0.  1.
        -11    1    1    2    0    0 -0.22230893834E+02  0.51506038947E+01 -0.14037917938E+02  0.26791873790E+02  0.00000000000E+00 0.  1.
         11    1    1    2    0    0  0.67844138630E+01 -0.98198261551E+02 -0.23466210806E+03  0.25447049299E+03  0.00000000000E+00 0. -1.
</event>
<event>
 7    1  0.6833760E-006  0.1171114E+03  0.7561462E-02  0.1247940E+00
          2   -1    0    0  501    0  0.00000000000E+00  0.00000000000E+00  0.13199065359E+04  0.13199065359E+04  0.00000000000E+00 0. -1.
         -2   -1    0    0    0  501 -0.00000000000E+00 -0.00000000000E+00 -0.11689294165E+02  0.11689294165E+02  0.00000000000E+00 0.  1.
         23    2    1    2    0    0 -0.36778754136E+02 -0.40366139650E+02  0.86404557028E+03  0.87475898477E+03  0.12508569841E+03 0.  0.
          5    1    3    3  502    0 -0.12364777337E+02  0.44144033712E+02  0.37880502996E+03  0.38159180619E+03  0.41800000000E+01 0.  1.
         -5    1    3    3    0  502 -0.24413976799E+02 -0.84510173362E+02  0.48524054032E+03  0.49316717858E+03  0.41800000000E+01 0.  1.
        -11    1    1    2    0    0  0.40589950079E+02 -0.15999999627E+02  0.11797588989E+03  0.12578495391E+03  0.00000000000E+00 0.  1.
         11    1    1    2    0    0 -0.38111959439E+01  0.56366139276E+02  0.32619578161E+03  0.33105189142E+03  0.00000000000E+00 0. -1.
</event>
<event>
 7    1  0.6833760E-006  0.1305246E+03  0.7561462E-02  0.1226679E+00
         -3   -1    0    0    0  501 -0.00000000000E+00  0.00000000000E+00  0.14872145523E+03  0.14872145523E+03  0.00000000000E+00 0.  1.
          3   -1    0    0  501    0  0.00000000000E+00 -0.00000000000E+00 -0.12054700334E+03  0.12054700334E+03  0.00000000000E+00 0. -1.
         23    2    1    2    0    0 -0.21950993476E+02 -0.72463369774E+02  0.35042349507E+02  0.15035931254E+03  0.12508865070E+03 0.  0.
          5    1    3    3  502    0 -0.61896046667E+02 -0.80258100633E+02  0.40216881882E+02  0.10912081973E+03  0.41800000000E+01 0.  1.
         -5    1    3    3    0  502  0.39945053191E+02  0.77947308587E+01 -0.51745323754E+01  0.41238492805E+02  0.41800000000E+01 0.  1.
        -11    1    1    2    0    0  0.33815589484E+02 -0.10095350063E+02 -0.28581019869E+01  0.35405916625E+02  0.00000000000E+00 0.  1.
         11    1    1    2    0    0 -0.11864596008E+02  0.82558719838E+02 -0.40097956278E+01  0.83503229403E+02  0.00000000000E+00 0. -1.
</event>
<event>
 7    1  0.6833760E-006  0.7815214E+02  0.7561462E-02  0.1334379E+00
         -1   -1    0    0    0  501 -0.00000000000E+00  0.00000000000E+00  0.13600026631E+03  0.13600026631E+03  0.00000000000E+00 0.  1.
          1   -1    0    0  501    0  0.00000000000E+00 -0.00000000000E+00 -0.12563420172E+03  0.12563420172E+03  0.00000000000E+00 0. -1.
         23    2    1    2    0    0 -0.28104076508E+02  0.37214882003E+02  0.57615389228E+02  0.14540021354E+03  0.12508757917E+03 0.  0.
          5    1    3    3  502    0 -0.25200235523E+02  0.20395581189E+02 -0.36882070665E+02  0.49282767160E+02  0.41800000000E+01 0. -1.
         -5    1    3    3    0  502 -0.29038409851E+01  0.16819300814E+02  0.94497459893E+02  0.96117446380E+02  0.41800000000E+01 0. -1.
        -11    1    1    2    0    0  0.21910530677E+02  0.30771938065E+02 -0.13857123530E+02  0.40236841320E+02  0.00000000000E+00 0.  1.
         11    1    1    2    0    0  0.61935458307E+01 -0.67986820068E+02 -0.33392201115E+02  0.75997413168E+02  0.00000000000E+00 0. -1.
</event>
<event>
 7    1  0.6833760E-006  0.9917713E+02  0.7561462E-02  0.1282036E+00
         -2   -1    0    0    0  501 -0.00000000000E+00  0.00000000000E+00  0.18584279650E+02  0.18584279650E+02  0.00000000000E+00 0.  1.
          2   -1    0    0  501    0  0.00000000000E+00 -0.00000000000E+00 -0.87899943497E+03  0.87899943497E+03  0.00000000000E+00 0. -1.
         23    2    1    2    0    0  0.59895459089E+02 -0.29057053323E+02 -0.47805277840E+03  0.49861084196E+03  0.12508610802E+03 0.  0.
          5    1    3    3  502    0  0.64851736983E+01 -0.38031178566E+02 -0.40859963076E+03  0.41043825197E+03  0.41800000000E+01 0.  1.
         -5    1    3    3    0  502  0.53410285391E+02  0.89741252434E+01 -0.69453147643E+02  0.88172589997E+02  0.41800000000E+01 0.  1.
        -11    1    1    2    0    0 -0.50993868157E+02  0.56658451174E+02 -0.33394370631E+03  0.34253314243E+03  0.00000000000E+00 0. -1.
         11    1    1    2    0    0 -0.89015909317E+01 -0.27601397851E+02 -0.48418670607E+02  0.56439730224E+02  0.00000000000E+00 0.  1.
</event>
<event>
 7    1  0.6833760E-006  0.1159277E+03  0.7561462E-02  0.1249970E+00
         -1   -1    0    0    0  501 -0.00000000000E+00  0.00000000000E+00  0.40934503909E+02  0.40934503909E+02  0.00000000000E+00 0.  1.
          1   -1    0    0  501    0  0.00000000000E+00 -0.00000000000E+00 -0.41305094848E+03  0.41305094848E+03  0.00000000000E+00 0. -1.
         23    2    1    2    0    0 -0.60748741230E+02 -0.22560450545E+02 -0.20924424228E+03  0.25224964312E+03  0.12508935221E+03 0.  0.
          5    1    3    3  502    0 -0.35285240689E+02 -0.58641217428E+02 -0.19332003293E+03  0.20511935093E+03  0.41800000000E+01 0. -1.
         -5    1    3    3    0  502 -0.25463500541E+02  0.36080766883E+02 -0.15924209343E+02  0.47130292189E+02  0.41800000000E+01 0. -1.
        -11    1    1    2    0    0  0.17551191947E+02 -0.39553402492E+02 -0.55186115815E+02  0.70128620165E+02  0.00000000000E+00 0. -1.
         11    1    1    2    0    0  0.43197549283E+02  0.62113853037E+02 -0.10768608648E+03  0.13160718911E+03  0.00000000000E+00 0.  1.
</event>
<event>
 7    1  0.6833760E-006  0.1181131E+03  0.7561462E-02  0.1246243E+00
         -4   -1    0    0    0  501 -0.00000000000E+00  0.00000000000E+00  0.34796349140E+03  0.34796349140E+03  0.00000000000E+00 0.  1.
          4   -1    0    0  501    0  0.00000000000E+00 -0.00000000000E+00 -0.83955107383E+02  0.83955107383E+02  0.00000000000E+00 0. -1.
         23    2    1    2    0    0 -0.10299900759E+03 -0.51039543820E+02  0.21803562132E+03  0.27642013823E+03  0.12511886372E+03 0.  0.
          5    1    3    3  502    0 -0.85126663200E+02 -0.24015832589E+02  0.43136586935E+02  0.98496429046E+02  0.41800000000E+01 0. -1.
         -5    1    3    3    0  502 -0.17872344395E+02 -0.27023711231E+02  0.17489903438E+03  0.17792370919E+03  0.41800000000E+01 0. -1.
        -11    1    1    2    0    0  0.56667541186E+02  0.26033546422E+02  0.73252118070E+02  0.96202019548E+02  0.00000000000E+00 0.  1.
         11    1    1    2    0    0  0.46331466409E+02  0.25005997398E+02 -0.27279355374E+02  0.59296440998E+02  0.00000000000E+00 0. -1.
</event>
<event>
 6    1  0.6833760E-006  0.1098527E+03  0.7561462E-02  0.1260843E+00
          4   -1    0    0  501    0  0.00000000000E+00  0.00000000000E+00  0.23530452288E+03  0.23530452288E+03  0.00000000000E+00 0. -1.
         -4   -1    0    0    0  501 -0.00000000000E+00 -0.00000000000E+00 -0.85174050253E+02  0.85174050253E+02  0.00000000000E+00 0.  1.
          5    1    1    2  502    0  0.41439068408E+02 -0.77139240647E+02 -0.22455225827E+02  0.90495129179E+02  0.41800000000E+01 0. -1.
         -5    1    1    2    0  502 -0.52750432823E+02  0.70103965901E+02  0.55668419896E+02  0.10398855500E+03  0.41800000000E+01 0.  1.
        -11    1    1    2    0    0 -0.76419004875E+01 -0.13964850868E+02  0.64456252930E+02  0.66392953276E+02  0.00000000000E+00 0. -1.
         11    1    1    2    0    0  0.18953264902E+02  0.21000125614E+02  0.52461025632E+02  0.59601935678E+02  0.00000000000E+00 0.  1.
</event>
<event>
 6    1  0.6833760E-006  0.1722577E+03  0.7561462E-02  0.1175514E+00
          2   -1    0    0  501    0  0.00000000000E+00  0.00000000000E+00  0.39887482669E+03  0.39887482669E+03  0.00000000000E+00 0. -1.
         -2   -1    0    0    0  501 -0.00000000000E+00 -0.00000000000E+00 -0.83575608777E+02  0.83575608777E+02  0.00000000000E+00 0.  1.
          5    1    1    2  502    0 -0.66885121900E+02 -0.18675382608E+01  0.57834137739E+02  0.88540200581E+02  0.41800000000E+01 0. -1.
         -5    1    1    2    0  502  0.62125567440E+02  0.12213185204E+03  0.70648956265E+02  0.15422231626E+03  0.41800000000E+01 0.  1.
        -11    1    1    2    0    0  0.38528410060E+02 -0.60013765695E+02  0.52174794681E+02  0.88364583713E+02  0.00000000000E+00 0. -1.
         11    1    1    2    0    0 -0.33768855600E+02 -0.60250548081E+02  0.13464132923E+03  0.15132333491E+03  0.00000000000E+00 0.  1.
</event>
<event>
 7    1  0.6833760E-006  0.8050540E+02  0.7561462E-02  0.1327623E+00
          1   -1    0    0  501    0  0.00000000000E+00  0.00000000000E+00  0.51358938912E+03  0.51358938912E+03  0.00000000000E+00 0. -1.
         -1   -1    0    0    0  501 -0.00000000000E+00 -0.00000000000E+00 -0.28347321387E+02  0.28347321387E+02  0.00000000000E+00 0.  1.
         23    2    1    2    0    0 -0.49853172896E+02 -0.56467851948E+01  0.23755171902E+03  0.27311391382E+03  0.12507264162E+03 0.  0.
          5    1    3    3  502    0 -0.15623347519E+01  0.58111096428E+01 -0.14469142434E+02  0.16218457631E+02  0.41800000000E+01 0. -1.
         -5    1    3    3    0  502 -0.48290838144E+02 -0.11457894838E+02  0.25202086145E+03  0.25689545619E+03  0.41800000000E+01 0. -1.
        -11    1    1    2    0    0  0.74850226882E+02 -0.82045709241E+01  0.19176552655E+03  0.20601914625E+03  0.00000000000E+00 0. -1.
         11    1    1    2    0    0 -0.24997053986E+02  0.13851356119E+02  0.55924822160E+02  0.62803650435E+02  0.00000000000E+00 0.  1.
</event>
<event>
 7    1  0.6833760E-006  0.1311639E+03  0.7561462E-02  0.1225739E+00
         -2   -1    0    0    0  501 -0.00000000000E+00  0.00000000000E+00  0.27325667621E+03  0.27325667621E+03  0.00000000000E+00 0.  1.
          2   -1    0    0  501    0  0.00000000000E+00 -0.00000000000E+00 -0.17120795053E+03  0.17120795053E+03  0.00000000000E+00 0. -1.
         23    2    1    2    0    0 -0.91262178569E+02  0.52651447970E+02  0.21155983557E+03  0.26740606736E+03  0.12508989018E+03 0.  0.
          5    1    3    3  502    0 -0.50465003551E+02  0.87032424782E+02  0.17719711920E+03  0.20380787767E+03  0.41800000000E+01 0.  1.
         -5    1    3    3    0  502 -0.40797175018E+02 -0.34380976813E+02  0.34362716367E+02  0.63598189693E+02  0.41800000000E+01 0.  1.
        -11    1    1    2    0    0  0.18115130304E+02 -0.22790382477E+02 -0.91505912674E+02  0.96025473359E+02  0.00000000000E+00 0. -1.
         11    1    1    2    0    0  0.73147048265E+02 -0.29861065492E+02 -0.18005197212E+02  0.81033086013E+02  0.00000000000E+00 0.  1.
</event>
<event>
 7    1  0.6833760E-006  0.9930201E+02  0.7561462E-02  0.1281771E+00
          2   -1    0    0  501    0  0.00000000000E+00  0.00000000000E+00  0.64351331112E+02  0.64351331112E+02  0.00000000000E+00 0.  1.
         -2   -1    0    0    0  501 -0.00000000000E+00 -0.00000000000E+00 -0.21802601095E+03  0.21802601095E+03  0.00000000000E+00 0. -1.
         23    2    1    2    0    0 -0.37839679132E+02 -0.57103870166E+01 -0.12171268803E+03  0.17868172550E+03  0.12509488704E+03 0.  0.
          5    1    3    3  502    0 -0.76338211481E+02 -0.82616266665E+01 -0.11640574370E+03  0.13951181518E+03  0.41800000000E+01 0.  1.
         -5    1    3    3    0  502  0.38498532349E+02  0.25512396499E+01 -0.53069443298E+01  0.39169910325E+02  0.41800000000E+01 0.  1.
        -11    1    1    2    0    0  0.13337152643E+02 -0.33839367906E+02  0.13355900382E+02  0.38747419732E+02  0.00000000000E+00 0.  1.
         11    1    1    2    0    0  0.24502526489E+02  0.39549754922E+02 -0.45317892192E+02  0.64948196830E+02  0.00000000000E+00 0. -1.
</event>
<event>
 7    1  0.6833760E-006  0.2092453E+03  0.7561462E-02  0.1142165E+00
          1   -1    0    0  501    0  0.00000000000E+00  0.00000000000E+00  0.21568012913E+03  0.21568012913E+03  0.00000000000E+00 0. -1.
         -1   -1    0    0    0  501 -0.00000000000E+00 -0.00000000000E+00 -0.22477882981E+03  0.22477882981E+03  0.00000000000E+00 0.  1.
         23    2    1    2    0    0  0.11710558818E+03 -0.14930604291E+03 -0.37409644460E+02  0.23033289294E+03  0.12509095427E+03 0.  0.
          5    1    3    3  502    0  0.98745557593E+02 -0.25535741106E+02 -0.17076120671E+02  0.10349794933E+03  0.41800000000E+01 0. -1.
         -5    1    3    3    0  502  0.18360030583E+02 -0.12377030180E+03 -0.20333523789E+02  0.12683494361E+03  0.41800000000E+01 0. -1.
        -11    1    1    2    0    0 -0.23079258653E+02  0.15986145616E+02  0.37360874415E+02  0.46733756201E+02  0.00000000000E+00 0. -1.
         11    1    1    2    0    0 -0.94026329522E+02  0.13331989729E+03 -0.90499306411E+01  0.16339230980E+03  0.00000000000E+00 0.  1.
</event>
<event>
 7    1  0.6833760E-006  0.1188456E+03  0.7561462E-02  0.1245014E+00
          1   -1    0    0  501    0  0.00000000000E+00  0.00000000000E+00  0.73757155878E+02  0.73757155878E+02  0.00000000000E+00 0. -1.
         -1   -1    0    0    0  501 -0.00000000000E+00 -0.00000000000E+00 -0.30015140613E+03  0.30015140613E+03  0.00000000000E+00 0.  1.
         23    2    1    2    0    0  0.20482574013E+01 -0.94035020546E+02 -0.12350467578E+03  0.19936801877E+03  0.12508965394E+03 0.  0.
          5    1    3    3  502    0 -0.38212561489E+01 -0.44315538203E+01 -0.10788976323E+03  0.10812915462E+03  0.41800000000E+01 0. -1.
         -5    1    3    3    0  502  0.58695135502E+01 -0.89603466726E+02 -0.15614912543E+02  0.91238864155E+02  0.41800000000E+01 0. -1.
        -11    1    1    2    0    0 -0.83050648396E+00  0.11730378655E+03 -0.80865215844E+02  0.14247824821E+03  0.00000000000E+00 0.  1.
         11    1    1    2    0    0 -0.12177509174E+01 -0.23268766006E+02 -0.22024358627E+02  0.32062295015E+02  0.00000000000E+00 0. -1.
</event>
<event>
 7    1  0.6833760E-006  0.1460835E+03  0.7561462E-02  0.1205370E+00
         -1   -1    0    0    0  501 -0.00000000000E+00  0.00000000000E+00  0.31829242398E+02  0.31829242398E+02  0.00000000000E+00 0.  1.
          1   -1    0    0  501    0  0.00000000000E+00 -0.00000000000E+00 -0.88084617791E+03  0.88084617791E+03  0.00000000000E+00 0. -1.
         23    2    1    2    0    0  0.61743990052E+02  0.10329986990E+03 -0.56858131662E+03  0.59448742875E+03  0.12508959150E+03 0.  0.
          5    1    3    3  502    0 -0.10897848625E+02 -0.10480596760E+02 -0.75133473758E+01  0.17393355107E+02  0.41800000000E+01 0. -1.
         -5    1    3    3    0  502  0.72641838677E+02  0.11378046666E+03 -0.56106796925E+03  0.57709407365E+03  0.41800000000E+01 0. -1.
        -11    1    1    2    0    0 -0.37617664995E+02 -0.11010661975E+03 -0.26318331644E+03  0.28775686696E+03  0.00000000000E+00 0. -1.
         11    1    1    2    0    0 -0.24126325057E+02  0.68067498449E+01 -0.17252302445E+02  0.30431124591E+02  0.00000000000E+00 0.  1.
</event>
<event>
 7    1  0.6833760E-006  0.1024790E+03  0.7561462E-02  0.1275168E+00
         -2   -1    0    0    0  501 -0.00000000000E+00  0.00000000000E+00  0.14053061364E+03  0.14053061364E+03  0.00000000000E+00 0.  1.
          2   -1    0    0  501    0  0.00000000000E+00 -0.00000000000E+00 -0.10821920148E+03  0.10821920148E+03  0.00000000000E+00 0. -1.
         23    2    1    2    0    0 -0.98901362114E+01 -0.41879861595E+02  0.58411690975E+02  0.14460581295E+03  0.12508868012E+03 0.  0.
          5    1    3    3  502    0  0.12352352979E+02 -0.70675378343E+02 -0.42844630943E+01  0.71995963443E+02  0.41800000000E+01 0. -1.
         -5    1    3    3    0  502 -0.22242489190E+02  0.28795516748E+02  0.62696154069E+02  0.72609849505E+02  0.41800000000E+01 0. -1.
        -11    1    1    2    0    0 -0.36871164880E+02  0.56304033816E+01 -0.25121459722E+02  0.44969678456E+02  0.00000000000E+00 0. -1.
         11    1    1    2    0    0  0.46761301091E+02  0.36249458214E+02 -0.97881908845E+00  0.59174323717E+02  0.00000000000E+00 0.  1.
</event>
<event>
 7    1  0.6833760E-006  0.1478813E+03  0.7561462E-02  0.1203101E+00
          4   -1    0    0  501    0  0.00000000000E+00  0.00000000000E+00  0.28543632307E+03  0.28543632307E+03  0.00000000000E+00 0. -1.
         -4   -1    0    0    0  501 -0.00000000000E+00 -0.00000000000E+00 -0.12233129383E+03  0.12233129383E+03  0.00000000000E+00 0.  1.
         23    2    1    2    0    0  0.27965844922E+00 -0.14439913237E+03  0.41345404196E+02  0.19546598935E+03  0.12508526255E+03 0.  0.
          5    1    3    3  502    0 -0.51221274296E+01 -0.23278693345E+02  0.67203651699E+02  0.71427844395E+02  0.41800000000E+01 0.  1.
         -5    1    3    3    0  502  0.54017858789E+01 -0.12112043902E+03 -0.25858247503E+02  0.12403814495E+03  0.41800000000E+01 0.  1.
        -11    1    1    2    0    0  0.16840578890E+02  0.28579071013E+02  0.82330584164E+02  0.88762004743E+02  0.00000000000E+00 0.  1.
         11    1    1    2    0    0 -0.17120237339E+02  0.11582006135E+03  0.39429040878E+02  0.12353962281E+03  0.00000000000E+00 0. -1.
</event>
<event>
 7    1  0.6833760E-006  0.1141094E+03  0.7561462E-02  0.1253144E+00
          2   -1    0    0  501    0  0.00000000000E+00  0.00000000000E+00  0.83756035741E+03  0.83756035741E+03  0.00000000000E+00 0. -1.
         -2   -1    0    0    0  501 -0.00000000000E+00 -0.00000000000E+00 -0.18925611244E+02  0.18925611244E+02  0.00000000000E+00 0.  1.
         23    2    1    2    0    0 -0.51083815264E+02  0.35402464317E+02  0.40633826353E+03  0.42967772931E+03  0.12509706628E+03 0.  0.
          5    1    3    3  502    0 -0.69291051424E+02 -0.98956416377E+01  0.34028739111E+03  0.34743654741E+03  0.41800000000E+01 0. -1.
         -5    1    3    3    0  502  0.18207236161E+02  0.45298105955E+02  0.66050872428E+02  0.82241181899E+02  0.41800000000E+01 0. -1.
        -11    1    1    2    0    0  0.28013854631E+02  0.29222784120E+02  0.18512169246E+03  0.18949614292E+03  0.00000000000E+00 0. -1.
         11    1    1    2    0    0  0.23069960633E+02 -0.64625248436E+02  0.22717479017E+03  0.23731209642E+03  0.00000000000E+00 0.  1.
</event>
<event>
 7    1  0.6833760E-006  0.8871540E+02  0.7561462E-02  0.1305993E+00
         -1   -1    0    0    0  501 -0.00000000000E+00  0.00000000000E+00  0.19058588895E+02  0.19058588895E+02  0.00000000000E+00 0.  1.
          1   -1    0    0  501    0  0.00000000000E+00 -0.00000000000E+00 -0.69036440163E+03  0.69036440163E+03  0.00000000000E+00 0. -1.
         23    2    1    2    0    0  0.41985682931E+02  0.16464550802E+02 -0.34124531727E+03  0.36623637081E+03  0.12508730449E+03 0.  0.
          5    1    3    3  502    0  0.49221936773E+02  0.53944110369E+02 -0.11181335423E+03  0.13361311570E+03  0.41800000000E+01 0.  1.
         -5    1    3    3    0  502 -0.72362538427E+01 -0.37479559567E+02 -0.22943196304E+03  0.23262325511E+03  0.41800000000E+01 0.  1.
        -11    1    1    2    0    0 -0.46717867992E+02 -0.27266370038E+02 -0.32638080735E+03  0.33083295714E+03  0.00000000000E+00 0. -1.
         11    1    1    2    0    0  0.47321850612E+01  0.10801819236E+02 -0.36796881150E+01  0.12353662569E+02  0.00000000000E+00 0.  1.
</event>
<event>
 7    1  0.6833760E-006  0.1125601E+03  0.7561462E-02  0.1255901E+00
         -1   -1    0    0    0  501 -0.00000000000E+00  0.00000000000E+00  0.85048110766E+02  0.85048110766E+02  0.00000000000E+00 0.  1.
          1   -1    0    0  501    0  0.00000000000E+00 -0.00000000000E+00 -0.31322781706E+03  0.31322781706E+03  0.00000000000E+00 0. -1.
         23    2    1    2    0    0  0.98578640911E+02 -0.12984746699E+02 -0.36780905859E+02  0.16397159021E+03  0.12508994871E+03 0.  0.
          5    1    3    3  502    0  0.23789161903E+00  0.11387902563E+02  0.36759086313E+02  0.38709737066E+02  0.41800000000E+01 0.  1.
         -5    1    3    3    0  502  0.98340749292E+02 -0.24372649262E+02 -0.73539992171E+02  0.12526185314E+03  0.41800000000E+01 0.  1.
        -11    1    1    2    0    0 -0.75600816200E+02 -0.13203466096E+02 -0.18303726158E+03  0.19847532354E+03  0.00000000000E+00 0. -1.
         11    1    1    2    0    0 -0.22977824711E+02  0.26188212795E+02 -0.83615388503E+01  0.35829014078E+02  0.00000000000E+00 0.  1.
</event>
<event>
 7    1  0.6833760E-006  0.1163182E+03  0.7561462E-02  0.1249297E+00
         -1   -1    0    0    0  501 -0.00000000000E+00  0.00000000000E+00  0.34191834219E+02  0.34191834219E+02  0.00000000000E+00 0.  1.
          1   -1    0    0  501    0  0.00000000000E+00 -0.00000000000E+00 -0.56873436341E+03  0.56873436341E+03  0.00000000000E+00 0. -1.
         23    2    1    2    0    0 -0.40236719004E+02 -0.20844380631E+02 -0.13155585453E+03  0.18712552433E+03  0.12512208931E+03 0.  0.
          5    1    3    3  502    0 -0.84163776424E+02 -0.16665594198E+02 -0.10419255270E+03  0.13503645334E+03  0.41800000000E+01 0. -1.
         -5    1    3    3    0  502  0.43927057419E+02 -0.41787864325E+01 -0.27363301824E+02  0.52089070987E+02  0.41800000000E+01 0. -1.
        -11    1    1    2    0    0  0.69859216154E+02  0.87012705233E+01 -0.27354425643E+03  0.28245793034E+03  0.00000000000E+00 0. -1.
         11    1    1    2    0    0 -0.29622497150E+02  0.12143110107E+02 -0.12944241824E+03  0.13334274296E+03  0.00000000000E+00 0.  1.
</event>
<event>
 7    1  0.6833760E-006  0.1190941E+03  0.7561462E-02  0.1244599E+00
          1   -1    0    0  501    0  0.00000000000E+00  0.00000000000E+00  0.30273242847E+02  0.30273242847E+02  0.00000000000E+00 0. -1.
         -1   -1    0    0    0  501 -0.00000000000E+00 -0.00000000000E+00 -0.50785217824E+03  0.50785217824E+03  0.00000000000E+00 0.  1.
         23    2    1    2    0    0 -0.54220304518E+02  0.20634171589E+01 -0.32321177486E+03  0.35079584103E+03  0.12509105310E+03 0.  0.
          5    1    3    3  502    0 -0.94305166851E+02  0.71891073422E+01 -0.20518049152E+03  0.22596825940E+03  0.41800000000E+01 0. -1.
         -5    1    3    3    0  502  0.40084862333E+02 -0.51256901834E+01 -0.11803128334E+03  0.12482758163E+03  0.41800000000E+01 0. -1.
        -11    1    1    2    0    0 -0.24003202823E+02 -0.53708666477E+01 -0.59127165213E+02  0.64039219392E+02  0.00000000000E+00 0. -1.
         11    1    1    2    0    0  0.78223507341E+02  0.33074494889E+01 -0.95239995322E+02  0.12329036066E+03  0.00000000000E+00 0.  1.
</event>
<event>
 7    1  0.6833760E-006  0.1241668E+03  0.7561462E-02  0.1236377E+00
          2   -1    0    0  501    0  0.00000000000E+00  0.00000000000E+00  0.84712575707E+02  0.84712575707E+02  0.00000000000E+00 0. -1.
         -2   -1    0    0    0  501 -0.00000000000E+00 -0.00000000000E+00 -0.24439806197E+03  0.24439806197E+03  0.00000000000E+00 0.  1.
         23    2    1    2    0    0 -0.27792565308E+02 -0.86135010635E+02 -0.12412673239E+03  0.19810708249E+03  0.12508918297E+03 0.  0.
          5    1    3    3  502    0 -0.52520556936E+02 -0.28632812786E+02 -0.10601400701E+01  0.59973687280E+02  0.41800000000E+01 0. -1.
         -5    1    3    3    0  502  0.24727991628E+02 -0.57502197849E+02 -0.12306659232E+03  0.13813339521E+03  0.41800000000E+01 0. -1.
        -11    1    1    2    0    0  0.59146467581E+02  0.64670590160E+02 -0.29832035895E+02  0.92577212232E+02  0.00000000000E+00 0. -1.
         11    1    1    2    0    0 -0.31353902273E+02  0.21464420475E+02 -0.57267179791E+01  0.38426342954E+02  0.00000000000E+00 0.  1.
</event>
<event>
 7    1  0.6833760E-006  0.1196179E+03  0.7561462E-02  0.1243729E+00
          2   -1    0    0  501    0  0.00000000000E+00  0.00000000000E+00  0.22110382654E+03  0.22110382654E+03  0.00000000000E+00 0. -1.
         -2   -1    0    0    0  501 -0.00000000000E+00 -0.00000000000E+00 -0.90225876507E+02  0.90225876507E+02  0.00000000000E+00 0.  1.
         23    2    1    2    0    0  0.79342468599E+02  0.40816713734E+02  0.84591950181E+02  0.17540292456E+03  0.12509658854E+03 0.  0.
          5    1    3    3  502    0 -0.24068594712E+02  0.88696015223E+01  0.58466596866E+02  0.63982672902E+02  0.41800000000E+01 0. -1.
         -5    1    3    3    0  502  0.10341106331E+03  0.31947112211E+02  0.26125353316E+02  0.11142025166E+03  0.41800000000E+01 0. -1.
        -11    1    1    2    0    0 -0.46075534351E+02  0.70800161575E+01  0.60038166655E+02  0.76010939672E+02  0.00000000000E+00 0. -1.
         11    1    1    2    0    0 -0.33266934247E+02 -0.47896729891E+02 -0.13752166807E+02  0.59915838811E+02  0.00000000000E+00 0.  1.
</event>
<event>
 7    1  0.6833760E-006  0.1057399E+03  0.7561462E-02  0.1268669E+00
          1   -1    0    0  501    0  0.00000000000E+00  0.00000000000E+00  0.48033359739E+03  0.48033359739E+03  0.00000000000E+00 0. -1.
         -1   -1    0    0    0  501 -0.00000000000E+00 -0.00000000000E+00 -0.23925773201E+02  0.23925773201E+02  0.00000000000E+00 0.  1.
         23    2    1    2    0    0  0.37731668161E+01 -0.16118536925E+02  0.26474475680E+03  0.29327688446E+03  0.12508997037E+03 0.  0.
          5    1    3    3  502    0  0.63141297013E+02 -0.14420400647E+02  0.11367770049E+03  0.13090020371E+03  0.41800000000E+01 0.  1.
         -5    1    3    3    0  502 -0.59368130197E+02 -0.16981362783E+01  0.15106705631E+03  0.16237668075E+03  0.41800000000E+01 0.  1.
        -11    1    1    2    0    0  0.25009102178E+02 -0.25967292882E+02  0.96618610475E+02  0.10312570670E+03  0.00000000000E+00 0. -1.
         11    1    1    2    0    0 -0.28782268995E+02  0.42085829807E+02  0.95044456916E+02  0.10785677943E+03  0.00000000000E+00 0.  1.
</event>
<event>
 7    1  0.6833760E-006  0.1052409E+03  0.7561462E-02  0.1269646E+00
         -2   -1    0    0    0  501 -0.00000000000E+00  0.00000000000E+00  0.15583321458E+03  0.15583321458E+03  0.00000000000E+00 0.  1.
          2   -1    0    0  501    0  0.00000000000E+00 -0.00000000000E+00 -0.10081524248E+03  0.10081524248E+03  0.00000000000E+00 0. -1.
         23    2    1    2    0    0 -0.31382258931E+02  0.39673617135E+02  0.67937422450E+02  0.15107362643E+03  0.12509558410E+03 0.  0.
          5    1    3    3  502    0 -0.66926135668E+02  0.31703463263E+02  0.34182686676E+00  0.74174163048E+02  0.41800000000E+01 0.  1.
         -5    1    3    3    0  502  0.35543876737E+02  0.79701538716E+01  0.67595595584E+02  0.76899463382E+02  0.41800000000E+01 0.  1.
        -11    1    1    2    0    0 -0.17334592448E+01  0.26018361386E+02  0.10878922812E+02  0.28254397387E+02  0.00000000000E+00 0.  1.
         11    1    1    2    0    0  0.33115718176E+02 -0.65691978520E+02 -0.23798373157E+02  0.77320433244E+02  0.00000000000E+00 0. -1.
</event>
<event>
 7    1  0.6833760E-006  0.1155148E+03  0.7561462E-02  0.1250685E+00
          4   -1    0    0  501    0  0.00000000000E+00  0.00000000000E+00  0.56102437544E+02  0.56102437544E+02  0.00000000000E+00 0.  1.
         -4   -1    0    0    0  501 -0.00000000000E+00 -0.00000000000E+00 -0.30987407575E+03  0.30987407575E+03  0.00000000000E+00 0. -1.
         23    2    1    2    0    0  0.27103630700E+02 -0.67561477142E+02 -0.18783059478E+03  0.23712328107E+03  0.12509179869E+03 0.  0.
          5    1    3    3  502    0  0.45530280358E+02 -0.84688208293E+02 -0.76593905913E+02  0.12300080437E+03  0.41800000000E+01 0. -1.
         -5    1    3    3    0  502 -0.18426649657E+02  0.17126731151E+02 -0.11123668887E+03  0.11412247670E+03  0.41800000000E+01 0. -1.
        -11    1    1    2    0    0 -0.44129171575E+02  0.49562522049E+01 -0.37047112707E+02  0.57831105642E+02  0.00000000000E+00 0. -1.
         11    1    1    2    0    0  0.17025540875E+02  0.62605224937E+02 -0.28893930714E+02  0.71022126577E+02  0.00000000000E+00 0.  1.
</event>
<event>
 7    1  0.6833760E-006  0.1136168E+03  0.7561462E-02  0.1254015E+00
         -2   -1    0    0    0  501 -0.00000000000E+00  0.00000000000E+00  0.20028455404E+03  0.20028455404E+03  0.00000000000E+00 0. -1.
          2   -1    0    0  501    0  0.00000000000E+00 -0.00000000000E+00 -0.87603991323E+02  0.87603991323E+02  0.00000000000E+00 0.  1.
         23    2    1    2    0    0 -0.52143770422E+01 -0.80455597563E+02  0.63901167381E+02  0.16196574485E+03  0.12509696401E+03 0.  0.
          5    1    3    3  502    0  0.31311040544E+02 -0.90755846378E+02  0.10996536036E+02  0.96723322506E+02  0.41800000000E+01 0.  1.
         -5    1    3    3    0  502 -0.36525417586E+02  0.10300248815E+02  0.52904631345E+02  0.65242422343E+02  0.41800000000E+01 0.  1.
        -11    1    1    2    0    0  0.25606759386E+02  0.37516239365E+02 -0.13674876020E+02  0.47436026146E+02  0.00000000000E+00 0.  1.
         11    1    1    2    0    0 -0.20392382344E+02  0.42939358198E+02  0.62454271356E+02  0.78486774368E+02  0.00000000000E+00 0. -1.
</event>
<event>
 7    1  0.6833760E-006  0.1094645E+03  0.7561462E-02  0.1261565E+00
          1   -1    0    0  501    0  0.00000000000E+00  0.00000000000E+00  0.26883106730E+03  0.26883106730E+03  0.00000000000E+00 0. -1.
         -1   -1    0    0    0  501 -0.00000000000E+00 -0.00000000000E+00 -0.47683671724E+02  0.47683671724E+02  0.00000000000E+00 0.  1.
         23    2    1    2    0    0 -0.21273930055E+02  0.18534810467E+02  0.91713575850E+02  0.15765284042E+03  0.12508764446E+03 0.  0.
          5    1    3    3  502    0 -0.59650452227E+02 -0.28631421422E+02  0.38022915880E+02  0.76427411807E+02  0.41800000000E+01 0.  1.
         -5    1    3    3    0  502  0.38376522172E+02  0.47166231889E+02  0.53690659969E+02  0.81225428608E+02  0.41800000000E+01 0.  1.
        -11    1    1    2    0    0  0.52225176779E+02  0.54719922653E+01  0.81608389033E+02  0.97042985061E+02  0.00000000000E+00 0. -1.
         11    1    1    2    0    0 -0.30951246724E+02 -0.24006802732E+02  0.47825430692E+02  0.61818913547E+02  0.00000000000E+00 0.  1.
</event>
<event>
 6    1  0.6833760E-006  0.9803538E+02  0.7561462E-02  0.1284482E+00
         -2   -1    0    0    0  501 -0.00000000000E+00  0.00000000000E+00  0.61966312290E+03  0.61966312290E+03  0.00000000000E+00 0.  1.
          2   -1    0    0  501    0  0.00000000000E+00 -0.00000000000E+00 -0.21264434718E+02  0.21264434718E+02  0.00000000000E+00 0. -1.
          5    1    1    2  502    0  0.19690147429E+02  0.53707365950E+02  0.73118348683E+02  0.92929803492E+02  0.41800000000E+01 0. -1.
         -5    1    1    2    0  502 -0.21690721564E+02 -0.71445378293E+02  0.32634378693E+03  0.33480243301E+03  0.41800000000E+01 0.  1.
        -11    1    1    2    0    0  0.26553374934E+02  0.26832348585E+02  0.17012922744E+03  0.17426706711E+03  0.00000000000E+00 0. -1.
         11    1    1    2    0    0 -0.24552800798E+02 -0.90943362417E+01  0.28807325132E+02  0.38928254006E+02  0.00000000000E+00 0.  1.
</event>
<event>
 7    1  0.6833760E-006  0.1603658E+03  0.7561462E-02  0.1188284E+00
         -2   -1    0    0    0  501 -0.00000000000E+00  0.00000000000E+00  0.28846303931E+02  0.28846303931E+02  0.00000000000E+00 0.  1.
          2   -1    0    0  501    0  0.00000000000E+00 -0.00000000000E+00 -0.95184937303E+03  0.95184937303E+03  0.00000000000E+00 0. -1.
         23    2    1    2    0    0 -0.94228320442E+02 -0.79657537154E+02 -0.44220133344E+03  0.47582975796E+03  0.12509052589E+03 0.  0.
          5    1    3    3  502    0  0.10688850637E+02 -0.64665480552E+02 -0.12252424330E+03  0.13901632458E+03  0.41800000000E+01 0.  1.
         -5    1    3    3    0  502 -0.10491717108E+03 -0.14992056602E+02 -0.31967709014E+03  0.33681343339E+03  0.41800000000E+01 0.  1.
        -11    1    1    2    0    0 -0.63194424363E+01  0.40654514145E+02 -0.82052964053E+02  0.91790052746E+02  0.00000000000E+00 0.  1.
         11    1    1    2    0    0  0.10054776288E+03  0.39003023009E+02 -0.39874877161E+03  0.41307586625E+03  0.00000000000E+00 0. -1.
</event>
<event>
 7    1  0.6833760E-006  0.8539806E+02  0.7561462E-02  0.1314395E+00
         -2   -1    0    0    0  501 -0.00000000000E+00  0.00000000000E+00  0.73293536033E+03  0.73293536033E+03  0.00000000000E+00 0.  1.
          2   -1    0    0  501    0  0.00000000000E+00 -0.00000000000E+00 -0.25713010479E+02  0.25713010479E+02  0.00000000000E+00 0. -1.
         23    2    1    2    0    0  0.56628927810E+02  0.47379479446E+02  0.45034049503E+03  0.47318757246E+03  0.12509303231E+03 0.  0.
          5    1    3    3  502    0  0.59638326018E+02  0.18662692106E+02  0.43636743613E+03  0.44083901565E+03  0.41800000000E+01 0. -1.
         -5    1    3    3    0  502 -0.30093982076E+01  0.28716787340E+02  0.13973058897E+02  0.32348556810E+02  0.41800000000E+01 0. -1.
        -11    1    1    2    0    0 -0.25306463290E+02 -0.39130815004E+02  0.24734354341E+03  0.25169518517E+03  0.00000000000E+00 0.  1.
         11    1    1    2    0    0 -0.31322464520E+02 -0.82486644425E+01  0.95383114043E+01  0.33765613176E+02  0.00000000000E+00 0. -1.
</event>
<event>
 7    1  0.6833760E-006  0.1342349E+03  0.7561462E-02  0.1221304E+00
         -1   -1    0    0    0  501 -0.00000000000E+00  0.00000000000E+00  0.61349701516E+02  0.61349701516E+02  0.00000000000E+00 0.  1.
          1   -1    0    0  501    0  0.00000000000E+00 -0.00000000000E+00 -0.42042568544E+03  0.42042568544E+03  0.00000000000E+00 0. -1.
         23    2    1    2    0    0 -0.19845884901E+02  0.10396025264E+03 -0.11209767563E+03  0.19852508079E+03  0.12507887729E+03 0.  0.
          5    1    3    3  502    0  0.34366405995E+02  0.22935663352E+02 -0.89057605579E+02  0.98264052561E+02  0.41800000000E+01 0.  1.
         -5    1    3    3    0  502 -0.54212290896E+02  0.81024589287E+02 -0.23040070053E+02  0.10026102823E+03  0.41800000000E+01 0.  1.
        -11    1    1    2    0    0  0.44512878456E+02 -0.91445745543E+02 -0.14184059377E+03  0.17453502447E+03  0.00000000000E+00 0.  1.
         11    1    1    2    0    0 -0.24666993555E+02 -0.12514507096E+02 -0.10513771453E+03  0.10871528170E+03  0.00000000000E+00 0. -1.
</event>
<event>
 7    1  0.6833760E-006  0.1643107E+03  0.7561462E-02  0.1183914E+00
         -2   -1    0    0    0  501 -0.00000000000E+00  0.00000000000E+00  0.95826482768E+02  0.95826482768E+02  0.00000000000E+00 0.  1.
          2   -1    0    0  501    0  0.00000000000E+00 -0.00000000000E+00 -0.31554134941E+03  0.31554134941E+03  0.00000000000E+00 0. -1.
         23    2    1    2    0    0 -0.11938842642E+03  0.61060321504E+02 -0.90754875312E+02  0.20461188232E+03  0.12509043037E+03 0.  0.
          5    1    3    3  502    0 -0.18403105440E+02  0.67553720315E+02 -0.23562663328E+01  0.70179796304E+02  0.41800000000E+01 0. -1.
         -5    1    3    3    0  502 -0.10098532098E+03 -0.64933988110E+01 -0.88398608979E+02  0.13443208602E+03  0.41800000000E+01 0. -1.
        -11    1    1    2    0    0  0.10411890685E+03 -0.10806176169E+02 -0.62025703863E+02  0.12167459943E+03  0.00000000000E+00 0.  1.
         11    1    1    2    0    0  0.15269519567E+02 -0.50254145335E+02 -0.66934287470E+02  0.85081350426E+02  0.00000000000E+00 0. -1.
</event>
<event>
 7    1  0.6833760E-006  0.9263409E+02  0.7561462E-02  0.1296595E+00
          2   -1    0    0  501    0  0.00000000000E+00  0.00000000000E+00  0.22938294798E+03  0.22938294798E+03  0.00000000000E+00 0. -1.
         -2   -1    0    0    0  501 -0.00000000000E+00 -0.00000000000E+00 -0.58435153108E+02  0.58435153108E+02  0.00000000000E+00 0.  1.
         23    2    1    2    0    0  0.18203722677E+02  0.39801410874E+02  0.12055975478E+03  0.17916385070E+03  0.12509797399E+03 0.  0.
          5    1    3    3  502    0 -0.50285352001E+02 -0.24300863513E+01  0.59606407066E+02  0.78133975381E+02  0.41800000000E+01 0.  1.
         -5    1    3    3    0  502  0.68489074678E+02  0.42231497226E+02  0.60953347719E+02  0.10102987532E+03  0.41800000000E+01 0.  1.
        -11    1    1    2    0    0 -0.16898223277E+02 -0.27682153941E+01 -0.21674460886E+02  0.27622368130E+02  0.00000000000E+00 0.  1.
         11    1    1    2    0    0 -0.13054993999E+01 -0.37033195480E+02  0.72062500972E+02  0.81031882260E+02  0.00000000000E+00 0. -1.
</event>
<event>
 7    1  0.6833760E-006  0.2084134E+03  0.7561462E-02  0.1142829E+00
         -2   -1    0    0    0  501 -0.00000000000E+00  0.00000000000E+00  0.16708434514E+03  0.16708434514E+03  0.00000000000E+00 0.  1.
          2   -1    0    0  501    0  0.00000000000E+00 -0.00000000000E+00 -0.27087996090E+03  0.27087996090E+03  0.00000000000E+00 0. -1.
         23    2    1    2    0    0 -0.87762755723E+01  0.18106972868E+03 -0.30167365922E+02  0.22230881358E+03  0.12509144244E+03 0.  0.
          5    1    3    3  502    0 -0.58602928253E+02  0.14494892105E+03 -0.35544015445E+02  0.16039121656E+03  0.41800000000E+01 0.  1.
         -5    1    3    3    0  502  0.49826652681E+02  0.36120807625E+02  0.53766495227E+01  0.61917597022E+02  0.41800000000E+01 0.  1.
        -11    1    1    2    0    0 -0.30556470475E+02 -0.13380640639E+03 -0.30639617442E+02  0.14062943659E+03  0.00000000000E+00 0.  1.
         11    1    1    2    0    0  0.39332746047E+02 -0.47263322291E+02 -0.42988632395E+02  0.75026055879E+02  0.00000000000E+00 0. -1.
</event>
<event>
 7    1  0.6833760E-006  0.1550733E+03  0.7561462E-02  0.1194374E+00
          1   -1    0    0  501    0  0.00000000000E+00  0.00000000000E+00  0.28647555006E+03  0.28647555006E+03  0.00000000000E+00 0. -1.
         -1   -1    0    0    0  501 -0.00000000000E+00 -0.00000000000E+00 -0.10489435038E+03  0.10489435038E+03  0.00000000000E+00 0.  1.
         23    2    1    2    0    0 -0.11578474344E+03 -0.68220503646E+02  0.77063697780E+02  0.19911452271E+03  0.12509051005E+03 0.  0.
          5    1    3    3  502    0  0.20888781919E+00 -0.34827612303E+02 -0.23273379394E+02  0.42096660215E+02  0.41800000000E+01 0. -1.
         -5    1    3    3    0  502 -0.11599363126E+03 -0.33392891343E+02  0.10033707717E+03  0.15701786249E+03  0.41800000000E+01 0. -1.
        -11    1    1    2    0    0  0.73046071843E+02 -0.86907949014E+00  0.21612526134E+02  0.76181265392E+02  0.00000000000E+00 0. -1.
         11    1    1    2    0    0  0.42738671599E+02  0.69089583136E+02  0.82904975770E+02  0.11607411234E+03  0.00000000000E+00 0.  1.
</event>
<event>
 7    1  0.6833760E-006  0.1289283E+03  0.7561462E-02  0.1229055E+00
          1   -1    0    0  501    0  0.00000000000E+00  0.00000000000E+00  0.79632024583E+02  0.79632024583E+02  0.00000000000E+00 0. -1.
         -1   -1    0    0    0  501 -0.00000000000E+00 -0.00000000000E+00 -0.36123235064E+03  0.36123235064E+03  0.00000000000E+00 0.  1.
         23    2    1    2    0    0  0.23215422272E+02 -0.10510328430E+03 -0.24638814479E+03  0.29654693246E+03  0.12508920441E+03 0.  0.
          5    1    3    3  502    0  0.19360848311E+02 -0.12362655512E+03 -0.24725871856E+03  0.27715106690E+03  0.41800000000E+01 0.  1.
         -5    1    3    3    0  502  0.38545739602E+01  0.18523270825E+02  0.87057376923E+00  0.19395865569E+02  0.41800000000E+01 0.  1.
        -11    1    1    2    0    0 -0.32097337821E+02  0.69045938153E+02  0.19121211100E+02  0.78506059541E+02  0.00000000000E+00 0. -1.
         11    1    1    2    0    0  0.88819155493E+01  0.36057346144E+02 -0.54333392364E+02  0.65811383214E+02  0.00000000000E+00 0.  1.
</event>
<event>
 7    1  0.6833760E-006  0.9329405E+02  0.7561462E-02  0.1295065E+00
          2   -1    0    0  501    0  0.00000000000E+00  0.00000000000E+00  0.71453062429E+02  0.71453062429E+02  0.00000000000E+00 0.  1.
         -2   -1    0    0    0  501 -0.00000000000E+00 -0.00000000000E+00 -0.16035614851E+03  0.16035614851E+03  0.00000000000E+00 0. -1.
         23    2    1    2    0    0  0.13467618700E+02 -0.17091560766E+02 -0.50447350162E+02  0.13660678329E+03  0.12507189892E+03 0.  0.
          5    1    3    3  502    0  0.54404705727E+02  0.31040954857E+02 -0.17228329269E+02  0.65097623713E+02  0.41800000000E+01 0.  1.
         -5    1    3    3    0  502 -0.40937087027E+02 -0.48132515623E+02 -0.33219020893E+02  0.71509159578E+02  0.41800000000E+01 0.  1.
        -11    1    1    2    0    0 -0.27585391494E+02  0.30424378975E+02  0.10624615179E+02  0.42420267651E+02  0.00000000000E+00 0.  1.
         11    1    1    2    0    0  0.14117772794E+02 -0.13332818209E+02 -0.49080351098E+02  0.52782159997E+02  0.00000000000E+00 0. -1.
</event>
<event>
 7    1  0.6833760E-006  0.9960521E+02  0.7561462E-02  0.1281128E+00
         -2   -1    0    0    0  501 -0.00000000000E+00  0.00000000000E+00  0.64820273865E+02  0.64820273865E+02  0.00000000000E+00 0. -1.
          2   -1    0    0  501    0  0.00000000000E+00 -0.00000000000E+00 -0.19009463132E+03  0.19009463132E+03  0.00000000000E+00 0.  1.
         23    2    1    2    0    0  0.21829666038E+02  0.11576643197E+01 -0.67675172129E+02  0.14389165604E+03  0.12508799003E+03 0.  0.
          5    1    3    3  502    0 -0.21262672696E+02  0.53780306209E+02 -0.39471737452E+02  0.70142091811E+02  0.41800000000E+01 0. -1.
         -5    1    3    3    0  502  0.43092338734E+02 -0.52622641890E+02 -0.28203434676E+02  0.73749564233E+02  0.41800000000E+01 0. -1.
        -11    1    1    2    0    0 -0.35585460707E+02 -0.26419511311E+02  0.25043431101E+01  0.44391297864E+02  0.00000000000E+00 0. -1.
         11    1    1    2    0    0  0.13755794669E+02  0.25261846991E+02 -0.60103528433E+02  0.66631951274E+02  0.00000000000E+00 0.  1.
</event>
<event>
 7    1  0.6833760E-006  0.1033355E+03  0.7561462E-02  0.1273434E+00
          1   -1    0    0  501    0  0.00000000000E+00  0.00000000000E+00  0.10333434574E+03  0.10333434574E+03  0.00000000000E+00 0. -1.
         -1   -1    0    0    0  501 -0.00000000000E+00 -0.00000000000E+00 -0.17242060860E+03  0.17242060860E+03  0.00000000000E+00 0.  1.
         23    2    1    2    0    0 -0.41360189605E+02  0.50854753526E+02 -0.81400962307E+02  0.16300444474E+03  0.12508981213E+03 0.  0.
          5    1    3    3  502    0  0.35967055807E+02 -0.10460955547E+02 -0.42604531249E+02  0.56883030662E+02  0.41800000000E+01 0. -1.
         -5    1    3    3    0  502 -0.77327245412E+02  0.61315709073E+02 -0.38796431058E+02  0.10612141407E+03  0.41800000000E+01 0. -1.
        -11    1    1    2    0    0  0.72785952666E+01 -0.28575679653E+02  0.49493907471E+02  0.57612449118E+02  0.00000000000E+00 0. -1.
         11    1    1    2    0    0  0.34081594338E+02 -0.22279073873E+02 -0.37179208017E+02  0.55138060485E+02  0.00000000000E+00 0.  1.
</event>
<event>
 7    1  0.6833760E-006  0.1272164E+03  0.7561462E-02  0.1231646E+00
         -2   -1    0    0    0  501 -0.00000000000E+00  0.00000000000E+00  0.31403774120E+03  0.31403774120E+03  0.00000000000E+00 0. -1.
          2   -1    0    0  501    0  0.00000000000E+00 -0.00000000000E+00 -0.11682166716E+03  0.11682166716E+03  0.00000000000E+00 0.  1.
         23    2    1    2    0    0  0.21214380595E+02 -0.93227813345E+02  0.24496782320E+03  0.29120119603E+03  0.12508967600E+03 0.  0.
          5    1    3    3  502    0 -0.11763294675E+02  0.28575752959E+02  0.49256365160E+02  0.58297604304E+02  0.41800000000E+01 0.  1.
         -5    1    3    3    0  502  0.32977675270E+02 -0.12180356630E+03  0.19571145804E+03  0.23290359173E+03  0.41800000000E+01 0.  1.
        -11    1    1    2    0    0 -0.12072394629E+02  0.21289896049E+02 -0.61193602778E+02  0.65906444350E+02  0.00000000000E+00 0.  1.
         11    1    1    2    0    0 -0.91419859660E+01  0.71937917296E+02  0.13441853616E+02  0.73751767985E+02  0.00000000000E+00 0. -1.
</event>
<event>
 7    1  0.6833760E-006  0.1210036E+03  0.7561462E-02  0.1241451E+00
         -2   -1    0    0    0  501 -0.00000000000E+00  0.00000000000E+00  0.36414688289E+02  0.36414688289E+02  0.00000000000E+00 0.  1.
          2   -1    0    0  501    0  0.00000000000E+00 -0.00000000000E+00 -0.54962162123E+03  0.54962162123E+03  0.00000000000E+00 0. -1.
         23    2    1    2    0    0 -0.60603059289E+02  0.30180963616E+02 -0.15394426642E+03  0.20959697524E+03  0.12509369891E+03 0.  0.
          5    1    3    3  502    0 -0.68942309655E+02  0.65202331097E+02 -0.69472991489E+02  0.11767903376E+03  0.41800000000E+01 0.  1.
         -5    1    3    3    0  502  0.83392503660E+01 -0.35021367481E+02 -0.84471274931E+02  0.91917941477E+02  0.41800000000E+01 0.  1.
        -11    1    1    2    0    0  0.82724762686E+02 -0.15319729693E+02 -0.29761641668E+03  0.30927918125E+03  0.00000000000E+00 0.  1.
         11    1    1    2    0    0 -0.22121703397E+02 -0.14861233923E+02 -0.61646249843E+02  0.67160153027E+02  0.00000000000E+00 0. -1.
</event>
<event>
 7    1  0.6833760E-006  0.2882492E+03  0.7561462E-02  0.1091267E+00
          1   -1    0    0  501    0  0.00000000000E+00  0.00000000000E+00  0.62460135582E+03  0.62460135582E+03  0.00000000000E+00 0. -1.
         -1   -1    0    0    0  501 -0.00000000000E+00 -0.00000000000E+00 -0.16104133201E+03  0.16104133201E+03  0.00000000000E+00 0.  1.
         23    2    1    2    0    0 -0.27584937718E+03 -0.39566885569E+02  0.10463637606E+03  0.32288392972E+03  0.12508734368E+03 0.  0.
          5    1    3    3  502    0 -0.75289315306E+00  0.13152226409E+02 -0.13073505822E+02  0.19024638291E+02  0.41800000000E+01 0.  1.
         -5    1    3    3    0  502 -0.27509648403E+03 -0.52719111978E+02  0.11770988189E+03  0.30385929143E+03  0.41800000000E+01 0.  1.
        -11    1    1    2    0    0  0.22195706314E+03  0.12685296866E+02  0.32461495626E+03  0.39344723212E+03  0.00000000000E+00 0. -1.
         11    1    1    2    0    0  0.53892314039E+02  0.26881588703E+02  0.34308691487E+02  0.69311525991E+02  0.00000000000E+00 0.  1.
</event>
<event>
 7    1  0.6833760E-006  0.1538389E+03  0.7561462E-02  0.1195834E+00
          1   -1    0    0  501    0  0.00000000000E+00  0.00000000000E+00  0.41214087664E+02  0.41214087664E+02  0.00000000000E+00 0. -1.
         -1   -1    0    0    0  501 -0.00000000000E+00 -0.00000000000E+00 -0.76172234939E+03  0.76172234939E+03  0.00000000000E+00 0.  1.
         23    2    1    2    0    0 -0.49423430521E+02 -0.11639290114E+03 -0.51498496609E+03  0.54483203140E+03  0.12506975742E+03 0.  0.
          5    1    3    3  502    0  0.42010593646E+02 -0.39914018653E+02 -0.18795180366E+03  0.19672664223E+03  0.41800000000E+01 0. -1.
         -5    1    3    3    0  502 -0.91434024167E+02 -0.76478882489E+02 -0.32703316244E+03  0.34810538918E+03  0.41800000000E+01 0. -1.
        -11    1    1    2    0    0  0.19511933805E+02  0.83899962927E+02 -0.57336796778E+02  0.10347670078E+03  0.00000000000E+00 0. -1.
         11    1    1    2    0    0  0.29911496717E+02  0.32492938215E+02 -0.14818649886E+03  0.15462770487E+03  0.00000000000E+00 0.  1.
</event>
<event>
 7    1  0.6833760E-006  0.1101233E+03  0.7561462E-02  0.1260342E+00
          3   -1    0    0  501    0  0.00000000000E+00  0.00000000000E+00  0.34911353424E+02  0.34911353424E+02  0.00000000000E+00 0. -1.
         -3   -1    0    0    0  501 -0.00000000000E+00 -0.00000000000E+00 -0.36986760551E+03  0.36986760551E+03  0.00000000000E+00 0.  1.
         23    2    1    2    0    0 -0.22327083343E+02 -0.15659614885E+02 -0.22014034823E+03  0.25466301124E+03  0.12509098363E+03 0.  0.
          5    1    3    3  502    0  0.33800178897E+02 -0.49325420908E+02 -0.80272860266E+02  0.10018310105E+03  0.41800000000E+01 0. -1.
         -5    1    3    3    0  502 -0.56127262241E+02  0.33665806022E+02 -0.13986748796E+03  0.15447991018E+03  0.41800000000E+01 0. -1.
        -11    1    1    2    0    0  0.52016118599E+02  0.31763207239E+02 -0.58691857208E+02  0.84612717902E+02  0.00000000000E+00 0.  1.
         11    1    1    2    0    0 -0.29689035256E+02 -0.16103592354E+02 -0.56124046649E+02  0.65503229794E+02  0.00000000000E+00 0. -1.
</event>
<event>
 7    1  0.6833760E-006  0.9901218E+02  0.7561462E-02  0.1282387E+00
          1   -1    0    0  501    0  0.00000000000E+00  0.00000000000E+00  0.30066667730E+02  0.30066667730E+02  0.00000000000E+00 0. -1.
         -1   -1    0    0    0  501 -0.00000000000E+00 -0.00000000000E+00 -0.41423944567E+03  0.41423944567E+03  0.00000000000E+00 0.  1.
         23    2    1    2    0    0  0.73991815100E+00 -0.26442137475E+02 -0.22464036754E+03  0.25847780471E+03  0.12509095365E+03 0.  0.
          5    1    3    3  502    0 -0.42436198607E+02  0.26431836509E+02 -0.49588955791E+02  0.70540838312E+02  0.41800000000E+01 0.  1.
         -5    1    3    3    0  502  0.43176116758E+02 -0.52873973984E+02 -0.17505141175E+03  0.18793696640E+03  0.41800000000E+01 0.  1.
        -11    1    1    2    0    0 -0.37825613071E+02  0.14370275586E+02 -0.29506159491E+02  0.50078890488E+02  0.00000000000E+00 0. -1.
         11    1    1    2    0    0  0.37085694920E+02  0.12071861889E+02 -0.13002625091E+03  0.13574941820E+03  0.00000000000E+00 0.  1.
</event>
<event>
 7    1  0.6833760E-006  0.1134005E+03  0.7561462E-02  0.1254399E+00
          1   -1    0    0  501    0  0.00000000000E+00  0.00000000000E+00  0.12621446055E+03  0.12621446055E+03  0.00000000000E+00 0. -1.
         -1   -1    0    0    0  501 -0.00000000000E+00 -0.00000000000E+00 -0.14404205821E+03  0.14404205821E+03  0.00000000000E+00 0.  1.
         23    2    1    2    0    0  0.47945758473E+02  0.65661157038E+02 -0.10939493970E+02  0.14959094733E+03  0.12509035013E+03 0.  0.
          5    1    3    3  502    0 -0.14097964246E+02  0.44694972709E+02  0.43687206043E+02  0.64206211173E+02  0.41800000000E+01 0.  1.
         -5    1    3    3    0  502  0.62043722719E+02  0.20966184329E+02 -0.54626700013E+02  0.85384736156E+02  0.41800000000E+01 0.  1.
        -11    1    1    2    0    0  0.16088671664E+02  0.67630972443E+01 -0.15853182909E+02  0.23577706601E+02  0.00000000000E+00 0.  1.
         11    1    1    2    0    0 -0.64034430136E+02 -0.72424254282E+02  0.89650792168E+01  0.97087864827E+02  0.00000000000E+00 0. -1.
</event>
<event>
 7    1  0.6833760E-006  0.1496401E+03  0.7561462E-02  0.1200916E+00
         -2   -1    0    0    0  501 -0.00000000000E+00  0.00000000000E+00  0.11058125184E+03  0.11058125184E+03  0.00000000000E+00 0. -1.
          2   -1    0    0  501    0  0.00000000000E+00 -0.00000000000E+00 -0.30998432749E+03  0.30998432749E+03  0.00000000000E+00 0.  1.
         23    2    1    2    0    0 -0.14560444438E+02  0.12761006620E+03 -0.17220694242E+02  0.18011066065E+03  0.12508781808E+03 0.  0.
          5    1    3    3  502    0  0.19183754554E+02  0.68352436170E+01 -0.46792471281E+02  0.51202976112E+02  0.41800000000E+01 0. -1.
         -5    1    3    3    0  502 -0.33744198992E+02  0.12077482259E+03  0.29571777039E+02  0.12890768454E+03  0.41800000000E+01 0. -1.
        -11    1    1    2    0    0  0.44450962930E+02 -0.10923721890E+03 -0.11532238633E+03  0.16494820668E+03  0.00000000000E+00 0. -1.
         11    1    1    2    0    0 -0.29890518492E+02 -0.18372847304E+02 -0.66859995082E+02  0.75506711994E+02  0.00000000000E+00 0.  1.
</event>
<event>
 7    1  0.6833760E-006  0.1083619E+03  0.7561462E-02  0.1263634E+00
         -1   -1    0    0    0  501 -0.00000000000E+00  0.00000000000E+00  0.26466291163E+02  0.26466291163E+02  0.00000000000E+00 0.  1.
          1   -1    0    0  501    0  0.00000000000E+00 -0.00000000000E+00 -0.59312354835E+03  0.59312354835E+03  0.00000000000E+00 0. -1.
         23    2    1    2    0    0  0.25024561068E+02 -0.54332942616E+02 -0.28023333157E+03  0.31266075673E+03  0.12509089243E+03 0.  0.
          5    1    3    3  502    0 -0.10016131894E+02  0.28948126750E+02 -0.19180170319E+02  0.36382252183E+02  0.41800000000E+01 0.  1.
         -5    1    3    3    0  502  0.35040692962E+02 -0.83281069366E+02 -0.26105316125E+03  0.27627850455E+03  0.41800000000E+01 0.  1.
        -11    1    1    2    0    0  0.26001017498E+02  0.26957281672E+02 -0.44460587064E+02  0.58133396152E+02  0.00000000000E+00 0.  1.
         11    1    1    2    0    0 -0.51025578566E+02  0.27375660944E+02 -0.24196333855E+03  0.24879568663E+03  0.00000000000E+00 0. -1.
</event>
<event>
 7    1  0.6833760E-006  0.9951528E+02  0.7561462E-02  0.1281319E+00
         -4   -1    0    0    0  501 -0.00000000000E+00  0.00000000000E+00  0.75821210130E+03  0.75821210130E+03  0.00000000000E+00 0. -1.
          4   -1    0    0  501    0  0.00000000000E+00 -0.00000000000E+00 -0.28874646904E+02  0.28874646904E+02  0.00000000000E+00 0.  1.
         23    2    1    2    0    0  0.75100948506E+02  0.20275582899E+02  0.56090617459E+03  0.57992594658E+03  0.12508842910E+03 0.  0.
          5    1    3    3  502    0  0.20676067736E+02  0.24373636440E+02  0.48643284099E+03  0.48749969756E+03  0.41800000000E+01 0.  1.
         -5    1    3    3    0  502  0.54424880770E+02 -0.40980535414E+01  0.74473333599E+02  0.92426249015E+02  0.41800000000E+01 0.  1.
        -11    1    1    2    0    0 -0.53887699833E+02 -0.51347929202E+02  0.71617449619E+02  0.10329352892E+03  0.00000000000E+00 0. -1.
         11    1    1    2    0    0 -0.21213248673E+02  0.31072346303E+02  0.96813830193E+02  0.10386727271E+03  0.00000000000E+00 0.  1.
</event>
<event>
 7    1  0.6833760E-006  0.1040150E+03  0.7561462E-02  0.1272073E+00
         -4   -1    0    0    0  501 -0.00000000000E+00  0.00000000000E+00  0.57353403763E+02  0.57353403763E+02  0.00000000000E+00 0.  1.
          4   -1    0    0  501    0  0.00000000000E+00 -0.00000000000E+00 -0.26925002705E+03  0.26925002705E+03  0.00000000000E+00 0. -1.
         23    2    1    2    0    0 -0.26222172327E+02 -0.32920984474E+02 -0.62497407251E+02  0.14603054639E+03  0.12509037144E+03 0.  0.
          5    1    3    3  502    0  0.48909491556E+02 -0.13030805987E+02 -0.89834239018E+01  0.51576298568E+02  0.41800000000E+01 0. -1.
         -5    1    3    3    0  502 -0.75131663883E+02 -0.19890178487E+02 -0.53513983349E+02  0.94454247824E+02  0.41800000000E+01 0. -1.
        -11    1    1    2    0    0 -0.17822716426E+02 -0.77726336420E+01  0.15494161811E+00  0.19444460945E+02  0.00000000000E+00 0.  1.
         11    1    1    2    0    0  0.44044888753E+02  0.40693618116E+02 -0.14955415765E+03  0.16112842348E+03  0.00000000000E+00 0. -1.
</event>
<event>
 7    1  0.6833760E-006  0.1114108E+03  0.7561462E-02  0.1257979E+00
         -1   -1    0    0    0  501 -0.00000000000E+00  0.00000000000E+00  0.19597391508E+04  0.19597391508E+04  0.00000000000E+00 0.  1.
          1   -1    0    0  501    0  0.00000000000E+00 -0.00000000000E+00 -0.90646700957E+01  0.90646700957E+01  0.00000000000E+00 0. -1.
         23    2    1    2    0    0 -0.21496495844E+02  0.41709556897E+02  0.15366359809E+04  0.15424329091E+04  0.12508938752E+03 0.  0.
          5    1    3    3  502    0  0.16412311709E+00  0.78275297364E+02  0.12682961946E+04  0.12707162385E+04  0.41800000000E+01 0.  1.
         -5    1    3    3    0  502 -0.21660618961E+02 -0.36565740466E+02  0.26833978635E+03  0.27171667069E+03  0.41800000000E+01 0.  1.
        -11    1    1    2    0    0  0.44571807667E+02  0.94896510281E+01  0.19365803842E+03  0.19894756938E+03  0.00000000000E+00 0.  1.
         11    1    1    2    0    0 -0.23075311823E+02 -0.51199207926E+02  0.22038046131E+03  0.22742334233E+03  0.00000000000E+00 0. -1.
</event>
<event>
 7    1  0.6833760E-006  0.1034916E+03  0.7561462E-02  0.1273120E+00
         -2   -1    0    0    0  501 -0.00000000000E+00  0.00000000000E+00  0.49820244618E+02  0.49820244618E+02  0.00000000000E+00 0.  1.
          2   -1    0    0  501    0  0.00000000000E+00 -0.00000000000E+00 -0.42718324073E+03  0.42718324073E+03  0.00000000000E+00 0. -1.
         23    2    1    2    0    0 -0.80353523892E+02  0.33963892592E+02 -0.13368540577E+03  0.20280472973E+03  0.12509091047E+03 0.  0.
          5    1    3    3  502    0 -0.39351526690E+01  0.47361632528E+01  0.23989349315E+02  0.25117283878E+02  0.41800000000E+01 0.  1.
         -5    1    3    3    0  502 -0.76418371223E+02  0.29227729339E+02 -0.15767475508E+03  0.17768744585E+03  0.41800000000E+01 0.  1.
        -11    1    1    2    0    0 -0.40789108252E+01  0.18012641434E+02 -0.85835593973E+02  0.87800011148E+02  0.00000000000E+00 0. -1.
         11    1    1    2    0    0  0.84432434717E+02 -0.51976534026E+02 -0.15784199637E+03  0.18639874447E+03  0.00000000000E+00 0.  1.
</event>
<event>
 7    1  0.6833760E-006  0.9363696E+02  0.7561462E-02  0.1294276E+00
          3   -1    0    0  501    0  0.00000000000E+00  0.00000000000E+00  0.29895702269E+03  0.29895702269E+03  0.00000000000E+00 0. -1.
         -3   -1    0    0    0  501 -0.00000000000E+00 -0.00000000000E+00 -0.51345375769E+02  0.51345375769E+02  0.00000000000E+00 0.  1.
         23    2    1    2    0    0  0.17082380435E+02  0.48047889149E+02  0.66967720179E+02  0.14359901913E+03  0.11634257765E+03 0.  0.
          5    1    3    3  502    0  0.45567723314E+02  0.27416973232E+02  0.87632983810E+02  0.10259200788E+03  0.41800000000E+01 0. -1.
         -5    1    3    3    0  502 -0.28485342879E+02  0.20630915917E+02 -0.20665263631E+02  0.41007011247E+02  0.41800000000E+01 0.  1.
        -11    1    1    2    0    0 -0.11522289476E+02  0.23802924328E+02  0.68201468901E+02  0.73149044570E+02  0.00000000000E+00 0.  1.
         11    1    1    2    0    0 -0.55600909590E+01 -0.71850813476E+02  0.11244245784E+03  0.13355433477E+03  0.00000000000E+00 0. -1.
</event>
<event>
 7    1  0.6833760E-006  0.1068078E+03  0.7561462E-02  0.1266598E+00
          1   -1    0    0  501    0  0.00000000000E+00  0.00000000000E+00  0.43413714563E+03  0.43413714563E+03  0.00000000000E+00 0. -1.
         -1   -1    0    0    0  501 -0.00000000000E+00 -0.00000000000E+00 -0.35807692576E+02  0.35807692576E+02  0.00000000000E+00 0.  1.
         23    2    1    2    0    0  0.40148894343E+02 -0.42166487734E+02  0.12901255707E+03  0.17976351287E+03  0.11081847442E+03 0.  0.
          5    1    3    3  502    0 -0.21688669154E+02  0.11294487177E+02  0.81347311753E+02  0.85045995436E+02  0.41800000000E+01 0. -1.
         -5    1    3    3    0  502  0.61837563497E+02 -0.53460974912E+02  0.47665245315E+02  0.94717517433E+02  0.41800000000E+01 0.  1.
        -11    1    1    2    0    0  0.23608087426E+02  0.35800100039E+02  0.12864434629E+03  0.13560367542E+03  0.00000000000E+00 0.  1.
         11    1    1    2    0    0 -0.63756981769E+02  0.63663876956E+01  0.14067254970E+03  0.15457764992E+03  0.00000000000E+00 0. -1.
</event>
<event>
 6    1  0.6833760E-006  0.1512161E+03  0.7561462E-02  0.1198987E+00
          1   -1    0    0  501    0  0.00000000000E+00  0.00000000000E+00  0.69681349040E+03  0.69681349040E+03  0.00000000000E+00 0. -1.
         -1   -1    0    0    0  501 -0.00000000000E+00 -0.00000000000E+00 -0.84599226727E+02  0.84599226727E+02  0.00000000000E+00 0.  1.
          5    1    1    2  502    0 -0.32086952871E+01  0.45028798622E+02  0.17744732388E+02  0.48685073259E+02  0.41800000000E+01 0. -1.
         -5    1    1    2    0  502  0.11242081900E+03 -0.57582333813E+02  0.80991830936E+01  0.12663820466E+03  0.41800000000E+01 0.  1.
        -11    1    1    2    0    0 -0.80966793465E+02 -0.24068230533E+02  0.50891276638E+03  0.51587508677E+03  0.00000000000E+00 0. -1.
         11    1    1    2    0    0 -0.28245330251E+02  0.36621765724E+02  0.77457581810E+02  0.90214352437E+02  0.00000000000E+00 0.  1.
</event>
<event>
 6    1  0.6833760E-006  0.1249973E+03  0.7561462E-02  0.1235073E+00
          1   -1    0    0  501    0  0.00000000000E+00  0.00000000000E+00  0.23697619434E+02  0.23697619434E+02  0.00000000000E+00 0. -1.
         -1   -1    0    0    0  501 -0.00000000000E+00 -0.00000000000E+00 -0.87551922175E+03  0.87551922175E+03  0.00000000000E+00 0.  1.
          5    1    1    2  502    0 -0.30898934350E+02  0.66398093571E+02 -0.29603362376E+03  0.30498660589E+03  0.41800000000E+01 0. -1.
         -5    1    1    2    0  502 -0.23439859623E+02 -0.66440048404E+02 -0.39629400365E+03  0.40252964708E+03  0.41800000000E+01 0.  1.
        -11    1    1    2    0    0  0.66698406215E+02 -0.30330984425E+02 -0.11655581396E+03  0.13767317740E+03  0.00000000000E+00 0. -1.
         11    1    1    2    0    0 -0.12359612242E+02  0.30372939258E+02 -0.42938160946E+02  0.54027410815E+02  0.00000000000E+00 0.  1.
</event>
<event>
 6    1  0.6833760E-006  0.8338804E+02  0.7561462E-02  0.1319703E+00
         -2   -1    0    0    0  501 -0.00000000000E+00  0.00000000000E+00  0.57184505832E+02  0.57184505832E+02  0.00000000000E+00 0.  1.
          2   -1    0    0  501    0  0.00000000000E+00 -0.00000000000E+00 -0.34534573924E+03  0.34534573924E+03  0.00000000000E+00 0. -1.
          5    1    1    2  502    0 -0.25945036372E+02  0.48807027467E+02 -0.92603203105E+02  0.10792634742E+03  0.41800000000E+01 0. -1.
         -5    1    1    2    0  502  0.53811744366E+01 -0.90487950781E+01  0.38172931720E+02  0.39818122090E+02  0.41800000000E+01 0.  1.
        -11    1    1    2    0    0  0.18034378308E+02  0.27404402251E+02 -0.97624638094E+02  0.10298936851E+03  0.00000000000E+00 0.  1.
         11    1    1    2    0    0  0.25294836277E+01 -0.67162634639E+02 -0.13610632393E+03  0.15179640705E+03  0.00000000000E+00 0. -1.
</event>
<event>
 7    1  0.6833760E-006  0.9777495E+02  0.7561462E-02  0.1285046E+00
         -1   -1    0    0    0  501 -0.00000000000E+00  0.00000000000E+00  0.10358785244E+03  0.10358785244E+03  0.00000000000E+00 0.  1.
          1   -1    0    0  501    0  0.00000000000E+00 -0.00000000000E+00 -0.14971426786E+03  0.14971426786E+03  0.00000000000E+00 0. -1.
         23    2    1    2    0    0  0.37983779068E+02 -0.38876234131E+01  0.22920762717E+02  0.13278155202E+03  0.12509075947E+03 0.  0.
          5    1    3    3  502    0  0.38728547221E+02 -0.57691547062E+02  0.34332558716E+02  0.77617085492E+02  0.41800000000E+01 0. -1.
         -5    1    3    3    0  502 -0.74476815300E+00  0.53803923649E+02 -0.11411795999E+02  0.55164466530E+02  0.41800000000E+01 0. -1.
        -11    1    1    2    0    0 -0.54518807132E+02  0.75297650388E+01 -0.82308757033E+02  0.99013782763E+02  0.00000000000E+00 0.  1.
         11    1    1    2    0    0  0.16535028064E+02 -0.36421416257E+01  0.13261578895E+02  0.21506785521E+02  0.00000000000E+00 0. -1.
</event>
<event>
 7    1  0.6833760E-006  0.1416013E+03  0.7561462E-02  0.1211190E+00
          2   -1    0    0  501    0  0.00000000000E+00  0.00000000000E+00  0.61878725275E+03  0.61878725275E+03  0.00000000000E+00 0. -1.
         -2   -1    0    0    0  501 -0.00000000000E+00 -0.00000000000E+00 -0.37703224565E+02  0.37703224565E+02  0.00000000000E+00 0.  1.
         23    2    1    2    0    0 -0.89281962762E+00 -0.99558953984E+02  0.22774351823E+03  0.27826090376E+03  0.12509691451E+03 0.  0.
          5    1    3    3  502    0  0.41474423014E+02 -0.98392701824E+02  0.20192649693E+03  0.22845794820E+03  0.41800000000E+01 0.  1.
         -5    1    3    3    0  502 -0.42367242642E+02 -0.11662521602E+01  0.25817021305E+02  0.49802955557E+02  0.41800000000E+01 0.  1.
        -11    1    1    2    0    0 -0.42493025976E+02  0.30912057827E+02  0.16388283520E+03  0.17210112216E+03  0.00000000000E+00 0. -1.
         11    1    1    2    0    0  0.43385845603E+02  0.68646896157E+02  0.18945767475E+03  0.20612845139E+03  0.00000000000E+00 0.  1.
</event>
<event>
 7    1  0.6833760E-006  0.1202247E+03  0.7561462E-02  0.1242727E+00
         -1   -1    0    0    0  501 -0.00000000000E+00  0.00000000000E+00  0.80460022211E+02  0.80460022211E+02  0.00000000000E+00 0.  1.
          1   -1    0    0  501    0  0.00000000000E+00 -0.00000000000E+00 -0.23616644771E+03  0.23616644771E+03  0.00000000000E+00 0. -1.
         23    2    1    2    0    0  0.58054837706E+02 -0.35629216993E+02 -0.27577089037E+02  0.14508211857E+03  0.12509404465E+03 0.  0.
          5    1    3    3  502    0  0.55491942066E+02 -0.79481762420E+02 -0.98381514059E+01  0.97524190920E+02  0.41800000000E+01 0. -1.
         -5    1    3    3    0  502  0.25628956401E+01  0.43852545427E+02 -0.17738937631E+02  0.47557927654E+02  0.41800000000E+01 0. -1.
        -11    1    1    2    0    0 -0.73263019134E+02  0.16929566725E+02 -0.12678214410E+03  0.14740350153E+03  0.00000000000E+00 0. -1.
         11    1    1    2    0    0  0.15208181428E+02  0.18699650268E+02 -0.13471923650E+01  0.24140849814E+02  0.00000000000E+00 0.  1.
</event>
<event>
 7    1  0.6833760E-006  0.1129715E+03  0.7561462E-02  0.1255164E+00
         -1   -1    0    0    0  501 -0.00000000000E+00  0.00000000000E+00  0.91730511985E+02  0.91730511985E+02  0.00000000000E+00 0.  1.
          1   -1    0    0  501    0  0.00000000000E+00 -0.00000000000E+00 -0.23618442739E+03  0.23618442739E+03  0.00000000000E+00 0. -1.
         23    2    1    2    0    0 -0.26849317373E+02  0.63385757615E+02  0.97192082051E+00  0.14277622444E+03  0.12508183531E+03 0.  0.
          5    1    3    3  502    0 -0.67185806232E+02  0.33996393514E+02  0.34062757095E+02  0.82749206352E+02  0.41800000000E+01 0. -1.
         -5    1    3    3    0  502  0.40336488859E+02  0.29389364101E+02 -0.33090836275E+02  0.60027018093E+02  0.41800000000E+01 0. -1.
        -11    1    1    2    0    0  0.51380514663E+02 -0.52973451295E+02 -0.13953105643E+03  0.15784504914E+03  0.00000000000E+00 0. -1.
         11    1    1    2    0    0 -0.24531197290E+02 -0.10412306320E+02 -0.58947797922E+01  0.27293665788E+02  0.00000000000E+00 0.  1.
</event>
<event>
 7    1  0.6833760E-006  0.1909831E+03  0.7561462E-02  0.1157578E+00
         -1   -1    0    0    0  501 -0.00000000000E+00  0.00000000000E+00  0.66479677818E+02  0.66479677818E+02  0.00000000000E+00 0.  1.
          1   -1    0    0  501    0  0.00000000000E+00 -0.00000000000E+00 -0.74228959258E+03  0.74228959258E+03  0.00000000000E+00 0. -1.
         23    2    1    2    0    0  0.82530695194E+02  0.15297998024E+03 -0.19460933072E+03  0.28936971082E+03  0.12509135835E+03 0.  0.
          5    1    3    3  502    0  0.57212810200E+02  0.34964042467E+02 -0.14307200677E+03  0.15805967682E+03  0.41800000000E+01 0.  1.
         -5    1    3    3    0  502  0.25317884994E+02  0.11801593777E+03 -0.51537323952E+02  0.13131003400E+03  0.41800000000E+01 0.  1.
        -11    1    1    2    0    0 -0.59562467038E+02 -0.26031728938E+02 -0.19269222046E+03  0.20336083747E+03  0.00000000000E+00 0.  1.
         11    1    1    2    0    0 -0.22968228156E+02 -0.12694825130E+03 -0.28850836359E+03  0.31603872211E+03  0.00000000000E+00 0. -1.
</event>
<event>
 7    1  0.6833760E-006  0.1286142E+03  0.7561462E-02  0.1229527E+00
         -2   -1    0    0    0  501 -0.00000000000E+00  0.00000000000E+00  0.35747029067E+02  0.35747029067E+02  0.00000000000E+00 0.  1.
          2   -1    0    0  501    0  0.00000000000E+00 -0.00000000000E+00 -0.78375926507E+03  0.78375926507E+03  0.00000000000E+00 0. -1.
         23    2    1    2    0    0 -0.11115797306E+03  0.50264618488E+02 -0.31586835478E+03  0.36097416793E+03  0.12508759136E+03 0.  0.
          5    1    3    3  502    0 -0.85459475542E+02  0.56598792622E+02 -0.31795713483E+03  0.33409722727E+03  0.41800000000E+01 0.  1.
         -5    1    3    3    0  502 -0.25698497522E+02 -0.63341741332E+01  0.20887800451E+01  0.26876940654E+02  0.41800000000E+01 0.  1.
        -11    1    1    2    0    0  0.55762936153E+02 -0.44160161641E+01 -0.32314586739E+03  0.32795160902E+03  0.00000000000E+00 0. -1.
         11    1    1    2    0    0  0.55395036912E+02 -0.45848602324E+02 -0.10899801383E+03  0.13058051718E+03  0.00000000000E+00 0.  1.
</event>
<event>
 7    1  0.6833760E-006  0.1185402E+03  0.7561462E-02  0.1245525E+00
         -2   -1    0    0    0  501 -0.00000000000E+00  0.00000000000E+00  0.57614993114E+02  0.57614993114E+02  0.00000000000E+00 0.  1.
          2   -1    0    0  501    0  0.00000000000E+00 -0.00000000000E+00 -0.33585271023E+03  0.33585271023E+03  0.00000000000E+00 0. -1.
         23    2    1    2    0    0 -0.78716218741E+02  0.29278305671E+02 -0.10864860967E+03  0.18575783108E+03  0.12509192278E+03 0.  0.
          5    1    3    3  502    0  0.60334358589E+01  0.54739643181E+02 -0.69842481850E+02  0.89040864522E+02  0.41800000000E+01 0. -1.
         -5    1    3    3    0  502 -0.84749654600E+02 -0.25461337510E+02 -0.38806127825E+02  0.96716966554E+02  0.41800000000E+01 0. -1.
        -11    1    1    2    0    0  0.38069411744E+02 -0.35604313452E+02 -0.25815037789E+02  0.58166686539E+02  0.00000000000E+00 0.  1.
         11    1    1    2    0    0  0.40646806997E+02  0.63260077812E+01 -0.14377406965E+03  0.14954318572E+03  0.00000000000E+00 0. -1.
</event>
<event>
 7    1  0.6833760E-006  0.1555259E+03  0.7561462E-02  0.1193843E+00
         -1   -1    0    0    0  501 -0.00000000000E+00  0.00000000000E+00  0.51389749790E+02  0.51389749790E+02  0.00000000000E+00 0.  1.
          1   -1    0    0  501    0  0.00000000000E+00 -0.00000000000E+00 -0.55055857924E+03  0.55055857924E+03  0.00000000000E+00 0. -1.
         23    2    1    2    0    0  0.81697285229E+01  0.12382691827E+03 -0.27280455088E+03  0.32476382602E+03  0.12509744024E+03 0.  0.
          5    1    3    3  502    0  0.32403054749E+02  0.14177868845E+03 -0.23209292273E+03  0.27392654423E+03  0.41800000000E+01 0. -1.
         -5    1    3    3    0  502 -0.24233326226E+02 -0.17951770173E+02 -0.40711628158E+02  0.50837281789E+02  0.41800000000E+01 0. -1.
        -11    1    1    2    0    0  0.16706775553E+02 -0.12049692625E+02  0.30070950226E+01  0.20817157880E+02  0.00000000000E+00 0.  1.
         11    1    1    2    0    0 -0.24876504075E+02 -0.11177722565E+03 -0.22937137359E+03  0.25636734514E+03  0.00000000000E+00 0. -1.
</event>
<event>
 7    1  0.6833760E-006  0.1467003E+03  0.7561462E-02  0.1204587E+00
         -2   -1    0    0    0  501 -0.00000000000E+00  0.00000000000E+00  0.50868471163E+03  0.50868471163E+03  0.00000000000E+00 0.  1.
          2   -1    0    0  501    0  0.00000000000E+00 -0.00000000000E+00 -0.81870551063E+02  0.81870551063E+02  0.00000000000E+00 0. -1.
         23    2    1    2    0    0 -0.78611079372E+02 -0.64877019954E+02  0.42442696748E+03  0.45406521260E+03  0.12509291366E+03 0.  0.
          5    1    3    3  502    0 -0.95190338907E+02 -0.89878151943E+02  0.33873643105E+03  0.36317919123E+03  0.41800000000E+01 0.  1.
         -5    1    3    3    0  502  0.16579259535E+02  0.25001131989E+02  0.85690536422E+02  0.90886021366E+02  0.41800000000E+01 0.  1.
        -11    1    1    2    0    0  0.29446339070E+02 -0.18900200473E+02  0.15869893260E+02  0.38420801327E+02  0.00000000000E+00 0.  1.
         11    1    1    2    0    0  0.49164740302E+02  0.83777220427E+02 -0.13482700166E+02  0.98069248774E+02  0.00000000000E+00 0. -1.
</event>
<event>
 7    1  0.6833760E-006  0.1195704E+03  0.7561462E-02  0.1243808E+00
          1   -1    0    0  501    0  0.00000000000E+00  0.00000000000E+00  0.24227426005E+03  0.24227426005E+03  0.00000000000E+00 0. -1.
         -1   -1    0    0    0  501 -0.00000000000E+00 -0.00000000000E+00 -0.62050547126E+02  0.62050547126E+02  0.00000000000E+00 0.  1.
         23    2    1    2    0    0 -0.82672216247E+01 -0.53955847996E+02  0.12323405016E+03  0.18388501853E+03  0.12508992140E+03 0.  0.
          5    1    3    3  502    0 -0.13301267405E+02 -0.93239466343E+02  0.10144756137E+03  0.13849043976E+03  0.41800000000E+01 0. -1.
         -5    1    3    3    0  502  0.50340457806E+01  0.39283618347E+02  0.21786488786E+02  0.45394578762E+02  0.41800000000E+01 0. -1.
        -11    1    1    2    0    0 -0.77472572485E+01  0.76773312182E+02  0.49130495058E+02  0.91476592650E+02  0.00000000000E+00 0.  1.
         11    1    1    2    0    0  0.16014478873E+02 -0.22817464185E+02  0.78591677133E+01  0.28963196001E+02  0.00000000000E+00 0. -1.
</event>
<event>
 7    1  0.6833760E-006  0.9885469E+02  0.7561462E-02  0.1282723E+00
          1   -1    0    0  501    0  0.00000000000E+00  0.00000000000E+00  0.24557607754E+03  0.24557607754E+03  0.00000000000E+00 0. -1.
         -1   -1    0    0    0  501 -0.00000000000E+00 -0.00000000000E+00 -0.55284792296E+02  0.55284792296E+02  0.00000000000E+00 0.  1.
         23    2    1    2    0    0 -0.13709451191E+02 -0.90555304006E+01  0.57225803303E+02  0.13853759524E+03  0.12509165060E+03 0.  0.
          5    1    3    3  502    0 -0.67198362565E+02  0.79540132867E+01  0.18689452655E+02  0.70325346066E+02  0.41800000000E+01 0. -1.
         -5    1    3    3    0  502  0.53488911374E+02 -0.17009543687E+02  0.38536350647E+02  0.68212249176E+02  0.41800000000E+01 0. -1.
        -11    1    1    2    0    0 -0.14575473326E+02 -0.25257251478E+02  0.10672970409E+03  0.11064177742E+03  0.00000000000E+00 0. -1.
         11    1    1    2    0    0  0.28284924517E+02  0.34312781879E+02  0.26335777848E+02  0.51681497173E+02  0.00000000000E+00 0.  1.
</event>
<event>
 7    1  0.6833760E-006  0.2053584E+03  0.7561462E-02  0.1145295E+00
         -1   -1    0    0    0  501 -0.00000000000E+00  0.00000000000E+00  0.11863758580E+03  0.11863758580E+03  0.00000000000E+00 0.  1.
          1   -1    0    0  501    0  0.00000000000E+00 -0.00000000000E+00 -0.42032683689E+03  0.42032683689E+03  0.00000000000E+00 0. -1.
         23    2    1    2    0    0 -0.96558970228E+02 -0.16849280046E+03 -0.18957916425E+03  0.29883280683E+03  0.12508928163E+03 0.  0.
          5    1    3    3  502    0 -0.88984164890E+02 -0.12173518399E+03 -0.62743358079E+02  0.16337636917E+03  0.41800000000E+01 0.  1.
         -5    1    3    3    0  502 -0.75748053390E+01 -0.46757616475E+02 -0.12683580617E+03  0.13545643765E+03  0.41800000000E+01 0.  1.
        -11    1    1    2    0    0  0.21973727110E+02  0.12301245368E+03 -0.63770847679E+02  0.14029123086E+03  0.00000000000E+00 0. -1.
         11    1    1    2    0    0  0.74585243118E+02  0.45480346783E+02 -0.48339239159E+02  0.99840385000E+02  0.00000000000E+00 0.  1.
</event>
<event>
 7    1  0.6833760E-006  0.1039183E+03  0.7561462E-02  0.1272266E+00
         -2   -1    0    0    0  501 -0.00000000000E+00  0.00000000000E+00  0.40623918331E+02  0.40623918331E+02  0.00000000000E+00 0.  1.
          2   -1    0    0  501    0  0.00000000000E+00 -0.00000000000E+00 -0.41141568765E+03  0.41141568765E+03  0.00000000000E+00 0. -1.
         23    2    1    2    0    0  0.66584709383E+02 -0.22031944442E+02 -0.22165046045E+03  0.26399744569E+03  0.12508714807E+03 0.  0.
          5    1    3    3  502    0  0.13950105358E+02  0.40136424276E+02 -0.14822496487E+03  0.15425190632E+03  0.41800000000E+01 0. -1.
         -5    1    3    3    0  502  0.52634604025E+02 -0.62168368717E+02 -0.73425495581E+02  0.10974553937E+03  0.41800000000E+01 0. -1.
        -11    1    1    2    0    0 -0.23589206424E+02 -0.14040839949E+02 -0.12318544694E+03  0.12620717168E+03  0.00000000000E+00 0. -1.
         11    1    1    2    0    0 -0.42995502960E+02  0.36072784390E+02 -0.25955861935E+02  0.61834988616E+02  0.00000000000E+00 0.  1.
</event>
<event>
 7    1  0.6833760E-006  0.1558879E+03  0.7561462E-02  0.1193419E+00
          1   -1    0    0  501    0  0.00000000000E+00  0.00000000000E+00  0.45354502638E+03  0.45354502638E+03  0.00000000000E+00 0. -1.
         -1   -1    0    0    0  501 -0.00000000000E+00 -0.00000000000E+00 -0.69276818750E+02  0.69276818750E+02  0.00000000000E+00 0.  1.
         23    2    1    2    0    0 -0.68579650921E+02  0.92669192789E+02  0.86852532243E+02  0.19099627518E+03  0.12508184105E+03 0.  0.
          5    1    3    3  502    0 -0.90089706176E+02  0.10975798898E+03  0.68640318576E+02  0.15777178784E+03  0.41800000000E+01 0.  1.
         -5    1    3    3    0  502  0.21510055254E+02 -0.17088796189E+02  0.18212213667E+02  0.33224487338E+02  0.41800000000E+01 0.  1.
        -11    1    1    2    0    0  0.76355359307E+02 -0.35447949101E+02  0.21755096216E+03  0.23327048491E+03  0.00000000000E+00 0.  1.
         11    1    1    2    0    0 -0.77757083855E+01 -0.57221243689E+02  0.79864713225E+02  0.98555085048E+02  0.00000000000E+00 0. -1.
</event>
<event>
 7    1  0.6833760E-006  0.9867610E+02  0.7561462E-02  0.1283105E+00
         -2   -1    0    0    0  501 -0.00000000000E+00  0.00000000000E+00  0.53084794205E+02  0.53084794205E+02  0.00000000000E+00 0.  1.
          2   -1    0    0  501    0  0.00000000000E+00 -0.00000000000E+00 -0.28683394088E+03  0.28683394088E+03  0.00000000000E+00 0. -1.
         23    2    1    2    0    0 -0.18338954313E+02  0.35039090402E+02 -0.70892373746E+02  0.14911806705E+03  0.12508562732E+03 0.  0.
          5    1    3    3  502    0 -0.46754138725E+02 -0.21186170991E+02 -0.68809191809E+02  0.85947545670E+02  0.41800000000E+01 0.  1.
         -5    1    3    3    0  502  0.28415184412E+02  0.56225261393E+02 -0.20831819366E+01  0.63170521376E+02  0.41800000000E+01 0.  1.
        -11    1    1    2    0    0  0.16603583517E+02 -0.57673003458E+02 -0.15590839371E+03  0.16706071214E+03  0.00000000000E+00 0. -1.
         11    1    1    2    0    0  0.17353707959E+01  0.22633913056E+02 -0.69483792186E+01  0.23739955893E+02  0.00000000000E+00 0.  1.
</event>
<event>
 7    1  0.6833760E-006  0.2748670E+03  0.7561462E-02  0.1098526E+00
         -2   -1    0    0    0  501 -0.00000000000E+00  0.00000000000E+00  0.57300392883E+02  0.57300392883E+02  0.00000000000E+00 0.  1.
          2   -1    0    0  501    0  0.00000000000E+00 -0.00000000000E+00 -0.13250610002E+04  0.13250610002E+04  0.00000000000E+00 0. -1.
         23    2    1    2    0    0  0.22670056725E+03  0.11194320657E+03 -0.66130776171E+03  0.71895727678E+03  0.12508869434E+03 0.  0.
          5    1    3    3  502    0  0.91367114279E+02  0.11351940065E+03 -0.37138995447E+03  0.39897690983E+03  0.41800000000E+01 0. -1.
         -5    1    3    3    0  502  0.13533345298E+03 -0.15761940791E+01 -0.28991780724E+03  0.31998036695E+03  0.41800000000E+01 0. -1.
        -11    1    1    2    0    0 -0.19574591743E+03 -0.54333612840E+02 -0.47342094369E+03  0.51516598840E+03  0.00000000000E+00 0. -1.
         11    1    1    2    0    0 -0.30954649828E+02 -0.57609593730E+02 -0.13303190187E+03  0.14823812786E+03  0.00000000000E+00 0.  1.
</event>
<event>
 7    1  0.6833760E-006  0.4668053E+02  0.7561462E-02  0.1464115E+00
          1   -1    0    0  501    0  0.00000000000E+00  0.00000000000E+00  0.10667703422E+03  0.10667703422E+03  0.00000000000E+00 0. -1.
         -1   -1    0    0    0  501 -0.00000000000E+00 -0.00000000000E+00 -0.12070734443E+03  0.12070734443E+03  0.00000000000E+00 0.  1.
         23    2    1    2    0    0 -0.22048724847E+02 -0.57305028621E+01 -0.36085023102E+02  0.13216953112E+03  0.12509065167E+03 0.  0.
          5    1    3    3  502    0 -0.23470194027E+02 -0.32983151188E+02 -0.74483486691E+02  0.84876383403E+02  0.41800000000E+01 0. -1.
         -5    1    3    3    0  502  0.14214691807E+01  0.27252648325E+02  0.38398463589E+02  0.47293147721E+02  0.41800000000E+01 0. -1.
        -11    1    1    2    0    0  0.98283424712E+01  0.79438817069E+01 -0.34797913879E+02  0.37021566453E+02  0.00000000000E+00 0.  1.
         11    1    1    2    0    0  0.12220382375E+02 -0.22133788448E+01  0.56852626772E+02  0.58193281075E+02  0.00000000000E+00 0. -1.
</event>
<event>
 7    1  0.6833760E-006  0.6449685E+02  0.7561462E-02  0.1379874E+00
         -2   -1    0    0    0  501 -0.00000000000E+00  0.00000000000E+00  0.79855215964E+02  0.79855215964E+02  0.00000000000E+00 0. -1.
          2   -1    0    0  501    0  0.00000000000E+00 -0.00000000000E+00 -0.14699414739E+03  0.14699414739E+03  0.00000000000E+00 0.  1.
         23    2    1    2    0    0  0.16647033203E+02 -0.55147843387E+01 -0.47944143821E+02  0.13510680704E+03  0.12509065441E+03 0.  0.
          5    1    3    3  502    0 -0.12612510010E+02  0.21176034824E+02 -0.80106562066E+02  0.83916825164E+02  0.41800000000E+01 0.  1.
         -5    1    3    3    0  502  0.29259543214E+02 -0.26690819163E+02  0.32162418245E+02  0.51189981872E+02  0.41800000000E+01 0.  1.
        -11    1    1    2    0    0  0.21010219443E+02 -0.10211852687E+02 -0.39706355299E+02  0.46068491483E+02  0.00000000000E+00 0.  1.
         11    1    1    2    0    0 -0.37657252646E+02  0.15726637026E+02  0.20511567697E+02  0.45674064833E+02  0.00000000000E+00 0. -1.
</event>
<event>
 7    1  0.6833760E-006  0.9303949E+02  0.7561462E-02  0.1295654E+00
          2   -1    0    0  501    0  0.00000000000E+00  0.00000000000E+00  0.26747617584E+03  0.26747617584E+03  0.00000000000E+00 0. -1.
         -2   -1    0    0    0  501 -0.00000000000E+00 -0.00000000000E+00 -0.44422729013E+02  0.44422729013E+02  0.00000000000E+00 0.  1.
         23    2    1    2    0    0  0.20018198236E+02  0.90266750110E+01  0.12301833129E+03  0.17681767456E+03  0.12509504819E+03 0.  0.
          5    1    3    3  502    0 -0.20799860158E+02  0.39309781990E+02  0.11218132896E+01  0.44683598867E+02  0.41800000000E+01 0. -1.
         -5    1    3    3    0  502  0.40818058394E+02 -0.30283106979E+02  0.12189651800E+03  0.13213407570E+03  0.41800000000E+01 0. -1.
        -11    1    1    2    0    0 -0.27831841961E+02  0.35554380555E+02  0.43939611227E+02  0.63003292282E+02  0.00000000000E+00 0.  1.
         11    1    1    2    0    0  0.78136437254E+01 -0.44581055566E+02  0.56095504313E+02  0.72077938010E+02  0.00000000000E+00 0. -1.
</event>
<event>
 7    1  0.6833760E-006  0.1058779E+03  0.7561462E-02  0.1268400E+00
         -2   -1    0    0    0  501 -0.00000000000E+00  0.00000000000E+00  0.59377304274E+02  0.59377304274E+02  0.00000000000E+00 0.  1.
          2   -1    0    0  501    0  0.00000000000E+00 -0.00000000000E+00 -0.23468368149E+03  0.23468368149E+03  0.00000000000E+00 0. -1.
         23    2    1    2    0    0 -0.46470655899E+02  0.15816810962E+02 -0.98895184738E+02  0.16684543318E+03  0.12508975833E+03 0.  0.
          5    1    3    3  502    0  0.36431974858E+02  0.25766312196E+01 -0.67980400785E+02  0.77283472433E+02  0.41800000000E+01 0.  1.
         -5    1    3    3    0  502 -0.82902630757E+02  0.13240179742E+02 -0.30914783954E+02  0.89561960747E+02  0.41800000000E+01 0.  1.
        -11    1    1    2    0    0 -0.21512785613E+02 -0.24468363359E+01  0.29653445945E+01  0.21853608888E+02  0.00000000000E+00 0. -1.
         11    1    1    2    0    0  0.67983441512E+02 -0.13369974626E+02 -0.79376537069E+02  0.10536194369E+03  0.00000000000E+00 0.  1.
</event>
<event>
 7    1  0.6833760E-006  0.2450173E+03  0.7561462E-02  0.1116495E+00
          1   -1    0    0  501    0  0.00000000000E+00  0.00000000000E+00  0.63263866297E+02  0.63263866297E+02  0.00000000000E+00 0. -1.
         -1   -1    0    0    0  501 -0.00000000000E+00 -0.00000000000E+00 -0.10189695416E+04  0.10189695416E+04  0.00000000000E+00 0.  1.
         23    2    1    2    0    0  0.18161199878E+03 -0.12607883799E+03 -0.61871172608E+03  0.66882739722E+03  0.12508835198E+03 0.  0.
          5    1    3    3  502    0  0.99232988650E+02  0.46489024620E+01 -0.23871809670E+03  0.25859737126E+03  0.41800000000E+01 0. -1.
         -5    1    3    3    0  502  0.82379010128E+02 -0.13072774045E+03 -0.37999362938E+03  0.41023002597E+03  0.41800000000E+01 0. -1.
        -11    1    1    2    0    0 -0.10706807568E+03  0.12062210615E+03 -0.19603122272E+03  0.25385331513E+03  0.00000000000E+00 0. -1.
         11    1    1    2    0    0 -0.74543923094E+02  0.54567318478E+01 -0.14096272653E+03  0.15955269557E+03  0.00000000000E+00 0.  1.
</event>
<event>
 7    1  0.6833760E-006  0.1681256E+03  0.7561462E-02  0.1179817E+00
          3   -1    0    0  501    0  0.00000000000E+00  0.00000000000E+00  0.57512168078E+03  0.57512168078E+03  0.00000000000E+00 0. -1.
         -3   -1    0    0    0  501 -0.00000000000E+00 -0.00000000000E+00 -0.53927905650E+02  0.53927905650E+02  0.00000000000E+00 0.  1.
         23    2    1    2    0    0  0.99235302598E+02  0.81550640427E+02  0.18860246993E+03  0.26022511279E+03  0.12509222768E+03 0.  0.
          5    1    3    3  502    0  0.16231991512E+01  0.79038431599E+02  0.10574411754E+03  0.13209466015E+03  0.41800000000E+01 0.  1.
         -5    1    3    3    0  502  0.97612103447E+02  0.25122088274E+01  0.82858352393E+02  0.12813045264E+03  0.41800000000E+01 0.  1.
        -11    1    1    2    0    0 -0.37787696200E+02  0.18395483211E+02  0.83057765875E+02  0.93085424524E+02  0.00000000000E+00 0. -1.
         11    1    1    2    0    0 -0.61447606398E+02 -0.99946123638E+02  0.24953353932E+03  0.27573904912E+03  0.00000000000E+00 0.  1.
</event>
<event>
 7    1  0.6833760E-006  0.1599185E+03  0.7561462E-02  0.1188789E+00
         -1   -1    0    0    0  501 -0.00000000000E+00  0.00000000000E+00  0.28054335382E+02  0.28054335382E+02  0.00000000000E+00 0.  1.
          1   -1    0    0  501    0  0.00000000000E+00 -0.00000000000E+00 -0.99539939185E+03  0.99539939185E+03  0.00000000000E+00 0. -1.
         23    2    1    2    0    0  0.23522857942E+02  0.11720081260E+03 -0.38642617699E+03  0.42338980657E+03  0.12507750688E+03 0.  0.
          5    1    3    3  502    0  0.73279236576E+02  0.82687733682E+02 -0.21957696218E+03  0.24584267843E+03  0.41800000000E+01 0.  1.
         -5    1    3    3    0  502 -0.49756378634E+02  0.34513078920E+02 -0.16684921481E+03  0.17754712815E+03  0.41800000000E+01 0.  1.
        -11    1    1    2    0    0 -0.43000276068E+02 -0.16581882225E+02 -0.22562974438E+03  0.23028843676E+03  0.00000000000E+00 0.  1.
         11    1    1    2    0    0  0.19477418126E+02 -0.10061893038E+03 -0.35528913510E+03  0.36977548389E+03  0.00000000000E+00 0. -1.
</event>
<event>
 6    1  0.6833760E-006  0.7796575E+02  0.7561462E-02  0.1334925E+00
         -1   -1    0    0    0  501 -0.00000000000E+00  0.00000000000E+00  0.28123031097E+02  0.28123031097E+02  0.00000000000E+00 0.  1.
          1   -1    0    0  501    0  0.00000000000E+00 -0.00000000000E+00 -0.10824866190E+04  0.10824866190E+04  0.00000000000E+00 0. -1.
          5    1    1    2  502    0 -0.30422010388E+02  0.27006259432E+02 -0.81048911942E+03  0.81152013029E+03  0.41800000000E+01 0. -1.
         -5    1    1    2    0  502  0.97738063037E+01  0.10439212900E+02  0.15220092704E+02  0.21298546372E+02  0.41800000000E+01 0.  1.
        -11    1    1    2    0    0 -0.31286741231E+02 -0.36663020377E+02 -0.12031443500E+03  0.12960941520E+03  0.00000000000E+00 0.  1.
         11    1    1    2    0    0  0.51934945314E+02 -0.78245195479E+00 -0.13878012618E+03  0.14818155823E+03  0.00000000000E+00 0. -1.
</event>
<event>
 7    1  0.6833760E-006  0.1091026E+03  0.7561462E-02  0.1262241E+00
          2   -1    0    0  501    0  0.00000000000E+00  0.00000000000E+00  0.27779367503E+02  0.27779367503E+02  0.00000000000E+00 0. -1.
         -2   -1    0    0    0  501 -0.00000000000E+00 -0.00000000000E+00 -0.75668727442E+03  0.75668727442E+03  0.00000000000E+00 0.  1.
         23    2    1    2    0    0  0.80151352320E+02  0.21618706271E+02 -0.52185246310E+03  0.54301826329E+03  0.12508890153E+03 0.  0.
          5    1    3    3  502    0  0.31643178817E+01 -0.26268168710E+02 -0.21076866216E+02  0.34084252735E+02  0.41800000000E+01 0. -1.
         -5    1    3    3    0  502  0.76987034438E+02  0.47886874981E+02 -0.50077559688E+03  0.50893401056E+03  0.41800000000E+01 0. -1.
        -11    1    1    2    0    0 -0.86631779670E+02 -0.98071833667E+01 -0.21024335715E+03  0.22760385612E+03  0.00000000000E+00 0.  1.
         11    1    1    2    0    0  0.64804273507E+01 -0.11811522904E+02  0.31879133390E+01  0.13844522506E+02  0.00000000000E+00 0. -1.
</event>
<event>
 7    1  0.6833760E-006  0.1623683E+03  0.7561462E-02  0.1186049E+00
          1   -1    0    0  501    0  0.00000000000E+00  0.00000000000E+00  0.18774905779E+03  0.18774905779E+03  0.00000000000E+00 0. -1.
         -1   -1    0    0    0  501 -0.00000000000E+00 -0.00000000000E+00 -0.18585548182E+03  0.18585548182E+03  0.00000000000E+00 0.  1.
         23    2    1    2    0    0 -0.14396884790E+03 -0.93795278572E+01 -0.46095726986E+02  0.19643561642E+03  0.12508849125E+03 0.  0.
          5    1    3    3  502    0 -0.76943115496E+02  0.22313979227E+02 -0.81333641415E+02  0.11424005566E+03  0.41800000000E+01 0. -1.
         -5    1    3    3    0  502 -0.67025732407E+02 -0.31693507084E+02  0.35237914429E+02  0.82195560764E+02  0.41800000000E+01 0. -1.
        -11    1    1    2    0    0  0.62750093703E+02  0.49258098101E+02  0.27649949457E+02  0.84430173476E+02  0.00000000000E+00 0. -1.
         11    1    1    2    0    0  0.81218754200E+02 -0.39878570244E+02  0.20339353496E+02  0.92738749717E+02  0.00000000000E+00 0.  1.
</event>
<event>
 7    1  0.6833760E-006  0.7087145E+02  0.7561462E-02  0.1357154E+00
         -1   -1    0    0    0  501 -0.00000000000E+00  0.00000000000E+00  0.75140981651E+02  0.75140981651E+02  0.00000000000E+00 0.  1.
          1   -1    0    0  501    0  0.00000000000E+00 -0.00000000000E+00 -0.16743838180E+03  0.16743838180E+03  0.00000000000E+00 0. -1.
         23    2    1    2    0    0 -0.14811804439E+02 -0.11296079625E+02 -0.25124937628E+02  0.12893106410E+03  0.12507983783E+03 0.  0.
          5    1    3    3  502    0  0.12793601155E+02 -0.22464548432E+02  0.45316701438E+02  0.52339354180E+02  0.41800000000E+01 0. -1.
         -5    1    3    3    0  502 -0.27605405594E+02  0.11168468807E+02 -0.70441639066E+02  0.76591709916E+02  0.41800000000E+01 0. -1.
        -11    1    1    2    0    0  0.12825457497E+02  0.47512531906E+02 -0.17689713806E+02  0.52295879595E+02  0.00000000000E+00 0.  1.
         11    1    1    2    0    0  0.19863469425E+01 -0.36216452281E+02 -0.49482748713E+02  0.61352419758E+02  0.00000000000E+00 0. -1.
</event>
<event>
 7    1  0.6833760E-006  0.1099285E+03  0.7561462E-02  0.1260702E+00
         -2   -1    0    0    0  501 -0.00000000000E+00  0.00000000000E+00  0.39842542469E+02  0.39842542469E+02  0.00000000000E+00 0. -1.
          2   -1    0    0  501    0  0.00000000000E+00 -0.00000000000E+00 -0.43817414283E+03  0.43817414283E+03  0.00000000000E+00 0.  1.
         23    2    1    2    0    0  0.38944506032E+02  0.52521344874E+02 -0.15240027771E+03  0.20772308988E+03  0.12509145138E+03 0.  0.
          5    1    3    3  502    0  0.26876811188E+02 -0.35009704696E+02 -0.20347273676E+02  0.48780388975E+02  0.41800000000E+01 0.  1.
         -5    1    3    3    0  502  0.12067694844E+02  0.87531049570E+02 -0.13205300403E+03  0.15894270091E+03  0.41800000000E+01 0.  1.
        -11    1    1    2    0    0  0.84387419095E+00 -0.46869792132E+02 -0.21368953421E+03  0.21877089973E+03  0.00000000000E+00 0.  1.
         11    1    1    2    0    0 -0.39788380222E+02 -0.56515527417E+01 -0.32241788450E+02  0.51522695694E+02  0.00000000000E+00 0. -1.
</event>
<event>
 7    1  0.6833760E-006  0.3424919E+03  0.7561462E-02  0.1065740E+00
          2   -1    0    0  501    0  0.00000000000E+00  0.00000000000E+00  0.91351084529E+03  0.91351084529E+03  0.00000000000E+00 0. -1.
         -2   -1    0    0    0  501 -0.00000000000E+00 -0.00000000000E+00 -0.13727802595E+03  0.13727802595E+03  0.00000000000E+00 0.  1.
         23    2    1    2    0    0 -0.23692526951E+03  0.23757705206E+03  0.34827826072E+03  0.49952165186E+03  0.12509074623E+03 0.  0.
          5    1    3    3  502    0 -0.13846448791E+03  0.11360868180E+03  0.26694247989E+03  0.32148889089E+03  0.41800000000E+01 0. -1.
         -5    1    3    3    0  502 -0.98460781595E+02  0.12396837026E+03  0.81335780825E+02  0.17803276097E+03  0.41800000000E+01 0. -1.
        -11    1    1    2    0    0  0.10350349764E+03 -0.16712611858E+03  0.23847753519E+03  0.30905606017E+03  0.00000000000E+00 0.  1.
         11    1    1    2    0    0  0.13342177187E+03 -0.70450933482E+02  0.18947702344E+03  0.24221115921E+03  0.00000000000E+00 0. -1.
</event>
<event>
 7    1  0.6833760E-006  0.9156857E+02  0.7561462E-02  0.1299097E+00
          1   -1    0    0  501    0  0.00000000000E+00  0.00000000000E+00  0.93989887707E+03  0.93989887707E+03  0.00000000000E+00 0. -1.
         -1   -1    0    0    0  501 -0.00000000000E+00 -0.00000000000E+00 -0.15169716195E+02  0.15169716195E+02  0.00000000000E+00 0.  1.
         23    2    1    2    0    0 -0.49001576910E+02 -0.63618399172E+01  0.51473879162E+03  0.53202023560E+03  0.12509148627E+03 0.  0.
          5    1    3    3  502    0 -0.23496705171E+02  0.29358167046E+02  0.39339422275E+02  0.54580762830E+02  0.41800000000E+01 0. -1.
         -5    1    3    3    0  502 -0.25504871739E+02 -0.35720006963E+02  0.47539936935E+03  0.47743947277E+03  0.41800000000E+01 0. -1.
        -11    1    1    2    0    0  0.60963316278E+02 -0.26326286763E+02  0.31392024049E+03  0.32086682081E+03  0.00000000000E+00 0. -1.
         11    1    1    2    0    0 -0.11961739368E+02  0.32688126681E+02  0.96070128757E+02  0.10218153686E+03  0.00000000000E+00 0.  1.
</event>
<event>
 7    1  0.6833760E-006  0.1207059E+03  0.7561462E-02  0.1241937E+00
         -1   -1    0    0    0  501 -0.00000000000E+00  0.00000000000E+00  0.11134925660E+03  0.11134925660E+03  0.00000000000E+00 0.  1.
          1   -1    0    0  501    0  0.00000000000E+00 -0.00000000000E+00 -0.18825197474E+03  0.18825197474E+03  0.00000000000E+00 0. -1.
         23    2    1    2    0    0 -0.11577467159E+01  0.58909651452E+02  0.34920331901E+02  0.14261103995E+03  0.12508713653E+03 0.  0.
          5    1    3    3  502    0  0.15928206788E+02 -0.33430557595E+02  0.31090425196E+02  0.48532431337E+02  0.41800000000E+01 0.  1.
         -5    1    3    3    0  502 -0.17085953504E+02  0.92340209047E+02  0.38299067048E+01  0.94078608617E+02  0.41800000000E+01 0.  1.
        -11    1    1    2    0    0  0.22902211852E+02  0.18687216329E+02 -0.28067772217E+02  0.40761786014E+02  0.00000000000E+00 0.  1.
         11    1    1    2    0    0 -0.21744465136E+02 -0.77596867781E+02 -0.83755277816E+02  0.11622840537E+03  0.00000000000E+00 0. -1.
</event>
<event>
 7    1  0.6833760E-006  0.1940254E+03  0.7561462E-02  0.1154880E+00
         -2   -1    0    0    0  501 -0.00000000000E+00  0.00000000000E+00  0.30210533519E+02  0.30210533519E+02  0.00000000000E+00 0.  1.
          2   -1    0    0  501    0  0.00000000000E+00 -0.00000000000E+00 -0.13969590823E+04  0.13969590823E+04  0.00000000000E+00 0. -1.
         23    2    1    2    0    0  0.15740073692E+02  0.16587731764E+03 -0.53320565883E+03  0.57246579369E+03  0.12508307605E+03 0.  0.
          5    1    3    3  502    0  0.24316973010E+02  0.18029678736E+03 -0.51934869817E+03  0.55030790418E+03  0.41800000000E+01 0.  1.
         -5    1    3    3    0  502 -0.85768993189E+01 -0.14419469723E+02 -0.13856960654E+02  0.22157889511E+02  0.41800000000E+01 0.  1.
        -11    1    1    2    0    0 -0.26526271302E+00 -0.17210277263E+03 -0.77098943340E+03  0.78996464549E+03  0.00000000000E+00 0.  1.
         11    1    1    2    0    0 -0.15474810979E+02  0.62254549922E+01 -0.62553456536E+02  0.64739176619E+02  0.00000000000E+00 0. -1.
</event>
<event>
 7    1  0.6833760E-006  0.1013324E+03  0.7561462E-02  0.1277519E+00
         -2   -1    0    0    0  501 -0.00000000000E+00  0.00000000000E+00  0.13656818634E+03  0.13656818634E+03  0.00000000000E+00 0.  1.
          2   -1    0    0  501    0  0.00000000000E+00 -0.00000000000E+00 -0.12923518429E+03  0.12923518429E+03  0.00000000000E+00 0. -1.
         23    2    1    2    0    0  0.22293695390E+02  0.77482296791E+02  0.17074888619E+02  0.14452821569E+03  0.11872800065E+03 0.  0.
          5    1    3    3  502    0 -0.89832457215E+01 -0.17702130994E+02 -0.28006831597E+02  0.34582064160E+02  0.41800000000E+01 0. -1.
         -5    1    3    3    0  502  0.31276941111E+02  0.95184427785E+02  0.45081720216E+02  0.10994615153E+03  0.41800000000E+01 0.  1.
        -11    1    1    2    0    0 -0.10531679728E+02 -0.60695549631E+02 -0.47850771896E+02  0.78003605006E+02  0.00000000000E+00 0. -1.
         11    1    1    2    0    0 -0.11762015662E+02 -0.16786747160E+02  0.38108885330E+02  0.43271549934E+02  0.00000000000E+00 0.  1.
</event>
<event>
 7    1  0.6833760E-006  0.1106332E+03  0.7561462E-02  0.1259402E+00
         -2   -1    0    0    0  501 -0.00000000000E+00  0.00000000000E+00  0.89764381229E+02  0.89764381229E+02  0.00000000000E+00 0. -1.
          2   -1    0    0  501    0  0.00000000000E+00 -0.00000000000E+00 -0.17674883597E+03  0.17674883597E+03  0.00000000000E+00 0.  1.
         23    2    1    2    0    0 -0.59758486872E+02 -0.18287704258E+02 -0.39458076463E+02  0.14585389717E+03  0.12574141180E+03 0.  0.
          5    1    3    3  502    0  0.26895284997E+02 -0.11863114426E+02 -0.50075641842E+02  0.58216253271E+02  0.41800000000E+01 0. -1.
         -5    1    3    3    0  502 -0.86653771870E+02 -0.64245898321E+01  0.10617565380E+02  0.87637643900E+02  0.41800000000E+01 0. -1.
        -11    1    1    2    0    0  0.80675915301E+02  0.21324220444E+02 -0.52962249448E+02  0.98834839777E+02  0.00000000000E+00 0.  1.
         11    1    1    2    0    0 -0.20917428429E+02 -0.30365161858E+01  0.54358711732E+01  0.21824480247E+02  0.00000000000E+00 0. -1.
</event>
<event>
 7    1  0.6833760E-006  0.9637686E+02  0.7561462E-02  0.1288105E+00
         -2   -1    0    0    0  501 -0.00000000000E+00  0.00000000000E+00  0.47281532519E+02  0.47281532519E+02  0.00000000000E+00 0.  1.
          2   -1    0    0  501    0  0.00000000000E+00 -0.00000000000E+00 -0.27754196675E+03  0.27754196675E+03  0.00000000000E+00 0. -1.
         23    2    1    2    0    0  0.50847988480E+01 -0.20856703673E+02 -0.68021152336E+02  0.13625245322E+03  0.11609046721E+03 0.  0.
          5    1    3    3  502    0 -0.42123483066E+02 -0.24876580443E+02  0.47372980594E+01  0.49326934560E+02  0.41800000000E+01 0. -1.
         -5    1    3    3    0  502  0.47208281914E+02  0.40198767704E+01 -0.72758450395E+02  0.86925518661E+02  0.41800000000E+01 0.  1.
        -11    1    1    2    0    0  0.30542197119E+00 -0.37492621310E+02 -0.61432702860E+02  0.71970597579E+02  0.00000000000E+00 0. -1.
         11    1    1    2    0    0 -0.53902208192E+01  0.58349324983E+02 -0.10080657904E+03  0.11660044847E+03  0.00000000000E+00 0.  1.
</event>
<event>
 7    1  0.6833760E-006  0.5725006E+02  0.7561462E-02  0.1409748E+00
         -2   -1    0    0    0  501 -0.00000000000E+00  0.00000000000E+00  0.53524695872E+02  0.53524695872E+02  0.00000000000E+00 0.  1.
          2   -1    0    0  501    0  0.00000000000E+00 -0.00000000000E+00 -0.22089701279E+03  0.22089701279E+03  0.00000000000E+00 0. -1.
         23    2    1    2    0    0 -0.27821109356E+01  0.45416320568E+01 -0.80456843686E+02  0.14882626056E+03  0.12509030967E+03 0.  0.
          5    1    3    3  502    0 -0.58866278813E+01 -0.17151601610E+02  0.30456360517E+02  0.35691625370E+02  0.41800000000E+01 0. -1.
         -5    1    3    3    0  502  0.31045169457E+01  0.21693233666E+02 -0.11091320420E+03  0.11313463519E+03  0.41800000000E+01 0. -1.
        -11    1    1    2    0    0 -0.32608195542E+02  0.11698217425E+02 -0.78433916244E+02  0.85743932291E+02  0.00000000000E+00 0. -1.
         11    1    1    2    0    0  0.35390306478E+02 -0.16239849482E+02 -0.84815569909E+01  0.39851515815E+02  0.00000000000E+00 0.  1.
</event>
<event>
 7    1  0.6833760E-006  0.1232928E+03  0.7561462E-02  0.1237762E+00
         -2   -1    0    0    0  501 -0.00000000000E+00  0.00000000000E+00  0.21112639653E+03  0.21112639653E+03  0.00000000000E+00 0.  1.
          2   -1    0    0  501    0  0.00000000000E+00 -0.00000000000E+00 -0.12574244537E+03  0.12574244537E+03  0.00000000000E+00 0. -1.
         23    2    1    2    0    0  0.75520851612E+02  0.51416807132E+02  0.12870367883E+03  0.20139267693E+03  0.12508911340E+03 0.  0.
          5    1    3    3  502    0 -0.20759283057E+02 -0.24264677049E+02  0.23148500852E+02  0.39661667603E+02  0.41800000000E+01 0. -1.
         -5    1    3    3    0  502  0.96280134669E+02  0.75681484181E+02  0.10555517798E+03  0.16173100933E+03  0.41800000000E+01 0. -1.
        -11    1    1    2    0    0 -0.43242860592E+02 -0.23773268098E+02 -0.69741957374E+02  0.85434500564E+02  0.00000000000E+00 0. -1.
         11    1    1    2    0    0 -0.32277991020E+02 -0.27643539035E+02  0.26422229704E+02  0.50041664412E+02  0.00000000000E+00 0.  1.
</event>
<event>
 7    1  0.6833760E-006  0.9916878E+02  0.7561462E-02  0.1282054E+00
         -2   -1    0    0    0  501 -0.00000000000E+00  0.00000000000E+00  0.50920561166E+03  0.50920561166E+03  0.00000000000E+00 0. -1.
          2   -1    0    0  501    0  0.00000000000E+00 -0.00000000000E+00 -0.24494828031E+02  0.24494828031E+02  0.00000000000E+00 0.  1.
         23    2    1    2    0    0 -0.26060550465E+02 -0.31010248805E+01  0.30664682576E+03  0.33221666300E+03  0.12508743654E+03 0.  0.
          5    1    3    3  502    0  0.50289060048E+01  0.53616662760E+02  0.80324435059E+02  0.96796299974E+02  0.41800000000E+01 0.  1.
         -5    1    3    3    0  502 -0.31089456470E+02 -0.56717687640E+02  0.22632239070E+03  0.23542036303E+03  0.41800000000E+01 0.  1.
        -11    1    1    2    0    0  0.98625723460E+01 -0.35925422279E+02  0.13911420692E+03  0.14401621043E+03  0.00000000000E+00 0.  1.
         11    1    1    2    0    0  0.16197978119E+02  0.39026447159E+02  0.38949750947E+02  0.57467566260E+02  0.00000000000E+00 0. -1.
</event>
<event>
 7    1  0.6833760E-006  0.9510454E+02  0.7561462E-02  0.1290941E+00
          1   -1    0    0  501    0  0.00000000000E+00  0.00000000000E+00  0.66863704337E+02  0.66863704337E+02  0.00000000000E+00 0. -1.
         -1   -1    0    0    0  501 -0.00000000000E+00 -0.00000000000E+00 -0.23543555725E+03  0.23543555725E+03  0.00000000000E+00 0.  1.
         23    2    1    2    0    0 -0.13033433359E+02 -0.54941011577E+02 -0.12840966656E+03  0.18794885832E+03  0.12508935102E+03 0.  0.
          5    1    3    3  502    0 -0.55955623369E+02 -0.33725106946E+02 -0.12331846453E+03  0.13961851854E+03  0.41800000000E+01 0.  1.
         -5    1    3    3    0  502  0.42922190010E+02 -0.21215904631E+02 -0.50912020236E+01  0.48330339773E+02  0.41800000000E+01 0.  1.
        -11    1    1    2    0    0  0.15210770026E+02 -0.55195100588E+01 -0.50450674569E+02  0.52982101511E+02  0.00000000000E+00 0.  1.
         11    1    1    2    0    0 -0.21773366677E+01  0.60460521636E+02  0.10288488211E+02  0.61368301762E+02  0.00000000000E+00 0. -1.
</event>
<event>
 7    1  0.6833760E-006  0.1320857E+03  0.7561462E-02  0.1224393E+00
          1   -1    0    0  501    0  0.00000000000E+00  0.00000000000E+00  0.98100631398E+03  0.98100631398E+03  0.00000000000E+00 0. -1.
         -1   -1    0    0    0  501 -0.00000000000E+00 -0.00000000000E+00 -0.26146068370E+02  0.26146068370E+02  0.00000000000E+00 0.  1.
         23    2    1    2    0    0  0.94926009785E+02  0.67817859613E+02  0.47859540520E+03  0.50824290302E+03  0.12508827754E+03 0.  0.
          5    1    3    3  502    0  0.27475411630E+01  0.92343540093E+01 -0.55741071189E+01  0.11889716001E+02  0.41800000000E+01 0.  1.
         -5    1    3    3    0  502  0.92178468622E+02  0.58583505604E+02  0.48416951232E+03  0.49635318702E+03  0.41800000000E+01 0.  1.
        -11    1    1    2    0    0 -0.36206702484E+02  0.17961985552E+02  0.85784478450E+02  0.94828977495E+02  0.00000000000E+00 0.  1.
         11    1    1    2    0    0 -0.58719307301E+02 -0.85779845165E+02  0.39048036196E+03  0.40408050183E+03  0.00000000000E+00 0. -1.
</event>
<event>
 7    1  0.6833760E-006  0.8704939E+02  0.7561462E-02  0.1310159E+00
         -1   -1    0    0    0  501 -0.00000000000E+00  0.00000000000E+00  0.18311716900E+03  0.18311716900E+03  0.00000000000E+00 0.  1.
          1   -1    0    0  501    0  0.00000000000E+00 -0.00000000000E+00 -0.65579088003E+02  0.65579088003E+02  0.00000000000E+00 0. -1.
         23    2    1    2    0    0  0.13876710124E+02  0.64411585317E+00  0.10664046158E+03  0.15543998913E+03  0.11223379261E+03 0.  0.
          5    1    3    3  502    0 -0.10527570459E+02 -0.51356221211E+02  0.33534429951E+02  0.62372442544E+02  0.41800000000E+01 0. -1.
         -5    1    3    3    0  502  0.24404280583E+02  0.52000337064E+02  0.73106031633E+02  0.93067546581E+02  0.41800000000E+01 0.  1.
        -11    1    1    2    0    0  0.19365035718E+02 -0.17978676826E+02 -0.28504654363E+02  0.38868402966E+02  0.00000000000E+00 0.  1.
         11    1    1    2    0    0 -0.33241745843E+02  0.17334560973E+02  0.39402273774E+02  0.54387864909E+02  0.00000000000E+00 0. -1.
</event>
<event>
 7    1  0.6833760E-006  0.1847949E+03  0.7561462E-02  0.1163242E+00
          2   -1    0    0  501    0  0.00000000000E+00  0.00000000000E+00  0.70345344336E+03  0.70345344336E+03  0.00000000000E+00 0. -1.
         -2   -1    0    0    0  501 -0.00000000000E+00 -0.00000000000E+00 -0.74104068790E+02  0.74104068790E+02  0.00000000000E+00 0.  1.
         23    2    1    2    0    0  0.16024954043E+03 -0.74794639870E+02  0.16522536199E+03  0.27243292475E+03  0.12508447099E+03 0.  0.
          5    1    3    3  502    0  0.45794240140E+02 -0.34630815634E+01 -0.13910040788E+02  0.48167073802E+02  0.41800000000E+01 0.  1.
         -5    1    3    3    0  502  0.11445530029E+03 -0.71331558307E+02  0.17913540278E+03  0.22426585095E+03  0.41800000000E+01 0.  1.
        -11    1    1    2    0    0 -0.12743490017E+03  0.26504396132E+02  0.38759951286E+03  0.40887102999E+03  0.00000000000E+00 0. -1.
         11    1    1    2    0    0 -0.32814640263E+02  0.48290243739E+02  0.76524499718E+02  0.96253557404E+02  0.00000000000E+00 0.  1.
</event>
<event>
 7    1  0.6833760E-006  0.2026402E+03  0.7561462E-02  0.1147530E+00
          1   -1    0    0  501    0  0.00000000000E+00  0.00000000000E+00  0.97527667457E+03  0.97527667457E+03  0.00000000000E+00 0. -1.
         -1   -1    0    0    0  501 -0.00000000000E+00 -0.00000000000E+00 -0.46563149313E+02  0.46563149313E+02  0.00000000000E+00 0.  1.
         23    2    1    2    0    0  0.10706733944E+03  0.14779402882E+03  0.50491833287E+03  0.55127237262E+03  0.12510881587E+03 0.  0.
          5    1    3    3  502    0  0.40894635234E+02  0.14785633611E+03  0.32181214967E+03  0.35653106372E+03  0.41800000000E+01 0. -1.
         -5    1    3    3    0  502  0.66172704211E+02 -0.62307293952E-01  0.18310618320E+03  0.19474130890E+03  0.41800000000E+01 0. -1.
        -11    1    1    2    0    0 -0.46856680484E+02 -0.38151636977E+02  0.57142769858E+02  0.83164848686E+02  0.00000000000E+00 0.  1.
         11    1    1    2    0    0 -0.60210658961E+02 -0.10964239184E+03  0.36665242253E+03  0.38740260258E+03  0.00000000000E+00 0. -1.
</event>
<event>
 7    1  0.6833760E-006  0.1191380E+03  0.7561462E-02  0.1244526E+00
          1   -1    0    0  501    0  0.00000000000E+00  0.00000000000E+00  0.30714859258E+03  0.30714859258E+03  0.00000000000E+00 0. -1.
         -1   -1    0    0    0  501 -0.00000000000E+00 -0.00000000000E+00 -0.94458843739E+02  0.94458843739E+02  0.00000000000E+00 0.  1.
         23    2    1    2    0    0 -0.75209609996E+02 -0.12860889749E+02 -0.12766164677E+02  0.14708443053E+03  0.12509583056E+03 0.  0.
          5    1    3    3  502    0 -0.78926949875E+02  0.43196250340E+02 -0.49263250867E+01  0.90205989484E+02  0.41800000000E+01 0. -1.
         -5    1    3    3    0  502  0.37173398788E+01 -0.56057140090E+02 -0.78398395908E+01  0.56878441044E+02  0.41800000000E+01 0. -1.
        -11    1    1    2    0    0  0.36199541790E+02  0.32091712926E+02  0.36433385608E+02  0.60561344529E+02  0.00000000000E+00 0.  1.
         11    1    1    2    0    0  0.39010068206E+02 -0.19230823177E+02  0.18902252792E+03  0.19396166127E+03  0.00000000000E+00 0. -1.
</event>
<event>
 7    1  0.6833760E-006  0.1197385E+03  0.7561462E-02  0.1243529E+00
          2   -1    0    0  501    0  0.00000000000E+00  0.00000000000E+00  0.95402615472E+03  0.95402615472E+03  0.00000000000E+00 0.  1.
         -2   -1    0    0    0  501 -0.00000000000E+00 -0.00000000000E+00 -0.24178871302E+02  0.24178871302E+02  0.00000000000E+00 0. -1.
         23    2    1    2    0    0  0.38884659384E+02  0.94547459434E+02  0.42837790595E+03  0.45782792375E+03  0.12509012207E+03 0.  0.
          5    1    3    3  502    0  0.34855149087E+02  0.69879094073E+02  0.93065271242E+02  0.12155898288E+03  0.41800000000E+01 0.  1.
         -5    1    3    3    0  502  0.40295102965E+01  0.24668365361E+02  0.33531263471E+03  0.33626894088E+03  0.41800000000E+01 0.  1.
        -11    1    1    2    0    0 -0.66894236430E+02 -0.80285924386E+02  0.42586743996E+03  0.43850170461E+03  0.00000000000E+00 0. -1.
         11    1    1    2    0    0  0.28009577046E+02 -0.14261535048E+02  0.75601937508E+02  0.81875397667E+02  0.00000000000E+00 0.  1.
</event>
<event>
 7    1  0.6833760E-006  0.1911697E+03  0.7561462E-02  0.1157411E+00
         -1   -1    0    0    0  501 -0.00000000000E+00  0.00000000000E+00  0.13735803327E+03  0.13735803327E+03  0.00000000000E+00 0.  1.
          1   -1    0    0  501    0  0.00000000000E+00 -0.00000000000E+00 -0.30849236755E+03  0.30849236755E+03  0.00000000000E+00 0. -1.
         23    2    1    2    0    0 -0.14781106437E+03 -0.75316848481E+02 -0.42125383565E+02  0.21199814291E+03  0.12509167135E+03 0.  0.
          5    1    3    3  502    0 -0.71660866395E+02  0.13899490222E+02 -0.58305730503E+02  0.93517411269E+02  0.41800000000E+01 0. -1.
         -5    1    3    3    0  502 -0.76150197972E+02 -0.89216338702E+02  0.16180346938E+02  0.11848073164E+03  0.41800000000E+01 0. -1.
        -11    1    1    2    0    0  0.22712706492E+02 -0.23314418035E+02 -0.39290840943E+02  0.51021557272E+02  0.00000000000E+00 0.  1.
         11    1    1    2    0    0  0.12509835787E+03  0.98631266516E+02 -0.89718109767E+02  0.18283070064E+03  0.00000000000E+00 0. -1.
</event>
<event>
 7    1  0.6833760E-006  0.1454363E+03  0.7561462E-02  0.1206196E+00
          2   -1    0    0  501    0  0.00000000000E+00  0.00000000000E+00  0.67391875673E+03  0.67391875673E+03  0.00000000000E+00 0. -1.
         -2   -1    0    0    0  501 -0.00000000000E+00 -0.00000000000E+00 -0.41265057285E+02  0.41265057285E+02  0.00000000000E+00 0.  1.
         23    2    1    2    0    0 -0.17025859699E+02 -0.11913752860E+03  0.25759198705E+03  0.31062850702E+03  0.12511117841E+03 0.  0.
          5    1    3    3  502    0 -0.11369858921E+02 -0.13378571708E+03  0.26143790454E+03  0.29393050559E+03  0.41800000000E+01 0.  1.
         -5    1    3    3    0  502 -0.56560007782E+01  0.14648188480E+02 -0.38459174868E+01  0.16698001434E+02  0.41800000000E+01 0.  1.
        -11    1    1    2    0    0 -0.28027935128E+02  0.57224636757E+02  0.24932420683E+03  0.25733787966E+03  0.00000000000E+00 0.  1.
         11    1    1    2    0    0  0.45053794828E+02  0.61912891839E+02  0.12573750557E+03  0.14721742734E+03  0.00000000000E+00 0. -1.
</event>
<event>
 7    1  0.6833760E-006  0.1335853E+03  0.7561462E-02  0.1222231E+00
          2   -1    0    0  501    0  0.00000000000E+00  0.00000000000E+00  0.15510568271E+03  0.15510568271E+03  0.00000000000E+00 0. -1.
         -2   -1    0    0    0  501 -0.00000000000E+00 -0.00000000000E+00 -0.34859999622E+03  0.34859999622E+03  0.00000000000E+00 0.  1.
         23    2    1    2    0    0 -0.10532135875E+03  0.45475530254E+02 -0.28453982219E+03  0.33131673672E+03  0.12508899696E+03 0.  0.
          5    1    3    3  502    0 -0.95400513365E+02 -0.28066590792E+01 -0.25812855803E+03  0.27523982298E+03  0.41800000000E+01 0. -1.
         -5    1    3    3    0  502 -0.99208453846E+01  0.48282189333E+02 -0.26411264161E+02  0.56076913739E+02  0.41800000000E+01 0. -1.
        -11    1    1    2    0    0  0.64814165677E+02 -0.51604359539E+01  0.14958531194E+00  0.65019447456E+02  0.00000000000E+00 0.  1.
         11    1    1    2    0    0  0.40507193072E+02 -0.40315094300E+02  0.90895923366E+02  0.10736949475E+03  0.00000000000E+00 0. -1.
</event>
<event>
 7    1  0.6833760E-006  0.1538990E+03  0.7561462E-02  0.1195762E+00
          1   -1    0    0  501    0  0.00000000000E+00  0.00000000000E+00  0.11285055926E+04  0.11285055926E+04  0.00000000000E+00 0. -1.
         -1   -1    0    0    0  501 -0.00000000000E+00 -0.00000000000E+00 -0.30849596336E+02  0.30849596336E+02  0.00000000000E+00 0.  1.
         23    2    1    2    0    0  0.46996682548E+02 -0.92711727158E+02  0.27731028530E+03  0.32148549945E+03  0.12509108482E+03 0.  0.
          5    1    3    3  502    0 -0.22261084654E+02  0.12129054336E+01  0.24083765911E+01  0.22810079074E+02  0.41800000000E+01 0. -1.
         -5    1    3    3    0  502  0.69257767202E+02 -0.93924632591E+02  0.27490190871E+03  0.29867542037E+03  0.41800000000E+01 0. -1.
        -11    1    1    2    0    0 -0.82812744562E+02  0.16933351929E+02  0.47777401409E+03  0.48519346410E+03  0.00000000000E+00 0. -1.
         11    1    1    2    0    0  0.35816062015E+02  0.75778375229E+02  0.34257169692E+03  0.35267622543E+03  0.00000000000E+00 0.  1.
</event>
<event>
 7    1  0.6833760E-006  0.1073440E+03  0.7561462E-02  0.1265569E+00
          1   -1    0    0  501    0  0.00000000000E+00  0.00000000000E+00  0.70292676270E+02  0.70292676270E+02  0.00000000000E+00 0. -1.
         -1   -1    0    0    0  501 -0.00000000000E+00 -0.00000000000E+00 -0.67979437296E+03  0.67979437296E+03  0.00000000000E+00 0.  1.
         23    2    1    2    0    0 -0.40612684104E+02 -0.20039370347E+02 -0.63003569528E+03  0.64392831175E+03  0.12509087445E+03 0.  0.
          5    1    3    3  502    0 -0.69862461906E+02 -0.44177304230E+02 -0.28454034974E+03  0.29633271980E+03  0.41800000000E+01 0. -1.
         -5    1    3    3    0  502  0.29249777802E+02  0.24137933884E+02 -0.34549534554E+03  0.34759559195E+03  0.41800000000E+01 0. -1.
        -11    1    1    2    0    0  0.11797083735E+01 -0.30021430701E+02  0.29139063105E+02  0.41854068044E+02  0.00000000000E+00 0. -1.
         11    1    1    2    0    0  0.39432975730E+02  0.50060801047E+02 -0.86050645169E+01  0.64304669440E+02  0.00000000000E+00 0.  1.
</event>
<event>
 7    1  0.6833760E-006  0.9315357E+02  0.7561462E-02  0.1295390E+00
         -1   -1    0    0    0  501 -0.00000000000E+00  0.00000000000E+00  0.20111862693E+03  0.20111862693E+03  0.00000000000E+00 0.  1.
          1   -1    0    0  501    0  0.00000000000E+00 -0.00000000000E+00 -0.77307731028E+02  0.77307731028E+02  0.00000000000E+00 0. -1.
         23    2    1    2    0    0 -0.81457419496E-01 -0.51292090663E+02  0.11047367610E+03  0.17459543799E+03  0.12509296006E+03 0.  0.
          5    1    3    3  502    0 -0.41215848913E+02 -0.61036961868E+02  0.22863351466E+02  0.77229930442E+02  0.41800000000E+01 0. -1.
         -5    1    3    3    0  502  0.41134391493E+02  0.97448712050E+01  0.87610324632E+02  0.97365507550E+02  0.41800000000E+01 0. -1.
        -11    1    1    2    0    0  0.13585319593E+02  0.54510490280E+02 -0.26156334488E+02  0.61968607317E+02  0.00000000000E+00 0. -1.
         11    1    1    2    0    0 -0.13503862173E+02 -0.32183996165E+01  0.39493554297E+02  0.41862312653E+02  0.00000000000E+00 0.  1.
</event>
<event>
 7    1  0.6833760E-006  0.1235187E+03  0.7561462E-02  0.1237403E+00
         -3   -1    0    0    0  501 -0.00000000000E+00  0.00000000000E+00  0.21175680526E+04  0.21175680526E+04  0.00000000000E+00 0.  1.
          3   -1    0    0  501    0  0.00000000000E+00 -0.00000000000E+00 -0.12752019203E+02  0.12752019203E+02  0.00000000000E+00 0. -1.
         23    2    1    2    0    0  0.18133094469E+02 -0.69581887354E+02  0.17763514871E+04  0.17819310349E+04  0.12117408640E+03 0.  0.
          5    1    3    3  502    0 -0.46265380206E+02 -0.28609187404E+02  0.10840702680E+04  0.10854422091E+04  0.41800000000E+01 0. -1.
         -5    1    3    3    0  502  0.64398474675E+02 -0.40972699950E+02  0.69228121912E+03  0.69648882578E+03  0.41800000000E+01 0.  1.
        -11    1    1    2    0    0  0.11758823035E+02  0.82601427410E+02  0.22987350488E+03  0.24454671123E+03  0.00000000000E+00 0. -1.
         11    1    1    2    0    0 -0.29891917504E+02 -0.13019540056E+02  0.98591041437E+02  0.10384232570E+03  0.00000000000E+00 0.  1.
</event>
<event>
 7    1  0.6833760E-006  0.8613226E+02  0.7561462E-02  0.1312498E+00
         -4   -1    0    0    0  501 -0.00000000000E+00  0.00000000000E+00  0.90576147608E+02  0.90576147608E+02  0.00000000000E+00 0.  1.
          4   -1    0    0  501    0  0.00000000000E+00 -0.00000000000E+00 -0.15362745869E+03  0.15362745869E+03  0.00000000000E+00 0. -1.
         23    2    1    2    0    0  0.93227611544E+01 -0.41878997979E+02 -0.10539175195E+02  0.13265841175E+03  0.12508563325E+03 0.  0.
          5    1    3    3  502    0 -0.34373719585E+02 -0.17806496278E+02 -0.53855522344E+02  0.66456855137E+02  0.41800000000E+01 0. -1.
         -5    1    3    3    0  502  0.43696480739E+02 -0.24072501701E+02  0.43316347149E+02  0.66201556609E+02  0.41800000000E+01 0. -1.
        -11    1    1    2    0    0  0.30627645041E+02  0.10211776518E+02  0.71522169602E+01  0.33067918409E+02  0.00000000000E+00 0.  1.
         11    1    1    2    0    0 -0.39950406196E+02  0.31667221461E+02 -0.59664352850E+02  0.78477276146E+02  0.00000000000E+00 0. -1.
</event>
<event>
 7    1  0.6833760E-006  0.1037036E+03  0.7561462E-02  0.1272695E+00
          1   -1    0    0  501    0  0.00000000000E+00  0.00000000000E+00  0.44560361774E+03  0.44560361774E+03  0.00000000000E+00 0. -1.
         -1   -1    0    0    0  501 -0.00000000000E+00 -0.00000000000E+00 -0.32939852742E+02  0.32939852742E+02  0.00000000000E+00 0.  1.
         23    2    1    2    0    0  0.27645099244E+02 -0.56208867474E+02  0.19788206716E+03  0.23695554835E+03  0.11431067795E+03 0.  0.
          5    1    3    3  502    0 -0.23253025334E+02  0.21687317458E+01 -0.72917029052E+00  0.23736273378E+02  0.41800000000E+01 0. -1.
         -5    1    3    3    0  502  0.50898124578E+02 -0.58377599220E+02  0.19861123745E+03  0.21321927497E+03  0.41800000000E+01 0.  1.
        -11    1    1    2    0    0 -0.54796579588E+02  0.15075607438E+02  0.80445477905E+02  0.98495756201E+02  0.00000000000E+00 0.  1.
         11    1    1    2    0    0  0.27151480345E+02  0.41133260036E+02  0.13433621993E+03  0.14309216594E+03  0.00000000000E+00 0. -1.
</event>
<event>
 7    1  0.6833760E-006  0.1335664E+03  0.7561462E-02  0.1222258E+00
          2   -1    0    0  501    0  0.00000000000E+00  0.00000000000E+00  0.11147617803E+04  0.11147617803E+04  0.00000000000E+00 0. -1.
         -2   -1    0    0    0  501 -0.00000000000E+00 -0.00000000000E+00 -0.27113191496E+02  0.27113191496E+02  0.00000000000E+00 0.  1.
         23    2    1    2    0    0  0.81135287996E+02 -0.52876756131E+02  0.32430351540E+03  0.36083104060E+03  0.12508950180E+03 0.  0.
          5    1    3    3  502    0  0.21504645053E+02 -0.36499232490E+02  0.14625267640E+02  0.45011271752E+02  0.41800000000E+01 0. -1.
         -5    1    3    3    0  502  0.59630642943E+02 -0.16377523641E+02  0.30967824776E+03  0.31581976885E+03  0.41800000000E+01 0. -1.
        -11    1    1    2    0    0 -0.64077112978E+01  0.82096867461E+02  0.31558820295E+03  0.32615466921E+03  0.00000000000E+00 0.  1.
         11    1    1    2    0    0 -0.74727576698E+02 -0.29220111331E+02  0.44775687044E+03  0.45488926197E+03  0.00000000000E+00 0. -1.
</event>
<event>
 7    1  0.6833760E-006  0.1789145E+03  0.7561462E-02  0.1168858E+00
         -2   -1    0    0    0  501 -0.00000000000E+00  0.00000000000E+00  0.17000644700E+03  0.17000644700E+03  0.00000000000E+00 0.  1.
          2   -1    0    0  501    0  0.00000000000E+00 -0.00000000000E+00 -0.21122950151E+03  0.21122950151E+03  0.00000000000E+00 0. -1.
         23    2    1    2    0    0 -0.42701307164E+02 -0.14931465033E+03 -0.15958948398E+02  0.20005139445E+03  0.12509039111E+03 0.  0.
          5    1    3    3  502    0 -0.78343708230E+02 -0.58267207373E+02 -0.27467803444E+02  0.10151234753E+03  0.41800000000E+01 0.  1.
         -5    1    3    3    0  502  0.35642401067E+02 -0.91047442959E+02  0.11508855047E+02  0.98539046919E+02  0.41800000000E+01 0.  1.
        -11    1    1    2    0    0  0.46075341510E+02  0.76205331826E+02  0.24886216331E+02  0.92463579085E+02  0.00000000000E+00 0.  1.
         11    1    1    2    0    0 -0.33740343460E+01  0.73109318506E+02 -0.50150322445E+02  0.88720974981E+02  0.00000000000E+00 0. -1.
</event>
<event>
 7    1  0.6833760E-006  0.3211386E+03  0.7561462E-02  0.1075126E+00
          2   -1    0    0  501    0  0.00000000000E+00  0.00000000000E+00  0.10127894945E+03  0.10127894945E+03  0.00000000000E+00 0. -1.
         -2   -1    0    0    0  501 -0.00000000000E+00 -0.00000000000E+00 -0.14876541005E+04  0.14876541005E+04  0.00000000000E+00 0.  1.
         23    2    1    2    0    0 -0.29560559335E+03 -0.11045284905E+03 -0.11087978306E+04  0.11595960310E+04  0.12509127594E+03 0.  0.
          5    1    3    3  502    0 -0.15782182635E+03 -0.26508552502E+02 -0.36621608321E+03  0.39967752530E+03  0.41800000000E+01 0.  1.
         -5    1    3    3    0  502 -0.13778376700E+03 -0.83944296548E+02 -0.74258174735E+03  0.75991850568E+03  0.41800000000E+01 0.  1.
        -11    1    1    2    0    0  0.21160671289E+03  0.10601597984E+03 -0.16375627775E+03  0.28780706632E+03  0.00000000000E+00 0. -1.
         11    1    1    2    0    0  0.83998880466E+02  0.44368692148E+01 -0.11382104273E+03  0.14152995265E+03  0.00000000000E+00 0.  1.
</event>
<event>
 7    1  0.6833760E-006  0.1209649E+03  0.7561462E-02  0.1241514E+00
         -1   -1    0    0    0  501 -0.00000000000E+00  0.00000000000E+00  0.14996709811E+04  0.14996709811E+04  0.00000000000E+00 0.  1.
          1   -1    0    0  501    0  0.00000000000E+00 -0.00000000000E+00 -0.11080153881E+02  0.11080153881E+02  0.00000000000E+00 0. -1.
         23    2    1    2    0    0 -0.45827710455E+02 -0.49153839805E+02  0.89340382266E+03  0.90461915161E+03  0.12509652316E+03 0.  0.
          5    1    3    3  502    0  0.19317802903E+02 -0.58435740996E+02  0.63294356248E+03  0.63594255953E+03  0.41800000000E+01 0.  1.
         -5    1    3    3    0  502 -0.65145513359E+02  0.92819011905E+01  0.26046026018E+03  0.26867659209E+03  0.41800000000E+01 0.  1.
        -11    1    1    2    0    0  0.73601184705E+02  0.44880868998E+02  0.46862308194E+03  0.47648611703E+03  0.00000000000E+00 0. -1.
         11    1    1    2    0    0 -0.27773474249E+02  0.42729708069E+01  0.12656392262E+03  0.12964586635E+03  0.00000000000E+00 0.  1.
</event>
<event>
 7    1  0.6833760E-006  0.1058840E+03  0.7561462E-02  0.1268388E+00
          2   -1    0    0  501    0  0.00000000000E+00  0.00000000000E+00  0.79974770553E+02  0.79974770553E+02  0.00000000000E+00 0. -1.
         -2   -1    0    0    0  501 -0.00000000000E+00 -0.00000000000E+00 -0.30522333647E+03  0.30522333647E+03  0.00000000000E+00 0.  1.
         23    2    1    2    0    0  0.66795236249E+02  0.48066932545E+01 -0.22898677750E+03  0.26938587291E+03  0.12509634833E+03 0.  0.
          5    1    3    3  502    0 -0.32476919543E+02  0.68983426201E+01 -0.22784875097E+02  0.40484075475E+02  0.41800000000E+01 0.  1.
         -5    1    3    3    0  502  0.99272155792E+02 -0.20916493656E+01 -0.20620190241E+03  0.22890179743E+03  0.41800000000E+01 0.  1.
        -11    1    1    2    0    0 -0.45690036343E+02  0.16835478620E+02  0.43889303246E+02  0.65553670384E+02  0.00000000000E+00 0. -1.
         11    1    1    2    0    0 -0.21105199907E+02 -0.21642171875E+02 -0.40151091656E+02  0.50258563725E+02  0.00000000000E+00 0.  1.
</event>
<event>
 7    1  0.6833760E-006  0.1081189E+03  0.7561462E-02  0.1264094E+00
         -2   -1    0    0    0  501 -0.00000000000E+00  0.00000000000E+00  0.97735346716E+02  0.97735346716E+02  0.00000000000E+00 0.  1.
          2   -1    0    0  501    0  0.00000000000E+00 -0.00000000000E+00 -0.16146956396E+03  0.16146956396E+03  0.00000000000E+00 0. -1.
         23    2    1    2    0    0  0.84971643234E+01  0.39484980785E+02  0.14038856828E+02  0.13219542027E+03  0.12508906479E+03 0.  0.
          5    1    3    3  502    0 -0.33622241708E+02  0.70514612536E+02  0.15226835071E+02  0.79700029014E+02  0.41800000000E+01 0.  1.
         -5    1    3    3    0  502  0.42119406032E+02 -0.31029631751E+02 -0.11879782427E+01  0.52495391258E+02  0.41800000000E+01 0.  1.
        -11    1    1    2    0    0  0.29985914717E+02 -0.36045321450E+02 -0.84443262318E+01  0.47641651161E+02  0.00000000000E+00 0.  1.
         11    1    1    2    0    0 -0.38483079041E+02 -0.34396593351E+01 -0.69328747841E+02  0.79367839242E+02  0.00000000000E+00 0. -1.
</event>
<event>
 7    1  0.6833760E-006  0.1809154E+03  0.7561462E-02  0.1166920E+00
          1   -1    0    0  501    0  0.00000000000E+00  0.00000000000E+00  0.31065007534E+03  0.31065007534E+03  0.00000000000E+00 0. -1.
         -1   -1    0    0    0  501 -0.00000000000E+00 -0.00000000000E+00 -0.12024315467E+03  0.12024315467E+03  0.00000000000E+00 0.  1.
         23    2    1    2    0    0 -0.35120658144E+02 -0.15463858042E+03  0.11928934863E+03  0.23457020732E+03  0.12508669907E+03 0.  0.
          5    1    3    3  502    0 -0.74210190839E+02 -0.10853923979E+03  0.11343315371E+03  0.17370225030E+03  0.41800000000E+01 0.  1.
         -5    1    3    3    0  502  0.39089532695E+02 -0.46099340633E+02  0.58561949146E+01  0.60867957021E+02  0.41800000000E+01 0.  1.
        -11    1    1    2    0    0  0.49434144349E+02  0.14281906361E+03  0.84767600567E+02  0.17328175225E+03  0.00000000000E+00 0. -1.
         11    1    1    2    0    0 -0.14313486204E+02  0.11819516814E+02 -0.13650028515E+02  0.23041270440E+02  0.00000000000E+00 0.  1.
</event>
<event>
 7    1  0.6833760E-006  0.9101434E+02  0.7561462E-02  0.1300414E+00
          1   -1    0    0  501    0  0.00000000000E+00  0.00000000000E+00  0.58153117964E+02  0.58153117964E+02  0.00000000000E+00 0. -1.
         -1   -1    0    0    0  501 -0.00000000000E+00 -0.00000000000E+00 -0.26835316949E+03  0.26835316949E+03  0.00000000000E+00 0.  1.
         23    2    1    2    0    0 -0.35878008454E+02  0.42343853386E+01 -0.16490816444E+03  0.21010730341E+03  0.12508083282E+03 0.  0.
          5    1    3    3  502    0  0.22729752477E+02  0.37122143115E+02 -0.12361036147E+03  0.13111708134E+03  0.41800000000E+01 0. -1.
         -5    1    3    3    0  502 -0.58607760931E+02 -0.32887757776E+02 -0.41297802969E+02  0.78990222072E+02  0.41800000000E+01 0. -1.
        -11    1    1    2    0    0  0.49151229513E+02 -0.17525197565E+02  0.14144473344E+02  0.54065164742E+02  0.00000000000E+00 0. -1.
         11    1    1    2    0    0 -0.13273221059E+02  0.13290812226E+02 -0.59436360431E+02  0.62333819297E+02  0.00000000000E+00 0.  1.
</event>
<event>
 7    1  0.6833760E-006  0.1165389E+03  0.7561462E-02  0.1248919E+00
         -4   -1    0    0    0  501 -0.00000000000E+00  0.00000000000E+00  0.71722315203E+02  0.71722315203E+02  0.00000000000E+00 0.  1.
          4   -1    0    0  501    0  0.00000000000E+00 -0.00000000000E+00 -0.47023913419E+03  0.47023913419E+03  0.00000000000E+00 0. -1.
         23    2    1    2    0    0  0.77385976391E+02 -0.68362409932E+02 -0.55760767445E+02  0.17151922159E+03  0.12509025443E+03 0.  0.
          5    1    3    3  502    0 -0.12088497163E+02  0.52900996245E+01 -0.53785030297E+02  0.55537544074E+02  0.41800000000E+01 0. -1.
         -5    1    3    3    0  502  0.89474473554E+02 -0.73652509556E+02 -0.19757371473E+01  0.11598167751E+03  0.41800000000E+01 0. -1.
        -11    1    1    2    0    0 -0.53613842381E+02  0.46297158419E+02 -0.32662459559E+03  0.33421773953E+03  0.00000000000E+00 0. -1.
         11    1    1    2    0    0 -0.23772134010E+02  0.22065251513E+02 -0.16131455954E+02  0.36224488276E+02  0.00000000000E+00 0.  1.
</event>
<event>
 7    1  0.6833760E-006  0.8198680E+02  0.7561462E-02  0.1323506E+00
         -2   -1    0    0    0  501 -0.00000000000E+00  0.00000000000E+00  0.13914293422E+03  0.13914293422E+03  0.00000000000E+00 0.  1.
          2   -1    0    0  501    0  0.00000000000E+00 -0.00000000000E+00 -0.94189778407E+02  0.94189778407E+02  0.00000000000E+00 0. -1.
         23    2    1    2    0    0 -0.45949382504E-01  0.26348781189E+02  0.56162662628E+02  0.13526653224E+03  0.12020203695E+03 0.  0.
          5    1    3    3  502    0  0.19487130767E+02  0.38500667903E+02 -0.25517538590E+02  0.50305733970E+02  0.41800000000E+01 0. -1.
         -5    1    3    3    0  502 -0.19533080150E+02 -0.12151886714E+02  0.81680201218E+02  0.84960798266E+02  0.41800000000E+01 0.  1.
        -11    1    1    2    0    0 -0.32651486984E+02  0.21638593717E+02 -0.74786515616E+01  0.39878296973E+02  0.00000000000E+00 0. -1.
         11    1    1    2    0    0  0.32697436366E+02 -0.47987374906E+02 -0.37308552584E+01  0.58187883415E+02  0.00000000000E+00 0.  1.
</event>
<event>
 7    1  0.6833760E-006  0.1933315E+03  0.7561462E-02  0.1155490E+00
          2   -1    0    0  501    0  0.00000000000E+00  0.00000000000E+00  0.11497982817E+04  0.11497982817E+04  0.00000000000E+00 0. -1.
         -2   -1    0    0    0  501 -0.00000000000E+00 -0.00000000000E+00 -0.43395867313E+02  0.43395867313E+02  0.00000000000E+00 0.  1.
         23    2    1    2    0    0  0.10955755864E+03 -0.15069840834E+03  0.44701894363E+03  0.50021219835E+03  0.12519360401E+03 0.  0.
          5    1    3    3  502    0  0.79591596210E+02 -0.10394767543E+03  0.15501616220E+03  0.20294685107E+03  0.41800000000E+01 0. -1.
         -5    1    3    3    0  502  0.29965962428E+02 -0.46750732902E+02  0.29200278144E+03  0.29726534729E+03  0.41800000000E+01 0. -1.
        -11    1    1    2    0    0 -0.28120628297E+02  0.10041831207E+03  0.22232152587E+03  0.24556357222E+03  0.00000000000E+00 0.  1.
         11    1    1    2    0    0 -0.81436930341E+02  0.50280096268E+02  0.43706194491E+03  0.44741837847E+03  0.00000000000E+00 0. -1.
</event>
<event>
 7    1  0.6833760E-006  0.1058263E+03  0.7561462E-02  0.1268500E+00
          1   -1    0    0  501    0  0.00000000000E+00  0.00000000000E+00  0.10202972430E+04  0.10202972430E+04  0.00000000000E+00 0. -1.
         -1   -1    0    0    0  501 -0.00000000000E+00 -0.00000000000E+00 -0.15460515065E+02  0.15460515065E+02  0.00000000000E+00 0.  1.
         23    2    1    2    0    0  0.54542060028E+02 -0.28376607814E+02  0.64496163940E+03  0.65985225297E+03  0.12509760696E+03 0.  0.
          5    1    3    3  502    0  0.17796005550E+02  0.49532640160E+02  0.22262202014E+03  0.22879732626E+03  0.41800000000E+01 0.  1.
         -5    1    3    3    0  502  0.36746054479E+02 -0.77909247974E+02  0.42233961926E+03  0.43105492670E+03  0.41800000000E+01 0.  1.
        -11    1    1    2    0    0  0.34835727611E+01  0.11745143222E+02  0.13391037477E+01  0.12323833305E+02  0.00000000000E+00 0.  1.
         11    1    1    2    0    0 -0.58025632789E+02  0.16631464592E+02  0.35853598480E+03  0.36358167181E+03  0.00000000000E+00 0. -1.
</event>
<event>
 7    1  0.6833760E-006  0.7867382E+02  0.7561462E-02  0.1332858E+00
         -1   -1    0    0    0  501 -0.00000000000E+00  0.00000000000E+00  0.14874001562E+03  0.14874001562E+03  0.00000000000E+00 0.  1.
          1   -1    0    0  501    0  0.00000000000E+00 -0.00000000000E+00 -0.13539514878E+03  0.13539514878E+03  0.00000000000E+00 0. -1.
         23    2    1    2    0    0 -0.40649273420E+02 -0.13757578581E+02  0.83095004382E+02  0.15618636186E+03  0.12509102878E+03 0.  0.
          5    1    3    3  502    0  0.16321915075E+02  0.28752740770E+02 -0.13691368205E+02  0.36028474528E+02  0.41800000000E+01 0.  1.
         -5    1    3    3    0  502 -0.56971188495E+02 -0.42510319351E+02  0.96786372588E+02  0.12015788733E+03  0.41800000000E+01 0.  1.
        -11    1    1    2    0    0  0.36845392280E+02 -0.17123171420E+01  0.16379382779E+02  0.40358383794E+02  0.00000000000E+00 0.  1.
         11    1    1    2    0    0  0.38038811402E+01  0.15469895723E+02 -0.86129520325E+02  0.87590418750E+02  0.00000000000E+00 0. -1.
</event>
<event>
 7    1  0.6833760E-006  0.7174919E+02  0.7561462E-02  0.1354244E+00
          4   -1    0    0  501    0  0.00000000000E+00  0.00000000000E+00  0.27649874808E+03  0.27649874808E+03  0.00000000000E+00 0. -1.
         -4   -1    0    0    0  501 -0.00000000000E+00 -0.00000000000E+00 -0.44528667695E+02  0.44528667695E+02  0.00000000000E+00 0.  1.
         23    2    1    2    0    0 -0.29287335233E+02  0.98722475115E+01  0.13118514488E+03  0.18388383025E+03  0.12509401071E+03 0.  0.
          5    1    3    3  502    0  0.12961355660E+02  0.24475025884E+02  0.13588569152E+03  0.13874226894E+03  0.41800000000E+01 0.  1.
         -5    1    3    3    0  502 -0.42248690893E+02 -0.14602778373E+02 -0.47005466390E+01  0.45141561306E+02  0.41800000000E+01 0.  1.
        -11    1    1    2    0    0 -0.15348489568E+02 -0.19615316808E+02  0.85365759011E+02  0.88924966107E+02  0.00000000000E+00 0. -1.
         11    1    1    2    0    0  0.44635824801E+02  0.97430692969E+01  0.15419176498E+02  0.48218619421E+02  0.00000000000E+00 0.  1.
</event>
<event>
 7    1  0.6833760E-006  0.1860597E+03  0.7561462E-02  0.1162064E+00
         -2   -1    0    0    0  501 -0.00000000000E+00  0.00000000000E+00  0.10921461055E+03  0.10921461055E+03  0.00000000000E+00 0.  1.
          2   -1    0    0  501    0  0.00000000000E+00 -0.00000000000E+00 -0.38639338291E+03  0.38639338291E+03  0.00000000000E+00 0. -1.
         23    2    1    2    0    0  0.46490903746E+02  0.16317964665E+03 -0.10928674098E+03  0.23744512362E+03  0.12509034242E+03 0.  0.
          5    1    3    3  502    0 -0.32250182799E+02  0.20758625270E+02  0.44792177378E+01  0.38839806967E+02  0.41800000000E+01 0.  1.
         -5    1    3    3    0  502  0.78741086545E+02  0.14242102137E+03 -0.11376595872E+03  0.19860531665E+03  0.41800000000E+01 0.  1.
        -11    1    1    2    0    0 -0.20542524298E+02 -0.10574617315E+03 -0.16242861175E+03  0.19490331540E+03  0.00000000000E+00 0.  1.
         11    1    1    2    0    0 -0.25948379449E+02 -0.57433473497E+02 -0.54634196268E+01  0.63259554440E+02  0.00000000000E+00 0. -1.
</event>
<event>
 7    1  0.6833760E-006  0.7993416E+02  0.7561462E-02  0.1329238E+00
          1   -1    0    0  501    0  0.00000000000E+00  0.00000000000E+00  0.52406773289E+02  0.52406773289E+02  0.00000000000E+00 0. -1.
         -1   -1    0    0    0  501 -0.00000000000E+00 -0.00000000000E+00 -0.28234531596E+03  0.28234531596E+03  0.00000000000E+00 0.  1.
         23    2    1    2    0    0 -0.36260113980E+02  0.15754521809E+02 -0.18363130366E+03  0.22567788328E+03  0.12508817088E+03 0.  0.
          5    1    3    3  502    0 -0.51513439272E+02 -0.37845077513E+02 -0.14266587963E+03  0.15638705166E+03  0.41800000000E+01 0.  1.
         -5    1    3    3    0  502  0.15253325292E+02  0.53599599323E+02 -0.40965424031E+02  0.69290831616E+02  0.41800000000E+01 0.  1.
        -11    1    1    2    0    0  0.16148862852E+02 -0.40179690843E+01  0.27244370825E+02  0.31924686195E+02  0.00000000000E+00 0. -1.
         11    1    1    2    0    0  0.20111251128E+02 -0.11736552725E+02 -0.73551609839E+02  0.77149519776E+02  0.00000000000E+00 0.  1.
</event>
<event>
 7    1  0.6833760E-006  0.1232369E+03  0.7561462E-02  0.1237851E+00
          1   -1    0    0  501    0  0.00000000000E+00  0.00000000000E+00  0.35655923157E+03  0.35655923157E+03  0.00000000000E+00 0. -1.
         -1   -1    0    0    0  501 -0.00000000000E+00 -0.00000000000E+00 -0.55190798584E+02  0.55190798584E+02  0.00000000000E+00 0.  1.
         23    2    1    2    0    0 -0.95334298201E+01  0.79225055886E+02  0.12406063103E+03  0.19340651708E+03  0.12509014715E+03 0.  0.
          5    1    3    3  502    0  0.53518000438E+02  0.62794595419E+02  0.76897312749E+02  0.11286277815E+03  0.41800000000E+01 0.  1.
         -5    1    3    3    0  502 -0.63051430258E+02  0.16430460467E+02  0.47163318286E+02  0.80543738928E+02  0.41800000000E+01 0.  1.
        -11    1    1    2    0    0 -0.24503124968E+02 -0.30238350733E+02  0.92367671789E+01  0.40000985690E+02  0.00000000000E+00 0.  1.
         11    1    1    2    0    0  0.34036554788E+02 -0.48986705153E+02  0.16807103477E+03  0.17834252738E+03  0.00000000000E+00 0. -1.
</event>
<event>
 7    1  0.6833760E-006  0.8520763E+02  0.7561462E-02  0.1314890E+00
         -1   -1    0    0    0  501 -0.00000000000E+00  0.00000000000E+00  0.81355876645E+02  0.81355876645E+02  0.00000000000E+00 0.  1.
          1   -1    0    0  501    0  0.00000000000E+00 -0.00000000000E+00 -0.16270707189E+03  0.16270707189E+03  0.00000000000E+00 0. -1.
         23    2    1    2    0    0  0.22059872370E+02 -0.29888044465E+02 -0.41574926507E+02  0.13694198064E+03  0.12507876869E+03 0.  0.
          5    1    3    3  502    0  0.61747188678E+02 -0.51402748177E+02 -0.86588552958E+01  0.80916042938E+02  0.41800000000E+01 0. -1.
         -5    1    3    3    0  502 -0.39687316307E+02  0.21514703712E+02 -0.32916071211E+02  0.56025937703E+02  0.41800000000E+01 0. -1.
        -11    1    1    2    0    0 -0.16671519294E+02  0.26740653849E+01 -0.66494514393E+02  0.68604742005E+02  0.00000000000E+00 0. -1.
         11    1    1    2    0    0 -0.53883530762E+01  0.27213979080E+02  0.26718245652E+02  0.38516225892E+02  0.00000000000E+00 0.  1.
</event>
<event>
 7    1  0.6833760E-006  0.9885349E+02  0.7561462E-02  0.1282726E+00
          2   -1    0    0  501    0  0.00000000000E+00  0.00000000000E+00  0.30025459096E+02  0.30025459096E+02  0.00000000000E+00 0. -1.
         -2   -1    0    0    0  501 -0.00000000000E+00 -0.00000000000E+00 -0.58995165206E+03  0.58995165206E+03  0.00000000000E+00 0.  1.
         23    2    1    2    0    0  0.36007550481E+02 -0.37571605617E+02 -0.43625747299E+03  0.45681046223E+03  0.12508815459E+03 0.  0.
          5    1    3    3  502    0 -0.29402009800E+02 -0.54367396151E+02 -0.27578178585E+03  0.28265413096E+03  0.41800000000E+01 0. -1.
         -5    1    3    3    0  502  0.65409560281E+02  0.16795790533E+02 -0.16047568714E+03  0.17415633127E+03  0.41800000000E+01 0. -1.
        -11    1    1    2    0    0 -0.46304932701E+02  0.28497056361E+02 -0.13489155620E+03  0.14543713744E+03  0.00000000000E+00 0.  1.
         11    1    1    2    0    0  0.10297382220E+02  0.90745492561E+01  0.11222836222E+02  0.17729511489E+02  0.00000000000E+00 0. -1.
</event>
<event>
 7    1  0.6833760E-006  0.8546268E+02  0.7561462E-02  0.1314227E+00
          1   -1    0    0  501    0  0.00000000000E+00  0.00000000000E+00  0.31182346087E+03  0.31182346087E+03  0.00000000000E+00 0. -1.
         -1   -1    0    0    0  501 -0.00000000000E+00 -0.00000000000E+00 -0.43427862941E+02  0.43427862941E+02  0.00000000000E+00 0.  1.
         23    2    1    2    0    0 -0.26118767849E+01 -0.14322802940E+02  0.11172087303E+03  0.16834619360E+03  0.12508766064E+03 0.  0.
          5    1    3    3  502    0 -0.44856804755E+02 -0.34803363594E+01 -0.32575964382E+01  0.45302649024E+02  0.41800000000E+01 0. -1.
         -5    1    3    3    0  502  0.42244927970E+02 -0.10842466581E+02  0.11497846947E+03  0.12304354458E+03  0.41800000000E+01 0. -1.
        -11    1    1    2    0    0 -0.36924569771E+02  0.19985242125E+02  0.24026896069E+02  0.48374843568E+02  0.00000000000E+00 0.  1.
         11    1    1    2    0    0  0.39536446555E+02 -0.56624391843E+01  0.13264782883E+03  0.13853028665E+03  0.00000000000E+00 0. -1.
</event>
<event>
 7    1  0.6833760E-006  0.7458813E+02  0.7561462E-02  0.1345151E+00
          1   -1    0    0  501    0  0.00000000000E+00  0.00000000000E+00  0.10783855392E+03  0.10783855392E+03  0.00000000000E+00 0. -1.
         -1   -1    0    0    0  501 -0.00000000000E+00 -0.00000000000E+00 -0.11486586875E+03  0.11486586875E+03  0.00000000000E+00 0.  1.
         23    2    1    2    0    0  0.12127317346E+02  0.11675399358E+02 -0.19259748975E+02  0.12769124136E+03  0.12510287132E+03 0.  0.
          5    1    3    3  502    0 -0.46744949894E+02 -0.96393414488E+01  0.21865143053E+02  0.52664638278E+02  0.41800000000E+01 0. -1.
         -5    1    3    3    0  502  0.58872267241E+02  0.21314740807E+02 -0.41124892029E+02  0.75026603082E+02  0.41800000000E+01 0. -1.
        -11    1    1    2    0    0 -0.14991934350E+02  0.91027483108E+01 -0.37302760014E+02  0.41220310855E+02  0.00000000000E+00 0.  1.
         11    1    1    2    0    0  0.28646170038E+01 -0.20778147669E+02  0.49535194165E+02  0.53792870458E+02  0.00000000000E+00 0. -1.
</event>
<event>
 7    1  0.6833760E-006  0.8792662E+02  0.7561462E-02  0.1307952E+00
          1   -1    0    0  501    0  0.00000000000E+00  0.00000000000E+00  0.69562501523E+02  0.69562501523E+02  0.00000000000E+00 0. -1.
         -1   -1    0    0    0  501 -0.00000000000E+00 -0.00000000000E+00 -0.24062764344E+03  0.24062764344E+03  0.00000000000E+00 0.  1.
         23    2    1    2    0    0 -0.55223726812E+02 -0.28968896488E+02 -0.13805921807E+03  0.19645870179E+03  0.12508723695E+03 0.  0.
          5    1    3    3  502    0 -0.64755135829E+01 -0.14945488974E+02 -0.14421374517E+03  0.14519082827E+03  0.41800000000E+01 0. -1.
         -5    1    3    3    0  502 -0.48748213230E+02 -0.14023407515E+02  0.61545271001E+01  0.51267873520E+02  0.41800000000E+01 0. -1.
        -11    1    1    2    0    0  0.76558774949E+02  0.60032965487E+01 -0.17513692761E+02  0.78765570050E+02  0.00000000000E+00 0. -1.
         11    1    1    2    0    0 -0.21335048136E+02  0.22965599940E+02 -0.15492231085E+02  0.34965873128E+02  0.00000000000E+00 0.  1.
</event>
<event>
 7    1  0.6833760E-006  0.9494811E+02  0.7561462E-02  0.1291293E+00
         -1   -1    0    0    0  501 -0.00000000000E+00  0.00000000000E+00  0.43173189727E+02  0.43173189727E+02  0.00000000000E+00 0.  1.
          1   -1    0    0  501    0  0.00000000000E+00 -0.00000000000E+00 -0.32880506582E+03  0.32880506582E+03  0.00000000000E+00 0. -1.
         23    2    1    2    0    0  0.59901507186E+01 -0.11059972990E+02 -0.90710972588E+02  0.15504029846E+03  0.12510319217E+03 0.  0.
          5    1    3    3  502    0  0.40339276741E+02 -0.50018446222E+02 -0.78480992829E+02  0.10151768736E+03  0.41800000000E+01 0.  1.
         -5    1    3    3    0  502 -0.34349126022E+02  0.38958473233E+02 -0.12229979758E+02  0.53522611110E+02  0.41800000000E+01 0.  1.
        -11    1    1    2    0    0  0.40139619345E+01  0.41325326129E+02 -0.36314425682E+02  0.55160057856E+02  0.00000000000E+00 0.  1.
         11    1    1    2    0    0 -0.10004112653E+02 -0.30265353139E+02 -0.15860647783E+03  0.16177789923E+03  0.00000000000E+00 0. -1.
</event>
<event>
 7    1  0.6833760E-006  0.8850141E+02  0.7561462E-02  0.1306522E+00
          2   -1    0    0  501    0  0.00000000000E+00  0.00000000000E+00  0.38889169038E+03  0.38889169038E+03  0.00000000000E+00 0. -1.
         -2   -1    0    0    0  501 -0.00000000000E+00 -0.00000000000E+00 -0.29548209995E+02  0.29548209995E+02  0.00000000000E+00 0.  1.
         23    2    1    2    0    0 -0.14684904306E+01 -0.51166623529E+01  0.20302307210E+03  0.23854472110E+03  0.12512745287E+03 0.  0.
          5    1    3    3  502    0  0.46443371365E+02  0.35878963774E+02  0.71260787187E+02  0.92411357396E+02  0.41800000000E+01 0.  1.
         -5    1    3    3    0  502 -0.47911861796E+02 -0.40995626127E+02  0.13176228491E+03  0.14613336370E+03  0.41800000000E+01 0.  1.
        -11    1    1    2    0    0 -0.23426051937E+02  0.15401317709E+02  0.14950509950E+03  0.15211099656E+03  0.00000000000E+00 0. -1.
         11    1    1    2    0    0  0.24894542368E+02 -0.10284655357E+02  0.68153087858E+01  0.27784182719E+02  0.00000000000E+00 0.  1.
</event>
<event>
 7    1  0.6833760E-006  0.1649173E+03  0.7561462E-02  0.1183254E+00
          1   -1    0    0  501    0  0.00000000000E+00  0.00000000000E+00  0.65090629679E+03  0.65090629679E+03  0.00000000000E+00 0. -1.
         -1   -1    0    0    0  501 -0.00000000000E+00 -0.00000000000E+00 -0.50394944934E+02  0.50394944934E+02  0.00000000000E+00 0.  1.
         23    2    1    2    0    0 -0.31202905155E+02  0.13824482872E+03  0.37335285738E+03  0.41847979935E+03  0.12509089651E+03 0.  0.
          5    1    3    3  502    0 -0.60837190269E+02  0.60599836570E+02  0.95789947669E+02  0.12871165599E+03  0.41800000000E+01 0. -1.
         -5    1    3    3    0  502  0.29634285113E+02  0.77644992146E+02  0.27756290971E+03  0.28976814336E+03  0.41800000000E+01 0. -1.
        -11    1    1    2    0    0  0.47920929204E+02 -0.13548037159E+03  0.22313309214E+03  0.26540482918E+03  0.00000000000E+00 0. -1.
         11    1    1    2    0    0 -0.16718024049E+02 -0.27644571231E+01  0.40254023292E+01  0.17416613195E+02  0.00000000000E+00 0.  1.
</event>
<event>
 7    1  0.6833760E-006  0.6324597E+02  0.7561462E-02  0.1384694E+00
         -2   -1    0    0    0  501 -0.00000000000E+00  0.00000000000E+00  0.36346553362E+02  0.36346553362E+02  0.00000000000E+00 0.  1.
          2   -1    0    0  501    0  0.00000000000E+00 -0.00000000000E+00 -0.38222535206E+03  0.38222535206E+03  0.00000000000E+00 0. -1.
         23    2    1    2    0    0 -0.13915894094E+02  0.14992634825E+02 -0.12757749909E+03  0.17983851804E+03  0.12508974015E+03 0.  0.
          5    1    3    3  502    0 -0.62618296814E+01 -0.45660593857E+01  0.24617208019E+02  0.26144573814E+02  0.41800000000E+01 0. -1.
         -5    1    3    3    0  502 -0.76540644124E+01  0.19558694211E+02 -0.15219470710E+03  0.15369394423E+03  0.41800000000E+01 0. -1.
        -11    1    1    2    0    0 -0.30218942446E+02 -0.36325420579E+02 -0.11748747957E+03  0.12663344155E+03  0.00000000000E+00 0. -1.
         11    1    1    2    0    0  0.44134836540E+02  0.21332785754E+02 -0.10081382004E+03  0.11209994583E+03  0.00000000000E+00 0.  1.
</event>
<event>
 7    1  0.6833760E-006  0.1187257E+03  0.7561462E-02  0.1245214E+00
          4   -1    0    0  501    0  0.00000000000E+00  0.00000000000E+00  0.25351717290E+03  0.25351717290E+03  0.00000000000E+00 0. -1.
         -4   -1    0    0    0  501 -0.00000000000E+00 -0.00000000000E+00 -0.32222650652E+03  0.32222650652E+03  0.00000000000E+00 0.  1.
         23    2    1    2    0    0 -0.52800906282E+02  0.71401837194E+01 -0.29563962472E+03  0.32540873252E+03  0.12509651302E+03 0.  0.
          5    1    3    3  502    0  0.28886008576E+02  0.36846439074E+02 -0.78739112500E+02  0.91702681537E+02  0.41800000000E+01 0. -1.
         -5    1    3    3    0  502 -0.81686914858E+02 -0.29706255355E+02 -0.21690051222E+03  0.23370605099E+03  0.41800000000E+01 0. -1.
        -11    1    1    2    0    0 -0.23212168731E+02 -0.13992178956E+02  0.84566094186E+02  0.88803210162E+02  0.00000000000E+00 0.  1.
         11    1    1    2    0    0  0.76013075014E+02  0.68519952365E+01  0.14236419691E+03  0.16153173674E+03  0.00000000000E+00 0. -1.
</event>
<event>
 6    1  0.6833760E-006  0.1269007E+03  0.7561462E-02  0.1232128E+00
          3   -1    0    0  501    0  0.00000000000E+00  0.00000000000E+00  0.13878225447E+03  0.13878225447E+03  0.00000000000E+00 0. -1.
         -3   -1    0    0    0  501 -0.00000000000E+00 -0.00000000000E+00 -0.14794914871E+03  0.14794914871E+03  0.00000000000E+00 0.  1.
          5    1    1    2  502    0 -0.82640440018E+01  0.80372506622E+02  0.47565394182E+02  0.93850803767E+02  0.41800000000E+01 0. -1.
         -5    1    1    2    0  502 -0.21166318012E+02 -0.74635116087E+02 -0.58730783725E+02  0.97391944885E+02  0.41800000000E+01 0.  1.
        -11    1    1    2    0    0 -0.28032575807E+02  0.17693799975E+02 -0.26689761415E+01  0.33256868427E+02  0.00000000000E+00 0.  1.
         11    1    1    2    0    0  0.57462937820E+02 -0.23431190511E+02  0.46674714472E+01  0.62231786102E+02  0.00000000000E+00 0. -1.
</event>
<event>
 7    1  0.6833760E-006  0.2629461E+03  0.7561462E-02  0.1105386E+00
          2   -1    0    0  501    0  0.00000000000E+00  0.00000000000E+00  0.52888192375E+03  0.52888192375E+03  0.00000000000E+00 0. -1.
         -2   -1    0    0    0  501 -0.00000000000E+00 -0.00000000000E+00 -0.19816651387E+03  0.19816651387E+03  0.00000000000E+00 0.  1.
         23    2    1    2    0    0 -0.24471338124E+03 -0.64109816465E+02 -0.21521262599E+02  0.28302850947E+03  0.12508902790E+03 0.  0.
          5    1    3    3  502    0 -0.17061853356E+02 -0.14356097200E+02 -0.43368910069E+02  0.48944245089E+02  0.41800000000E+01 0.  1.
         -5    1    3    3    0  502 -0.22765152789E+03 -0.49753719265E+02  0.21847647469E+02  0.23408426438E+03  0.41800000000E+01 0.  1.
        -11    1    1    2    0    0  0.12618685069E+03 -0.15833918003E+02  0.17426404898E+03  0.21573547000E+03  0.00000000000E+00 0. -1.
         11    1    1    2    0    0  0.11852653055E+03  0.79943734468E+02  0.17797262349E+03  0.22828445816E+03  0.00000000000E+00 0.  1.
</event>
<event>
 7    1  0.6833760E-006  0.1070731E+03  0.7561462E-02  0.1266088E+00
         -1   -1    0    0    0  501 -0.00000000000E+00  0.00000000000E+00  0.57425657580E+02  0.57425657580E+02  0.00000000000E+00 0.  1.
          1   -1    0    0  501    0  0.00000000000E+00 -0.00000000000E+00 -0.27878165699E+03  0.27878165699E+03  0.00000000000E+00 0. -1.
         23    2    1    2    0    0 -0.29430358852E+02  0.43361138758E+02 -0.72418738214E+02  0.15374831063E+03  0.12509090695E+03 0.  0.
          5    1    3    3  502    0  0.27335849840E+02 -0.22212225640E+02 -0.54596169957E+02  0.65106419256E+02  0.41800000000E+01 0.  1.
         -5    1    3    3    0  502 -0.56766208693E+02  0.65573364398E+02 -0.17822568257E+02  0.88641891378E+02  0.41800000000E+01 0.  1.
        -11    1    1    2    0    0 -0.15334843427E+02 -0.44496868733E+02 -0.12062010011E+03  0.12947716903E+03  0.00000000000E+00 0. -1.
         11    1    1    2    0    0  0.44765202280E+02  0.11357299754E+01 -0.28317161085E+02  0.52981834902E+02  0.00000000000E+00 0.  1.
</event>
<event>
 7    1  0.6833760E-006  0.9088455E+02  0.7561462E-02  0.1300724E+00
          1   -1    0    0  501    0  0.00000000000E+00  0.00000000000E+00  0.61157406807E+02  0.61157406807E+02  0.00000000000E+00 0. -1.
         -1   -1    0    0    0  501 -0.00000000000E+00 -0.00000000000E+00 -0.25513923779E+03  0.25513923779E+03  0.00000000000E+00 0.  1.
         23    2    1    2    0    0  0.59548604976E+02 -0.93550728480E+01 -0.12567178869E+03  0.18728034384E+03  0.12508786901E+03 0.  0.
          5    1    3    3  502    0 -0.11449169515E+02 -0.10192874444E+02  0.19779047008E+02  0.25370480338E+02  0.41800000000E+01 0.  1.
         -5    1    3    3    0  502  0.70997774490E+02  0.83780159574E+00 -0.14545083570E+03  0.16190986350E+03  0.41800000000E+01 0.  1.
        -11    1    1    2    0    0  0.16054893825E+02 -0.68148902943E+01  0.90466846888E+01  0.19648024056E+02  0.00000000000E+00 0. -1.
         11    1    1    2    0    0 -0.75603498801E+02  0.16169963142E+02 -0.77356726982E+02  0.10936827670E+03  0.00000000000E+00 0.  1.
</event>
<event>
 7    1  0.6833760E-006  0.9311332E+02  0.7561462E-02  0.1295483E+00
          4   -1    0    0  501    0  0.00000000000E+00  0.00000000000E+00  0.12163186347E+02  0.12163186347E+02  0.00000000000E+00 0. -1.
         -4   -1    0    0    0  501 -0.00000000000E+00 -0.00000000000E+00 -0.13244949738E+04  0.13244949738E+04  0.00000000000E+00 0.  1.
         23    2    1    2    0    0 -0.68274627804E+01  0.29816562963E+02 -0.10498826056E+04  0.10577507599E+04  0.12509013892E+03 0.  0.
          5    1    3    3  502    0  0.18177299864E+02  0.72257424874E+02 -0.48482374432E+03  0.49053346995E+03  0.41800000000E+01 0.  1.
         -5    1    3    3    0  502 -0.25004762644E+02 -0.42440861911E+02 -0.56505886123E+03  0.56721728991E+03  0.41800000000E+01 0.  1.
        -11    1    1    2    0    0  0.24849656473E+02 -0.35441317941E+02 -0.25494135123E+03  0.25858980067E+03  0.00000000000E+00 0.  1.
         11    1    1    2    0    0 -0.18022193693E+02  0.56247549779E+01 -0.75078307107E+01  0.20317599662E+02  0.00000000000E+00 0. -1.
</event>
<event>
 7    1  0.6833760E-006  0.1721986E+03  0.7561462E-02  0.1175574E+00
          2   -1    0    0  501    0  0.00000000000E+00  0.00000000000E+00  0.51720567042E+02  0.51720567042E+02  0.00000000000E+00 0. -1.
         -2   -1    0    0    0  501 -0.00000000000E+00 -0.00000000000E+00 -0.61128533904E+03  0.61128533904E+03  0.00000000000E+00 0.  1.
         23    2    1    2    0    0  0.13619206706E+03  0.37317666252E+01 -0.36944675405E+03  0.41315959627E+03  0.12509093771E+03 0.  0.
          5    1    3    3  502    0 -0.11840633129E+02  0.30356604697E+02 -0.89499272138E+02  0.95337905131E+02  0.41800000000E+01 0.  1.
         -5    1    3    3    0  502  0.14803270019E+03 -0.26624838071E+02 -0.27994748192E+03  0.31782169114E+03  0.41800000000E+01 0.  1.
        -11    1    1    2    0    0 -0.78590154616E+02 -0.44683328177E+02 -0.12048208021E+03  0.15062849621E+03  0.00000000000E+00 0.  1.
         11    1    1    2    0    0 -0.57601912445E+02  0.40951561552E+02 -0.69635937730E+02  0.99217813594E+02  0.00000000000E+00 0. -1.
</event>
<event>
 7    1  0.6833760E-006  0.8809076E+02  0.7561462E-02  0.1307542E+00
          1   -1    0    0  501    0  0.00000000000E+00  0.00000000000E+00  0.18570263386E+02  0.18570263386E+02  0.00000000000E+00 0. -1.
         -1   -1    0    0    0  501 -0.00000000000E+00 -0.00000000000E+00 -0.95245633094E+03  0.95245633094E+03  0.00000000000E+00 0.  1.
         23    2    1    2    0    0  0.22163889478E+02  0.16926894212E+02 -0.77738103521E+03  0.78787477552E+03  0.12509048824E+03 0.  0.
          5    1    3    3  502    0 -0.26684303384E+02 -0.52205660120E+01 -0.63615083678E+03  0.63674536975E+03  0.41800000000E+01 0.  1.
         -5    1    3    3    0  502  0.48848192862E+02  0.22147460224E+02 -0.14123019843E+03  0.15112940577E+03  0.41800000000E+01 0.  1.
        -11    1    1    2    0    0  0.32025223528E+02  0.11065105449E+02 -0.62509295498E+02  0.71101782849E+02  0.00000000000E+00 0.  1.
         11    1    1    2    0    0 -0.54189113005E+02 -0.27991999662E+02 -0.93995736844E+02  0.11205003596E+03  0.00000000000E+00 0. -1.
</event>
<event>
 7    1  0.6833760E-006  0.1236964E+03  0.7561462E-02  0.1237121E+00
         -2   -1    0    0    0  501 -0.00000000000E+00  0.00000000000E+00  0.23390964056E+02  0.23390964056E+02  0.00000000000E+00 0.  1.
          2   -1    0    0  501    0  0.00000000000E+00 -0.00000000000E+00 -0.81752714274E+03  0.81752714274E+03  0.00000000000E+00 0. -1.
         23    2    1    2    0    0 -0.66631671517E+02 -0.55093294928E+02 -0.43297650076E+03  0.45890085666E+03  0.12508515192E+03 0.  0.
          5    1    3    3  502    0 -0.72616557724E+02  0.15705662138E+02 -0.15470080532E+03  0.17166724744E+03  0.41800000000E+01 0. -1.
         -5    1    3    3    0  502  0.59848862071E+01 -0.70798957066E+02 -0.27827569545E+03  0.28723360921E+03  0.41800000000E+01 0. -1.
        -11    1    1    2    0    0  0.75437579209E+02  0.42956703323E+02 -0.35557119246E+03  0.36601499918E+03  0.00000000000E+00 0. -1.
         11    1    1    2    0    0 -0.88059076922E+01  0.12136591605E+02 -0.55884854605E+01  0.16002250961E+02  0.00000000000E+00 0.  1.
</event>
<event>
 6    1  0.6833760E-006  0.9815253E+02  0.7561462E-02  0.1284230E+00
          1   -1    0    0  501    0  0.00000000000E+00  0.00000000000E+00  0.38099991836E+03  0.38099991836E+03  0.00000000000E+00 0. -1.
         -1   -1    0    0    0  501 -0.00000000000E+00 -0.00000000000E+00 -0.60614364759E+02  0.60614364759E+02  0.00000000000E+00 0.  1.
          5    1    1    2  502    0  0.39981044656E+02  0.21211649749E+02  0.12781015642E+03  0.13565148912E+03  0.41800000000E+01 0. -1.
         -5    1    1    2    0  502  0.37724097300E+02 -0.46097832240E+00 -0.31664625514E+02  0.49431173637E+02  0.41800000000E+01 0.  1.
        -11    1    1    2    0    0 -0.54773971911E+02  0.26144538243E+02  0.17319072997E+03  0.18351772075E+03  0.00000000000E+00 0.  1.
         11    1    1    2    0    0 -0.22931170045E+02 -0.46895209669E+02  0.51049292723E+02  0.73013899616E+02  0.00000000000E+00 0. -1.
</event>
<event>
 7    1  0.6833760E-006  0.1064431E+03  0.7561462E-02  0.1267302E+00
         -2   -1    0    0    0  501 -0.00000000000E+00  0.00000000000E+00  0.42551030897E+02  0.42551030897E+02  0.00000000000E+00 0.  1.
          2   -1    0    0  501    0  0.00000000000E+00 -0.00000000000E+00 -0.37304323153E+03  0.37304323153E+03  0.00000000000E+00 0. -1.
         23    2    1    2    0    0 -0.30808230976E+02  0.76284779660E+01 -0.88332308957E+02  0.15638869112E+03  0.12508990820E+03 0.  0.
          5    1    3    3  502    0 -0.18970731902E+02 -0.54150485103E+02 -0.14547881445E+02  0.59340348502E+02  0.41800000000E+01 0.  1.
         -5    1    3    3    0  502 -0.11837499074E+02  0.61778963069E+02 -0.73784427513E+02  0.97048342622E+02  0.41800000000E+01 0.  1.
        -11    1    1    2    0    0 -0.60812279005E+01  0.35239239290E+02 -0.87186264209E+02  0.94234972199E+02  0.00000000000E+00 0. -1.
         11    1    1    2    0    0  0.36889458877E+02 -0.42867717256E+02 -0.15497362747E+03  0.16497059911E+03  0.00000000000E+00 0.  1.
</event>
<event>
 7    1  0.6833760E-006  0.1025785E+03  0.7561462E-02  0.1274965E+00
          1   -1    0    0  501    0  0.00000000000E+00  0.00000000000E+00  0.10343089819E+03  0.10343089819E+03  0.00000000000E+00 0. -1.
         -1   -1    0    0    0  501 -0.00000000000E+00 -0.00000000000E+00 -0.15858599566E+03  0.15858599566E+03  0.00000000000E+00 0.  1.
         23    2    1    2    0    0  0.18287168942E+02 -0.63493931698E+02 -0.34699761253E+02  0.14566495109E+03  0.12509318380E+03 0.  0.
          5    1    3    3  502    0  0.59166224117E+02 -0.44062571888E+02 -0.58603522797E+02  0.94307993309E+02  0.41800000000E+01 0.  1.
         -5    1    3    3    0  502 -0.40879055176E+02 -0.19431359810E+02  0.23903761543E+02  0.51356957776E+02  0.41800000000E+01 0.  1.
        -11    1    1    2    0    0  0.13479356081E+02 -0.14090028538E+01 -0.39386700594E+02  0.41653217319E+02  0.00000000000E+00 0.  1.
         11    1    1    2    0    0 -0.31766525023E+02  0.64902934552E+02  0.18931364379E+02  0.74698725442E+02  0.00000000000E+00 0. -1.
</event>
<event>
 7    1  0.6833760E-006  0.5567511E+02  0.7561462E-02  0.1416933E+00
          1   -1    0    0  501    0  0.00000000000E+00  0.00000000000E+00  0.22944731031E+02  0.22944731031E+02  0.00000000000E+00 0. -1.
         -1   -1    0    0    0  501 -0.00000000000E+00 -0.00000000000E+00 -0.77326879917E+03  0.77326879917E+03  0.00000000000E+00 0.  1.
         23    2    1    2    0    0 -0.12192521288E+02 -0.61727550629E+01 -0.65565043558E+03  0.66761585801E+03  0.12508668876E+03 0.  0.
          5    1    3    3  502    0  0.28560490075E+02 -0.20036134150E+02 -0.54077561904E+02  0.64490335450E+02  0.41800000000E+01 0.  1.
         -5    1    3    3    0  502 -0.40753011363E+02  0.13863379087E+02 -0.60157287368E+03  0.60312552256E+03  0.41800000000E+01 0.  1.
        -11    1    1    2    0    0 -0.98490453511E+01  0.45890830314E+01  0.13987654720E+02  0.17712082373E+02  0.00000000000E+00 0. -1.
         11    1    1    2    0    0  0.22041566639E+02  0.15836720314E+01 -0.10866128727E+03  0.11088558982E+03  0.00000000000E+00 0.  1.
</event>
<event>
 7    1  0.6833760E-006  0.1146546E+03  0.7561462E-02  0.1252185E+00
          1   -1    0    0  501    0  0.00000000000E+00  0.00000000000E+00  0.19126239550E+03  0.19126239550E+03  0.00000000000E+00 0. -1.
         -1   -1    0    0    0  501 -0.00000000000E+00 -0.00000000000E+00 -0.12177220704E+03  0.12177220704E+03  0.00000000000E+00 0.  1.
         23    2    1    2    0    0  0.54712498921E+02 -0.65269365681E+02 -0.29177225426E+02  0.15411317834E+03  0.12508402624E+03 0.  0.
          5    1    3    3  502    0  0.44756936891E+02 -0.77177278165E+02  0.28883643257E+02  0.93868274261E+02  0.41800000000E+01 0. -1.
         -5    1    3    3    0  502  0.99555620300E+01  0.11907912485E+02 -0.58060868683E+02  0.60244904078E+02  0.41800000000E+01 0. -1.
        -11    1    1    2    0    0  0.18036700304E+02  0.44879528186E+02  0.30645841969E+02  0.57259603893E+02  0.00000000000E+00 0.  1.
         11    1    1    2    0    0 -0.72749199225E+02  0.20389837495E+02  0.68021571919E+02  0.10166182030E+03  0.00000000000E+00 0. -1.
</event>
<event>
 7    1  0.6833760E-006  0.9673408E+02  0.7561462E-02  0.1287318E+00
         -3   -1    0    0    0  501 -0.00000000000E+00  0.00000000000E+00  0.29721408106E+03  0.29721408106E+03  0.00000000000E+00 0.  1.
          3   -1    0    0  501    0  0.00000000000E+00 -0.00000000000E+00 -0.40213871151E+02  0.40213871151E+02  0.00000000000E+00 0. -1.
         23    2    1    2    0    0  0.84745745466E+01 -0.12016945126E+02  0.18509182053E+03  0.22388261162E+03  0.12509283103E+03 0.  0.
          5    1    3    3  502    0  0.17602434041E+02  0.52529437274E+02  0.54302502106E+02  0.77687975900E+02  0.41800000000E+01 0. -1.
         -5    1    3    3    0  502 -0.91278594944E+01 -0.64546382400E+02  0.13078931843E+03  0.14619463572E+03  0.41800000000E+01 0. -1.
        -11    1    1    2    0    0  0.31469880383E+02  0.77957004711E+01  0.65208404755E+02  0.72823501480E+02  0.00000000000E+00 0.  1.
         11    1    1    2    0    0 -0.39944454930E+02  0.42212446545E+01  0.66999846180E+01  0.40721839103E+02  0.00000000000E+00 0. -1.
</event>
<event>
 7    1  0.6833760E-006  0.8814249E+02  0.7561462E-02  0.1307413E+00
          1   -1    0    0  501    0  0.00000000000E+00  0.00000000000E+00  0.89550121831E+02  0.89550121831E+02  0.00000000000E+00 0. -1.
         -1   -1    0    0    0  501 -0.00000000000E+00 -0.00000000000E+00 -0.15497095328E+03  0.15497095328E+03  0.00000000000E+00 0.  1.
         23    2    1    2    0    0  0.16725519510E+02 -0.25205773566E+02 -0.72831960948E+02  0.14787309533E+03  0.12508750442E+03 0.  0.
          5    1    3    3  502    0  0.64173234643E+02 -0.11760167818E+02 -0.73445957079E+01  0.65786936984E+02  0.41800000000E+01 0. -1.
         -5    1    3    3    0  502 -0.47447715133E+02 -0.13445605748E+02 -0.65487365240E+02  0.82086158342E+02  0.41800000000E+01 0. -1.
        -11    1    1    2    0    0  0.48507045897E+01  0.36666043806E+02  0.40933420190E+02  0.55167680682E+02  0.00000000000E+00 0. -1.
         11    1    1    2    0    0 -0.21576224100E+02 -0.11460270240E+02 -0.33522290689E+02  0.41480299100E+02  0.00000000000E+00 0.  1.
</event>
<event>
 7    1  0.6833760E-006  0.1027264E+03  0.7561462E-02  0.1274665E+00
         -2   -1    0    0    0  501 -0.00000000000E+00  0.00000000000E+00  0.25022850617E+03  0.25022850617E+03  0.00000000000E+00 0.  1.
          2   -1    0    0  501    0  0.00000000000E+00 -0.00000000000E+00 -0.66497876581E+02  0.66497876581E+02  0.00000000000E+00 0. -1.
         23    2    1    2    0    0 -0.68798517070E+02  0.10858200818E+02  0.11968126624E+03  0.18660716908E+03  0.12508994199E+03 0.  0.
          5    1    3    3  502    0 -0.77472044214E+02 -0.62855135121E+01  0.13969709502E+02  0.79082554956E+02  0.41800000000E+01 0. -1.
         -5    1    3    3    0  502  0.86735271441E+01  0.17143714330E+02  0.10571155674E+03  0.10752461412E+03  0.41800000000E+01 0. -1.
        -11    1    1    2    0    0  0.62615842806E+02 -0.42522343555E+02  0.25541536782E+02  0.79882811499E+02  0.00000000000E+00 0. -1.
         11    1    1    2    0    0  0.61826742639E+01  0.31664142738E+02  0.38507826564E+02  0.50236402170E+02  0.00000000000E+00 0.  1.
</event>
<event>
 7    1  0.6833760E-006  0.1019859E+03  0.7561462E-02  0.1276175E+00
         -4   -1    0    0    0  501 -0.00000000000E+00  0.00000000000E+00  0.37030213964E+03  0.37030213964E+03  0.00000000000E+00 0.  1.
          4   -1    0    0  501    0  0.00000000000E+00 -0.00000000000E+00 -0.44876821381E+02  0.44876821381E+02  0.00000000000E+00 0. -1.
         23    2    1    2    0    0  0.51213413915E+02  0.42403113802E+02  0.21654494676E+03  0.25876489084E+03  0.12508683760E+03 0.  0.
          5    1    3    3  502    0  0.22093528369E+02  0.82517766798E+02  0.97218190656E+02  0.12948418756E+03  0.41800000000E+01 0.  1.
         -5    1    3    3    0  502  0.29119885545E+02 -0.40114652995E+02  0.11932675610E+03  0.12928070328E+03  0.41800000000E+01 0.  1.
        -11    1    1    2    0    0 -0.16467566680E+02 -0.40705265547E+01 -0.14696623095E+02  0.22444167821E+02  0.00000000000E+00 0. -1.
         11    1    1    2    0    0 -0.34745847235E+02 -0.38332587248E+02  0.12357699459E+03  0.13396990236E+03  0.00000000000E+00 0.  1.
</event>
<event>
 7    1  0.6833760E-006  0.6647267E+02  0.7561462E-02  0.1372516E+00
          1   -1    0    0  501    0  0.00000000000E+00  0.00000000000E+00  0.89200333952E+02  0.89200333952E+02  0.00000000000E+00 0. -1.
         -1   -1    0    0    0  501 -0.00000000000E+00 -0.00000000000E+00 -0.18456992000E+03  0.18456992000E+03  0.00000000000E+00 0.  1.
         23    2    1    2    0    0  0.53057777249E+02  0.45207187325E+01 -0.92328770440E+02  0.16433870036E+03  0.12508813677E+03 0.  0.
          5    1    3    3  502    0  0.18951896947E+02 -0.13536828055E+02  0.28723745065E+02  0.37214863190E+02  0.41800000000E+01 0.  1.
         -5    1    3    3    0  502  0.34105880302E+02  0.18057546788E+02 -0.12105251551E+03  0.12712383717E+03  0.41800000000E+01 0.  1.
        -11    1    1    2    0    0 -0.54097526737E+02  0.10754154075E+02 -0.40852659838E+02  0.68637701336E+02  0.00000000000E+00 0.  1.
         11    1    1    2    0    0  0.10397494875E+01 -0.15274872808E+02  0.37811844226E+02  0.40793852258E+02  0.00000000000E+00 0. -1.
</event>
<event>
 7    1  0.6833760E-006  0.1186839E+03  0.7561462E-02  0.1245284E+00
         -1   -1    0    0    0  501 -0.00000000000E+00  0.00000000000E+00  0.33474106169E+02  0.33474106169E+02  0.00000000000E+00 0.  1.
          1   -1    0    0  501    0  0.00000000000E+00 -0.00000000000E+00 -0.51408154883E+03  0.51408154883E+03  0.00000000000E+00 0. -1.
         23    2    1    2    0    0 -0.65078803747E+02 -0.89288000113E+01 -0.19477012113E+03  0.24062346804E+03  0.12509707877E+03 0.  0.
          5    1    3    3  502    0 -0.60351323672E+02  0.51259770578E+02 -0.12742507993E+03  0.15008154365E+03  0.41800000000E+01 0. -1.
         -5    1    3    3    0  502 -0.47274800749E+01 -0.60188570589E+02 -0.67345041200E+02  0.90541924386E+02  0.41800000000E+01 0. -1.
        -11    1    1    2    0    0 -0.15705167050E+02  0.57020131868E+01 -0.99588403417E+01  0.19451059802E+02  0.00000000000E+00 0.  1.
         11    1    1    2    0    0  0.80783970797E+02  0.32267868245E+01 -0.27587848119E+03  0.28748112716E+03  0.00000000000E+00 0. -1.
</event>
<event>
 7    1  0.6833760E-006  0.1044678E+03  0.7561462E-02  0.1271172E+00
          1   -1    0    0  501    0  0.00000000000E+00  0.00000000000E+00  0.23604692529E+03  0.23604692529E+03  0.00000000000E+00 0. -1.
         -1   -1    0    0    0  501 -0.00000000000E+00 -0.00000000000E+00 -0.57597334570E+02  0.57597334570E+02  0.00000000000E+00 0.  1.
         23    2    1    2    0    0 -0.11809468753E+02 -0.19317992498E+02  0.53643617571E+02  0.13797960443E+03  0.12509230651E+03 0.  0.
          5    1    3    3  502    0 -0.63024904259E+02 -0.79970518892E+01  0.56724408814E+02  0.85271462700E+02  0.41800000000E+01 0.  1.
         -5    1    3    3    0  502  0.51215435506E+02 -0.11320940608E+02 -0.30807912422E+01  0.52708141733E+02  0.41800000000E+01 0.  1.
        -11    1    1    2    0    0 -0.30128476713E+02  0.36500322945E+02  0.56699108696E+02  0.73856533977E+02  0.00000000000E+00 0.  1.
         11    1    1    2    0    0  0.41937945466E+02 -0.17182330448E+02  0.68106864450E+02  0.81808121447E+02  0.00000000000E+00 0. -1.
</event>
<event>
 7    1  0.6833760E-006  0.1053284E+03  0.7561462E-02  0.1269474E+00
         -2   -1    0    0    0  501 -0.00000000000E+00  0.00000000000E+00  0.99548215587E+02  0.99548215587E+02  0.00000000000E+00 0.  1.
          2   -1    0    0  501    0  0.00000000000E+00 -0.00000000000E+00 -0.13541902321E+03  0.13541902321E+03  0.00000000000E+00 0. -1.
         23    2    1    2    0    0 -0.13161703695E+02  0.21542526597E+02  0.16240355081E+02  0.12864288545E+03  0.12509169415E+03 0.  0.
          5    1    3    3  502    0 -0.54395492112E+02  0.52515026734E+02  0.65856983082E+01  0.76010140226E+02  0.41800000000E+01 0.  1.
         -5    1    3    3    0  502  0.41233788417E+02 -0.30972500137E+02  0.96546567732E+01  0.52632745220E+02  0.41800000000E+01 0.  1.
        -11    1    1    2    0    0  0.26282625477E+02  0.24125894071E+02  0.16937437820E+00  0.35677217581E+02  0.00000000000E+00 0.  1.
         11    1    1    2    0    0 -0.13120921782E+02 -0.45668420668E+02 -0.52280537082E+02  0.70647135768E+02  0.00000000000E+00 0. -1.
</event>
<event>
 6    1  0.6833760E-006  0.1430527E+03  0.7561462E-02  0.1209279E+00
         -1   -1    0    0    0  501 -0.00000000000E+00  0.00000000000E+00  0.19442144406E+03  0.19442144406E+03  0.00000000000E+00 0.  1.
          1   -1    0    0  501    0  0.00000000000E+00 -0.00000000000E+00 -0.42010626502E+03  0.42010626502E+03  0.00000000000E+00 0. -1.
          5    1    1    2  502    0 -0.10465288549E+02 -0.49189462675E+02  0.23626287530E+02  0.55720726531E+02  0.41800000000E+01 0. -1.
         -5    1    1    2    0  502 -0.14109700717E+02  0.13559873924E+03  0.11090369539E+03  0.17579307094E+03  0.41800000000E+01 0.  1.
        -11    1    1    2    0    0  0.10149720765E+02 -0.84012692146E+02 -0.35842794445E+03  0.36828214813E+03  0.00000000000E+00 0. -1.
         11    1    1    2    0    0  0.14425268501E+02 -0.23965844235E+01 -0.17868594345E+01  0.14731763468E+02  0.00000000000E+00 0.  1.
</event>
<event>
 7    1  0.6833760E-006  0.1259359E+03  0.7561462E-02  0.1233614E+00
          1   -1    0    0  501    0  0.00000000000E+00  0.00000000000E+00  0.46156301276E+02  0.46156301276E+02  0.00000000000E+00 0. -1.
         -1   -1    0    0    0  501 -0.00000000000E+00 -0.00000000000E+00 -0.42292751152E+03  0.42292751152E+03  0.00000000000E+00 0.  1.
         23    2    1    2    0    0  0.22594783021E+02 -0.88724808107E+02 -0.20715830305E+03  0.25550533437E+03  0.11826156424E+03 0.  0.
          5    1    3    3  502    0 -0.17098319992E+02  0.21975960967E+02 -0.20418282796E+02  0.34780369166E+02  0.41800000000E+01 0. -1.
         -5    1    3    3    0  502  0.39693103013E+02 -0.11070076907E+03 -0.18674002025E+03  0.22072496520E+03  0.41800000000E+01 0.  1.
        -11    1    1    2    0    0  0.15981665322E+02  0.11414892724E+02  0.36427242610E+01  0.19974554874E+02  0.00000000000E+00 0.  1.
         11    1    1    2    0    0 -0.38576448342E+02  0.77309915383E+02 -0.17325563146E+03  0.19360392355E+03  0.00000000000E+00 0. -1.
</event>
<event>
 7    1  0.6833760E-006  0.7216477E+02  0.7561462E-02  0.1352883E+00
          2   -1    0    0  501    0  0.00000000000E+00  0.00000000000E+00  0.20629011763E+03  0.20629011763E+03  0.00000000000E+00 0. -1.
         -2   -1    0    0    0  501 -0.00000000000E+00 -0.00000000000E+00 -0.62524083445E+02  0.62524083445E+02  0.00000000000E+00 0.  1.
         23    2    1    2    0    0  0.93567507747E+01 -0.37924287808E+02  0.82197052555E+02  0.15469111674E+03  0.12508871156E+03 0.  0.
          5    1    3    3  502    0  0.52751919387E+01 -0.46163875636E+02 -0.20886366083E+02  0.51114026958E+02  0.41800000000E+01 0.  1.
         -5    1    3    3    0  502  0.40815588360E+01  0.82395878285E+01  0.10308341864E+03  0.10357708978E+03  0.41800000000E+01 0.  1.
        -11    1    1    2    0    0  0.34215830926E+02  0.93485936796E+01  0.49053702384E+02  0.60534163968E+02  0.00000000000E+00 0.  1.
         11    1    1    2    0    0 -0.43572581701E+02  0.28575694128E+02  0.12515279243E+02  0.53588920362E+02  0.00000000000E+00 0. -1.
</event>
<event>
 7    1  0.6833760E-006  0.1082514E+03  0.7561462E-02  0.1263843E+00
          4   -1    0    0  501    0  0.00000000000E+00  0.00000000000E+00  0.46917386672E+02  0.46917386672E+02  0.00000000000E+00 0. -1.
         -4   -1    0    0    0  501 -0.00000000000E+00 -0.00000000000E+00 -0.26151682494E+03  0.26151682494E+03  0.00000000000E+00 0.  1.
         23    2    1    2    0    0  0.18561686588E+02 -0.15559317890E+02 -0.12443299318E+03  0.17808703095E+03  0.12507914382E+03 0.  0.
          5    1    3    3  502    0 -0.48150125620E+02  0.12511494891E+02 -0.27360330711E+02  0.56930064099E+02  0.41800000000E+01 0. -1.
         -5    1    3    3    0  502  0.66711812209E+02 -0.28070812781E+02 -0.97072662466E+02  0.12115696685E+03  0.41800000000E+01 0. -1.
        -11    1    1    2    0    0 -0.25008936101E+02  0.51667312562E+02 -0.52954199751E+02  0.78096769098E+02  0.00000000000E+00 0. -1.
         11    1    1    2    0    0  0.64472495132E+01 -0.36107994671E+02 -0.37212245341E+02  0.52250411566E+02  0.00000000000E+00 0.  1.
</event>
<event>
 7    1  0.6833760E-006  0.1214682E+03  0.7561462E-02  0.1240694E+00
          2   -1    0    0  501    0  0.00000000000E+00  0.00000000000E+00  0.48485142638E+03  0.48485142638E+03  0.00000000000E+00 0. -1.
         -2   -1    0    0    0  501 -0.00000000000E+00 -0.00000000000E+00 -0.38757378886E+02  0.38757378886E+02  0.00000000000E+00 0.  1.
         23    2    1    2    0    0  0.62232015686E+02  0.62908490526E+02  0.20823350576E+03  0.25853251173E+03  0.12509022642E+03 0.  0.
          5    1    3    3  502    0 -0.36727973993E+02  0.30303357015E+02  0.80718874428E+02  0.93809629617E+02  0.41800000000E+01 0.  1.
         -5    1    3    3    0  502  0.98959989679E+02  0.32605133511E+02  0.12751463133E+03  0.16472288211E+03  0.41800000000E+01 0.  1.
        -11    1    1    2    0    0 -0.18447640562E+02 -0.67336389465E+01  0.32653272594E+01  0.19907779833E+02  0.00000000000E+00 0.  1.
         11    1    1    2    0    0 -0.43784375124E+02 -0.56174851580E+02  0.23459521448E+03  0.24516851370E+03  0.00000000000E+00 0. -1.
</event>
<event>
 7    1  0.6833760E-006  0.2388850E+03  0.7561462E-02  0.1120538E+00
          2   -1    0    0  501    0  0.00000000000E+00  0.00000000000E+00  0.69509942757E+03  0.69509942757E+03  0.00000000000E+00 0. -1.
         -2   -1    0    0    0  501 -0.00000000000E+00 -0.00000000000E+00 -0.87683122483E+02  0.87683122483E+02  0.00000000000E+00 0.  1.
         23    2    1    2    0    0 -0.92720389112E+02 -0.19881181382E+03  0.26786810268E+03  0.36813494545E+03  0.12508720862E+03 0.  0.
          5    1    3    3  502    0 -0.11734404885E+03 -0.14501397280E+03  0.16349597791E+03  0.24808685031E+03  0.41800000000E+01 0. -1.
         -5    1    3    3    0  502  0.24623659736E+02 -0.53797841025E+02  0.10437212477E+03  0.12004809514E+03  0.41800000000E+01 0. -1.
        -11    1    1    2    0    0  0.82295436547E+02  0.20417969085E+03  0.29206147545E+03  0.36573459021E+03  0.00000000000E+00 0.  1.
         11    1    1    2    0    0  0.10424952566E+02 -0.53678770284E+01  0.47486726959E+02  0.48913014394E+02  0.00000000000E+00 0. -1.
</event>
<event>
 7    1  0.6833760E-006  0.9749917E+02  0.7561462E-02  0.1285644E+00
         -2   -1    0    0    0  501 -0.00000000000E+00  0.00000000000E+00  0.39130349773E+02  0.39130349773E+02  0.00000000000E+00 0.  1.
          2   -1    0    0  501    0  0.00000000000E+00 -0.00000000000E+00 -0.32214190986E+03  0.32214190986E+03  0.00000000000E+00 0. -1.
         23    2    1    2    0    0 -0.88641932027E-02  0.16400182799E+02 -0.12530070831E+03  0.17780603845E+03  0.12508298738E+03 0.  0.
          5    1    3    3  502    0 -0.33789084833E+01  0.59898922038E+02 -0.19395569259E+02  0.63189859873E+02  0.41800000000E+01 0. -1.
         -5    1    3    3    0  502  0.33700442901E+01 -0.43498739239E+02 -0.10590513905E+03  0.11461617858E+03  0.41800000000E+01 0. -1.
        -11    1    1    2    0    0 -0.41762197661E+02  0.81908012422E+01 -0.95877887022E+02  0.10489871114E+03  0.00000000000E+00 0.  1.
         11    1    1    2    0    0  0.41771061854E+02 -0.24590984041E+02 -0.61832964748E+02  0.78567510041E+02  0.00000000000E+00 0. -1.
</event>
<event>
 7    1  0.6833760E-006  0.2590381E+03  0.7561462E-02  0.1107723E+00
         -2   -1    0    0    0  501 -0.00000000000E+00  0.00000000000E+00  0.11315307931E+03  0.11315307931E+03  0.00000000000E+00 0.  1.
          2   -1    0    0  501    0  0.00000000000E+00 -0.00000000000E+00 -0.62148708990E+03  0.62148708990E+03  0.00000000000E+00 0. -1.
         23    2    1    2    0    0  0.22787592883E+03  0.74681761765E+02 -0.30580119289E+03  0.40824815851E+03  0.12508950745E+03 0.  0.
          5    1    3    3  502    0  0.42341320299E+02 -0.34609832763E+02 -0.55198694361E+02  0.77813856014E+02  0.41800000000E+01 0.  1.
         -5    1    3    3    0  502  0.18553460853E+03  0.10929159453E+03 -0.25060249853E+03  0.33043430250E+03  0.41800000000E+01 0.  1.
        -11    1    1    2    0    0 -0.92009894067E+01 -0.20649030510E+02  0.12480313802E+01  0.22640632707E+02  0.00000000000E+00 0.  1.
         11    1    1    2    0    0 -0.21867493943E+03 -0.54032731255E+02 -0.20378084908E+03  0.30375137799E+03  0.00000000000E+00 0. -1.
</event>
<event>
 7    1  0.6833760E-006  0.9207339E+02  0.7561462E-02  0.1297907E+00
          2   -1    0    0  501    0  0.00000000000E+00  0.00000000000E+00  0.46047902316E+02  0.46047902316E+02  0.00000000000E+00 0.  1.
         -2   -1    0    0    0  501 -0.00000000000E+00 -0.00000000000E+00 -0.32485184466E+03  0.32485184466E+03  0.00000000000E+00 0. -1.
         23    2    1    2    0    0  0.33174255357E+02 -0.39757051072E+02 -0.19331532664E+03  0.23600569429E+03  0.12508684141E+03 0.  0.
          5    1    3    3  502    0  0.51602669844E+02 -0.57181291542E+02 -0.53563687571E+02  0.93909939110E+02  0.41800000000E+01 0. -1.
         -5    1    3    3    0  502 -0.18428414487E+02  0.17424240470E+02 -0.13975163907E+03  0.14209575518E+03  0.41800000000E+01 0. -1.
        -11    1    1    2    0    0  0.12329210673E+02 -0.85031997200E+01  0.10447234441E+02  0.18260847427E+02  0.00000000000E+00 0.  1.
         11    1    1    2    0    0 -0.45503466030E+02  0.48260250792E+02 -0.95935850142E+02  0.11663320526E+03  0.00000000000E+00 0. -1.
</event>
<event>
 7    1  0.6833760E-006  0.9807842E+02  0.7561462E-02  0.1284389E+00
         -2   -1    0    0    0  501 -0.00000000000E+00  0.00000000000E+00  0.46582218735E+02  0.46582218735E+02  0.00000000000E+00 0.  1.
          2   -1    0    0  501    0  0.00000000000E+00 -0.00000000000E+00 -0.25085144269E+03  0.25085144269E+03  0.00000000000E+00 0. -1.
         23    2    1    2    0    0 -0.87602606844E+00  0.97537869936E+01 -0.11372617413E+03  0.16934192245E+03  0.12508852959E+03 0.  0.
          5    1    3    3  502    0  0.43785273590E+02 -0.36031748452E+02 -0.76174289621E+02  0.95054888770E+02  0.41800000000E+01 0.  1.
         -5    1    3    3    0  502 -0.44661299658E+02  0.45785535445E+02 -0.37551884506E+02  0.74287033681E+02  0.41800000000E+01 0.  1.
        -11    1    1    2    0    0  0.17521674148E+02 -0.38321796537E+02 -0.13489723290E+02  0.44244115871E+02  0.00000000000E+00 0.  1.
         11    1    1    2    0    0 -0.16645648079E+02  0.28568009544E+02 -0.77053326542E+02  0.83847623106E+02  0.00000000000E+00 0. -1.
</event>
<event>
 7    1  0.6833760E-006  0.7580279E+02  0.7561462E-02  0.1341403E+00
         -2   -1    0    0    0  501 -0.00000000000E+00  0.00000000000E+00  0.14775985693E+03  0.14775985693E+03  0.00000000000E+00 0.  1.
          2   -1    0    0  501    0  0.00000000000E+00 -0.00000000000E+00 -0.11018311807E+03  0.11018311807E+03  0.00000000000E+00 0. -1.
         23    2    1    2    0    0 -0.44865184224E+01  0.26251883113E+02  0.75224387173E+02  0.14837270561E+03  0.12508581506E+03 0.  0.
          5    1    3    3  502    0 -0.62566393986E+01 -0.11345960118E+02 -0.31936261338E+02  0.34717049642E+02  0.41800000000E+01 0.  1.
         -5    1    3    3    0  502  0.17701209762E+01  0.37597843232E+02  0.10716064851E+03  0.11365565597E+03  0.41800000000E+01 0.  1.
        -11    1    1    2    0    0 -0.19649818692E+02  0.31726487562E+02 -0.20355426206E+01  0.37374173187E+02  0.00000000000E+00 0. -1.
         11    1    1    2    0    0  0.24136337114E+02 -0.57978370675E+02 -0.35612105688E+02  0.72196096203E+02  0.00000000000E+00 0.  1.
</event>
<event>
 7    1  0.6833760E-006  0.1472937E+03  0.7561462E-02  0.1203838E+00
         -2   -1    0    0    0  501 -0.00000000000E+00  0.00000000000E+00  0.47456552670E+03  0.47456552670E+03  0.00000000000E+00 0.  1.
          2   -1    0    0  501    0  0.00000000000E+00 -0.00000000000E+00 -0.10245724621E+03  0.10245724621E+03  0.00000000000E+00 0. -1.
         23    2    1    2    0    0 -0.14059304541E+03  0.50310353720E+00  0.36220654785E+03  0.40817656845E+03  0.12509144733E+03 0.  0.
          5    1    3    3  502    0 -0.99272915320E+02 -0.38086247117E+00  0.94025614713E+02  0.13679746121E+03  0.41800000000E+01 0. -1.
         -5    1    3    3    0  502 -0.41320130090E+02  0.88396600837E+00  0.26818093313E+03  0.27137910723E+03  0.41800000000E+01 0. -1.
        -11    1    1    2    0    0  0.44647107228E+02 -0.29429300354E+02 -0.29612446129E+02  0.61125648208E+02  0.00000000000E+00 0. -1.
         11    1    1    2    0    0  0.95945938182E+02  0.28926196817E+02  0.39514178775E+02  0.10772055626E+03  0.00000000000E+00 0.  1.
</event>
<event>
 7    1  0.6833760E-006  0.1202730E+03  0.7561462E-02  0.1242647E+00
          4   -1    0    0  501    0  0.00000000000E+00  0.00000000000E+00  0.19940343174E+02  0.19940343174E+02  0.00000000000E+00 0. -1.
         -4   -1    0    0    0  501 -0.00000000000E+00 -0.00000000000E+00 -0.77001578612E+03  0.77001578612E+03  0.00000000000E+00 0.  1.
         23    2    1    2    0    0  0.27442323724E+01 -0.54553675899E+02 -0.49573926136E+03  0.51418759088E+03  0.12509128264E+03 0.  0.
          5    1    3    3  502    0 -0.59098428865E+02 -0.35983221204E+02 -0.20739345365E+03  0.21867083372E+03  0.41800000000E+01 0. -1.
         -5    1    3    3    0  502  0.61842661238E+02 -0.18570454694E+02 -0.28834580771E+03  0.29551675716E+03  0.41800000000E+01 0. -1.
        -11    1    1    2    0    0  0.81553014755E+01  0.79176497409E+02 -0.19421676453E+03  0.20989420742E+03  0.00000000000E+00 0. -1.
         11    1    1    2    0    0 -0.10899533848E+02 -0.24622821510E+02 -0.60119417061E+02  0.65874331002E+02  0.00000000000E+00 0.  1.
</event>
<event>
 7    1  0.6833760E-006  0.8079055E+02  0.7561462E-02  0.1326823E+00
         -1   -1    0    0    0  501 -0.00000000000E+00  0.00000000000E+00  0.55682703508E+02  0.55682703508E+02  0.00000000000E+00 0.  1.
          1   -1    0    0  501    0  0.00000000000E+00 -0.00000000000E+00 -0.29458957125E+03  0.29458957125E+03  0.00000000000E+00 0. -1.
         23    2    1    2    0    0 -0.41628449741E+02 -0.27916456781E+02 -0.75248174911E+02  0.15434039317E+03  0.12508562167E+03 0.  0.
          5    1    3    3  502    0  0.85720891943E+01 -0.44028381946E+02  0.16882110680E+02  0.48108805752E+02  0.41800000000E+01 0. -1.
         -5    1    3    3    0  502 -0.50200538936E+02  0.16111925165E+02 -0.92130285590E+02  0.10623158742E+03  0.41800000000E+01 0. -1.
        -11    1    1    2    0    0  0.97260493554E+01 -0.10095341573E+02  0.87489239143E+01  0.16524394912E+02  0.00000000000E+00 0.  1.
         11    1    1    2    0    0  0.31902400386E+02  0.38011798354E+02 -0.17240761675E+03  0.17940748668E+03  0.00000000000E+00 0. -1.
</event>
<event>
 7    1  0.6833760E-006  0.1816730E+03  0.7561462E-02  0.1166194E+00
          1   -1    0    0  501    0  0.00000000000E+00  0.00000000000E+00  0.87217598261E+03  0.87217598261E+03  0.00000000000E+00 0. -1.
         -1   -1    0    0    0  501 -0.00000000000E+00 -0.00000000000E+00 -0.40160489311E+02  0.40160489311E+02  0.00000000000E+00 0.  1.
         23    2    1    2    0    0 -0.15186138082E+03 -0.44743883286E+01  0.37696817792E+03  0.42524651016E+03  0.12509071950E+03 0.  0.
          5    1    3    3  502    0 -0.51349875295E+02  0.52858953794E+02  0.20541182583E+03  0.21827132034E+03  0.41800000000E+01 0.  1.
         -5    1    3    3    0  502 -0.10051150553E+03 -0.57333342123E+02  0.17155635209E+03  0.20697518983E+03  0.41800000000E+01 0.  1.
        -11    1    1    2    0    0  0.24770293193E+01 -0.21908162938E+02  0.56563413705E+02  0.60708508856E+02  0.00000000000E+00 0.  1.
         11    1    1    2    0    0  0.14938435150E+03  0.26382551266E+02  0.39848390168E+03  0.42638145290E+03  0.00000000000E+00 0. -1.
</event>
<event>
 7    1  0.6833760E-006  0.1677186E+03  0.7561462E-02  0.1180248E+00
          3   -1    0    0  501    0  0.00000000000E+00  0.00000000000E+00  0.17602750242E+03  0.17602750242E+03  0.00000000000E+00 0. -1.
         -3   -1    0    0    0  501 -0.00000000000E+00 -0.00000000000E+00 -0.19337408569E+03  0.19337408569E+03  0.00000000000E+00 0.  1.
         23    2    1    2    0    0  0.14823226207E+03  0.24619898935E+01 -0.26122519346E+02  0.19573044832E+03  0.12509659256E+03 0.  0.
          5    1    3    3  502    0  0.98403898274E+02  0.49315281083E+02 -0.52858242478E+02  0.12217524439E+03  0.41800000000E+01 0.  1.
         -5    1    3    3    0  502  0.49828363793E+02 -0.46853291190E+02  0.26735723132E+02  0.73555203929E+02  0.41800000000E+01 0.  1.
        -11    1    1    2    0    0 -0.96718227965E+02  0.22829660767E+02 -0.30707901678E+02  0.10401242357E+03  0.00000000000E+00 0.  1.
         11    1    1    2    0    0 -0.51514034101E+02 -0.25291650660E+02  0.39483837756E+02  0.69658716227E+02  0.00000000000E+00 0. -1.
</event>
<event>
 7    1  0.6833760E-006  0.2080128E+03  0.7561462E-02  0.1143149E+00
          2   -1    0    0  501    0  0.00000000000E+00  0.00000000000E+00  0.14842475824E+04  0.14842475824E+04  0.00000000000E+00 0. -1.
         -2   -1    0    0    0  501 -0.00000000000E+00 -0.00000000000E+00 -0.38373525765E+02  0.38373525765E+02  0.00000000000E+00 0.  1.
         23    2    1    2    0    0  0.19189020580E+03  0.51350224789E+02  0.50596260655E+03  0.55776704358E+03  0.12508884445E+03 0.  0.
          5    1    3    3  502    0  0.26487560530E+02  0.13569612344E+02  0.71761034641E+01  0.30898124586E+02  0.41800000000E+01 0.  1.
         -5    1    3    3    0  502  0.16540264527E+03  0.37780612445E+02  0.49878650309E+03  0.52686891899E+03  0.41800000000E+01 0.  1.
        -11    1    1    2    0    0 -0.18037474495E+03 -0.18349117136E+02  0.73834555602E+03  0.76028014495E+03  0.00000000000E+00 0. -1.
         11    1    1    2    0    0 -0.11515460845E+02 -0.33001107654E+02  0.20156589411E+03  0.20457391968E+03  0.00000000000E+00 0.  1.
</event>
<event>
 7    1  0.6833760E-006  0.1618821E+03  0.7561462E-02  0.1186588E+00
          1   -1    0    0  501    0  0.00000000000E+00  0.00000000000E+00  0.22752626669E+03  0.22752626669E+03  0.00000000000E+00 0. -1.
         -1   -1    0    0    0  501 -0.00000000000E+00 -0.00000000000E+00 -0.13354573316E+03  0.13354573316E+03  0.00000000000E+00 0.  1.
         23    2    1    2    0    0 -0.98480598780E+02  0.93537397748E+02  0.35287493682E+02  0.18798928715E+03  0.12508833582E+03 0.  0.
          5    1    3    3  502    0  0.13573897918E+02 -0.20325826955E+02  0.33540352402E+01  0.25022228088E+02  0.41800000000E+01 0. -1.
         -5    1    3    3    0  502 -0.11205449670E+03  0.11386322470E+03  0.31933458442E+02  0.16296705906E+03  0.41800000000E+01 0. -1.
        -11    1    1    2    0    0  0.25334486037E+02 -0.79031388879E+01  0.54227106364E+02  0.60372798938E+02  0.00000000000E+00 0. -1.
         11    1    1    2    0    0  0.73146112743E+02 -0.85634258860E+02  0.44659334869E+01  0.11270991377E+03  0.00000000000E+00 0.  1.
</event>
<event>
 7    1  0.6833760E-006  0.1136872E+03  0.7561462E-02  0.1253890E+00
         -2   -1    0    0    0  501 -0.00000000000E+00  0.00000000000E+00  0.30098753817E+03  0.30098753817E+03  0.00000000000E+00 0.  1.
          2   -1    0    0  501    0  0.00000000000E+00 -0.00000000000E+00 -0.70062786971E+02  0.70062786971E+02  0.00000000000E+00 0. -1.
         23    2    1    2    0    0  0.57374877061E+02  0.60910169756E+02  0.16644240229E+03  0.22439405764E+03  0.12509074516E+03 0.  0.
          5    1    3    3  502    0  0.29079296044E+02  0.89500525329E+02  0.15663803054E+03  0.18278100148E+03  0.41800000000E+01 0. -1.
         -5    1    3    3    0  502  0.28295581017E+02 -0.28590355573E+02  0.98043717501E+01  0.41613056152E+02  0.41800000000E+01 0. -1.
        -11    1    1    2    0    0  0.54574632069E+01 -0.11749268816E+02 -0.24151025598E+02  0.27406226661E+02  0.00000000000E+00 0. -1.
         11    1    1    2    0    0 -0.62832340268E+02 -0.49160900940E+02  0.88633374511E+02  0.11925004085E+03  0.00000000000E+00 0.  1.
</event>
<event>
 7    1  0.6833760E-006  0.1291252E+03  0.7561462E-02  0.1228760E+00
         -1   -1    0    0    0  501 -0.00000000000E+00  0.00000000000E+00  0.79075893281E+02  0.79075893281E+02  0.00000000000E+00 0.  1.
          1   -1    0    0  501    0  0.00000000000E+00 -0.00000000000E+00 -0.50789819574E+03  0.50789819574E+03  0.00000000000E+00 0. -1.
         23    2    1    2    0    0 -0.35437856390E+02 -0.76891946817E+02  0.10453901158E+01  0.14008287711E+03  0.11159707195E+03 0.  0.
          5    1    3    3  502    0  0.24551611419E+02  0.12992351330E+02 -0.13139489954E+02  0.31011311043E+02  0.41800000000E+01 0. -1.
         -5    1    3    3    0  502 -0.59989467809E+02 -0.89884298146E+02  0.14184880070E+02  0.10907156606E+03  0.41800000000E+01 0.  1.
        -11    1    1    2    0    0  0.64545315959E+02  0.44123598816E+02 -0.28610260337E+03  0.29659347505E+03  0.00000000000E+00 0. -1.
         11    1    1    2    0    0 -0.29107459570E+02  0.32768348001E+02 -0.14376508920E+03  0.15029773686E+03  0.00000000000E+00 0.  1.
</event>
<event>
 7    1  0.6833760E-006  0.2515508E+03  0.7561462E-02  0.1112329E+00
          1   -1    0    0  501    0  0.00000000000E+00  0.00000000000E+00  0.47146828514E+02  0.47146828514E+02  0.00000000000E+00 0. -1.
         -1   -1    0    0    0  501 -0.00000000000E+00 -0.00000000000E+00 -0.15010649526E+04  0.15010649526E+04  0.00000000000E+00 0.  1.
         23    2    1    2    0    0  0.18311349342E+03 -0.15019635065E+03 -0.58974060651E+03  0.64770782460E+03  0.12506777304E+03 0.  0.
          5    1    3    3  502    0  0.19160585163E+03 -0.16133075393E+03 -0.57368573983E+03  0.62599777558E+03  0.41800000000E+01 0. -1.
         -5    1    3    3    0  502 -0.84923582104E+01  0.11134403277E+02 -0.16054866678E+02  0.21710049018E+02  0.41800000000E+01 0. -1.
        -11    1    1    2    0    0 -0.11502262879E+03  0.79534254009E+02 -0.65063305429E+03  0.66549175354E+03  0.00000000000E+00 0.  1.
         11    1    1    2    0    0 -0.68090864635E+02  0.70662096644E+02 -0.21354446329E+03  0.23501220298E+03  0.00000000000E+00 0. -1.
</event>
<event>
 7    1  0.6833760E-006  0.9901089E+02  0.7561462E-02  0.1282390E+00
         -2   -1    0    0    0  501 -0.00000000000E+00  0.00000000000E+00  0.37804138594E+02  0.37804138594E+02  0.00000000000E+00 0.  1.
          2   -1    0    0  501    0  0.00000000000E+00 -0.00000000000E+00 -0.34014464818E+03  0.34014464818E+03  0.00000000000E+00 0. -1.
         23    2    1    2    0    0 -0.35203773967E+02 -0.26245817317E+02 -0.15430939266E+03  0.20343235171E+03  0.12508071168E+03 0.  0.
          5    1    3    3  502    0  0.43267712975E+01 -0.65253773675E+02 -0.41339976873E+02  0.77480591225E+02  0.41800000000E+01 0.  1.
         -5    1    3    3    0  502 -0.39530545265E+02  0.39007956358E+02 -0.11296941578E+03  0.12595176049E+03  0.41800000000E+01 0.  1.
        -11    1    1    2    0    0  0.18160767545E+02 -0.20295269931E+02 -0.10627215146E+03  0.10970634274E+03  0.00000000000E+00 0. -1.
         11    1    1    2    0    0  0.17043006422E+02  0.46541087248E+02 -0.41758965461E+02  0.64810092320E+02  0.00000000000E+00 0.  1.
</event>
<event>
 7    1  0.6833760E-006  0.1859977E+03  0.7561462E-02  0.1162121E+00
         -1   -1    0    0    0  501 -0.00000000000E+00  0.00000000000E+00  0.48253675992E+02  0.48253675992E+02  0.00000000000E+00 0.  1.
          1   -1    0    0  501    0  0.00000000000E+00 -0.00000000000E+00 -0.90232362295E+03  0.90232362295E+03  0.00000000000E+00 0. -1.
         23    2    1    2    0    0 -0.16296218678E+03  0.68123640598E+02 -0.40275560456E+03  0.45722853971E+03  0.12509338830E+03 0.  0.
          5    1    3    3  502    0 -0.39207428063E+02  0.15925759478E+02 -0.12256724466E+02  0.44255529879E+02  0.41800000000E+01 0.  1.
         -5    1    3    3    0  502 -0.12375475872E+03  0.52197881120E+02 -0.39049888009E+03  0.41297300983E+03  0.41800000000E+01 0.  1.
        -11    1    1    2    0    0  0.15597341198E+03 -0.84425506989E+02 -0.37255277295E+03  0.41261475992E+03  0.00000000000E+00 0. -1.
         11    1    1    2    0    0  0.69887747992E+01  0.16301866391E+02 -0.78761569460E+02  0.80733999312E+02  0.00000000000E+00 0.  1.
</event>
<event>
 7    1  0.6833760E-006  0.2150538E+03  0.7561462E-02  0.1137625E+00
          2   -1    0    0  501    0  0.00000000000E+00  0.00000000000E+00  0.11930685169E+03  0.11930685169E+03  0.00000000000E+00 0. -1.
         -2   -1    0    0    0  501 -0.00000000000E+00 -0.00000000000E+00 -0.40777519624E+03  0.40777519624E+03  0.00000000000E+00 0.  1.
         23    2    1    2    0    0  0.89378490144E+02 -0.16771276716E+03 -0.11645460162E+03  0.25558840502E+03  0.12509065421E+03 0.  0.
          5    1    3    3  502    0  0.11842849673E+03 -0.11393964671E+03 -0.69859745313E+02  0.17862085081E+03  0.41800000000E+01 0. -1.
         -5    1    3    3    0  502 -0.29050006587E+02 -0.53773120455E+02 -0.46594856309E+02  0.76967554207E+02  0.41800000000E+01 0. -1.
        -11    1    1    2    0    0 -0.67472408198E+02  0.48126772274E+02 -0.10117109374E+03  0.13078341747E+03  0.00000000000E+00 0. -1.
         11    1    1    2    0    0 -0.21906081946E+02  0.11958599489E+03 -0.70842649186E+02  0.14071022544E+03  0.00000000000E+00 0.  1.
</event>
<event>
 7    1  0.7714246E-005  0.4279349E+03  0.7561462E-02  0.1034514E+00
         -2   -1    0    0    0  501 -0.00000000000E+00  0.00000000000E+00  0.11233987450E+03  0.11233987450E+03  0.00000000000E+00 0.  1.
          2   -1    0    0  501    0  0.00000000000E+00 -0.00000000000E+00 -0.17098961253E+04  0.17098961253E+04  0.00000000000E+00 0. -1.
         23    2    1    2    0    0 -0.13013954152E+03 -0.40387755640E+03 -0.83574810161E+03  0.94561021462E+03  0.12510158995E+03 0.  0.
          5    1    3    3  502    0 -0.10733715884E+03 -0.36407267029E+03 -0.80562256710E+03  0.89057024874E+03  0.41800000000E+01 0. -1.
         -5    1    3    3    0  502 -0.22802382680E+02 -0.39804886109E+02 -0.30125534514E+02  0.55039965878E+02  0.41800000000E+01 0. -1.
        -11    1    1    2    0    0  0.61509963212E+02  0.29626780991E+03 -0.58424047978E+03  0.65794758832E+03  0.00000000000E+00 0.  1.
         11    1    1    2    0    0  0.68629578306E+02  0.10760974649E+03 -0.17756766937E+03  0.21867819682E+03  0.00000000000E+00 0. -1.
</event>
<event>
 7    1  0.6833760E-006  0.1608147E+03  0.7561462E-02  0.1187780E+00
          2   -1    0    0  501    0  0.00000000000E+00  0.00000000000E+00  0.10774265339E+04  0.10774265339E+04  0.00000000000E+00 0. -1.
         -2   -1    0    0    0  501 -0.00000000000E+00 -0.00000000000E+00 -0.28283827903E+02  0.28283827903E+02  0.00000000000E+00 0.  1.
         23    2    1    2    0    0  0.58970263458E+02  0.11711549410E+03  0.43002235090E+03  0.46664785883E+03  0.12508985152E+03 0.  0.
          5    1    3    3  502    0  0.96178538573E+02  0.10226144299E+03  0.34786731829E+03  0.37514911374E+03  0.41800000000E+01 0. -1.
         -5    1    3    3    0  502 -0.37208275115E+02  0.14854051108E+02  0.82155032602E+02  0.91498745091E+02  0.41800000000E+01 0. -1.
        -11    1    1    2    0    0 -0.35451760250E+02 -0.19434045147E+02  0.70087371978E+02  0.80911983825E+02  0.00000000000E+00 0.  1.
         11    1    1    2    0    0 -0.23518503208E+02 -0.97681448955E+02  0.54903298309E+03  0.55815051911E+03  0.00000000000E+00 0. -1.
</event>
<event>
 7    1  0.6833760E-006  0.1647128E+03  0.7561462E-02  0.1183476E+00
         -2   -1    0    0    0  501 -0.00000000000E+00  0.00000000000E+00  0.12532355206E+03  0.12532355206E+03  0.00000000000E+00 0.  1.
          2   -1    0    0  501    0  0.00000000000E+00 -0.00000000000E+00 -0.25844071728E+03  0.25844071728E+03  0.00000000000E+00 0. -1.
         23    2    1    2    0    0  0.13193058879E+03 -0.30238228089E+02 -0.19805471210E+02  0.18536378941E+03  0.12508975592E+03 0.  0.
          5    1    3    3  502    0  0.11377938003E+03 -0.70354799340E+02 -0.35439653726E+02  0.13845210929E+03  0.41800000000E+01 0.  1.
         -5    1    3    3    0  502  0.18151208753E+02  0.40116571251E+02  0.15634182516E+02  0.46911680113E+02  0.41800000000E+01 0.  1.
        -11    1    1    2    0    0 -0.50708323809E+02  0.46179052764E+02 -0.15587842111E+02  0.70333632349E+02  0.00000000000E+00 0.  1.
         11    1    1    2    0    0 -0.81222264979E+02 -0.15940824675E+02 -0.97723851901E+02  0.12806684758E+03  0.00000000000E+00 0. -1.
</event>
<event>
 7    1  0.6833760E-006  0.1918123E+03  0.7561462E-02  0.1156837E+00
          1   -1    0    0  501    0  0.00000000000E+00  0.00000000000E+00  0.96708645889E+03  0.96708645889E+03  0.00000000000E+00 0. -1.
         -1   -1    0    0    0  501 -0.00000000000E+00 -0.00000000000E+00 -0.55141369176E+02  0.55141369176E+02  0.00000000000E+00 0.  1.
         23    2    1    2    0    0 -0.48834533333E+02 -0.16774007100E+03  0.23551410825E+03  0.31880398247E+03  0.12509013146E+03 0.  0.
          5    1    3    3  502    0  0.11920272277E+02  0.13041138156E+02  0.47969895242E+02  0.51290812288E+02  0.41800000000E+01 0. -1.
         -5    1    3    3    0  502 -0.60754805610E+02 -0.18078120915E+03  0.18754421301E+03  0.26751317018E+03  0.41800000000E+01 0. -1.
        -11    1    1    2    0    0  0.28337627390E+02  0.98714575919E+02  0.53444984502E+03  0.54422810058E+03  0.00000000000E+00 0. -1.
         11    1    1    2    0    0  0.20496905943E+02  0.69025495080E+02  0.14198113644E+03  0.15919574501E+03  0.00000000000E+00 0.  1.
</event>
<event>
 6    1  0.6833760E-006  0.1320255E+03  0.7561462E-02  0.1224481E+00
          2   -1    0    0  501    0  0.00000000000E+00  0.00000000000E+00  0.71805200282E+02  0.71805200282E+02  0.00000000000E+00 0. -1.
         -2   -1    0    0    0  501 -0.00000000000E+00 -0.00000000000E+00 -0.26361279888E+03  0.26361279888E+03  0.00000000000E+00 0.  1.
          5    1    1    2  502    0 -0.96223944998E+02  0.43355926841E+02 -0.10340335307E+03  0.14781241426E+03  0.41800000000E+01 0. -1.
         -5    1    1    2    0  502  0.67803351969E+02 -0.82951030382E+02 -0.81668585648E+02  0.13477907204E+03  0.41800000000E+01 0.  1.
        -11    1    1    2    0    0  0.11294937073E+02  0.28875888905E+02  0.14199281647E+01  0.31038826646E+02  0.00000000000E+00 0.  1.
         11    1    1    2    0    0  0.17125655955E+02  0.10719214635E+02 -0.81555880533E+01  0.21787686219E+02  0.00000000000E+00 0. -1.
</event>
<event>
 7    1  0.6833760E-006  0.1391132E+03  0.7561462E-02  0.1214527E+00
         -2   -1    0    0    0  501 -0.00000000000E+00  0.00000000000E+00  0.87190536107E+02  0.87190536107E+02  0.00000000000E+00 0.  1.
          2   -1    0    0  501    0  0.00000000000E+00 -0.00000000000E+00 -0.25995542536E+03  0.25995542536E+03  0.00000000000E+00 0. -1.
         23    2    1    2    0    0 -0.90275932237E+02 -0.33738972737E+02 -0.44161294325E+02  0.16396085616E+03  0.12507949558E+03 0.  0.
          5    1    3    3  502    0 -0.12173870048E+03 -0.27153599546E+02 -0.28751813066E+02  0.12806938868E+03  0.41800000000E+01 0. -1.
         -5    1    3    3    0  502  0.31462768240E+02 -0.65853731917E+01 -0.15409481259E+02  0.35891467482E+02  0.41800000000E+01 0. -1.
        -11    1    1    2    0    0  0.39621972899E+02  0.53555209467E+02 -0.35831474401E+02  0.75643610141E+02  0.00000000000E+00 0.  1.
         11    1    1    2    0    0  0.50653959338E+02 -0.19816236730E+02 -0.92772120525E+02  0.10754149516E+03  0.00000000000E+00 0. -1.
</event>
<event>
 7    1  0.6833760E-006  0.1007356E+03  0.7561462E-02  0.1278757E+00
          2   -1    0    0  501    0  0.00000000000E+00  0.00000000000E+00  0.18504489493E+03  0.18504489493E+03  0.00000000000E+00 0.  1.
         -2   -1    0    0    0  501 -0.00000000000E+00 -0.00000000000E+00 -0.65693711310E+02  0.65693711310E+02  0.00000000000E+00 0. -1.
         23    2    1    2    0    0  0.78075796551E+01  0.19264423743E+01  0.49843500425E+02  0.13489604224E+03  0.12509155926E+03 0.  0.
          5    1    3    3  502    0 -0.34262781739E+02 -0.46866154935E+02  0.37290324800E+02  0.69126083461E+02  0.41800000000E+01 0. -1.
         -5    1    3    3    0  502  0.42070361395E+02  0.48792597310E+02  0.12553175625E+02  0.65769958783E+02  0.41800000000E+01 0. -1.
        -11    1    1    2    0    0  0.35244641595E+02 -0.47356368968E+01  0.62815169047E+02  0.72182799062E+02  0.00000000000E+00 0.  1.
         11    1    1    2    0    0 -0.43052221250E+02  0.28091945225E+01  0.66925141459E+01  0.43659764933E+02  0.00000000000E+00 0. -1.
</event>
<event>
 7    1  0.6833760E-006  0.2316026E+03  0.7561462E-02  0.1125517E+00
          2   -1    0    0  501    0  0.00000000000E+00  0.00000000000E+00  0.13296870066E+04  0.13296870066E+04  0.00000000000E+00 0. -1.
         -2   -1    0    0    0  501 -0.00000000000E+00 -0.00000000000E+00 -0.50029021362E+02  0.50029021362E+02  0.00000000000E+00 0.  1.
         23    2    1    2    0    0  0.10144431017E+03 -0.19226924279E+03  0.42915032618E+03  0.49706709604E+03  0.12508911108E+03 0.  0.
          5    1    3    3  502    0  0.19592796102E+02 -0.14922358103E+03  0.32201943535E+03  0.35547931577E+03  0.41800000000E+01 0. -1.
         -5    1    3    3    0  502  0.81851514065E+02 -0.43045661761E+02  0.10713089083E+03  0.14158778027E+03  0.41800000000E+01 0. -1.
        -11    1    1    2    0    0 -0.32056549283E+02  0.97343127928E+02  0.55906131763E+03  0.56837739555E+03  0.00000000000E+00 0.  1.
         11    1    1    2    0    0 -0.69387760884E+02  0.94926114866E+02  0.29144634146E+03  0.31427153640E+03  0.00000000000E+00 0. -1.
</event>
<event>
 7    1  0.6833760E-006  0.2456781E+03  0.7561462E-02  0.1116067E+00
         -1   -1    0    0    0  501 -0.00000000000E+00  0.00000000000E+00  0.11629654748E+03  0.11629654748E+03  0.00000000000E+00 0.  1.
          1   -1    0    0  501    0  0.00000000000E+00 -0.00000000000E+00 -0.58874623232E+03  0.58874623232E+03  0.00000000000E+00 0. -1.
         23    2    1    2    0    0 -0.33372104779E+02  0.23161391427E+03 -0.18624123383E+03  0.32479509131E+03  0.12667814137E+03 0.  0.
          5    1    3    3  502    0 -0.31025231435E+02  0.17828208964E+02 -0.76235809958E+02  0.84319518146E+02  0.41800000000E+01 0.  1.
         -5    1    3    3    0  502 -0.23468733437E+01  0.21378570531E+03 -0.11000542387E+03  0.24047557316E+03  0.41800000000E+01 0.  1.
        -11    1    1    2    0    0 -0.41338955243E+01 -0.16493719747E+03 -0.14501241060E+03  0.21965875222E+03  0.00000000000E+00 0.  1.
         11    1    1    2    0    0  0.37506000303E+02 -0.66676716806E+02 -0.14119604042E+03  0.16058893627E+03  0.00000000000E+00 0. -1.
</event>
<event>
 7    1  0.6833760E-006  0.1284000E+03  0.7561462E-02  0.1229849E+00
         -1   -1    0    0    0  501 -0.00000000000E+00  0.00000000000E+00  0.55269567090E+03  0.55269567090E+03  0.00000000000E+00 0.  1.
          1   -1    0    0  501    0  0.00000000000E+00 -0.00000000000E+00 -0.49305693751E+02  0.49305693751E+02  0.00000000000E+00 0. -1.
         23    2    1    2    0    0  0.11012442120E+03 -0.26493602396E+02  0.36148981613E+03  0.39893799678E+03  0.12508932408E+03 0.  0.
          5    1    3    3  502    0  0.80002681223E+02 -0.10941023633E+02  0.35509981243E+03  0.36418880294E+03  0.41800000000E+01 0.  1.
         -5    1    3    3    0  502  0.30121739973E+02 -0.15552578763E+02  0.63900036981E+01  0.34749193839E+02  0.41800000000E+01 0.  1.
        -11    1    1    2    0    0 -0.11200054239E+03 -0.31891553896E+01  0.92021892310E+02  0.14499076133E+03  0.00000000000E+00 0.  1.
         11    1    1    2    0    0  0.18761211924E+01  0.29682757786E+02  0.49878268707E+02  0.58072606535E+02  0.00000000000E+00 0. -1.
</event>
<event>
 7    1  0.6833760E-006  0.1180669E+03  0.7561462E-02  0.1246321E+00
         -2   -1    0    0    0  501 -0.00000000000E+00  0.00000000000E+00  0.36702128697E+02  0.36702128697E+02  0.00000000000E+00 0.  1.
          2   -1    0    0  501    0  0.00000000000E+00 -0.00000000000E+00 -0.48975388794E+03  0.48975388794E+03  0.00000000000E+00 0. -1.
         23    2    1    2    0    0  0.16258917591E+02  0.64039318713E+02 -0.16462479706E+03  0.21705918454E+03  0.12509188240E+03 0.  0.
          5    1    3    3  502    0 -0.24668684216E+00 -0.29177449480E+02 -0.29008521316E+01  0.29618773703E+02  0.41800000000E+01 0. -1.
         -5    1    3    3    0  502  0.16505604433E+02  0.93216768193E+02 -0.16172394493E+03  0.18744041084E+03  0.41800000000E+01 0. -1.
        -11    1    1    2    0    0 -0.53206660005E+02 -0.27332399012E+02 -0.14882689873E+03  0.16039780077E+03  0.00000000000E+00 0. -1.
         11    1    1    2    0    0  0.36947742414E+02 -0.36706919701E+02 -0.13960006345E+03  0.14899903133E+03  0.00000000000E+00 0.  1.
</event>
<event>
 7    1  0.6833760E-006  0.9455171E+02  0.7561462E-02  0.1292189E+00
          1   -1    0    0  501    0  0.00000000000E+00  0.00000000000E+00  0.10035948174E+03  0.10035948174E+03  0.00000000000E+00 0. -1.
         -1   -1    0    0    0  501 -0.00000000000E+00 -0.00000000000E+00 -0.14655367686E+03  0.14655367686E+03  0.00000000000E+00 0.  1.
         23    2    1    2    0    0 -0.35911001192E+02  0.32554928270E+02 -0.50493604998E+02  0.14334510999E+03  0.12509513600E+03 0.  0.
          5    1    3    3  502    0  0.12915596916E+02  0.40311900138E+02 -0.76347915862E+02  0.87397589170E+02  0.41800000000E+01 0.  1.
         -5    1    3    3    0  502 -0.48826598108E+02 -0.77569718677E+01  0.25854310863E+02  0.55947520817E+02  0.41800000000E+01 0.  1.
        -11    1    1    2    0    0  0.62938926543E+02 -0.14931486288E+02  0.19969573976E+02  0.67698165721E+02  0.00000000000E+00 0. -1.
         11    1    1    2    0    0 -0.27027925351E+02 -0.17623441982E+02 -0.15670164092E+02  0.35869882893E+02  0.00000000000E+00 0.  1.
</event>
<event>
 7    1  0.6833760E-006  0.6913939E+02  0.7561462E-02  0.1363044E+00
         -2   -1    0    0    0  501 -0.00000000000E+00  0.00000000000E+00  0.45654412703E+02  0.45654412703E+02  0.00000000000E+00 0.  1.
          2   -1    0    0  501    0  0.00000000000E+00 -0.00000000000E+00 -0.28926035512E+03  0.28926035512E+03  0.00000000000E+00 0. -1.
         23    2    1    2    0    0  0.95495966978E+01 -0.35467926694E+02 -0.12914988784E+03  0.18351021706E+03  0.12508851912E+03 0.  0.
          5    1    3    3  502    0 -0.27791759892E+02 -0.50718685711E+02 -0.13064104225E+03  0.14293117686E+03  0.41800000000E+01 0. -1.
         -5    1    3    3    0  502  0.37341356589E+02  0.15250759017E+02  0.14911544085E+01  0.40579040206E+02  0.41800000000E+01 0. -1.
        -11    1    1    2    0    0 -0.11561775082E+02  0.13896532168E+02  0.12906898595E+02  0.22212075110E+02  0.00000000000E+00 0.  1.
         11    1    1    2    0    0  0.20121783844E+01  0.21571394526E+02 -0.12736295317E+03  0.12919247565E+03  0.00000000000E+00 0. -1.
</event>
<event>
 7    1  0.6833760E-006  0.8133963E+02  0.7561462E-02  0.1325292E+00
         -1   -1    0    0    0  501 -0.00000000000E+00  0.00000000000E+00  0.66821993990E+02  0.66821993990E+02  0.00000000000E+00 0.  1.
          1   -1    0    0  501    0  0.00000000000E+00 -0.00000000000E+00 -0.21816630164E+03  0.21816630164E+03  0.00000000000E+00 0. -1.
         23    2    1    2    0    0  0.39670720490E+01 -0.42604216821E+02 -0.47983741667E+02  0.14064703431E+03  0.12509313268E+03 0.  0.
          5    1    3    3  502    0  0.75759996092E+01  0.75881464634E+01  0.38674413277E+02  0.40350444597E+02  0.41800000000E+01 0.  1.
         -5    1    3    3    0  502 -0.36089275602E+01 -0.50192363285E+02 -0.86658154944E+02  0.10029658972E+03  0.41800000000E+01 0.  1.
        -11    1    1    2    0    0  0.24901536343E+02  0.61379469617E+02 -0.70652539280E+02  0.96846822918E+02  0.00000000000E+00 0. -1.
         11    1    1    2    0    0 -0.28868608392E+02 -0.18775252795E+02 -0.32708026700E+02  0.47494438397E+02  0.00000000000E+00 0.  1.
</event>
<event>
 7    1  0.6833760E-006  0.1713504E+03  0.7561462E-02  0.1176447E+00
          3   -1    0    0  501    0  0.00000000000E+00  0.00000000000E+00  0.22381226164E+03  0.22381226164E+03  0.00000000000E+00 0. -1.
         -3   -1    0    0    0  501 -0.00000000000E+00 -0.00000000000E+00 -0.16955786545E+03  0.16955786545E+03  0.00000000000E+00 0.  1.
         23    2    1    2    0    0 -0.79303935837E+02 -0.12952143897E+03 -0.25966001606E+02  0.19845802618E+03  0.12508572071E+03 0.  0.
          5    1    3    3  502    0 -0.21935231920E+02 -0.11942666003E+03 -0.54852295658E+02  0.13330464457E+03  0.41800000000E+01 0. -1.
         -5    1    3    3    0  502 -0.57368703917E+02 -0.10094778936E+02  0.28886294052E+02  0.65153381608E+02  0.41800000000E+01 0. -1.
        -11    1    1    2    0    0  0.24551129626E+01  0.57276448930E+02  0.67674551421E+02  0.88693089312E+02  0.00000000000E+00 0. -1.
         11    1    1    2    0    0  0.76848822874E+02  0.72244990040E+02  0.12545846366E+02  0.10621901159E+03  0.00000000000E+00 0.  1.
</event>
<event>
 7    1  0.6833760E-006  0.1518487E+03  0.7561462E-02  0.1198220E+00
         -2   -1    0    0    0  501 -0.00000000000E+00  0.00000000000E+00  0.22599021931E+03  0.22599021931E+03  0.00000000000E+00 0.  1.
          2   -1    0    0  501    0  0.00000000000E+00 -0.00000000000E+00 -0.14550995502E+03  0.14550995502E+03  0.00000000000E+00 0. -1.
         23    2    1    2    0    0 -0.23564677458E+02  0.11243465390E+03  0.13013912812E+03  0.21524620766E+03  0.12727093865E+03 0.  0.
          5    1    3    3  502    0  0.32143321121E+02  0.11076204287E+03  0.83392217526E+02  0.14238383889E+03  0.41800000000E+01 0. -1.
         -5    1    3    3    0  502 -0.55707998579E+02  0.16726110315E+01  0.46746910592E+02  0.72862368773E+02  0.41800000000E+01 0.  1.
        -11    1    1    2    0    0  0.45276850828E+02 -0.56526719725E+02 -0.61627083159E+02  0.95095534293E+02  0.00000000000E+00 0. -1.
         11    1    1    2    0    0 -0.21712173370E+02 -0.55907934176E+02  0.11968219324E+02  0.61158432371E+02  0.00000000000E+00 0.  1.
</event>
<event>
 7    1  0.6833760E-006  0.1132881E+03  0.7561462E-02  0.1254599E+00
         -2   -1    0    0    0  501 -0.00000000000E+00  0.00000000000E+00  0.83166934459E+02  0.83166934459E+02  0.00000000000E+00 0.  1.
          2   -1    0    0  501    0  0.00000000000E+00 -0.00000000000E+00 -0.24112037104E+03  0.24112037104E+03  0.00000000000E+00 0. -1.
         23    2    1    2    0    0 -0.24944847506E+02  0.26446085192E+02  0.97572608867E+01  0.13063365082E+03  0.12509318825E+03 0.  0.
          5    1    3    3  502    0 -0.16058123936E+02 -0.50196403205E+02  0.10810749197E+01  0.52878950085E+02  0.41800000000E+01 0.  1.
         -5    1    3    3    0  502 -0.88867235699E+01  0.76642488397E+02  0.86761859670E+01  0.77754700735E+02  0.41800000000E+01 0.  1.
        -11    1    1    2    0    0  0.15082374012E+01 -0.57507854600E+02 -0.91452159695E+02  0.10804131448E+03  0.00000000000E+00 0.  1.
         11    1    1    2    0    0  0.23436610105E+02  0.31061769408E+02 -0.76258537771E+02  0.85612340202E+02  0.00000000000E+00 0. -1.
</event>
<event>
 7    1  0.6833760E-006  0.9490106E+02  0.7561462E-02  0.1291399E+00
          1   -1    0    0  501    0  0.00000000000E+00  0.00000000000E+00  0.16651335163E+03  0.16651335163E+03  0.00000000000E+00 0. -1.
         -1   -1    0    0    0  501 -0.00000000000E+00 -0.00000000000E+00 -0.96463840241E+02  0.96463840241E+02  0.00000000000E+00 0.  1.
         23    2    1    2    0    0  0.51688435367E+01 -0.22526069520E+02 -0.35754527217E+02  0.12122992511E+03  0.11350844803E+03 0.  0.
          5    1    3    3  502    0 -0.48630029252E+02  0.42450089757E+01 -0.36324242925E+02  0.60990350633E+02  0.41800000000E+01 0. -1.
         -5    1    3    3    0  502  0.53798872789E+02 -0.26771078496E+02  0.56971570838E+00  0.60239574477E+02  0.41800000000E+01 0.  1.
        -11    1    1    2    0    0  0.12793037550E+02  0.47846502604E+02  0.97896254322E+02  0.10971155924E+03  0.00000000000E+00 0. -1.
         11    1    1    2    0    0 -0.17961881087E+02 -0.25320433084E+02  0.79077842792E+01  0.32035707514E+02  0.00000000000E+00 0.  1.
</event>
<event>
 7    1  0.6833760E-006  0.1151428E+03  0.7561462E-02  0.1251332E+00
         -2   -1    0    0    0  501 -0.00000000000E+00  0.00000000000E+00  0.28533443042E+03  0.28533443042E+03  0.00000000000E+00 0.  1.
          2   -1    0    0  501    0  0.00000000000E+00 -0.00000000000E+00 -0.60805812561E+02  0.60805812561E+02  0.00000000000E+00 0. -1.
         23    2    1    2    0    0  0.28761554711E+02 -0.38200476746E+02  0.19823750358E+03  0.23923400558E+03  0.12509315787E+03 0.  0.
          5    1    3    3  502    0  0.37373880077E+02  0.38684829189E+02  0.10463182910E+03  0.11772261882E+03  0.41800000000E+01 0.  1.
         -5    1    3    3    0  502 -0.86123253663E+01 -0.76885305935E+02  0.93605674480E+02  0.12151138676E+03  0.41800000000E+01 0.  1.
        -11    1    1    2    0    0 -0.22977361574E+02 -0.25825844642E+02 -0.58057646987E+01  0.35051965710E+02  0.00000000000E+00 0. -1.
         11    1    1    2    0    0 -0.57841931371E+01  0.64026321388E+02  0.32096878984E+02  0.71854271698E+02  0.00000000000E+00 0.  1.
</event>
<event>
 7    1  0.6833760E-006  0.1156585E+03  0.7561462E-02  0.1250436E+00
          1   -1    0    0  501    0  0.00000000000E+00  0.00000000000E+00  0.53021488296E+02  0.53021488296E+02  0.00000000000E+00 0. -1.
         -1   -1    0    0    0  501 -0.00000000000E+00 -0.00000000000E+00 -0.33620859124E+03  0.33620859124E+03  0.00000000000E+00 0.  1.
         23    2    1    2    0    0  0.44124441598E+02  0.48357072939E+02 -0.21492969985E+03  0.25715054049E+03  0.12508497810E+03 0.  0.
          5    1    3    3  502    0  0.22037632793E+02 -0.32544270368E+02 -0.13701981342E+03  0.14260676163E+03  0.41800000000E+01 0.  1.
         -5    1    3    3    0  502  0.22086808805E+02  0.80901343307E+02 -0.77909886430E+02  0.11454377886E+03  0.41800000000E+01 0.  1.
        -11    1    1    2    0    0 -0.22577767319E+02 -0.72224243493E+02 -0.65009888102E+02  0.99761628276E+02  0.00000000000E+00 0. -1.
         11    1    1    2    0    0 -0.21546674279E+02  0.23867170554E+02 -0.32475149895E+01  0.32317910767E+02  0.00000000000E+00 0.  1.
</event>
<event>
 7    1  0.6833760E-006  0.9875042E+02  0.7561462E-02  0.1282946E+00
         -1   -1    0    0    0  501 -0.00000000000E+00  0.00000000000E+00  0.33033931628E+02  0.33033931628E+02  0.00000000000E+00 0.  1.
          1   -1    0    0  501    0  0.00000000000E+00 -0.00000000000E+00 -0.40957800588E+03  0.40957800588E+03  0.00000000000E+00 0. -1.
         23    2    1    2    0    0  0.34373022501E+01 -0.16330715163E+02 -0.13938875956E+03  0.18803296395E+03  0.12509461193E+03 0.  0.
          5    1    3    3  502    0  0.63485260477E+02 -0.83977803165E+01 -0.85115079402E+02  0.10659713952E+03  0.41800000000E+01 0.  1.
         -5    1    3    3    0  502 -0.60047958227E+02 -0.79329348467E+01 -0.54273680157E+02  0.81435824428E+02  0.41800000000E+01 0.  1.
        -11    1    1    2    0    0 -0.43301118426E+01 -0.27969809342E+02 -0.24740540475E+02  0.37591946560E+02  0.00000000000E+00 0.  1.
         11    1    1    2    0    0  0.89280959243E+00  0.44300524505E+02 -0.21241477421E+03  0.21698702700E+03  0.00000000000E+00 0. -1.
</event>
<event>
 7    1  0.6833760E-006  0.1141497E+03  0.7561462E-02  0.1253073E+00
         -4   -1    0    0    0  501 -0.00000000000E+00  0.00000000000E+00  0.37200425881E+02  0.37200425881E+02  0.00000000000E+00 0.  1.
          4   -1    0    0  501    0  0.00000000000E+00 -0.00000000000E+00 -0.44524540671E+03  0.44524540671E+03  0.00000000000E+00 0. -1.
         23    2    1    2    0    0 -0.93589606882E+01 -0.71719553333E+02 -0.21029311985E+03  0.25514770513E+03  0.12508345494E+03 0.  0.
          5    1    3    3  502    0  0.43580919123E+01 -0.10642823135E+03 -0.14764094655E+03  0.18210239672E+03  0.41800000000E+01 0.  1.
         -5    1    3    3    0  502 -0.13717052600E+02  0.34708678013E+02 -0.62652173307E+02  0.73045308416E+02  0.41800000000E+01 0.  1.
        -11    1    1    2    0    0 -0.11774034034E+02  0.57455082721E+02 -0.19253986401E+03  0.20127422498E+03  0.00000000000E+00 0. -1.
         11    1    1    2    0    0  0.21132994723E+02  0.14264470612E+02 -0.52119969617E+01  0.26023902477E+02  0.00000000000E+00 0.  1.
</event>
<event>
 7    1  0.6833760E-006  0.1518398E+03  0.7561462E-02  0.1198230E+00
          2   -1    0    0  501    0  0.00000000000E+00  0.00000000000E+00  0.52545471631E+03  0.52545471631E+03  0.00000000000E+00 0. -1.
         -2   -1    0    0    0  501 -0.00000000000E+00 -0.00000000000E+00 -0.56644341279E+02  0.56644341279E+02  0.00000000000E+00 0.  1.
         23    2    1    2    0    0  0.33009715149E+02  0.12485088584E+03  0.19524715993E+03  0.26541748804E+03  0.12509038535E+03 0.  0.
          5    1    3    3  502    0  0.42256350631E+02  0.28935891510E+02  0.43872450122E+01  0.51571361286E+02  0.41800000000E+01 0.  1.
         -5    1    3    3    0  502 -0.92466354822E+01  0.95914994329E+02  0.19085991492E+03  0.21384612675E+03  0.41800000000E+01 0.  1.
        -11    1    1    2    0    0 -0.62380330164E+02 -0.71043941953E+02  0.19772651706E+03  0.21916733978E+03  0.00000000000E+00 0. -1.
         11    1    1    2    0    0  0.29370615016E+02 -0.53806943887E+02  0.75836698042E+02  0.97514229765E+02  0.00000000000E+00 0.  1.
</event>
<event>
 7    1  0.6833760E-006  0.1466910E+03  0.7561462E-02  0.1204599E+00
          2   -1    0    0  501    0  0.00000000000E+00  0.00000000000E+00  0.45605046059E+03  0.45605046059E+03  0.00000000000E+00 0. -1.
         -2   -1    0    0    0  501 -0.00000000000E+00 -0.00000000000E+00 -0.60062144411E+02  0.60062144411E+02  0.00000000000E+00 0.  1.
         23    2    1    2    0    0 -0.35921814001E+02 -0.11897698067E+03  0.19398931303E+03  0.26215512694E+03  0.12509020088E+03 0.  0.
          5    1    3    3  502    0  0.41729520202E+02 -0.48236976042E+02  0.11152988994E+03  0.12854784115E+03  0.41800000000E+01 0. -1.
         -5    1    3    3    0  502 -0.77651334203E+02 -0.70740004631E+02  0.82459423096E+02  0.13360728579E+03  0.41800000000E+01 0. -1.
        -11    1    1    2    0    0  0.35066892968E+01  0.15980632377E+02 -0.77072004568E+01  0.18085309504E+02  0.00000000000E+00 0.  1.
         11    1    1    2    0    0  0.32415124704E+02  0.10299634830E+03  0.20970620360E+03  0.23587216856E+03  0.00000000000E+00 0. -1.
</event>
<event>
 7    1  0.6833760E-006  0.1366074E+03  0.7561462E-02  0.1217968E+00
          1   -1    0    0  501    0  0.00000000000E+00  0.00000000000E+00  0.17518754434E+03  0.17518754434E+03  0.00000000000E+00 0. -1.
         -1   -1    0    0    0  501 -0.00000000000E+00 -0.00000000000E+00 -0.11755517023E+03  0.11755517023E+03  0.00000000000E+00 0.  1.
         23    2    1    2    0    0  0.19438722604E+02 -0.89402758910E+02  0.21692920039E+02  0.15649741580E+03  0.12510052412E+03 0.  0.
          5    1    3    3  502    0  0.58004499170E+02 -0.88622975078E+02  0.40381730259E+02  0.11343152196E+03  0.41800000000E+01 0. -1.
         -5    1    3    3    0  502 -0.38565776567E+02 -0.77978383212E+00 -0.18688810220E+02  0.43065893843E+02  0.41800000000E+01 0. -1.
        -11    1    1    2    0    0 -0.55602450406E+02  0.48127662735E+02  0.34799769634E+02  0.81356796754E+02  0.00000000000E+00 0.  1.
         11    1    1    2    0    0  0.36163727803E+02  0.41275096175E+02  0.11396844364E+01  0.54888502015E+02  0.00000000000E+00 0. -1.
</event>
<event>
 7    1  0.6833760E-006  0.9867662E+02  0.7561462E-02  0.1283104E+00
          2   -1    0    0  501    0  0.00000000000E+00  0.00000000000E+00  0.99492310281E+02  0.99492310281E+02  0.00000000000E+00 0. -1.
         -2   -1    0    0    0  501 -0.00000000000E+00 -0.00000000000E+00 -0.15823891221E+03  0.15823891221E+03  0.00000000000E+00 0.  1.
         23    2    1    2    0    0  0.19901999239E+01 -0.52690539629E+02 -0.70896969606E+02  0.15314626014E+03  0.12508853998E+03 0.  0.
          5    1    3    3  502    0 -0.12300811128E+01 -0.85105795051E+02 -0.12474385114E+02  0.86125444177E+02  0.41800000000E+01 0. -1.
         -5    1    3    3    0  502  0.32202810367E+01  0.32415255421E+02 -0.58422584492E+02  0.67020815966E+02  0.41800000000E+01 0. -1.
        -11    1    1    2    0    0 -0.30433862404E+02  0.22754059341E+02 -0.27835244391E+02  0.47103800565E+02  0.00000000000E+00 0.  1.
         11    1    1    2    0    0  0.28443662480E+02  0.29936480289E+02  0.39985612069E+02  0.57481161783E+02  0.00000000000E+00 0. -1.
</event>
<event>
 7    1  0.6833760E-006  0.1414873E+03  0.7561462E-02  0.1211342E+00
         -1   -1    0    0    0  501 -0.00000000000E+00  0.00000000000E+00  0.45126962330E+03  0.45126962330E+03  0.00000000000E+00 0. -1.
          1   -1    0    0  501    0  0.00000000000E+00 -0.00000000000E+00 -0.54211671844E+02  0.54211671844E+02  0.00000000000E+00 0.  1.
         23    2    1    2    0    0 -0.69139654233E+02  0.88985435020E+02  0.22491822839E+03  0.28095326207E+03  0.12509127296E+03 0.  0.
          5    1    3    3  502    0 -0.73571591372E+02  0.20672778944E+02  0.45891768827E+02  0.89239395406E+02  0.41800000000E+01 0. -1.
         -5    1    3    3    0  502  0.44319371394E+01  0.68312656077E+02  0.17902645957E+03  0.19171386667E+03  0.41800000000E+01 0. -1.
        -11    1    1    2    0    0 -0.94990728021E+01 -0.48473223613E+02  0.95360515572E+02  0.10739419780E+03  0.00000000000E+00 0.  1.
         11    1    1    2    0    0  0.78638727035E+02 -0.40512211408E+02  0.76779207495E+02  0.11713383528E+03  0.00000000000E+00 0. -1.
</event>
<event>
 7    1  0.6833760E-006  0.1679148E+03  0.7561462E-02  0.1180040E+00
         -1   -1    0    0    0  501 -0.00000000000E+00  0.00000000000E+00  0.22501474417E+02  0.22501474417E+02  0.00000000000E+00 0.  1.
          1   -1    0    0  501    0  0.00000000000E+00 -0.00000000000E+00 -0.12686053830E+04  0.12686053830E+04  0.00000000000E+00 0. -1.
         23    2    1    2    0    0  0.11332405310E+03 -0.59193864668E+02 -0.67210545179E+03  0.69549975021E+03  0.12509160484E+03 0.  0.
          5    1    3    3  502    0 -0.95686490996E+00 -0.63762269521E+02 -0.26664612803E+03  0.27419732420E+03  0.41800000000E+01 0.  1.
         -5    1    3    3    0  502  0.11428091801E+03  0.45684048529E+01 -0.40545932376E+03  0.42130242601E+03  0.41800000000E+01 0.  1.
        -11    1    1    2    0    0 -0.18046753373E+02  0.59521080394E+02 -0.26778904670E+03  0.27491711087E+03  0.00000000000E+00 0.  1.
         11    1    1    2    0    0 -0.95277299730E+02 -0.32721572641E+00 -0.30620941009E+03  0.32068999632E+03  0.00000000000E+00 0. -1.
</event>
<event>
 7    1  0.6833760E-006  0.1572005E+03  0.7561462E-02  0.1191894E+00
         -1   -1    0    0    0  501 -0.00000000000E+00  0.00000000000E+00  0.18997152786E+03  0.18997152786E+03  0.00000000000E+00 0.  1.
          1   -1    0    0  501    0  0.00000000000E+00 -0.00000000000E+00 -0.16530713559E+03  0.16530713559E+03  0.00000000000E+00 0. -1.
         23    2    1    2    0    0 -0.76818789782E+02  0.10599192539E+03  0.61967829943E+02  0.19140853173E+03  0.12514711088E+03 0.  0.
          5    1    3    3  502    0 -0.10961083786E+03  0.77456782996E+02  0.61601448987E+02  0.14773726654E+03  0.41800000000E+01 0.  1.
         -5    1    3    3    0  502  0.32792048075E+02  0.28535142397E+02  0.36638095585E+00  0.43671265194E+02  0.41800000000E+01 0.  1.
        -11    1    1    2    0    0 -0.28567081863E+01 -0.16008853768E+02  0.23969030023E+02  0.28964781734E+02  0.00000000000E+00 0.  1.
         11    1    1    2    0    0  0.79675497968E+02 -0.89983071625E+02 -0.61272467699E+02  0.13490534998E+03  0.00000000000E+00 0. -1.
</event>
<event>
 7    1  0.6833760E-006  0.1407246E+03  0.7561462E-02  0.1212357E+00
          1   -1    0    0  501    0  0.00000000000E+00  0.00000000000E+00  0.83509814979E+03  0.83509814979E+03  0.00000000000E+00 0. -1.
         -1   -1    0    0    0  501 -0.00000000000E+00 -0.00000000000E+00 -0.24053624134E+02  0.24053624134E+02  0.00000000000E+00 0.  1.
         23    2    1    2    0    0  0.69353712676E+02 -0.59592191239E+02  0.42881510691E+03  0.45595070786E+03  0.12508990914E+03 0.  0.
          5    1    3    3  502    0  0.37427001256E+02 -0.97376248072E+02  0.31268896691E+03  0.32965857571E+03  0.41800000000E+01 0. -1.
         -5    1    3    3    0  502  0.31926711420E+02  0.37784056833E+02  0.11612614000E+03  0.12629213215E+03  0.41800000000E+01 0. -1.
        -11    1    1    2    0    0  0.26996648710E+01 -0.19918017533E+02  0.80094905814E+02  0.82578505377E+02  0.00000000000E+00 0.  1.
         11    1    1    2    0    0 -0.72053377547E+02  0.79510208772E+02  0.30213451294E+03  0.32062256069E+03  0.00000000000E+00 0. -1.
</event>
<event>
 7    1  0.6833760E-006  0.1060234E+03  0.7561462E-02  0.1268116E+00
          1   -1    0    0  501    0  0.00000000000E+00  0.00000000000E+00  0.31095142762E+03  0.31095142762E+03  0.00000000000E+00 0. -1.
         -1   -1    0    0    0  501 -0.00000000000E+00 -0.00000000000E+00 -0.54649987347E+02  0.54649987347E+02  0.00000000000E+00 0.  1.
         23    2    1    2    0    0  0.20417120597E+02 -0.67156835342E+02  0.11049104010E+03  0.18158531049E+03  0.12584933730E+03 0.  0.
          5    1    3    3  502    0  0.69402856061E+02 -0.17399997252E+02  0.72662603193E+02  0.10206293469E+03  0.41800000000E+01 0. -1.
         -5    1    3    3    0  502 -0.48985735464E+02 -0.49756838090E+02  0.37828436903E+02  0.79522375808E+02  0.41800000000E+01 0.  1.
        -11    1    1    2    0    0 -0.18505707187E+02  0.52953254531E+02  0.15642711122E+03  0.16618047265E+03  0.00000000000E+00 0. -1.
         11    1    1    2    0    0 -0.19114134096E+01  0.14203580810E+02 -0.10616711049E+02  0.17835631824E+02  0.00000000000E+00 0.  1.
</event>
<event>
 7    1  0.6833760E-006  0.1952691E+03  0.7561462E-02  0.1153793E+00
         -1   -1    0    0    0  501 -0.00000000000E+00  0.00000000000E+00  0.13730084528E+03  0.13730084528E+03  0.00000000000E+00 0.  1.
          1   -1    0    0  501    0  0.00000000000E+00 -0.00000000000E+00 -0.35857307312E+03  0.35857307312E+03  0.00000000000E+00 0. -1.
         23    2    1    2    0    0  0.16768909476E+03  0.43698824197E+02 -0.16954871805E+02  0.21437581065E+03  0.12506118812E+03 0.  0.
          5    1    3    3  502    0  0.84249352768E+02  0.85654175853E+02 -0.94753147836E+01  0.12058957365E+03  0.41800000000E+01 0. -1.
         -5    1    3    3    0  502  0.83439741995E+02 -0.41955351656E+02 -0.74795570219E+01  0.93786236997E+02  0.41800000000E+01 0. -1.
        -11    1    1    2    0    0 -0.10720424581E+03 -0.45168622965E+02 -0.74141257350E+02  0.13794883422E+03  0.00000000000E+00 0.  1.
         11    1    1    2    0    0 -0.60484848950E+02  0.14697987679E+01 -0.13017609869E+03  0.14354927353E+03  0.00000000000E+00 0. -1.
</event>
<event>
 7    1  0.6833760E-006  0.1140725E+03  0.7561462E-02  0.1253209E+00
         -2   -1    0    0    0  501 -0.00000000000E+00  0.00000000000E+00  0.20548898219E+03  0.20548898219E+03  0.00000000000E+00 0.  1.
          2   -1    0    0  501    0  0.00000000000E+00 -0.00000000000E+00 -0.10700091428E+03  0.10700091428E+03  0.00000000000E+00 0. -1.
         23    2    1    2    0    0  0.92920934912E+02 -0.31123460100E+02  0.78736015326E+02  0.17734217444E+03  0.12509163367E+03 0.  0.
          5    1    3    3  502    0  0.51014467764E+02 -0.44609484130E+02  0.10564168220E+03  0.12557913606E+03  0.41800000000E+01 0. -1.
         -5    1    3    3    0  502  0.41906467148E+02  0.13486024030E+02 -0.26905666872E+02  0.51763038384E+02  0.41800000000E+01 0. -1.
        -11    1    1    2    0    0 -0.26245759448E+02 -0.19178076688E+02  0.37638844110E+02  0.49732495417E+02  0.00000000000E+00 0.  1.
         11    1    1    2    0    0 -0.66675175464E+02  0.50301536788E+02 -0.17886791525E+02  0.85415226614E+02  0.00000000000E+00 0. -1.
</event>
<event>
 7    1  0.6833760E-006  0.1725343E+03  0.7561462E-02  0.1175230E+00
          2   -1    0    0  501    0  0.00000000000E+00  0.00000000000E+00  0.17317378287E+03  0.17317378287E+03  0.00000000000E+00 0. -1.
         -2   -1    0    0    0  501 -0.00000000000E+00 -0.00000000000E+00 -0.25846318418E+03  0.25846318418E+03  0.00000000000E+00 0.  1.
         23    2    1    2    0    0  0.55106970835E+02 -0.12609428098E+03 -0.16374400858E+03  0.24778035799E+03  0.12508580865E+03 0.  0.
          5    1    3    3  502    0  0.70292869481E+02 -0.14083860686E+03 -0.16233962033E+03  0.22615973428E+03  0.41800000000E+01 0.  1.
         -5    1    3    3    0  502 -0.15185898647E+02  0.14744325875E+02 -0.14043882597E+01  0.21620623710E+02  0.41800000000E+01 0.  1.
        -11    1    1    2    0    0  0.10777700893E+02 -0.10080117583E+02  0.42208244247E+01  0.15348712188E+02  0.00000000000E+00 0.  1.
         11    1    1    2    0    0 -0.65884671728E+02  0.13617439856E+03  0.74233782852E+02  0.16850789688E+03  0.00000000000E+00 0. -1.
</event>
<event>
 7    1  0.6833760E-006  0.8194931E+02  0.7561462E-02  0.1323609E+00
         -2   -1    0    0    0  501 -0.00000000000E+00  0.00000000000E+00  0.27988457044E+03  0.27988457044E+03  0.00000000000E+00 0.  1.
          2   -1    0    0  501    0  0.00000000000E+00 -0.00000000000E+00 -0.42921692805E+02  0.42921692805E+02  0.00000000000E+00 0. -1.
         23    2    1    2    0    0 -0.50147308788E+01  0.16427943545E+02  0.18461258382E+03  0.21601076289E+03  0.11083239022E+03 0.  0.
          5    1    3    3  502    0  0.33357148601E+02  0.66326177752E+01  0.83000474058E+01  0.35256973329E+02  0.41800000000E+01 0. -1.
         -5    1    3    3    0  502 -0.38371879480E+02  0.97953257696E+01  0.17631253642E+03  0.18075378956E+03  0.41800000000E+01 0.  1.
        -11    1    1    2    0    0  0.37628737444E+02  0.18578600237E+02  0.38590039551E+02  0.57011204346E+02  0.00000000000E+00 0.  1.
         11    1    1    2    0    0 -0.32614006566E+02 -0.35006543782E+02  0.13760254257E+02  0.49784296008E+02  0.00000000000E+00 0. -1.
</event>
<event>
 7    1  0.6833760E-006  0.1430614E+03  0.7561462E-02  0.1209268E+00
         -2   -1    0    0    0  501 -0.00000000000E+00  0.00000000000E+00  0.14468539543E+03  0.14468539543E+03  0.00000000000E+00 0.  1.
          2   -1    0    0  501    0  0.00000000000E+00 -0.00000000000E+00 -0.21039520874E+03  0.21039520874E+03  0.00000000000E+00 0. -1.
         23    2    1    2    0    0  0.12701316627E+03  0.28622368311E+02  0.56217890592E+01  0.18063872932E+03  0.12508861516E+03 0.  0.
          5    1    3    3  502    0  0.10578782787E+03  0.33878435915E+02 -0.49131436838E+02  0.12153264348E+03  0.41800000000E+01 0. -1.
         -5    1    3    3    0  502  0.21225338406E+02 -0.52560676041E+01  0.54753225897E+02  0.59106085839E+02  0.41800000000E+01 0. -1.
        -11    1    1    2    0    0 -0.33560323139E+02  0.27763445395E+02  0.89027708521E+00  0.43564857198E+02  0.00000000000E+00 0.  1.
         11    1    1    2    0    0 -0.93452843135E+02 -0.56385813706E+02 -0.72221879462E+02  0.13087701765E+03  0.00000000000E+00 0. -1.
</event>
<event>
 7    1  0.6833760E-006  0.1178289E+03  0.7561462E-02  0.1246722E+00
          1   -1    0    0  501    0  0.00000000000E+00  0.00000000000E+00  0.21811881936E+03  0.21811881936E+03  0.00000000000E+00 0. -1.
         -1   -1    0    0    0  501 -0.00000000000E+00 -0.00000000000E+00 -0.94098212667E+02  0.94098212667E+02  0.00000000000E+00 0.  1.
         23    2    1    2    0    0  0.84188303696E+02 -0.34944255746E+02  0.42319569937E+02  0.16044484680E+03  0.12507130517E+03 0.  0.
          5    1    3    3  502    0 -0.21877572036E+01  0.23906293327E+02 -0.25901257198E+02  0.35561842846E+02  0.41800000000E+01 0. -1.
         -5    1    3    3    0  502  0.86376060899E+02 -0.58850549073E+02  0.68220827134E+02  0.12488300396E+03  0.41800000000E+01 0. -1.
        -11    1    1    2    0    0 -0.25538281795E+02 -0.15031298361E+02 -0.10657195330E+02  0.31491579506E+02  0.00000000000E+00 0.  1.
         11    1    1    2    0    0 -0.58650021901E+02  0.49975554108E+02  0.92358232085E+02  0.12028060572E+03  0.00000000000E+00 0. -1.
</event>
<event>
 7    1  0.6833760E-006  0.9831144E+02  0.7561462E-02  0.1283887E+00
          2   -1    0    0  501    0  0.00000000000E+00  0.00000000000E+00  0.10433226208E+03  0.10433226208E+03  0.00000000000E+00 0. -1.
         -2   -1    0    0    0  501 -0.00000000000E+00 -0.00000000000E+00 -0.12031581204E+03  0.12031581204E+03  0.00000000000E+00 0.  1.
         23    2    1    2    0    0 -0.24856939939E+02  0.14060035341E+01  0.36040926739E+01  0.12759481376E+03  0.12509037815E+03 0.  0.
          5    1    3    3  502    0 -0.48534031183E+02 -0.33711280735E+02 -0.36114309120E+02  0.69380965364E+02  0.41800000000E+01 0. -1.
         -5    1    3    3    0  502  0.23677091244E+02  0.35117284269E+02  0.39718401794E+02  0.58213848398E+02  0.41800000000E+01 0. -1.
        -11    1    1    2    0    0  0.59425114897E+02  0.51149134851E+01 -0.90245114336E+01  0.60323697061E+02  0.00000000000E+00 0.  1.
         11    1    1    2    0    0 -0.34568174958E+02 -0.65209170191E+01 -0.10563131204E+02  0.36729563290E+02  0.00000000000E+00 0. -1.
</event>
<event>
 7    1  0.6833760E-006  0.6001222E+02  0.7561462E-02  0.1397780E+00
         -1   -1    0    0    0  501 -0.00000000000E+00  0.00000000000E+00  0.22673857632E+03  0.22673857632E+03  0.00000000000E+00 0.  1.
          1   -1    0    0  501    0  0.00000000000E+00 -0.00000000000E+00 -0.74998359243E+02  0.74998359243E+02  0.00000000000E+00 0. -1.
         23    2    1    2    0    0 -0.22635328330E+02 -0.16660934738E+02  0.16089004362E+03  0.20572782395E+03  0.12509351133E+03 0.  0.
          5    1    3    3  502    0 -0.12722290312E+02 -0.27701788713E+01 -0.19867233666E+02  0.24118663630E+02  0.41800000000E+01 0.  1.
         -5    1    3    3    0  502 -0.99130380183E+01 -0.13890755867E+02  0.18075727729E+03  0.18160916032E+03  0.41800000000E+01 0.  1.
        -11    1    1    2    0    0 -0.28274432771E+01  0.48178747039E+02 -0.22634697255E+02  0.53305868547E+02  0.00000000000E+00 0. -1.
         11    1    1    2    0    0  0.25462771607E+02 -0.31517812300E+02  0.13484870714E+02  0.42703243065E+02  0.00000000000E+00 0.  1.
</event>
<event>
 7    1  0.6833760E-006  0.1673063E+03  0.7561462E-02  0.1180686E+00
         -1   -1    0    0    0  501 -0.00000000000E+00  0.00000000000E+00  0.39757877584E+02  0.39757877584E+02  0.00000000000E+00 0.  1.
          1   -1    0    0  501    0  0.00000000000E+00 -0.00000000000E+00 -0.74962458033E+03  0.74962458033E+03  0.00000000000E+00 0. -1.
         23    2    1    2    0    0  0.76877212049E+02 -0.10902565863E+03 -0.38574034394E+03  0.42689572710E+03  0.12509056282E+03 0.  0.
          5    1    3    3  502    0  0.20274958669E+02 -0.11641993822E+03 -0.31125662623E+03  0.33296071200E+03  0.41800000000E+01 0.  1.
         -5    1    3    3    0  502  0.56602253380E+02  0.73942795941E+01 -0.74483717707E+02  0.93935015100E+02  0.41800000000E+01 0.  1.
        -11    1    1    2    0    0  0.18073582165E+02  0.32470925689E+02 -0.48672378058E+02  0.61237372357E+02  0.00000000000E+00 0.  1.
         11    1    1    2    0    0 -0.94950794214E+02  0.76554732941E+02 -0.27545398074E+03  0.30124935845E+03  0.00000000000E+00 0. -1.
</event>
<event>
 7    1  0.6833760E-006  0.9248572E+02  0.7561462E-02  0.1296941E+00
          2   -1    0    0  501    0  0.00000000000E+00  0.00000000000E+00  0.23115180300E+03  0.23115180300E+03  0.00000000000E+00 0. -1.
         -2   -1    0    0    0  501 -0.00000000000E+00 -0.00000000000E+00 -0.60216783228E+02  0.60216783228E+02  0.00000000000E+00 0.  1.
         23    2    1    2    0    0 -0.22207211445E+01  0.45061945731E+02  0.11098451393E+03  0.17320683031E+03  0.12509010024E+03 0.  0.
          5    1    3    3  502    0  0.11076751339E+02 -0.36068179159E+02  0.39333116298E+01  0.38164791476E+02  0.41800000000E+01 0.  1.
         -5    1    3    3    0  502 -0.13297472483E+02  0.81130124890E+02  0.10705120230E+03  0.13504203883E+03  0.41800000000E+01 0.  1.
        -11    1    1    2    0    0  0.23842532193E+02 -0.17081504356E+02 -0.16697709402E+02  0.33749927878E+02  0.00000000000E+00 0.  1.
         11    1    1    2    0    0 -0.21621811049E+02 -0.27980441375E+02  0.76648215247E+02  0.84411828041E+02  0.00000000000E+00 0. -1.
</event>
<event>
 7    1  0.6833760E-006  0.1735615E+03  0.7561462E-02  0.1174184E+00
         -2   -1    0    0    0  501 -0.00000000000E+00  0.00000000000E+00  0.69941787334E+03  0.69941787334E+03  0.00000000000E+00 0.  1.
          2   -1    0    0  501    0  0.00000000000E+00 -0.00000000000E+00 -0.54217346366E+02  0.54217346366E+02  0.00000000000E+00 0. -1.
         23    2    1    2    0    0  0.53333794752E+02 -0.14476252947E+03  0.42022728147E+03  0.46479845174E+03  0.12508376814E+03 0.  0.
          5    1    3    3  502    0  0.68870877462E+02 -0.29802443416E+02  0.10704409892E+03  0.13079485811E+03  0.41800000000E+01 0. -1.
         -5    1    3    3    0  502 -0.15537082709E+02 -0.11496008605E+03  0.31318318255E+03  0.33400359363E+03  0.41800000000E+01 0. -1.
        -11    1    1    2    0    0 -0.33837769598E+02  0.11810947013E+03  0.22437323301E+03  0.25580889210E+03  0.00000000000E+00 0.  1.
         11    1    1    2    0    0 -0.19496025154E+02  0.26653059335E+02  0.60001248937E+00  0.33027875858E+02  0.00000000000E+00 0. -1.
</event>
<event>
 7    1  0.6833760E-006  0.3473819E+03  0.7561462E-02  0.1063695E+00
          4   -1    0    0  501    0  0.00000000000E+00  0.00000000000E+00  0.98355035250E+03  0.98355035250E+03  0.00000000000E+00 0. -1.
         -4   -1    0    0    0  501 -0.00000000000E+00 -0.00000000000E+00 -0.13953024558E+03  0.13953024558E+03  0.00000000000E+00 0.  1.
         23    2    1    2    0    0 -0.31308131739E+03  0.12322827848E+03  0.26074644295E+03  0.44366767793E+03  0.12508869259E+03 0.  0.
          5    1    3    3  502    0 -0.26595337218E+02 -0.24095575634E+02  0.18573483246E+02  0.40624566542E+02  0.41800000000E+01 0.  1.
         -5    1    3    3    0  502 -0.28648598017E+03  0.14732385412E+03  0.24217295970E+03  0.40304311139E+03  0.41800000000E+01 0.  1.
        -11    1    1    2    0    0  0.28349849403E+03 -0.11166327934E+03  0.45741183523E+03  0.54960501369E+03  0.00000000000E+00 0. -1.
         11    1    1    2    0    0  0.29582823361E+02 -0.11564999142E+02  0.12586182875E+03  0.12980790646E+03  0.00000000000E+00 0.  1.
</event>
<event>
 7    1  0.6833760E-006  0.1846919E+03  0.7561462E-02  0.1163338E+00
         -2   -1    0    0    0  501 -0.00000000000E+00  0.00000000000E+00  0.25407868665E+02  0.25407868665E+02  0.00000000000E+00 0.  1.
          2   -1    0    0  501    0  0.00000000000E+00 -0.00000000000E+00 -0.13963174254E+04  0.13963174254E+04  0.00000000000E+00 0. -1.
         23    2    1    2    0    0 -0.13641787074E+03 -0.64084919662E+02 -0.60958444009E+03  0.64027991996E+03  0.12509386044E+03 0.  0.
          5    1    3    3  502    0  0.15948489161E+02  0.16441000738E+02 -0.63648571132E+02  0.67773695627E+02  0.41800000000E+01 0. -1.
         -5    1    3    3    0  502 -0.15236635990E+03 -0.80525920400E+02 -0.54593586896E+03  0.57250622433E+03  0.41800000000E+01 0. -1.
        -11    1    1    2    0    0  0.70367805125E+02  0.79210820081E+02 -0.39835584035E+03  0.41220547978E+03  0.00000000000E+00 0.  1.
         11    1    1    2    0    0  0.66050065611E+02 -0.15125900419E+02 -0.36296927627E+03  0.36923989431E+03  0.00000000000E+00 0. -1.
</event>
<event>
 7    1  0.6833760E-006  0.1437682E+03  0.7561462E-02  0.1208347E+00
         -2   -1    0    0    0  501 -0.00000000000E+00  0.00000000000E+00  0.32576035753E+03  0.32576035753E+03  0.00000000000E+00 0.  1.
          2   -1    0    0  501    0  0.00000000000E+00 -0.00000000000E+00 -0.97782294953E+02  0.97782294953E+02  0.00000000000E+00 0. -1.
         23    2    1    2    0    0  0.91966835273E+02 -0.31999014712E+02  0.24224819262E+03  0.28950548203E+03  0.12508957418E+03 0.  0.
          5    1    3    3  502    0  0.11017285723E+03  0.76767909766E+01  0.14087605489E+03  0.17905453591E+03  0.41800000000E+01 0.  1.
         -5    1    3    3    0  502 -0.18206021952E+02 -0.39675805688E+02  0.10137213772E+03  0.11045094612E+03  0.41800000000E+01 0.  1.
        -11    1    1    2    0    0 -0.61501611490E+02  0.64152018046E+02 -0.12099351111E+02  0.89690155160E+02  0.00000000000E+00 0.  1.
         11    1    1    2    0    0 -0.30465223783E+02 -0.32153003334E+02 -0.21707789311E+01  0.44347015286E+02  0.00000000000E+00 0. -1.
</event>
<event>
 7    1  0.6833760E-006  0.1689081E+03  0.7561462E-02  0.1178991E+00
          2   -1    0    0  501    0  0.00000000000E+00  0.00000000000E+00  0.71621449583E+03  0.71621449583E+03  0.00000000000E+00 0. -1.
         -2   -1    0    0    0  501 -0.00000000000E+00 -0.00000000000E+00 -0.44477701064E+02  0.44477701064E+02  0.00000000000E+00 0.  1.
         23    2    1    2    0    0 -0.81995033360E+02  0.11541052205E+03  0.39358614762E+03  0.43657633579E+03  0.12508424072E+03 0.  0.
          5    1    3    3  502    0 -0.28416276830E+02  0.11923814533E+03  0.33614646262E+03  0.35782277292E+03  0.41800000000E+01 0.  1.
         -5    1    3    3    0  502 -0.53578756530E+02 -0.38276232814E+01  0.57439685001E+02  0.78753562867E+02  0.41800000000E+01 0.  1.
        -11    1    1    2    0    0 -0.13577475993E+01 -0.62601685607E+02  0.14870305839E+03  0.16134873440E+03  0.00000000000E+00 0.  1.
         11    1    1    2    0    0  0.83352780959E+02 -0.52808836442E+02  0.12944758876E+03  0.16276712670E+03  0.00000000000E+00 0. -1.
</event>
<event>
 7    1  0.8298898E-006  0.2588329E+03  0.7561462E-02  0.1107846E+00
         -1   -1    0    0    0  501 -0.00000000000E+00  0.00000000000E+00  0.15200153422E+03  0.15200153422E+03  0.00000000000E+00 0.  1.
          1   -1    0    0  501    0  0.00000000000E+00 -0.00000000000E+00 -0.47254661972E+03  0.47254661972E+03  0.00000000000E+00 0. -1.
         23    2    1    2    0    0 -0.24266330303E+03 -0.27019661108E+02 -0.14240011583E+03  0.30909671937E+03  0.12508976064E+03 0.  0.
          5    1    3    3  502    0 -0.63260583898E+02  0.43065156453E+02 -0.68386962387E+02  0.10271688371E+03  0.41800000000E+01 0. -1.
         -5    1    3    3    0  502 -0.17940271913E+03 -0.70084817561E+02 -0.74013153440E+02  0.20637983566E+03  0.41800000000E+01 0. -1.
        -11    1    1    2    0    0  0.16473434309E+03  0.39618142043E+02 -0.74296131739E+02  0.18500517875E+03  0.00000000000E+00 0.  1.
         11    1    1    2    0    0  0.77928959940E+02 -0.12598480935E+02 -0.10384883793E+03  0.13044625582E+03  0.00000000000E+00 0. -1.
</event>
<event>
 7    1  0.6833760E-006  0.2848014E+03  0.7561462E-02  0.1093095E+00
          2   -1    0    0  501    0  0.00000000000E+00  0.00000000000E+00  0.53291812605E+03  0.53291812605E+03  0.00000000000E+00 0. -1.
         -2   -1    0    0    0  501 -0.00000000000E+00 -0.00000000000E+00 -0.29164200811E+03  0.29164200811E+03  0.00000000000E+00 0.  1.
         23    2    1    2    0    0  0.26598697307E+03 -0.93731974876E+02 -0.14263067234E+03  0.33989027554E+03  0.12508851968E+03 0.  0.
          5    1    3    3  502    0  0.11714804620E+03 -0.24764931242E+02  0.39299382006E+01  0.11987444833E+03  0.41800000000E+01 0.  1.
         -5    1    3    3    0  502  0.14883892686E+03 -0.68967043634E+02 -0.14656061054E+03  0.22001582720E+03  0.41800000000E+01 0.  1.
        -11    1    1    2    0    0 -0.61849052093E+02  0.43069941104E+02  0.16336085725E+03  0.17990857331E+03  0.00000000000E+00 0.  1.
         11    1    1    2    0    0 -0.20413792097E+03  0.50662033772E+02  0.22054593303E+03  0.30476128531E+03  0.00000000000E+00 0. -1.
</event>
<event>
 7    1  0.6833760E-006  0.1914852E+03  0.7561462E-02  0.1157129E+00
         -2   -1    0    0    0  501 -0.00000000000E+00  0.00000000000E+00  0.82693565412E+02  0.82693565412E+02  0.00000000000E+00 0. -1.
          2   -1    0    0  501    0  0.00000000000E+00 -0.00000000000E+00 -0.67193885503E+03  0.67193885503E+03  0.00000000000E+00 0.  1.
         23    2    1    2    0    0  0.28986393457E+02 -0.16914491190E+03 -0.11301638245E+03  0.24056899854E+03  0.12510207085E+03 0.  0.
          5    1    3    3  502    0 -0.21297713278E+02 -0.15800077806E+03 -0.96084056269E+02  0.18619198889E+03  0.41800000000E+01 0. -1.
         -5    1    3    3    0  502  0.50284106735E+02 -0.11144133843E+02 -0.16932326181E+02  0.54377009656E+02  0.41800000000E+01 0. -1.
        -11    1    1    2    0    0 -0.18364857089E+02  0.12835472232E+03 -0.43926150114E+03  0.45799876539E+03  0.00000000000E+00 0.  1.
         11    1    1    2    0    0 -0.10621536368E+02  0.40790189582E+02 -0.36967406035E+02  0.56064656513E+02  0.00000000000E+00 0. -1.
</event>
<event>
 7    1  0.6833760E-006  0.2147147E+03  0.7561462E-02  0.1137886E+00
          2   -1    0    0  501    0  0.00000000000E+00  0.00000000000E+00  0.81223713615E+03  0.81223713615E+03  0.00000000000E+00 0. -1.
         -2   -1    0    0    0  501 -0.00000000000E+00 -0.00000000000E+00 -0.68380033080E+02  0.68380033080E+02  0.00000000000E+00 0.  1.
         23    2    1    2    0    0 -0.51280351288E+02  0.17944880726E+03  0.20858592939E+03  0.30656823831E+03  0.12507775957E+03 0.  0.
          5    1    3    3  502    0 -0.76942768899E+02  0.18026218436E+03  0.19754299913E+03  0.27830801947E+03  0.41800000000E+01 0. -1.
         -5    1    3    3    0  502  0.25662417610E+02 -0.81337709385E+00  0.11042930264E+02  0.28260218837E+02  0.41800000000E+01 0. -1.
        -11    1    1    2    0    0  0.69204585752E+02 -0.17600640937E+03  0.49088116996E+03  0.52605309033E+03  0.00000000000E+00 0. -1.
         11    1    1    2    0    0 -0.17924234464E+02 -0.34423978944E+01  0.44390003717E+02  0.47995840594E+02  0.00000000000E+00 0.  1.
</event>
<event>
 7    1  0.6833760E-006  0.1571107E+03  0.7561462E-02  0.1191998E+00
         -1   -1    0    0    0  501 -0.00000000000E+00  0.00000000000E+00  0.11443407705E+03  0.11443407705E+03  0.00000000000E+00 0.  1.
          1   -1    0    0  501    0  0.00000000000E+00 -0.00000000000E+00 -0.42750948796E+03  0.42750948796E+03  0.00000000000E+00 0. -1.
         23    2    1    2    0    0  0.10254062006E+02  0.13480806367E+03  0.52135827820E+01  0.18425924853E+03  0.12508368961E+03 0.  0.
          5    1    3    3  502    0  0.27978453564E+01 -0.11538075740E+02  0.32762898608E+02  0.35097507827E+02  0.41800000000E+01 0.  1.
         -5    1    3    3    0  502  0.74562166498E+01  0.14634613941E+03 -0.27549315826E+02  0.14916174070E+03  0.41800000000E+01 0.  1.
        -11    1    1    2    0    0 -0.43314401507E+02 -0.70842165603E+02 -0.11368441715E+03  0.14077960260E+03  0.00000000000E+00 0.  1.
         11    1    1    2    0    0  0.33060339501E+02 -0.63965898069E+02 -0.20460457653E+03  0.21690471388E+03  0.00000000000E+00 0. -1.
</event>
<event>
 7    1  0.6833760E-006  0.1260183E+03  0.7561462E-02  0.1233486E+00
         -1   -1    0    0    0  501 -0.00000000000E+00  0.00000000000E+00  0.39831735050E+02  0.39831735050E+02  0.00000000000E+00 0.  1.
          1   -1    0    0  501    0  0.00000000000E+00 -0.00000000000E+00 -0.45598008701E+03  0.45598008701E+03  0.00000000000E+00 0. -1.
         23    2    1    2    0    0 -0.22620203224E+02  0.73856162785E+02 -0.19031746239E+03  0.24049519590E+03  0.12510314299E+03 0.  0.
          5    1    3    3  502    0 -0.61806873211E+02  0.69123798992E+00 -0.10107990270E+03  0.11855457189E+03  0.41800000000E+01 0.  1.
         -5    1    3    3    0  502  0.39186669987E+02  0.73164924795E+02 -0.89237559681E+02  0.12194062401E+03  0.41800000000E+01 0.  1.
        -11    1    1    2    0    0  0.42680300399E+02 -0.15722993976E+02 -0.43667927279E+02  0.63053219224E+02  0.00000000000E+00 0.  1.
         11    1    1    2    0    0 -0.20060097176E+02 -0.58133168809E+02 -0.18216296229E+03  0.19226340693E+03  0.00000000000E+00 0. -1.
</event>
<event>
 7    1  0.6833760E-006  0.1863595E+03  0.7561462E-02  0.1161786E+00
          1   -1    0    0  501    0  0.00000000000E+00  0.00000000000E+00  0.89522354103E+02  0.89522354103E+02  0.00000000000E+00 0. -1.
         -1   -1    0    0    0  501 -0.00000000000E+00 -0.00000000000E+00 -0.53998996828E+03  0.53998996828E+03  0.00000000000E+00 0.  1.
         23    2    1    2    0    0 -0.10228900607E+03  0.15398006055E+03 -0.16532660581E+03  0.27776545975E+03  0.12509142349E+03 0.  0.
          5    1    3    3  502    0 -0.31360736631E+02  0.50314605810E+02 -0.13642210491E+03  0.14880698393E+03  0.41800000000E+01 0. -1.
         -5    1    3    3    0  502 -0.70928269437E+02  0.10366545474E+03 -0.28904500904E+02  0.12895847581E+03  0.41800000000E+01 0. -1.
        -11    1    1    2    0    0  0.79776733315E+02 -0.13991801689E+03 -0.17242879024E+03  0.23595140671E+03  0.00000000000E+00 0. -1.
         11    1    1    2    0    0  0.22512272753E+02 -0.14062043664E+02 -0.11271221813E+03  0.11579545593E+03  0.00000000000E+00 0.  1.
</event>
<event>
 6    1  0.6833760E-006  0.1661269E+03  0.7561462E-02  0.1181948E+00
          2   -1    0    0  501    0  0.00000000000E+00  0.00000000000E+00  0.25294015023E+03  0.25294015023E+03  0.00000000000E+00 0. -1.
         -2   -1    0    0    0  501 -0.00000000000E+00 -0.00000000000E+00 -0.15434060705E+03  0.15434060705E+03  0.00000000000E+00 0.  1.
          5    1    1    2  502    0  0.37456880836E+02  0.45688901434E+02  0.67592558573E+02  0.89870573664E+02  0.41800000000E+01 0. -1.
         -5    1    1    2    0  502  0.18108354121E+02 -0.13728120826E+03 -0.59614413051E+02  0.15081575936E+03  0.41800000000E+01 0.  1.
        -11    1    1    2    0    0 -0.49790569821E+02  0.76775373044E+01  0.56835331804E+02  0.75949327604E+02  0.00000000000E+00 0. -1.
         11    1    1    2    0    0 -0.57746651357E+01  0.83914769517E+02  0.33786065849E+02  0.90645096647E+02  0.00000000000E+00 0.  1.
</event>
<event>
 6    1  0.6833760E-006  0.1097101E+03  0.7561462E-02  0.1261108E+00
          2   -1    0    0  501    0  0.00000000000E+00  0.00000000000E+00  0.61553155410E+02  0.61553155410E+02  0.00000000000E+00 0.  1.
         -2   -1    0    0    0  501 -0.00000000000E+00 -0.00000000000E+00 -0.23686593981E+03  0.23686593981E+03  0.00000000000E+00 0. -1.
          5    1    1    2  502    0 -0.37441102411E+02 -0.47661372561E+02 -0.10423483300E+03  0.12064748400E+03  0.41800000000E+01 0. -1.
         -5    1    1    2    0  502  0.31360317610E+02  0.60187135026E+02 -0.48915798172E+02  0.83762691302E+02  0.41800000000E+01 0.  1.
        -11    1    1    2    0    0  0.41238450745E+02 -0.30398600111E+02 -0.67919329310E+01  0.51679929001E+02  0.00000000000E+00 0.  1.
         11    1    1    2    0    0 -0.35157665944E+02  0.17872837645E+02 -0.15370220290E+02  0.42328990915E+02  0.00000000000E+00 0. -1.
</event>
<event>
 7    1  0.6833760E-006  0.1206989E+03  0.7561462E-02  0.1241949E+00
          3   -1    0    0  501    0  0.00000000000E+00  0.00000000000E+00  0.16270143151E+03  0.16270143151E+03  0.00000000000E+00 0. -1.
         -3   -1    0    0    0  501 -0.00000000000E+00 -0.00000000000E+00 -0.13639051357E+03  0.13639051357E+03  0.00000000000E+00 0.  1.
         23    2    1    2    0    0  0.68381719358E+02  0.55620950993E+02  0.64580312733E+02  0.16609827835E+03  0.12509305155E+03 0.  0.
          5    1    3    3  502    0  0.99650185011E+02  0.40187606683E+02  0.73019670637E+02  0.12997902832E+03  0.41800000000E+01 0. -1.
         -5    1    3    3    0  502 -0.31268465653E+02  0.15433344310E+02 -0.84393579032E+01  0.36119250030E+02  0.41800000000E+01 0. -1.
        -11    1    1    2    0    0 -0.21218367255E+02 -0.45937713441E+02 -0.61411981310E+02  0.79573387974E+02  0.00000000000E+00 0.  1.
         11    1    1    2    0    0 -0.47163352103E+02 -0.96832375516E+01  0.23142586514E+02  0.53420278749E+02  0.00000000000E+00 0. -1.
</event>
<event>
 7    1  0.6833760E-006  0.1237652E+03  0.7561462E-02  0.1237012E+00
         -1   -1    0    0    0  501 -0.00000000000E+00  0.00000000000E+00  0.12551120230E+03  0.12551120230E+03  0.00000000000E+00 0.  1.
          1   -1    0    0  501    0  0.00000000000E+00 -0.00000000000E+00 -0.17432415174E+03  0.17432415174E+03  0.00000000000E+00 0. -1.
         23    2    1    2    0    0 -0.57363065678E+02 -0.46082055517E+02  0.42479331636E+02  0.15121494579E+03  0.12508952422E+03 0.  0.
          5    1    3    3  502    0 -0.82469948685E+02 -0.59975448759E+02  0.28347807964E+01  0.10209728337E+03  0.41800000000E+01 0.  1.
         -5    1    3    3    0  502  0.25106883007E+02  0.13893393242E+02  0.39644550840E+02  0.49117662418E+02  0.41800000000E+01 0.  1.
        -11    1    1    2    0    0  0.70130805416E+01  0.62976833847E+02 -0.58250075136E+02  0.86071691941E+02  0.00000000000E+00 0.  1.
         11    1    1    2    0    0  0.50349985137E+02 -0.16894778330E+02 -0.33042205935E+02  0.62548716303E+02  0.00000000000E+00 0. -1.
</event>
<event>
 7    1  0.6833760E-006  0.1811692E+03  0.7561462E-02  0.1166676E+00
         -1   -1    0    0    0  501 -0.00000000000E+00  0.00000000000E+00  0.43947540681E+02  0.43947540681E+02  0.00000000000E+00 0.  1.
          1   -1    0    0  501    0  0.00000000000E+00 -0.00000000000E+00 -0.89318394799E+03  0.89318394799E+03  0.00000000000E+00 0. -1.
         23    2    1    2    0    0  0.44247966424E+02  0.15635841528E+03 -0.37586432650E+03  0.42816658759E+03  0.12508716254E+03 0.  0.
          5    1    3    3  502    0 -0.24793112294E+02  0.11138329846E+03 -0.15594204351E+03  0.19327785939E+03  0.41800000000E+01 0. -1.
         -5    1    3    3    0  502  0.69041078719E+02  0.44975116815E+02 -0.21992228299E+03  0.23488872820E+03  0.41800000000E+01 0. -1.
        -11    1    1    2    0    0 -0.37541146430E+02 -0.73623944396E+02 -0.11822242623E+03  0.14424411574E+03  0.00000000000E+00 0.  1.
         11    1    1    2    0    0 -0.67068199949E+01 -0.82734470883E+02 -0.35514965458E+03  0.36472078534E+03  0.00000000000E+00 0. -1.
</event>
<event>
 7    1  0.6833760E-006  0.9377734E+02  0.7561462E-02  0.1293954E+00
          2   -1    0    0  501    0  0.00000000000E+00  0.00000000000E+00  0.48760033249E+03  0.48760033249E+03  0.00000000000E+00 0. -1.
         -2   -1    0    0    0  501 -0.00000000000E+00 -0.00000000000E+00 -0.35422565480E+02  0.35422565480E+02  0.00000000000E+00 0.  1.
         23    2    1    2    0    0 -0.88065201927E+01  0.56211623145E+02  0.15637422164E+03  0.20817843418E+03  0.12509221355E+03 0.  0.
          5    1    3    3  502    0 -0.44579883637E+02  0.72062211116E+02  0.59521052181E+02  0.10363665543E+03  0.41800000000E+01 0. -1.
         -5    1    3    3    0  502  0.35773363444E+02 -0.15850587971E+02  0.96853169456E+02  0.10454177875E+03  0.41800000000E+01 0. -1.
        -11    1    1    2    0    0 -0.84508594525E+01 -0.62629129533E+01 -0.33654680259E+01  0.11043888771E+02  0.00000000000E+00 0.  1.
         11    1    1    2    0    0  0.17257379645E+02 -0.49948710191E+02  0.29916901340E+03  0.30380057502E+03  0.00000000000E+00 0. -1.
</event>
<event>
 7    1  0.6833760E-006  0.1074036E+03  0.7561462E-02  0.1265455E+00
          2   -1    0    0  501    0  0.00000000000E+00  0.00000000000E+00  0.38816547845E+03  0.38816547845E+03  0.00000000000E+00 0. -1.
         -2   -1    0    0    0  501 -0.00000000000E+00 -0.00000000000E+00 -0.38911641023E+02  0.38911641023E+02  0.00000000000E+00 0.  1.
         23    2    1    2    0    0  0.55907870889E+02  0.10818238585E+02  0.18725298910E+03  0.23228055943E+03  0.12509137480E+03 0.  0.
          5    1    3    3  502    0 -0.20786003386E+02  0.39472835073E+02  0.27097870889E+02  0.52363438124E+02  0.41800000000E+01 0.  1.
         -5    1    3    3    0  502  0.76693874274E+02 -0.28654596487E+02  0.16015511821E+03  0.17991712131E+03  0.41800000000E+01 0.  1.
        -11    1    1    2    0    0 -0.22946734367E+02  0.28581320958E+02  0.12812191836E+03  0.13326166174E+03  0.00000000000E+00 0. -1.
         11    1    1    2    0    0 -0.32961136522E+02 -0.39399559544E+02  0.33878929971E+02  0.61534898302E+02  0.00000000000E+00 0.  1.
</event>
<event>
 7    1  0.6833760E-006  0.1532412E+03  0.7561462E-02  0.1196546E+00
          1   -1    0    0  501    0  0.00000000000E+00  0.00000000000E+00  0.10556191865E+04  0.10556191865E+04  0.00000000000E+00 0. -1.
         -1   -1    0    0    0  501 -0.00000000000E+00 -0.00000000000E+00 -0.26004426942E+02  0.26004426942E+02  0.00000000000E+00 0.  1.
         23    2    1    2    0    0  0.69323815248E+02 -0.96936252936E+02  0.39344211971E+03  0.42970500530E+03  0.12508901439E+03 0.  0.
          5    1    3    3  502    0  0.66008798904E+02  0.15514984732E+01  0.22484396662E+03  0.23437544753E+03  0.41800000000E+01 0.  1.
         -5    1    3    3    0  502  0.33150163433E+01 -0.98487751410E+02  0.16859815309E+03  0.19532955776E+03  0.41800000000E+01 0.  1.
        -11    1    1    2    0    0 -0.26772678565E+01  0.69607498932E+02  0.34564953097E+03  0.35259887965E+03  0.00000000000E+00 0.  1.
         11    1    1    2    0    0 -0.66646547391E+02  0.27328754005E+02  0.29052310888E+03  0.29931972850E+03  0.00000000000E+00 0. -1.
</event>
<event>
 7    1  0.6833760E-006  0.9778811E+02  0.7561462E-02  0.1285017E+00
          1   -1    0    0  501    0  0.00000000000E+00  0.00000000000E+00  0.19266296162E+03  0.19266296162E+03  0.00000000000E+00 0. -1.
         -1   -1    0    0    0  501 -0.00000000000E+00 -0.00000000000E+00 -0.85354568212E+02  0.85354568212E+02  0.00000000000E+00 0.  1.
         23    2    1    2    0    0  0.58815735117E+02 -0.28617864625E+02  0.45137491303E+02  0.14819568147E+03  0.12508514705E+03 0.  0.
          5    1    3    3  502    0  0.57726853366E+02 -0.41807866404E+01 -0.32623783916E+02  0.66570656099E+02  0.41800000000E+01 0.  1.
         -5    1    3    3    0  502  0.10888817506E+01 -0.24437077985E+02  0.77761275219E+02  0.81625025375E+02  0.41800000000E+01 0.  1.
        -11    1    1    2    0    0 -0.59122838740E+02 -0.21277629235E+02  0.25105779787E+02  0.67664966897E+02  0.00000000000E+00 0.  1.
         11    1    1    2    0    0  0.30710362324E+00  0.49895493860E+02  0.37065122314E+02  0.62156881456E+02  0.00000000000E+00 0. -1.
</event>
<event>
 7    1  0.6833760E-006  0.1357138E+03  0.7561462E-02  0.1219215E+00
         -2   -1    0    0    0  501 -0.00000000000E+00  0.00000000000E+00  0.42338479181E+02  0.42338479181E+02  0.00000000000E+00 0. -1.
          2   -1    0    0  501    0  0.00000000000E+00 -0.00000000000E+00 -0.55787544349E+03  0.55787544349E+03  0.00000000000E+00 0.  1.
         23    2    1    2    0    0 -0.64610560603E+02  0.85165104673E+02 -0.22855393023E+03  0.28162379774E+03  0.12508974711E+03 0.  0.
          5    1    3    3  502    0  0.28339483522E+02  0.54093125485E+02 -0.12383116598E+03  0.13813335086E+03  0.41800000000E+01 0. -1.
         -5    1    3    3    0  502 -0.92950044125E+02  0.31071979188E+02 -0.10472276425E+03  0.14349044688E+03  0.41800000000E+01 0. -1.
        -11    1    1    2    0    0  0.49874802814E+02 -0.37978587870E+02 -0.61742306048E+02  0.87988530209E+02  0.00000000000E+00 0. -1.
         11    1    1    2    0    0  0.14735757789E+02 -0.47186516803E+02 -0.22524072803E+03  0.23060159472E+03  0.00000000000E+00 0.  1.
</event>
<event>
 7    1  0.6833760E-006  0.2149807E+03  0.7561462E-02  0.1137681E+00
         -2   -1    0    0    0  501 -0.00000000000E+00  0.00000000000E+00  0.60102593221E+02  0.60102593221E+02  0.00000000000E+00 0. -1.
          2   -1    0    0  501    0  0.00000000000E+00 -0.00000000000E+00 -0.11018627855E+04  0.11018627855E+04  0.00000000000E+00 0.  1.
         23    2    1    2    0    0 -0.18859228816E+03 -0.61473252317E+02 -0.25802111301E+03  0.34866538977E+03  0.12508655945E+03 0.  0.
          5    1    3    3  502    0 -0.20361206708E+03 -0.44643286572E+02 -0.21254929853E+03  0.29773406524E+03  0.41800000000E+01 0.  1.
         -5    1    3    3    0  502  0.15019778920E+02 -0.16829965746E+02 -0.45471814483E+02  0.50931324528E+02  0.41800000000E+01 0.  1.
        -11    1    1    2    0    0  0.14286147486E+03  0.42822943295E+02 -0.70305988724E+03  0.71870467545E+03  0.00000000000E+00 0.  1.
         11    1    1    2    0    0  0.45730813299E+02  0.18650309022E+02 -0.80679192074E+02  0.94595313549E+02  0.00000000000E+00 0. -1.
</event>
<event>
 7    1  0.6833760E-006  0.1284252E+03  0.7561462E-02  0.1229811E+00
          2   -1    0    0  501    0  0.00000000000E+00  0.00000000000E+00  0.36635199732E+03  0.36635199732E+03  0.00000000000E+00 0. -1.
         -2   -1    0    0    0  501 -0.00000000000E+00 -0.00000000000E+00 -0.74180045591E+02  0.74180045591E+02  0.00000000000E+00 0.  1.
         23    2    1    2    0    0  0.12055096667E+03 -0.82657519326E+01  0.12900140537E+03  0.21654193095E+03  0.12509271382E+03 0.  0.
          5    1    3    3  502    0 -0.24591309065E+01  0.94113523787E+01 -0.19905058747E+02  0.22545612481E+02  0.41800000000E+01 0. -1.
         -5    1    3    3    0  502  0.12301009758E+03 -0.17677104311E+02  0.14890646412E+03  0.19399631847E+03  0.41800000000E+01 0. -1.
        -11    1    1    2    0    0 -0.94400144540E+02 -0.30115680982E+00  0.48629759302E+02  0.10619007239E+03  0.00000000000E+00 0.  1.
         11    1    1    2    0    0 -0.26150822129E+02  0.85669087425E+01  0.11454078706E+03  0.11780003957E+03  0.00000000000E+00 0. -1.
</event>
<event>
 7    1  0.6833760E-006  0.1041256E+03  0.7561462E-02  0.1271852E+00
         -2   -1    0    0    0  501 -0.00000000000E+00  0.00000000000E+00  0.46131728335E+03  0.46131728335E+03  0.00000000000E+00 0. -1.
          2   -1    0    0  501    0  0.00000000000E+00 -0.00000000000E+00 -0.37655393367E+02  0.37655393367E+02  0.00000000000E+00 0.  1.
         23    2    1    2    0    0  0.15195222472E+02  0.68002490266E+02  0.26776276380E+03  0.30364457113E+03  0.12509154419E+03 0.  0.
          5    1    3    3  502    0  0.66678377458E+02  0.38436812137E+02  0.19475100248E+03  0.20944884797E+03  0.41800000000E+01 0.  1.
         -5    1    3    3    0  502 -0.51483154986E+02  0.29565678129E+02  0.73011761317E+02  0.94195723158E+02  0.41800000000E+01 0.  1.
        -11    1    1    2    0    0 -0.84057757413E+00 -0.41580347043E+02  0.54981941367E+01  0.41950708810E+02  0.00000000000E+00 0.  1.
         11    1    1    2    0    0 -0.14354644898E+02 -0.26422143223E+02  0.15040093204E+03  0.15337739678E+03  0.00000000000E+00 0. -1.
</event>
<event>
 7    1  0.6833760E-006  0.1002797E+03  0.7561462E-02  0.1279709E+00
          2   -1    0    0  501    0  0.00000000000E+00  0.00000000000E+00  0.59308303663E+03  0.59308303663E+03  0.00000000000E+00 0.  1.
         -2   -1    0    0    0  501 -0.00000000000E+00 -0.00000000000E+00 -0.21180542305E+02  0.21180542305E+02  0.00000000000E+00 0. -1.
         23    2    1    2    0    0  0.17333629464E+02  0.12392455838E+02  0.38141711014E+03  0.40197058773E+03  0.12508922343E+03 0.  0.
          5    1    3    3  502    0 -0.53472286230E+02 -0.48912955189E+01  0.16614459111E+03  0.17465596961E+03  0.41800000000E+01 0.  1.
         -5    1    3    3    0  502  0.70805915694E+02  0.17283751357E+02  0.21527251903E+03  0.22731461812E+03  0.41800000000E+01 0.  1.
        -11    1    1    2    0    0 -0.32469654659E+02  0.19865241668E+02  0.16274065209E+03  0.16713295948E+03  0.00000000000E+00 0.  1.
         11    1    1    2    0    0  0.15136025195E+02 -0.32257697507E+02  0.27744732094E+02  0.45160031733E+02  0.00000000000E+00 0. -1.
</event>
<event>
 7    1  0.6833760E-006  0.1122048E+03  0.7561462E-02  0.1256540E+00
         -2   -1    0    0    0  501 -0.00000000000E+00  0.00000000000E+00  0.54668206288E+02  0.54668206288E+02  0.00000000000E+00 0.  1.
          2   -1    0    0  501    0  0.00000000000E+00 -0.00000000000E+00 -0.29088784658E+03  0.29088784658E+03  0.00000000000E+00 0. -1.
         23    2    1    2    0    0 -0.34052790916E+02  0.12948973636E+02 -0.58110501681E+02  0.14265864807E+03  0.12508953184E+03 0.  0.
          5    1    3    3  502    0 -0.11635710065E+01  0.66852067131E+02 -0.28944319678E+02  0.72978070807E+02  0.41800000000E+01 0. -1.
         -5    1    3    3    0  502 -0.32889219910E+02 -0.53903093495E+02 -0.29166182004E+02  0.69680577260E+02  0.41800000000E+01 0. -1.
        -11    1    1    2    0    0 -0.14615596101E+02 -0.37047451333E+02 -0.10112972242E+03  0.10868923616E+03  0.00000000000E+00 0.  1.
         11    1    1    2    0    0  0.48668387017E+02  0.24098477698E+02 -0.76979416195E+02  0.94208168648E+02  0.00000000000E+00 0. -1.
</event>
<event>
 7    1  0.6833760E-006  0.8058044E+02  0.7561462E-02  0.1327412E+00
         -1   -1    0    0    0  501 -0.00000000000E+00  0.00000000000E+00  0.39362472397E+02  0.39362472397E+02  0.00000000000E+00 0.  1.
          1   -1    0    0  501    0  0.00000000000E+00 -0.00000000000E+00 -0.36097924839E+03  0.36097924839E+03  0.00000000000E+00 0. -1.
         23    2    1    2    0    0  0.10512327338E+02 -0.22227870372E+02 -0.10720214323E+03  0.16656615564E+03  0.12508955770E+03 0.  0.
          5    1    3    3  502    0 -0.15122150553E+02 -0.48706269047E+02 -0.11742711871E+03  0.12809207896E+03  0.41800000000E+01 0.  1.
         -5    1    3    3    0  502  0.25634477891E+02  0.26478398675E+02  0.10224975489E+02  0.38474076687E+02  0.41800000000E+01 0.  1.
        -11    1    1    2    0    0 -0.28542295800E+02 -0.14478199276E+02 -0.17163554496E+03  0.17459393231E+03  0.00000000000E+00 0. -1.
         11    1    1    2    0    0  0.18029968463E+02  0.36706069648E+02 -0.42779087809E+02  0.59181632839E+02  0.00000000000E+00 0.  1.
</event>
<event>
 7    1  0.6833760E-006  0.1305608E+03  0.7561462E-02  0.1226626E+00
         -1   -1    0    0    0  501 -0.00000000000E+00  0.00000000000E+00  0.82873278012E+02  0.82873278012E+02  0.00000000000E+00 0.  1.
          1   -1    0    0  501    0  0.00000000000E+00 -0.00000000000E+00 -0.27304850163E+03  0.27304850163E+03  0.00000000000E+00 0. -1.
         23    2    1    2    0    0 -0.10669735403E+03 -0.84924494684E+01 -0.87327767378E+02  0.18636235428E+03  0.12509332949E+03 0.  0.
          5    1    3    3  502    0 -0.43324007890E+02 -0.36605450960E+02  0.18476631125E+02  0.59797884556E+02  0.41800000000E+01 0.  1.
         -5    1    3    3    0  502 -0.63373346141E+02  0.28113001491E+02 -0.10580439850E+03  0.12656446972E+03  0.41800000000E+01 0.  1.
        -11    1    1    2    0    0  0.11135338595E+03  0.27933840764E+02 -0.88383035953E+02  0.14488421952E+03  0.00000000000E+00 0. -1.
         11    1    1    2    0    0 -0.46560319220E+01 -0.19441391296E+02 -0.14464420283E+02  0.24675205833E+02  0.00000000000E+00 0.  1.
</event>
<event>
 7    1  0.6833760E-006  0.1441142E+03  0.7561462E-02  0.1207898E+00
          2   -1    0    0  501    0  0.00000000000E+00  0.00000000000E+00  0.10796361905E+04  0.10796361905E+04  0.00000000000E+00 0. -1.
         -2   -1    0    0    0  501 -0.00000000000E+00 -0.00000000000E+00 -0.26063065374E+02  0.26063065374E+02  0.00000000000E+00 0.  1.
         23    2    1    2    0    0  0.95667361910E+02  0.78973979499E+02  0.65293922382E+03  0.67628854658E+03  0.12508970644E+03 0.  0.
          5    1    3    3  502    0  0.56352171506E+02  0.10870230537E+02  0.50877407777E+03  0.51201783538E+03  0.41800000000E+01 0. -1.
         -5    1    3    3    0  502  0.39315190404E+02  0.68103748962E+02  0.14416514605E+03  0.16427071119E+03  0.41800000000E+01 0. -1.
        -11    1    1    2    0    0 -0.93515106475E+00 -0.53946654395E+02  0.10652552099E+03  0.11941022841E+03  0.00000000000E+00 0.  1.
         11    1    1    2    0    0 -0.94732210845E+02 -0.25027325104E+02  0.29410838030E+03  0.31000048086E+03  0.00000000000E+00 0. -1.
</event>
<event>
 7    1  0.6833760E-006  0.1286893E+03  0.7561462E-02  0.1229414E+00
          1   -1    0    0  501    0  0.00000000000E+00  0.00000000000E+00  0.49930586507E+03  0.49930586507E+03  0.00000000000E+00 0. -1.
         -1   -1    0    0    0  501 -0.00000000000E+00 -0.00000000000E+00 -0.34818124027E+02  0.34818124027E+02  0.00000000000E+00 0.  1.
         23    2    1    2    0    0  0.49216392573E+02 -0.52347561655E+02  0.21539290427E+03  0.25923733886E+03  0.12508946455E+03 0.  0.
          5    1    3    3  502    0  0.66463050018E+01  0.40019290994E+02  0.44789067661E+02  0.60574334530E+02  0.41800000000E+01 0.  1.
         -5    1    3    3    0  502  0.42570087571E+02 -0.92366852649E+02  0.17060383661E+03  0.19866300433E+03  0.41800000000E+01 0.  1.
        -11    1    1    2    0    0 -0.29356371233E+02  0.77432638271E+02  0.15887626220E+03  0.17916271011E+03  0.00000000000E+00 0.  1.
         11    1    1    2    0    0 -0.19860021340E+02 -0.25085076615E+02  0.90218574567E+02  0.95723940126E+02  0.00000000000E+00 0. -1.
</event>
<event>
 7    1  0.6833760E-006  0.1192491E+03  0.7561462E-02  0.1244341E+00
          2   -1    0    0  501    0  0.00000000000E+00  0.00000000000E+00  0.29634070776E+03  0.29634070776E+03  0.00000000000E+00 0. -1.
         -2   -1    0    0    0  501 -0.00000000000E+00 -0.00000000000E+00 -0.55942673801E+02  0.55942673801E+02  0.00000000000E+00 0.  1.
         23    2    1    2    0    0  0.60727283466E+02 -0.13292876151E+02  0.17412620254E+03  0.22323102374E+03  0.12509057534E+03 0.  0.
          5    1    3    3  502    0 -0.33510355015E+02  0.13257982840E+02  0.77685719942E+02  0.85739497812E+02  0.41800000000E+01 0.  1.
         -5    1    3    3    0  502  0.94237638481E+02 -0.26550858991E+02  0.96440482595E+02  0.13749152593E+03  0.41800000000E+01 0.  1.
        -11    1    1    2    0    0 -0.81962629562E+02  0.12990593062E+02  0.32427307964E+02  0.89096343665E+02  0.00000000000E+00 0.  1.
         11    1    1    2    0    0  0.21235346095E+02  0.30228308883E+00  0.33844523456E+02  0.39956014151E+02  0.00000000000E+00 0. -1.
</event>
<event>
 7    1  0.6833760E-006  0.1330508E+03  0.7561462E-02  0.1222998E+00
         -2   -1    0    0    0  501 -0.00000000000E+00  0.00000000000E+00  0.24828767752E+02  0.24828767752E+02  0.00000000000E+00 0.  1.
          2   -1    0    0  501    0  0.00000000000E+00 -0.00000000000E+00 -0.94450709195E+03  0.94450709195E+03  0.00000000000E+00 0. -1.
         23    2    1    2    0    0  0.14923294964E+02 -0.90186828885E+02 -0.31473124338E+03  0.35081960016E+03  0.12514898106E+03 0.  0.
          5    1    3    3  502    0 -0.41187360968E+02 -0.62214040339E+02 -0.87538651668E+02  0.11509766920E+03  0.41800000000E+01 0.  1.
         -5    1    3    3    0  502  0.56110655932E+02 -0.27972788546E+02 -0.22719259172E+03  0.23572193097E+03  0.41800000000E+01 0.  1.
        -11    1    1    2    0    0  0.38250736718E+02  0.41515843617E+02 -0.28713962372E+03  0.29263603271E+03  0.00000000000E+00 0.  1.
         11    1    1    2    0    0 -0.53174031682E+02  0.48670985268E+02 -0.31780745710E+03  0.32588022683E+03  0.00000000000E+00 0. -1.
</event>
<event>
 7    1  0.6833760E-006  0.9508575E+02  0.7561462E-02  0.1290983E+00
         -2   -1    0    0    0  501 -0.00000000000E+00  0.00000000000E+00  0.14786130548E+03  0.14786130548E+03  0.00000000000E+00 0.  1.
          2   -1    0    0  501    0  0.00000000000E+00 -0.00000000000E+00 -0.11496739511E+03  0.11496739511E+03  0.00000000000E+00 0. -1.
         23    2    1    2    0    0  0.17726283642E+02 -0.69417217761E+02  0.23530515507E+02  0.14607173099E+03  0.12510113581E+03 0.  0.
          5    1    3    3  502    0 -0.16461794638E+02 -0.46265357258E+02 -0.44487004579E+02  0.66393071486E+02  0.41800000000E+01 0. -1.
         -5    1    3    3    0  502  0.34188078280E+02 -0.23151860504E+02  0.68017520086E+02  0.79678659501E+02  0.41800000000E+01 0. -1.
        -11    1    1    2    0    0 -0.22901025646E+02 -0.60941528015E+01 -0.24280017277E+02  0.33928084429E+02  0.00000000000E+00 0. -1.
         11    1    1    2    0    0  0.51747420048E+01  0.75511370563E+02  0.33643412139E+02  0.82828885176E+02  0.00000000000E+00 0.  1.
</event>
<event>
 7    1  0.6833760E-006  0.1127800E+03  0.7561462E-02  0.1255507E+00
          2   -1    0    0  501    0  0.00000000000E+00  0.00000000000E+00  0.15073566590E+03  0.15073566590E+03  0.00000000000E+00 0. -1.
         -2   -1    0    0    0  501 -0.00000000000E+00 -0.00000000000E+00 -0.14157659967E+03  0.14157659967E+03  0.00000000000E+00 0.  1.
         23    2    1    2    0    0  0.93190687600E+02  0.19571046564E+02 -0.24029139740E+02  0.15903459523E+03  0.12508826005E+03 0.  0.
          5    1    3    3  502    0  0.80281238421E+02  0.22956453508E+02 -0.71212936173E+02  0.10982181331E+03  0.41800000000E+01 0.  1.
         -5    1    3    3    0  502  0.12909449179E+02 -0.33854069434E+01  0.47183796433E+02  0.49212781918E+02  0.41800000000E+01 0.  1.
        -11    1    1    2    0    0 -0.93612589764E+02 -0.44070897708E+02  0.19765631822E+02  0.10533869749E+03  0.00000000000E+00 0. -1.
         11    1    1    2    0    0  0.42190216436E+00  0.24499851144E+02  0.13422574148E+02  0.27938972856E+02  0.00000000000E+00 0.  1.
</event>
<event>
 7    1  0.6833760E-006  0.1633428E+03  0.7561462E-02  0.1184974E+00
          2   -1    0    0  501    0  0.00000000000E+00  0.00000000000E+00  0.77857681398E+03  0.77857681398E+03  0.00000000000E+00 0. -1.
         -2   -1    0    0    0  501 -0.00000000000E+00 -0.00000000000E+00 -0.43739730161E+02  0.43739730161E+02  0.00000000000E+00 0.  1.
         23    2    1    2    0    0  0.13687178682E+03 -0.42141244530E+02  0.29825463912E+03  0.35371334428E+03  0.12509008611E+03 0.  0.
          5    1    3    3  502    0  0.51171947433E+02  0.21769188724E+02  0.26672329418E+02  0.61817079666E+02  0.41800000000E+01 0. -1.
         -5    1    3    3    0  502  0.85699839391E+02 -0.63910433255E+02  0.27158230971E+03  0.29189626461E+03  0.41800000000E+01 0. -1.
        -11    1    1    2    0    0 -0.52154748352E+02  0.57720361878E+02  0.14482626331E+03  0.16439709394E+03  0.00000000000E+00 0. -1.
         11    1    1    2    0    0 -0.84717038472E+02 -0.15579117348E+02  0.29175618139E+03  0.30420610592E+03  0.00000000000E+00 0.  1.
</event>
<event>
 7    1  0.6833760E-006  0.2501580E+03  0.7561462E-02  0.1113205E+00
          2   -1    0    0  501    0  0.00000000000E+00  0.00000000000E+00  0.42574268117E+03  0.42574268117E+03  0.00000000000E+00 0.  1.
         -2   -1    0    0    0  501 -0.00000000000E+00 -0.00000000000E+00 -0.16421573853E+03  0.16421573853E+03  0.00000000000E+00 0. -1.
         23    2    1    2    0    0 -0.10577151575E+03 -0.21569456737E+03  0.11229123465E+03  0.29320456637E+03  0.12509131236E+03 0.  0.
          5    1    3    3  502    0 -0.14105432904E+02 -0.12722009669E+03  0.76652383810E+01  0.12829709474E+03  0.41800000000E+01 0. -1.
         -5    1    3    3    0  502 -0.91666082845E+02 -0.88474470678E+02  0.10462599627E+03  0.16490747163E+03  0.41800000000E+01 0. -1.
        -11    1    1    2    0    0  0.27051520699E+02  0.10828649084E+03  0.11281248517E+03  0.15869595358E+03  0.00000000000E+00 0.  1.
         11    1    1    2    0    0  0.78719995049E+02  0.10740807652E+03  0.36423222826E+02  0.13805789975E+03  0.00000000000E+00 0. -1.
</event>
<event>
 7    1  0.6833760E-006  0.1394336E+03  0.7561462E-02  0.1214093E+00
         -1   -1    0    0    0  501 -0.00000000000E+00  0.00000000000E+00  0.27591485450E+03  0.27591485450E+03  0.00000000000E+00 0. -1.
          1   -1    0    0  501    0  0.00000000000E+00 -0.00000000000E+00 -0.92768789624E+02  0.92768789624E+02  0.00000000000E+00 0.  1.
         23    2    1    2    0    0 -0.96908371185E+02  0.37155175553E+01  0.17413323719E+03  0.23531784396E+03  0.12508823252E+03 0.  0.
          5    1    3    3  502    0 -0.24403294533E+02  0.60290112556E+02  0.85659046112E+02  0.10763532430E+03  0.41800000000E+01 0. -1.
         -5    1    3    3    0  502 -0.72505076652E+02 -0.56574595001E+02  0.88474191082E+02  0.12768251966E+03  0.41800000000E+01 0. -1.
        -11    1    1    2    0    0  0.24861190992E+02 -0.35126313016E+02  0.29461241073E+02  0.52152674037E+02  0.00000000000E+00 0. -1.
         11    1    1    2    0    0  0.72047180193E+02  0.31410795461E+02 -0.20448413390E+02  0.81213126128E+02  0.00000000000E+00 0.  1.
</event>
<event>
 7    1  0.6833760E-006  0.1067335E+03  0.7561462E-02  0.1266741E+00
         -3   -1    0    0    0  501 -0.00000000000E+00  0.00000000000E+00  0.83881501460E+02  0.83881501460E+02  0.00000000000E+00 0.  1.
          3   -1    0    0  501    0  0.00000000000E+00 -0.00000000000E+00 -0.25911787591E+03  0.25911787591E+03  0.00000000000E+00 0. -1.
         23    2    1    2    0    0  0.37643521632E+02  0.31627207642E+02  0.56608820879E+01  0.13457685715E+03  0.12514619415E+03 0.  0.
          5    1    3    3  502    0  0.78682843526E+02  0.22750672830E+02 -0.21007070869E+02  0.84660217376E+02  0.41800000000E+01 0. -1.
         -5    1    3    3    0  502 -0.41039321894E+02  0.88765348119E+01  0.26667952957E+02  0.49916639778E+02  0.41800000000E+01 0. -1.
        -11    1    1    2    0    0 -0.30960042878E+02  0.20222835595E+02 -0.26719951510E+02  0.45622835765E+02  0.00000000000E+00 0.  1.
         11    1    1    2    0    0 -0.66834787535E+01 -0.51850043238E+02 -0.15417730503E+03  0.16279968445E+03  0.00000000000E+00 0. -1.
</event>
<event>
 7    1  0.6833760E-006  0.2222949E+03  0.7561462E-02  0.1132184E+00
          1   -1    0    0  501    0  0.00000000000E+00  0.00000000000E+00  0.57907288243E+03  0.57907288243E+03  0.00000000000E+00 0. -1.
         -1   -1    0    0    0  501 -0.00000000000E+00 -0.00000000000E+00 -0.93014149536E+02  0.93014149536E+02  0.00000000000E+00 0.  1.
         23    2    1    2    0    0 -0.94631958680E+02 -0.17484159513E+03  0.19693602610E+03  0.30652360103E+03  0.12509248027E+03 0.  0.
          5    1    3    3  502    0 -0.49436111335E+02 -0.79018405673E+01  0.89157811795E+01  0.51022855098E+02  0.41800000000E+01 0.  1.
         -5    1    3    3    0  502 -0.45195847345E+02 -0.16693975457E+03  0.18802024492E+03  0.25550074593E+03  0.41800000000E+01 0.  1.
        -11    1    1    2    0    0 -0.17303295667E+02  0.51253278358E+01  0.11278861672E+02  0.21281112447E+02  0.00000000000E+00 0.  1.
         11    1    1    2    0    0  0.11193525435E+03  0.16971626730E+03  0.27784384512E+03  0.34428231849E+03  0.00000000000E+00 0. -1.
</event>
<event>
 7    1  0.6833760E-006  0.9637375E+02  0.7561462E-02  0.1288112E+00
         -1   -1    0    0    0  501 -0.00000000000E+00  0.00000000000E+00  0.18036785587E+03  0.18036785587E+03  0.00000000000E+00 0.  1.
          1   -1    0    0  501    0  0.00000000000E+00 -0.00000000000E+00 -0.71862524361E+02  0.71862524361E+02  0.00000000000E+00 0. -1.
         23    2    1    2    0    0 -0.21497421622E+02 -0.19486719898E+02  0.86862952325E+02  0.15502414746E+03  0.12508174295E+03 0.  0.
          5    1    3    3  502    0 -0.61394854617E+02  0.15930377671E+02  0.78262152145E+02  0.10082431237E+03  0.41800000000E+01 0. -1.
         -5    1    3    3    0  502  0.39897432994E+02 -0.35417097570E+02  0.86008001798E+01  0.54199835088E+02  0.41800000000E+01 0. -1.
        -11    1    1    2    0    0 -0.75675194575E+01 -0.22988076018E+02  0.36358170820E+02  0.43676487669E+02  0.00000000000E+00 0.  1.
         11    1    1    2    0    0  0.29064941080E+02  0.42474795916E+02 -0.14715791632E+02  0.53529745109E+02  0.00000000000E+00 0. -1.
</event>
<event>
 7    1  0.6833760E-006  0.8949008E+02  0.7561462E-02  0.1304091E+00
         -2   -1    0    0    0  501 -0.00000000000E+00  0.00000000000E+00  0.35229810809E+02  0.35229810809E+02  0.00000000000E+00 0.  1.
          2   -1    0    0  501    0  0.00000000000E+00 -0.00000000000E+00 -0.42539414054E+03  0.42539414054E+03  0.00000000000E+00 0. -1.
         23    2    1    2    0    0  0.27894230183E+02  0.39674763252E+02 -0.16751641738E+03  0.21462491681E+03  0.12509967988E+03 0.  0.
          5    1    3    3  502    0 -0.20306183869E+02  0.65118288323E+02 -0.48941430699E+02  0.84056341916E+02  0.41800000000E+01 0. -1.
         -5    1    3    3    0  502  0.48200414052E+02 -0.25443525072E+02 -0.11857498668E+03  0.13056857489E+03  0.41800000000E+01 0. -1.
        -11    1    1    2    0    0 -0.17980093276E+02 -0.33057900048E+01  0.18347804696E+01  0.18373307300E+02  0.00000000000E+00 0.  1.
         11    1    1    2    0    0 -0.99141369067E+01 -0.36368973247E+02 -0.22448269282E+03  0.22762572724E+03  0.00000000000E+00 0. -1.
</event>
<event>
 7    1  0.6833760E-006  0.9257309E+02  0.7561462E-02  0.1296738E+00
          1   -1    0    0  501    0  0.00000000000E+00  0.00000000000E+00  0.16477517746E+02  0.16477517746E+02  0.00000000000E+00 0. -1.
         -1   -1    0    0    0  501 -0.00000000000E+00 -0.00000000000E+00 -0.79444969226E+03  0.79444969226E+03  0.00000000000E+00 0.  1.
         23    2    1    2    0    0  0.19683390334E+02 -0.21160054512E+02 -0.50642705125E+03  0.52244733149E+03  0.12509065584E+03 0.  0.
          5    1    3    3  502    0 -0.28543036814E+02 -0.53750160090E+02 -0.35427116619E+03  0.35948479280E+03  0.41800000000E+01 0.  1.
         -5    1    3    3    0  502  0.48226427148E+02  0.32590105579E+02 -0.15215588506E+03  0.16296253869E+03  0.41800000000E+01 0.  1.
        -11    1    1    2    0    0  0.12320669146E+02 -0.13727066681E+02 -0.69953572491E+01  0.19727297608E+02  0.00000000000E+00 0. -1.
         11    1    1    2    0    0 -0.32004059480E+02  0.34887121192E+02 -0.26454976601E+03  0.26875258091E+03  0.00000000000E+00 0.  1.
</event>
<event>
 7    1  0.6833760E-006  0.1277876E+03  0.7561462E-02  0.1230776E+00
          1   -1    0    0  501    0  0.00000000000E+00  0.00000000000E+00  0.60787649652E+03  0.60787649652E+03  0.00000000000E+00 0. -1.
         -1   -1    0    0    0  501 -0.00000000000E+00 -0.00000000000E+00 -0.39325874201E+02  0.39325874201E+02  0.00000000000E+00 0.  1.
         23    2    1    2    0    0 -0.71753452421E+02 -0.62821579172E+02  0.18899202325E+03  0.24588761653E+03  0.12509047273E+03 0.  0.
          5    1    3    3  502    0 -0.10604850472E+03 -0.57859480179E+02  0.15991033043E+03  0.20045645656E+03  0.41800000000E+01 0.  1.
         -5    1    3    3    0  502  0.34295052301E+02 -0.49620989928E+01  0.29081692820E+02  0.45431159968E+02  0.41800000000E+01 0.  1.
        -11    1    1    2    0    0  0.11505523168E+02  0.27846557182E+02  0.22710379646E+02  0.37730215397E+02  0.00000000000E+00 0.  1.
         11    1    1    2    0    0  0.60247929253E+02  0.34975021990E+02  0.35684821943E+03  0.36358453880E+03  0.00000000000E+00 0. -1.
</event>
<event>
 7    1  0.6833760E-006  0.1106250E+03  0.7561462E-02  0.1259417E+00
         -2   -1    0    0    0  501 -0.00000000000E+00  0.00000000000E+00  0.34833916144E+03  0.34833916144E+03  0.00000000000E+00 0.  1.
          2   -1    0    0  501    0  0.00000000000E+00 -0.00000000000E+00 -0.63076974236E+02  0.63076974236E+02  0.00000000000E+00 0. -1.
         23    2    1    2    0    0  0.24912439949E+02 -0.77281996423E+02  0.23658545939E+03  0.27966692767E+03  0.12509106364E+03 0.  0.
          5    1    3    3  502    0  0.68356953321E+01 -0.99732691948E+02  0.10555903381E+03  0.14544249239E+03  0.41800000000E+01 0.  1.
         -5    1    3    3    0  502  0.18076744616E+02  0.22450695525E+02  0.13102642558E+03  0.13422443528E+03  0.41800000000E+01 0.  1.
        -11    1    1    2    0    0 -0.17854282532E+02  0.38046170884E+01 -0.22658295187E+02  0.29097231083E+02  0.00000000000E+00 0.  1.
         11    1    1    2    0    0 -0.70581574168E+01  0.73477379334E+02  0.71335023007E+02  0.10265197693E+03  0.00000000000E+00 0. -1.
</event>
<event>
 7    1  0.6833760E-006  0.1265601E+03  0.7561462E-02  0.1232651E+00
         -1   -1    0    0    0  501 -0.00000000000E+00  0.00000000000E+00  0.74932010990E+02  0.74932010990E+02  0.00000000000E+00 0.  1.
          1   -1    0    0  501    0  0.00000000000E+00 -0.00000000000E+00 -0.32486085034E+03  0.32486085034E+03  0.00000000000E+00 0. -1.
         23    2    1    2    0    0 -0.10063625628E+03  0.39943586054E+02 -0.99981269985E+02  0.19330300937E+03  0.12508658176E+03 0.  0.
          5    1    3    3  502    0 -0.45134761085E+02  0.36492533849E+01  0.24899364804E+02  0.51845100792E+02  0.41800000000E+01 0.  1.
         -5    1    3    3    0  502 -0.55501495199E+02  0.36294332669E+02 -0.12488063479E+03  0.14145790858E+03  0.41800000000E+01 0.  1.
        -11    1    1    2    0    0  0.11799486824E+03 -0.36404668149E+02 -0.13767113207E+03  0.18493628470E+03  0.00000000000E+00 0. -1.
         11    1    1    2    0    0 -0.17358611957E+02 -0.35389179051E+01 -0.12276437298E+02  0.21553567263E+02  0.00000000000E+00 0.  1.
</event>
<event>
 7    1  0.6833760E-006  0.1043737E+03  0.7561462E-02  0.1271358E+00
          2   -1    0    0  501    0  0.00000000000E+00  0.00000000000E+00  0.48337994637E+03  0.48337994637E+03  0.00000000000E+00 0. -1.
         -2   -1    0    0    0  501 -0.00000000000E+00 -0.00000000000E+00 -0.30689125814E+02  0.30689125814E+02  0.00000000000E+00 0.  1.
         23    2    1    2    0    0 -0.50101610998E+02  0.10945111970E+02  0.22164579295E+03  0.25961929915E+03  0.12508139774E+03 0.  0.
          5    1    3    3  502    0 -0.60803578872E+02  0.59482507911E+02  0.13392115463E+03  0.15870599235E+03  0.41800000000E+01 0.  1.
         -5    1    3    3    0  502  0.10701967875E+02 -0.48537395941E+02  0.87724638317E+02  0.10091330680E+03  0.41800000000E+01 0.  1.
        -11    1    1    2    0    0 -0.57765759090E+01 -0.16567400460E+02  0.91847572297E+00  0.17569609697E+02  0.00000000000E+00 0. -1.
         11    1    1    2    0    0  0.55878186907E+02  0.56222884899E+01  0.23012655188E+03  0.23688016333E+03  0.00000000000E+00 0.  1.
</event>
<event>
 7    1  0.6833760E-006  0.1554093E+03  0.7561462E-02  0.1193979E+00
          2   -1    0    0  501    0  0.00000000000E+00  0.00000000000E+00  0.83097061034E+03  0.83097061034E+03  0.00000000000E+00 0. -1.
         -2   -1    0    0    0  501 -0.00000000000E+00 -0.00000000000E+00 -0.41258324411E+02  0.41258324411E+02  0.00000000000E+00 0.  1.
         23    2    1    2    0    0 -0.71785592045E+02 -0.92983388943E+02  0.20099315389E+03  0.26428195687E+03  0.12509045915E+03 0.  0.
          5    1    3    3  502    0  0.10783543792E+01 -0.85774477234E+02  0.15645885570E+03  0.17848044632E+03  0.41800000000E+01 0. -1.
         -5    1    3    3    0  502 -0.72863946424E+02 -0.72089117090E+01  0.44534298188E+02  0.85801510544E+02  0.41800000000E+01 0. -1.
        -11    1    1    2    0    0  0.93808680964E+02  0.58101679724E+02  0.43775810443E+03  0.45145102925E+03  0.00000000000E+00 0.  1.
         11    1    1    2    0    0 -0.22023088919E+02  0.34881709219E+02  0.15096102761E+03  0.15649594863E+03  0.00000000000E+00 0. -1.
</event>
<event>
 7    1  0.6833760E-006  0.1830982E+03  0.7561462E-02  0.1164838E+00
          2   -1    0    0  501    0  0.00000000000E+00  0.00000000000E+00  0.41348201494E+03  0.41348201494E+03  0.00000000000E+00 0. -1.
         -2   -1    0    0    0  501 -0.00000000000E+00 -0.00000000000E+00 -0.89545820704E+02  0.89545820704E+02  0.00000000000E+00 0.  1.
         23    2    1    2    0    0  0.54382328969E+02 -0.14798824855E+03  0.14623650627E+03  0.24878847854E+03  0.12511047869E+03 0.  0.
          5    1    3    3  502    0  0.52886871345E+02 -0.16998540297E+03  0.13629108610E+03  0.22424270542E+03  0.41800000000E+01 0.  1.
         -5    1    3    3    0  502  0.14954576246E+01  0.21997154418E+02  0.99454201695E+01  0.24545773126E+02  0.41800000000E+01 0.  1.
        -11    1    1    2    0    0 -0.10152888962E+02  0.99644379941E+02  0.52870115689E+02  0.11325781536E+03  0.00000000000E+00 0.  1.
         11    1    1    2    0    0 -0.44229440007E+02  0.48343868609E+02  0.12482957227E+03  0.14098154173E+03  0.00000000000E+00 0. -1.
</event>
<event>
 6    1  0.6833760E-006  0.9599878E+02  0.7561462E-02  0.1288942E+00
          2   -1    0    0  501    0  0.00000000000E+00  0.00000000000E+00  0.66620837079E+02  0.66620837079E+02  0.00000000000E+00 0. -1.
         -2   -1    0    0    0  501 -0.00000000000E+00 -0.00000000000E+00 -0.22238244741E+03  0.22238244741E+03  0.00000000000E+00 0.  1.
          5    1    1    2  502    0  0.34190978558E+02 -0.66573763594E+02 -0.58760301818E+02  0.95243553502E+02  0.41800000000E+01 0. -1.
         -5    1    1    2    0  502 -0.48116700728E+02  0.75675150694E+02 -0.12548977180E+03  0.15429549750E+03  0.41800000000E+01 0.  1.
        -11    1    1    2    0    0  0.30890126996E+01 -0.14733156245E+02  0.16833334360E+02  0.22582494063E+02  0.00000000000E+00 0. -1.
         11    1    1    2    0    0  0.10836709470E+02  0.56317691453E+01  0.11655128926E+02  0.16881739428E+02  0.00000000000E+00 0.  1.
</event>
<event>
 7    1  0.6833760E-006  0.1509165E+03  0.7561462E-02  0.1199351E+00
          2   -1    0    0  501    0  0.00000000000E+00  0.00000000000E+00  0.33770547932E+02  0.33770547932E+02  0.00000000000E+00 0.  1.
         -2   -1    0    0    0  501 -0.00000000000E+00 -0.00000000000E+00 -0.75830179896E+03  0.75830179896E+03  0.00000000000E+00 0. -1.
         23    2    1    2    0    0  0.11415775496E+03  0.17229213161E+02 -0.44852144227E+03  0.47973746667E+03  0.12509082281E+03 0.  0.
          5    1    3    3  502    0  0.10872624970E+03  0.59755826288E+02 -0.28964451558E+03  0.31512469588E+03  0.41800000000E+01 0.  1.
         -5    1    3    3    0  502  0.54315052617E+01 -0.42526613127E+02 -0.15887692669E+03  0.16461277079E+03  0.41800000000E+01 0.  1.
        -11    1    1    2    0    0 -0.31229413698E+02 -0.37946886313E+02 -0.47445954654E+02  0.68310768359E+02  0.00000000000E+00 0.  1.
         11    1    1    2    0    0 -0.82928341263E+02  0.20717673152E+02 -0.22856385411E+03  0.24402411186E+03  0.00000000000E+00 0. -1.
</event>
<event>
 6    1  0.6833760E-006  0.1875274E+03  0.7561462E-02  0.1160711E+00
          2   -1    0    0  501    0  0.00000000000E+00  0.00000000000E+00  0.16749227103E+03  0.16749227103E+03  0.00000000000E+00 0. -1.
         -2   -1    0    0    0  501 -0.00000000000E+00 -0.00000000000E+00 -0.34219059884E+03  0.34219059884E+03  0.00000000000E+00 0.  1.
          5    1    1    2  502    0  0.33224811407E+02  0.96888109902E+02  0.19900102572E+02  0.10442547781E+03  0.41800000000E+01 0. -1.
         -5    1    1    2    0  502  0.64157580679E+02  0.47419730524E+02 -0.19291689334E+03  0.20880427711E+03  0.41800000000E+01 0.  1.
        -11    1    1    2    0    0 -0.26753191811E+02 -0.11170262598E+03  0.17865904366E+02  0.11624285123E+03  0.00000000000E+00 0. -1.
         11    1    1    2    0    0 -0.70629200275E+02 -0.32605214446E+02 -0.19547441401E+02  0.80210263719E+02  0.00000000000E+00 0.  1.
</event>
<event>
 7    1  0.6833760E-006  0.1126712E+03  0.7561462E-02  0.1255702E+00
          1   -1    0    0  501    0  0.00000000000E+00  0.00000000000E+00  0.64318689580E+02  0.64318689580E+02  0.00000000000E+00 0. -1.
         -1   -1    0    0    0  501 -0.00000000000E+00 -0.00000000000E+00 -0.24428900477E+03  0.24428900477E+03  0.00000000000E+00 0.  1.
         23    2    1    2    0    0  0.33830916449E-01  0.44456714600E+02 -0.15406616323E+03  0.20337256497E+03  0.12509043494E+03 0.  0.
          5    1    3    3  502    0 -0.14830469942E+02 -0.40130075802E+02 -0.29987113984E+02  0.52412452982E+02  0.41800000000E+01 0.  1.
         -5    1    3    3    0  502  0.14864300858E+02  0.84586790402E+02 -0.12407904924E+03  0.15096011199E+03  0.41800000000E+01 0.  1.
        -11    1    1    2    0    0 -0.42478744349E+02 -0.27844813690E+02 -0.30788126644E+02  0.59394327281E+02  0.00000000000E+00 0. -1.
         11    1    1    2    0    0  0.42444913433E+02 -0.16611900910E+02  0.48839746827E+01  0.45840802096E+02  0.00000000000E+00 0.  1.
</event>
<event>
 7    1  0.6833760E-006  0.9815486E+02  0.7561462E-02  0.1284225E+00
         -3   -1    0    0    0  501 -0.00000000000E+00  0.00000000000E+00  0.15328769659E+03  0.15328769659E+03  0.00000000000E+00 0.  1.
          3   -1    0    0  501    0  0.00000000000E+00 -0.00000000000E+00 -0.11356270263E+03  0.11356270263E+03  0.00000000000E+00 0. -1.
         23    2    1    2    0    0  0.19946656641E+01  0.46674898832E+02  0.81609430113E+02  0.15649083580E+03  0.12508700066E+03 0.  0.
          5    1    3    3  502    0 -0.13428273605E+02  0.73447709467E+02  0.96380511756E+02  0.12198999961E+03  0.41800000000E+01 0.  1.
         -5    1    3    3    0  502  0.15422939269E+02 -0.26772810636E+02 -0.14771081643E+02  0.34500836192E+02  0.41800000000E+01 0.  1.
        -11    1    1    2    0    0  0.25928204312E+02  0.95023934163E+01  0.95670550006E+01  0.29224917466E+02  0.00000000000E+00 0.  1.
         11    1    1    2    0    0 -0.27922869976E+02 -0.56177292248E+02 -0.51451491149E+02  0.81134645950E+02  0.00000000000E+00 0. -1.
</event>
<event>
 7    1  0.6833760E-006  0.9761215E+02  0.7561462E-02  0.1285399E+00
          1   -1    0    0  501    0  0.00000000000E+00  0.00000000000E+00  0.65195733920E+03  0.65195733920E+03  0.00000000000E+00 0. -1.
         -1   -1    0    0    0  501 -0.00000000000E+00 -0.00000000000E+00 -0.23175395175E+02  0.23175395175E+02  0.00000000000E+00 0.  1.
         23    2    1    2    0    0  0.96395258872E+01 -0.57893988780E+02  0.32724743100E+03  0.35522267077E+03  0.12509048858E+03 0.  0.
          5    1    3    3  502    0  0.15941172129E+02  0.17847338758E+02  0.23213155312E+03  0.23339918343E+03  0.41800000000E+01 0. -1.
         -5    1    3    3    0  502 -0.63016462417E+01 -0.75741327538E+02  0.95115877879E+02  0.12182348734E+03  0.41800000000E+01 0. -1.
        -11    1    1    2    0    0 -0.11500419422E+02 -0.16656107743E+02  0.19219653985E+02  0.27912016612E+02  0.00000000000E+00 0.  1.
         11    1    1    2    0    0  0.18608935352E+01  0.74550096523E+02  0.28231485903E+03  0.29199804699E+03  0.00000000000E+00 0. -1.
</event>
<event>
 7    1  0.6833760E-006  0.1088017E+03  0.7561462E-02  0.1262805E+00
          1   -1    0    0  501    0  0.00000000000E+00  0.00000000000E+00  0.47063798862E+02  0.47063798862E+02  0.00000000000E+00 0. -1.
         -1   -1    0    0    0  501 -0.00000000000E+00 -0.00000000000E+00 -0.29627547826E+03  0.29627547826E+03  0.00000000000E+00 0.  1.
         23    2    1    2    0    0 -0.43164764631E+02 -0.36421780986E+02 -0.14223684082E+03  0.19098835150E+03  0.11426061651E+03 0.  0.
          5    1    3    3  502    0  0.34058537034E+02 -0.21120941312E-01 -0.74168512982E+02  0.81721631830E+02  0.41800000000E+01 0. -1.
         -5    1    3    3    0  502 -0.77223301665E+02 -0.36400660045E+02 -0.68068327842E+02  0.10926671967E+03  0.41800000000E+01 0.  1.
        -11    1    1    2    0    0 -0.15776490809E+02  0.35520519475E+02 -0.76923183432E+02  0.86184575855E+02  0.00000000000E+00 0.  1.
         11    1    1    2    0    0  0.58941255439E+02  0.90126151148E+00 -0.30051655143E+02  0.66166349770E+02  0.00000000000E+00 0. -1.
</event>
<event>
 7    1  0.6833760E-006  0.1476932E+03  0.7561462E-02  0.1203337E+00
         -1   -1    0    0    0  501 -0.00000000000E+00  0.00000000000E+00  0.24810180321E+02  0.24810180321E+02  0.00000000000E+00 0.  1.
          1   -1    0    0  501    0  0.00000000000E+00 -0.00000000000E+00 -0.93121459552E+03  0.93121459552E+03  0.00000000000E+00 0. -1.
         23    2    1    2    0    0  0.10279934349E+03  0.13262730300E+02 -0.42132563898E+03  0.45155414694E+03  0.12506897506E+03 0.  0.
          5    1    3    3  502    0 -0.83272315041E+01  0.44983176521E+02 -0.99804942308E+02  0.10986959481E+03  0.41800000000E+01 0. -1.
         -5    1    3    3    0  502  0.11112657499E+03 -0.31720446221E+02 -0.32152069667E+03  0.34168455213E+03  0.41800000000E+01 0. -1.
        -11    1    1    2    0    0 -0.92207454995E+02  0.23826094297E+02 -0.39792780624E+03  0.40916553680E+03  0.00000000000E+00 0.  1.
         11    1    1    2    0    0 -0.10591888490E+02 -0.37088824598E+02 -0.87150969979E+02  0.95305092100E+02  0.00000000000E+00 0. -1.
</event>
<event>
 7    1  0.6833760E-006  0.1034941E+03  0.7561462E-02  0.1273115E+00
          4   -1    0    0  501    0  0.00000000000E+00  0.00000000000E+00  0.31454501441E+02  0.31454501441E+02  0.00000000000E+00 0.  1.
         -4   -1    0    0    0  501 -0.00000000000E+00 -0.00000000000E+00 -0.52997527128E+03  0.52997527128E+03  0.00000000000E+00 0. -1.
         23    2    1    2    0    0  0.41215917644E+02  0.65852968493E+02 -0.33074352679E+03  0.36203536713E+03  0.12507182421E+03 0.  0.
          5    1    3    3  502    0  0.60099284642E+02  0.57581621821E+02 -0.33066014598E+03  0.34100025179E+03  0.41800000000E+01 0.  1.
         -5    1    3    3    0  502 -0.18883366998E+02  0.82713466725E+01 -0.83380819124E-01  0.21035115339E+02  0.41800000000E+01 0.  1.
        -11    1    1    2    0    0 -0.12305755035E+01  0.13607179617E+02 -0.63180131201E+01  0.15052805154E+02  0.00000000000E+00 0.  1.
         11    1    1    2    0    0 -0.39985342140E+02 -0.79460148111E+02 -0.16145922993E+03  0.18434160044E+03  0.00000000000E+00 0. -1.
</event>
<event>
 7    1  0.6833760E-006  0.1896355E+03  0.7561462E-02  0.1158791E+00
          3   -1    0    0  501    0  0.00000000000E+00  0.00000000000E+00  0.13701628004E+03  0.13701628004E+03  0.00000000000E+00 0. -1.
         -3   -1    0    0    0  501 -0.00000000000E+00 -0.00000000000E+00 -0.30013693849E+03  0.30013693849E+03  0.00000000000E+00 0.  1.
         23    2    1    2    0    0  0.15691439977E+03 -0.30948081461E-01 -0.14795309033E+03  0.24932191196E+03  0.12509663877E+03 0.  0.
          5    1    3    3  502    0  0.63456793134E+02 -0.60558372455E+02 -0.50545511081E+02  0.10132325577E+03  0.41800000000E+01 0.  1.
         -5    1    3    3    0  502  0.93457606637E+02  0.60527424374E+02 -0.97407579247E+02  0.14799865619E+03  0.41800000000E+01 0.  1.
        -11    1    1    2    0    0 -0.16843622641E+03 -0.12291009421E+01  0.37716140295E+00  0.16844113306E+03  0.00000000000E+00 0. -1.
         11    1    1    2    0    0  0.11521826634E+02  0.12600490235E+01 -0.15544729525E+02  0.19390173504E+02  0.00000000000E+00 0.  1.
</event>
<event>
 7    1  0.6833760E-006  0.1475039E+03  0.7561462E-02  0.1203574E+00
          4   -1    0    0  501    0  0.00000000000E+00  0.00000000000E+00  0.20563962263E+03  0.20563962263E+03  0.00000000000E+00 0. -1.
         -4   -1    0    0    0  501 -0.00000000000E+00 -0.00000000000E+00 -0.15381865102E+03  0.15381865102E+03  0.00000000000E+00 0.  1.
         23    2    1    2    0    0 -0.79271773158E+02 -0.11651214019E+03  0.37128886333E+02  0.19205638171E+03  0.12509199305E+03 0.  0.
          5    1    3    3  502    0 -0.48446578129E+02 -0.58343150567E+02 -0.43780049009E+02  0.87665040020E+02  0.41800000000E+01 0.  1.
         -5    1    3    3    0  502 -0.30825195029E+02 -0.58168989619E+02  0.80908935342E+02  0.10439134169E+03  0.41800000000E+01 0.  1.
        -11    1    1    2    0    0  0.85798672945E+01  0.65149054370E+02  0.39369566800E+02  0.76602716650E+02  0.00000000000E+00 0. -1.
         11    1    1    2    0    0  0.70691905863E+02  0.51363085816E+02 -0.24677481517E+02  0.90799175289E+02  0.00000000000E+00 0.  1.
</event>
<event>
 7    1  0.6833760E-006  0.1315906E+03  0.7561462E-02  0.1225114E+00
         -2   -1    0    0    0  501 -0.00000000000E+00  0.00000000000E+00  0.36209433825E+02  0.36209433825E+02  0.00000000000E+00 0.  1.
          2   -1    0    0  501    0  0.00000000000E+00 -0.00000000000E+00 -0.51842427785E+03  0.51842427785E+03  0.00000000000E+00 0. -1.
         23    2    1    2    0    0 -0.36009044309E+02  0.74626898175E+02 -0.25047074969E+03  0.29197394646E+03  0.12508942304E+03 0.  0.
          5    1    3    3  502    0 -0.77853505905E+02  0.40467322255E+02 -0.10593224314E+03  0.13761498860E+03  0.41800000000E+01 0.  1.
         -5    1    3    3    0  502  0.41844461596E+02  0.34159575920E+02 -0.14453850655E+03  0.15435895785E+03  0.41800000000E+01 0.  1.
        -11    1    1    2    0    0  0.52459070888E+02 -0.86543447909E+01 -0.12819397215E+03  0.13878237027E+03  0.00000000000E+00 0. -1.
         11    1    1    2    0    0 -0.16450026578E+02 -0.65972553384E+02 -0.10355012218E+03  0.12387739495E+03  0.00000000000E+00 0.  1.
</event>
<event>
 7    1  0.6833760E-006  0.2081431E+03  0.7561462E-02  0.1143045E+00
          2   -1    0    0  501    0  0.00000000000E+00  0.00000000000E+00  0.88949967914E+02  0.88949967914E+02  0.00000000000E+00 0. -1.
         -2   -1    0    0    0  501 -0.00000000000E+00 -0.00000000000E+00 -0.61468687851E+03  0.61468687851E+03  0.00000000000E+00 0.  1.
         23    2    1    2    0    0  0.55637079215E+02 -0.19384968874E+03 -0.33785936623E+03  0.41287849214E+03  0.12508601646E+03 0.  0.
          5    1    3    3  502    0  0.34267252177E+02 -0.15935761019E+03 -0.15308410753E+03  0.22365444077E+03  0.41800000000E+01 0.  1.
         -5    1    3    3    0  502  0.21369827037E+02 -0.34492078549E+02 -0.18477525870E+03  0.18922405137E+03  0.41800000000E+01 0.  1.
        -11    1    1    2    0    0 -0.68809090569E+02  0.12835129568E+03 -0.16514880429E+03  0.22018826855E+03  0.00000000000E+00 0.  1.
         11    1    1    2    0    0  0.13172011354E+02  0.65498393055E+02 -0.22728740085E+02  0.70570085743E+02  0.00000000000E+00 0. -1.
</event>
<event>
 7    1  0.6833760E-006  0.1094304E+03  0.7561462E-02  0.1261628E+00
          4   -1    0    0  501    0  0.00000000000E+00  0.00000000000E+00  0.63586180083E+02  0.63586180083E+02  0.00000000000E+00 0. -1.
         -4   -1    0    0    0  501 -0.00000000000E+00 -0.00000000000E+00 -0.24127304548E+03  0.24127304548E+03  0.00000000000E+00 0.  1.
         23    2    1    2    0    0  0.13914903927E+02  0.24349736828E+02 -0.16608102463E+03  0.20979723980E+03  0.12508173667E+03 0.  0.
          5    1    3    3  502    0 -0.14600509852E+02  0.70632760133E+02 -0.78987715091E+02  0.10704528587E+03  0.41800000000E+01 0.  1.
         -5    1    3    3    0  502  0.28515413779E+02 -0.46283023305E+02 -0.87093309543E+02  0.10275195393E+03  0.41800000000E+01 0.  1.
        -11    1    1    2    0    0 -0.37131439015E+02  0.19894746595E+02  0.49721971861E+01  0.42417772811E+02  0.00000000000E+00 0. -1.
         11    1    1    2    0    0  0.23216535089E+02 -0.44244483423E+02 -0.16578037947E+02  0.52644212949E+02  0.00000000000E+00 0.  1.
</event>
<event>
 7    1  0.6833760E-006  0.1346872E+03  0.7561462E-02  0.1220662E+00
         -1   -1    0    0    0  501 -0.00000000000E+00  0.00000000000E+00  0.23599541999E+02  0.23599541999E+02  0.00000000000E+00 0.  1.
          1   -1    0    0  501    0  0.00000000000E+00 -0.00000000000E+00 -0.90715828393E+03  0.90715828393E+03  0.00000000000E+00 0. -1.
         23    2    1    2    0    0  0.75285741223E+02  0.59800649046E+02 -0.47733048706E+03  0.50273296824E+03  0.12510788551E+03 0.  0.
          5    1    3    3  502    0  0.70716069782E+02 -0.40108014739E+01 -0.11769675505E+03  0.13742942772E+03  0.41800000000E+01 0. -1.
         -5    1    3    3    0  502  0.45696714409E+01  0.63811450520E+02 -0.35963373202E+03  0.36530354052E+03  0.41800000000E+01 0. -1.
        -11    1    1    2    0    0  0.19210649164E+01  0.21851612134E+02 -0.53275536912E+02  0.57614809524E+02  0.00000000000E+00 0. -1.
         11    1    1    2    0    0 -0.77206806139E+02 -0.81652261180E+02 -0.35295271796E+03  0.37041004817E+03  0.00000000000E+00 0.  1.
</event>
<event>
 7    1  0.6833760E-006  0.1365409E+03  0.7561462E-02  0.1218061E+00
          3   -1    0    0  501    0  0.00000000000E+00  0.00000000000E+00  0.15319392785E+04  0.15319392785E+04  0.00000000000E+00 0. -1.
         -3   -1    0    0    0  501 -0.00000000000E+00 -0.00000000000E+00 -0.12947106114E+02  0.12947106114E+02  0.00000000000E+00 0.  1.
         23    2    1    2    0    0 -0.72252679108E+02  0.52898732308E+02  0.82740362835E+03  0.84158299888E+03  0.12508578766E+03 0.  0.
          5    1    3    3  502    0  0.30469035319E+02  0.26937827615E+01  0.85363199827E+02  0.90774263222E+02  0.41800000000E+01 0.  1.
         -5    1    3    3    0  502 -0.10272171443E+03  0.50204949546E+02  0.74204042853E+03  0.75080873566E+03  0.41800000000E+01 0.  1.
        -11    1    1    2    0    0  0.34726252758E+02 -0.76121498682E+02  0.44517980544E+03  0.45297401069E+03  0.00000000000E+00 0. -1.
         11    1    1    2    0    0  0.37526426350E+02  0.23222766374E+02  0.24640873858E+03  0.25032937502E+03  0.00000000000E+00 0.  1.
</event>
<event>
 7    1  0.6833760E-006  0.1097902E+03  0.7561462E-02  0.1260959E+00
         -1   -1    0    0    0  501 -0.00000000000E+00  0.00000000000E+00  0.33736326990E+02  0.33736326990E+02  0.00000000000E+00 0.  1.
          1   -1    0    0  501    0  0.00000000000E+00 -0.00000000000E+00 -0.42333306469E+03  0.42333306469E+03  0.00000000000E+00 0. -1.
         23    2    1    2    0    0  0.10686115746E+02 -0.35507584443E+02 -0.18565485183E+03  0.22691709829E+03  0.12509461965E+03 0.  0.
          5    1    3    3  502    0 -0.17568708016E+02 -0.71010875071E+02 -0.15655094848E+03  0.17284928623E+03  0.41800000000E+01 0.  1.
         -5    1    3    3    0  502  0.28254823762E+02  0.35503290628E+02 -0.29103903357E+02  0.54067812069E+02  0.41800000000E+01 0.  1.
        -11    1    1    2    0    0 -0.12482611202E+02  0.67528057702E+02 -0.99498077714E+02  0.12089549879E+03  0.00000000000E+00 0.  1.
         11    1    1    2    0    0  0.17964954552E+01 -0.32020473259E+02 -0.10444380815E+03  0.10925679459E+03  0.00000000000E+00 0. -1.
</event>
<event>
 7    1  0.6833760E-006  0.7420994E+02  0.7561462E-02  0.1346335E+00
          1   -1    0    0  501    0  0.00000000000E+00  0.00000000000E+00  0.26926913264E+03  0.26926913264E+03  0.00000000000E+00 0. -1.
         -1   -1    0    0    0  501 -0.00000000000E+00 -0.00000000000E+00 -0.54112696230E+02  0.54112696230E+02  0.00000000000E+00 0.  1.
         23    2    1    2    0    0 -0.50087742069E+02  0.83584635076E+01  0.10031482745E+03  0.16819254665E+03  0.12508805827E+03 0.  0.
          5    1    3    3  502    0 -0.28649602889E+02 -0.37133793812E+02  0.10736673090E+03  0.11723824330E+03  0.41800000000E+01 0.  1.
         -5    1    3    3    0  502 -0.21438139179E+02  0.45492257320E+02 -0.70519034420E+01  0.50954303348E+02  0.41800000000E+01 0.  1.
        -11    1    1    2    0    0  0.28309613116E+02 -0.62295875740E+01  0.12692487035E+03  0.13019279808E+03  0.00000000000E+00 0. -1.
         11    1    1    2    0    0  0.21778128953E+02 -0.21288759336E+01 -0.12083261403E+02  0.24996484144E+02  0.00000000000E+00 0.  1.
</event>
<event>
 6    1  0.6833760E-006  0.1388553E+03  0.7561462E-02  0.1214878E+00
          1   -1    0    0  501    0  0.00000000000E+00  0.00000000000E+00  0.58290133270E+03  0.58290133270E+03  0.00000000000E+00 0. -1.
         -1   -1    0    0    0  501 -0.00000000000E+00 -0.00000000000E+00 -0.24872842340E+03  0.24872842340E+03  0.00000000000E+00 0.  1.
          5    1    1    2  502    0  0.40856934530E+02 -0.55656917833E+02 -0.11498399519E+03  0.13418559219E+03  0.41800000000E+01 0. -1.
         -5    1    1    2    0  502  0.59051720748E+02  0.71232500428E+02 -0.97486475516E+02  0.13447029467E+03  0.41800000000E+01 0.  1.
        -11    1    1    2    0    0 -0.27838307269E+02  0.21216294447E+02  0.58518463157E+02  0.68187337768E+02  0.00000000000E+00 0.  1.
         11    1    1    2    0    0 -0.72070348009E+02 -0.36791877042E+02  0.48812491685E+03  0.49478653147E+03  0.00000000000E+00 0. -1.
</event>
<event>
 7    1  0.6833760E-006  0.1377851E+03  0.7561462E-02  0.1216341E+00
         -2   -1    0    0    0  501 -0.00000000000E+00  0.00000000000E+00  0.28319988314E+02  0.28319988314E+02  0.00000000000E+00 0.  1.
          2   -1    0    0  501    0  0.00000000000E+00 -0.00000000000E+00 -0.69514067629E+03  0.69514067629E+03  0.00000000000E+00 0. -1.
         23    2    1    2    0    0  0.60867652249E+02  0.55863986648E+02 -0.30716865225E+03  0.34179937011E+03  0.12509425403E+03 0.  0.
          5    1    3    3  502    0  0.91427576709E+02  0.72263154915E+01 -0.17476716915E+03  0.19741392360E+03  0.41800000000E+01 0. -1.
         -5    1    3    3    0  502 -0.30559924460E+02  0.48637671157E+02 -0.13240148310E+03  0.14438544651E+03  0.41800000000E+01 0. -1.
        -11    1    1    2    0    0 -0.66886525989E+02  0.30425605137E+01 -0.16087408994E+03  0.17425136254E+03  0.00000000000E+00 0.  1.
         11    1    1    2    0    0  0.60188737399E+01 -0.58906547162E+02 -0.19877794579E+03  0.20740993195E+03  0.00000000000E+00 0. -1.
</event>
<event>
 7    1  0.6833760E-006  0.1213073E+03  0.7561462E-02  0.1240956E+00
          2   -1    0    0  501    0  0.00000000000E+00  0.00000000000E+00  0.42624688108E+03  0.42624688108E+03  0.00000000000E+00 0. -1.
         -2   -1    0    0    0  501 -0.00000000000E+00 -0.00000000000E+00 -0.52569317162E+02  0.52569317162E+02  0.00000000000E+00 0.  1.
         23    2    1    2    0    0 -0.70979688870E+02  0.64367492176E+02  0.14397173819E+03  0.21344129080E+03  0.12509209784E+03 0.  0.
          5    1    3    3  502    0 -0.12353055350E+02 -0.31295012187E+02  0.73337151154E+02  0.80794714578E+02  0.41800000000E+01 0.  1.
         -5    1    3    3    0  502 -0.58626633519E+02  0.95662504363E+02  0.70634587036E+02  0.13264657623E+03  0.41800000000E+01 0.  1.
        -11    1    1    2    0    0  0.42496027773E+02 -0.31223093168E+02  0.29436731595E+02  0.60393005310E+02  0.00000000000E+00 0.  1.
         11    1    1    2    0    0  0.28483661097E+02 -0.33144399008E+02  0.20026909414E+03  0.20498190213E+03  0.00000000000E+00 0. -1.
</event>
<event>
 7    1  0.6833760E-006  0.8255177E+02  0.7561462E-02  0.1321962E+00
         -2   -1    0    0    0  501 -0.00000000000E+00  0.00000000000E+00  0.20961790065E+03  0.20961790065E+03  0.00000000000E+00 0.  1.
          2   -1    0    0  501    0  0.00000000000E+00 -0.00000000000E+00 -0.91599357397E+02  0.91599357397E+02  0.00000000000E+00 0. -1.
         23    2    1    2    0    0 -0.29450084683E+02 -0.45260882916E+02  0.13588739850E+03  0.19242699794E+03  0.12508760712E+03 0.  0.
          5    1    3    3  502    0 -0.35643409834E+02 -0.67885607608E+01  0.14717768923E+03  0.15164195273E+03  0.41800000000E+01 0. -1.
         -5    1    3    3    0  502  0.61933251510E+01 -0.38472322155E+02 -0.11290290723E+02  0.40785045213E+02  0.41800000000E+01 0. -1.
        -11    1    1    2    0    0  0.48436988410E+02  0.50211757210E+02 -0.39021794227E+02  0.79937868580E+02  0.00000000000E+00 0. -1.
         11    1    1    2    0    0 -0.18986903727E+02 -0.49508742944E+01  0.21152938979E+02  0.28852391528E+02  0.00000000000E+00 0.  1.
</event>
<event>
 7    1  0.6833760E-006  0.1219393E+03  0.7561462E-02  0.1239932E+00
         -2   -1    0    0    0  501 -0.00000000000E+00  0.00000000000E+00  0.69619964300E+02  0.69619964300E+02  0.00000000000E+00 0.  1.
          2   -1    0    0  501    0  0.00000000000E+00 -0.00000000000E+00 -0.28514628367E+03  0.28514628367E+03  0.00000000000E+00 0. -1.
         23    2    1    2    0    0  0.79383093227E+02  0.36844357873E+02 -0.14637847860E+03  0.21148917915E+03  0.12506730869E+03 0.  0.
          5    1    3    3  502    0  0.18633242305E+02  0.54458980007E+02 -0.66976129941E+01  0.58097406500E+02  0.41800000000E+01 0.  1.
         -5    1    3    3    0  502  0.60749850922E+02 -0.17614622134E+02 -0.13968086561E+03  0.15339177265E+03  0.41800000000E+01 0.  1.
        -11    1    1    2    0    0 -0.36937432525E+02 -0.62921655418E+02 -0.26265108561E+02  0.77545886866E+02  0.00000000000E+00 0.  1.
         11    1    1    2    0    0 -0.42445660702E+02  0.26077297545E+02 -0.42882732211E+02  0.65731181958E+02  0.00000000000E+00 0. -1.
</event>
<event>
 7    1  0.6833760E-006  0.1084045E+03  0.7561462E-02  0.1263553E+00
         -2   -1    0    0    0  501 -0.00000000000E+00  0.00000000000E+00  0.25282969372E+03  0.25282969372E+03  0.00000000000E+00 0.  1.
          2   -1    0    0  501    0  0.00000000000E+00 -0.00000000000E+00 -0.11508870649E+03  0.11508870649E+03  0.00000000000E+00 0. -1.
         23    2    1    2    0    0 -0.20805966126E+01  0.76515199987E+02  0.18916950496E+03  0.23935549136E+03  0.12508814864E+03 0.  0.
          5    1    3    3  502    0  0.51852393898E+02  0.16393592391E+02  0.33715584880E+02  0.64122021867E+02  0.41800000000E+01 0. -1.
         -5    1    3    3    0  502 -0.53932990511E+02  0.60121607596E+02  0.15545392007E+03  0.17523346950E+03  0.41800000000E+01 0. -1.
        -11    1    1    2    0    0 -0.12808900048E+02 -0.37804003375E+02  0.20997941855E+02  0.45101265545E+02  0.00000000000E+00 0.  1.
         11    1    1    2    0    0  0.14889496661E+02 -0.38711196613E+02 -0.72426459579E+02  0.83461643293E+02  0.00000000000E+00 0. -1.
</event>
<event>
 7    1  0.6833760E-006  0.1074431E+03  0.7561462E-02  0.1265380E+00
         -2   -1    0    0    0  501 -0.00000000000E+00  0.00000000000E+00  0.27638402485E+02  0.27638402485E+02  0.00000000000E+00 0.  1.
          2   -1    0    0  501    0  0.00000000000E+00 -0.00000000000E+00 -0.49241473685E+03  0.49241473685E+03  0.00000000000E+00 0. -1.
         23    2    1    2    0    0  0.30596002965E+02 -0.73660906700E+01 -0.20021903410E+03  0.23817165164E+03  0.12509076442E+03 0.  0.
          5    1    3    3  502    0 -0.45995851856E+02 -0.21094282950E+02 -0.86879887145E+02  0.10062889422E+03  0.41800000000E+01 0.  1.
         -5    1    3    3    0  502  0.76591854821E+02  0.13728192280E+02 -0.11333914695E+03  0.13754275743E+03  0.41800000000E+01 0.  1.
        -11    1    1    2    0    0 -0.50868408589E+02 -0.17780564149E+02 -0.94503179034E+02  0.10878692155E+03  0.00000000000E+00 0.  1.
         11    1    1    2    0    0  0.20272405624E+02  0.25146654819E+02 -0.17005412124E+03  0.17309456614E+03  0.00000000000E+00 0. -1.
</event>
<event>
 7    1  0.6833760E-006  0.2655491E+03  0.7561462E-02  0.1103854E+00
         -1   -1    0    0    0  501 -0.00000000000E+00  0.00000000000E+00  0.17435376679E+03  0.17435376679E+03  0.00000000000E+00 0.  1.
          1   -1    0    0  501    0  0.00000000000E+00 -0.00000000000E+00 -0.42420897757E+03  0.42420897757E+03  0.00000000000E+00 0. -1.
         23    2    1    2    0    0  0.22634826150E+03 -0.93094900873E+02 -0.71602949996E+02  0.28403128624E+03  0.12508634243E+03 0.  0.
          5    1    3    3  502    0  0.22352580867E+03 -0.11375902009E+03 -0.76412348635E+02  0.26222360919E+03  0.41800000000E+01 0. -1.
         -5    1    3    3    0  502  0.28224528340E+01  0.20664119218E+02  0.48093986385E+01  0.21807677050E+02  0.41800000000E+01 0. -1.
        -11    1    1    2    0    0 -0.11534475914E+03  0.92701843006E+02 -0.96349110912E+02  0.17658198190E+03  0.00000000000E+00 0.  1.
         11    1    1    2    0    0 -0.11100350237E+03  0.39305786769E+00 -0.81903149870E+02  0.13794947623E+03  0.00000000000E+00 0. -1.
</event>
<event>
 7    1  0.6833760E-006  0.7596023E+02  0.7561462E-02  0.1340923E+00
          3   -1    0    0  501    0  0.00000000000E+00  0.00000000000E+00  0.71719326427E+02  0.71719326427E+02  0.00000000000E+00 0. -1.
         -3   -1    0    0    0  501 -0.00000000000E+00 -0.00000000000E+00 -0.22686954913E+03  0.22686954913E+03  0.00000000000E+00 0.  1.
         23    2    1    2    0    0 -0.60117281232E+02 -0.14712109391E+02 -0.11699847330E+03  0.18212179739E+03  0.12509665330E+03 0.  0.
          5    1    3    3  502    0  0.11587919406E+02  0.37955228342E+01  0.21467793832E+02  0.25040456101E+02  0.41800000000E+01 0. -1.
         -5    1    3    3    0  502 -0.71705200639E+02 -0.18507632225E+02 -0.13846626713E+03  0.15708134129E+03  0.41800000000E+01 0. -1.
        -11    1    1    2    0    0  0.42780494216E+02  0.10654870237E+01 -0.67395456274E+02  0.79833911807E+02  0.00000000000E+00 0.  1.
         11    1    1    2    0    0  0.17336787016E+02  0.13646622367E+02  0.29243706867E+02  0.36633166358E+02  0.00000000000E+00 0. -1.
</event>
<event>
 7    1  0.6833760E-006  0.1136975E+03  0.7561462E-02  0.1253872E+00
         -2   -1    0    0    0  501 -0.00000000000E+00  0.00000000000E+00  0.23672370938E+03  0.23672370938E+03  0.00000000000E+00 0.  1.
          2   -1    0    0  501    0  0.00000000000E+00 -0.00000000000E+00 -0.67078675990E+02  0.67078675990E+02  0.00000000000E+00 0. -1.
         23    2    1    2    0    0  0.38812961662E+02 -0.32255666902E+02  0.13869812037E+03  0.19346860574E+03  0.12508420672E+03 0.  0.
          5    1    3    3  502    0 -0.26264215678E+02 -0.47774050310E+02  0.10513494937E+03  0.11850315982E+03  0.41800000000E+01 0. -1.
         -5    1    3    3    0  502  0.65077177340E+02  0.15518383408E+02  0.33563171005E+02  0.74965445921E+02  0.41800000000E+01 0. -1.
        -11    1    1    2    0    0  0.10634518196E+02 -0.26698968152E+02  0.11607437599E+02  0.30994523472E+02  0.00000000000E+00 0. -1.
         11    1    1    2    0    0 -0.49447479858E+02  0.58954635055E+02  0.19339475421E+02  0.79339256162E+02  0.00000000000E+00 0.  1.
</event>
<event>
 7    1  0.6833760E-006  0.1002781E+03  0.7561462E-02  0.1279712E+00
          1   -1    0    0  501    0  0.00000000000E+00  0.00000000000E+00  0.31034833213E+03  0.31034833213E+03  0.00000000000E+00 0. -1.
         -1   -1    0    0    0  501 -0.00000000000E+00 -0.00000000000E+00 -0.56465643032E+02  0.56465643032E+02  0.00000000000E+00 0.  1.
         23    2    1    2    0    0 -0.62734389612E+02 -0.60528396461E+02  0.15141255897E+03  0.21487710885E+03  0.12508844262E+03 0.  0.
          5    1    3    3  502    0 -0.67230923659E+02 -0.17876257008E+02  0.15666442204E+03  0.17146653083E+03  0.41800000000E+01 0.  1.
         -5    1    3    3    0  502  0.44965340468E+01 -0.42652139454E+02 -0.52518630784E+01  0.43410578022E+02  0.41800000000E+01 0.  1.
        -11    1    1    2    0    0  0.32889344854E+02  0.38749562236E+02  0.92478304159E+01  0.51660042061E+02  0.00000000000E+00 0.  1.
         11    1    1    2    0    0  0.29845044758E+02  0.21778834226E+02  0.93222299713E+02  0.10027682424E+03  0.00000000000E+00 0. -1.
</event>
<event>
 7    1  0.6833760E-006  0.8937953E+02  0.7561462E-02  0.1304361E+00
          2   -1    0    0  501    0  0.00000000000E+00  0.00000000000E+00  0.44344678455E+02  0.44344678455E+02  0.00000000000E+00 0.  1.
         -2   -1    0    0    0  501 -0.00000000000E+00 -0.00000000000E+00 -0.47872336113E+03  0.47872336113E+03  0.00000000000E+00 0. -1.
         23    2    1    2    0    0  0.15096588088E+02  0.15240973309E+02 -0.40573995627E+03  0.42512671014E+03  0.12509042057E+03 0.  0.
          5    1    3    3  502    0  0.62935093496E+00 -0.35325053734E+02 -0.32534245153E+02  0.48210009454E+02  0.41800000000E+01 0. -1.
         -5    1    3    3    0  502  0.14467237153E+02  0.50566027043E+02 -0.37320571112E+03  0.37691670068E+03  0.41800000000E+01 0. -1.
        -11    1    1    2    0    0  0.11878051448E+02 -0.47158723922E+02 -0.28063029516E+02  0.56147724564E+02  0.00000000000E+00 0.  1.
         11    1    1    2    0    0 -0.26974639536E+02  0.31917750613E+02 -0.57569688760E+00  0.41793604884E+02  0.00000000000E+00 0. -1.
</event>
<event>
 7    1  0.6833760E-006  0.1014421E+03  0.7561462E-02  0.1277292E+00
         -1   -1    0    0    0  501 -0.00000000000E+00  0.00000000000E+00  0.23313165426E+02  0.23313165426E+02  0.00000000000E+00 0.  1.
          1   -1    0    0  501    0  0.00000000000E+00 -0.00000000000E+00 -0.54311405200E+03  0.54311405200E+03  0.00000000000E+00 0. -1.
         23    2    1    2    0    0 -0.94323304140E+01 -0.26595161434E+02 -0.29375372102E+03  0.32052364729E+03  0.12509152005E+03 0.  0.
          5    1    3    3  502    0 -0.15133074477E+02  0.38600268097E+02 -0.21029200216E+03  0.21438094415E+03  0.41800000000E+01 0.  1.
         -5    1    3    3    0  502  0.57007440632E+01 -0.65195429531E+02 -0.83461718860E+02  0.10614270314E+03  0.41800000000E+01 0.  1.
        -11    1    1    2    0    0  0.41875953001E+02  0.42359910808E+02 -0.15860609564E+03  0.16942210912E+03  0.00000000000E+00 0.  1.
         11    1    1    2    0    0 -0.32443622587E+02 -0.15764749373E+02 -0.67441069905E+02  0.76481461017E+02  0.00000000000E+00 0. -1.
</event>
<event>
 7    1  0.6833760E-006  0.8815880E+02  0.7561462E-02  0.1307373E+00
          3   -1    0    0  501    0  0.00000000000E+00  0.00000000000E+00  0.10877433876E+03  0.10877433876E+03  0.00000000000E+00 0. -1.
         -3   -1    0    0    0  501 -0.00000000000E+00 -0.00000000000E+00 -0.18479846321E+03  0.18479846321E+03  0.00000000000E+00 0.  1.
         23    2    1    2    0    0  0.10192640451E+02  0.49374247470E+02 -0.12046748491E+03  0.18083663000E+03  0.12509102925E+03 0.  0.
          5    1    3    3  502    0 -0.39074350312E+02  0.20431204407E+02  0.33385924074E+01  0.44416861270E+02  0.41800000000E+01 0. -1.
         -5    1    3    3    0  502  0.49266990764E+02  0.28943043063E+02 -0.12380607732E+03  0.13641976873E+03  0.41800000000E+01 0. -1.
        -11    1    1    2    0    0  0.18703887179E+02 -0.14344829915E+01 -0.19970617468E+02  0.27399246323E+02  0.00000000000E+00 0.  1.
         11    1    1    2    0    0 -0.28896527630E+02 -0.47939764479E+02  0.64413977924E+02  0.85336925650E+02  0.00000000000E+00 0. -1.
</event>
<event>
 7    1  0.6833760E-006  0.1942757E+03  0.7561462E-02  0.1154660E+00
          2   -1    0    0  501    0  0.00000000000E+00  0.00000000000E+00  0.17537719598E+03  0.17537719598E+03  0.00000000000E+00 0. -1.
         -2   -1    0    0    0  501 -0.00000000000E+00 -0.00000000000E+00 -0.28821683851E+03  0.28821683851E+03  0.00000000000E+00 0.  1.
         23    2    1    2    0    0 -0.10729000337E+03 -0.13279270432E+03 -0.15625466694E+03  0.26307572515E+03  0.12509304169E+03 0.  0.
          5    1    3    3  502    0  0.14203102210E+02 -0.43295011456E+02 -0.84143448518E+02  0.95779843693E+02  0.41800000000E+01 0.  1.
         -5    1    3    3    0  502 -0.12149310558E+03 -0.89497692861E+02 -0.72111218423E+02  0.16729588146E+03  0.41800000000E+01 0.  1.
        -11    1    1    2    0    0  0.38112914634E+02  0.11392969143E+03  0.46321831776E+02  0.12875667342E+03  0.00000000000E+00 0. -1.
         11    1    1    2    0    0  0.69177088733E+02  0.18863012885E+02 -0.29068073627E+01  0.71761635918E+02  0.00000000000E+00 0.  1.
</event>
<event>
 7    1  0.6833760E-006  0.1106147E+03  0.7561462E-02  0.1259436E+00
         -2   -1    0    0    0  501 -0.00000000000E+00  0.00000000000E+00  0.13382729296E+03  0.13382729296E+03  0.00000000000E+00 0.  1.
          2   -1    0    0  501    0  0.00000000000E+00 -0.00000000000E+00 -0.11797782508E+03  0.11797782508E+03  0.00000000000E+00 0. -1.
         23    2    1    2    0    0 -0.57413473116E+02 -0.47968623660E+01  0.35243988985E+02  0.14215448347E+03  0.12508573711E+03 0.  0.
          5    1    3    3  502    0 -0.43562276682E+02  0.44569230820E+02 -0.21032945263E+02  0.65908614551E+02  0.41800000000E+01 0. -1.
         -5    1    3    3    0  502 -0.13851196434E+02 -0.49366093186E+02  0.56276934248E+02  0.76245868921E+02  0.41800000000E+01 0. -1.
        -11    1    1    2    0    0  0.28667583714E+02 -0.42922483392E+02 -0.35746421974E+01  0.51739230796E+02  0.00000000000E+00 0.  1.
         11    1    1    2    0    0  0.28745889402E+02  0.47719345758E+02 -0.15819878908E+02  0.57911403763E+02  0.00000000000E+00 0. -1.
</event>
<event>
 7    1  0.6833760E-006  0.1582517E+03  0.7561462E-02  0.1190685E+00
          4   -1    0    0  501    0  0.00000000000E+00  0.00000000000E+00  0.22530274214E+02  0.22530274214E+02  0.00000000000E+00 0. -1.
         -4   -1    0    0    0  501 -0.00000000000E+00 -0.00000000000E+00 -0.12312000285E+04  0.12312000285E+04  0.00000000000E+00 0.  1.
         23    2    1    2    0    0  0.77770545831E+01  0.11726883749E+03 -0.79831314254E+03  0.81655554945E+03  0.12508648591E+03 0.  0.
          5    1    3    3  502    0  0.53080535573E+02  0.10742897518E+03 -0.65465963595E+03  0.66554882563E+03  0.41800000000E+01 0. -1.
         -5    1    3    3    0  502 -0.45303480990E+02  0.98398623040E+01 -0.14365350659E+03  0.15100672381E+03  0.41800000000E+01 0. -1.
        -11    1    1    2    0    0 -0.49493726308E+02 -0.46526102682E+02 -0.16490161446E+03  0.17834474936E+03  0.00000000000E+00 0.  1.
         11    1    1    2    0    0  0.41716671724E+02 -0.70742734805E+02 -0.24545499730E+03  0.25883000392E+03  0.00000000000E+00 0. -1.
</event>
<event>
 7    1  0.7032458E-006  0.1700895E+03  0.7561462E-02  0.1177755E+00
          1   -1    0    0  501    0  0.00000000000E+00  0.00000000000E+00  0.11287840072E+04  0.11287840072E+04  0.00000000000E+00 0. -1.
         -1   -1    0    0    0  501 -0.00000000000E+00 -0.00000000000E+00 -0.28848300512E+02  0.28848300512E+02  0.00000000000E+00 0.  1.
         23    2    1    2    0    0  0.14334170421E+03 -0.93583556828E+01  0.59135554784E+03  0.62127552137E+03  0.12508983370E+03 0.  0.
          5    1    3    3  502    0 -0.33838071153E+01  0.35410485483E+02  0.86818874942E+02  0.93916676256E+02  0.41800000000E+01 0. -1.
         -5    1    3    3    0  502  0.14672551132E+03 -0.44768841166E+02  0.50453667290E+03  0.52735884511E+03  0.41800000000E+01 0. -1.
        -11    1    1    2    0    0 -0.23790553567E+02 -0.16027117527E+02  0.26592765533E+02  0.39115650499E+02  0.00000000000E+00 0.  1.
         11    1    1    2    0    0 -0.11955115064E+03  0.25385473209E+02  0.48198739333E+03  0.49724113587E+03  0.00000000000E+00 0. -1.
</event>
<event>
 7    1  0.6833760E-006  0.8296251E+02  0.7561462E-02  0.1320848E+00
          2   -1    0    0  501    0  0.00000000000E+00  0.00000000000E+00  0.22514991156E+03  0.22514991156E+03  0.00000000000E+00 0. -1.
         -2   -1    0    0    0  501 -0.00000000000E+00 -0.00000000000E+00 -0.64825410932E+02  0.64825410932E+02  0.00000000000E+00 0.  1.
         23    2    1    2    0    0  0.28147132321E+02 -0.17774446099E+02  0.40303288619E+02  0.13560057530E+03  0.12511981839E+03 0.  0.
          5    1    3    3  502    0  0.21508007619E+02 -0.42295550021E+02  0.77138110595E+02  0.90660181168E+02  0.41800000000E+01 0.  1.
         -5    1    3    3    0  502  0.66391247019E+01  0.24521103923E+02 -0.36834821975E+02  0.44940394128E+02  0.41800000000E+01 0.  1.
        -11    1    1    2    0    0  0.17415561998E+02  0.38676939113E+02  0.32202716546E+02  0.53256195619E+02  0.00000000000E+00 0. -1.
         11    1    1    2    0    0 -0.45562694319E+02 -0.20902493015E+02  0.87818495467E+02  0.10111855158E+03  0.00000000000E+00 0.  1.
</event>
<event>
 7    1  0.6833760E-006  0.1792583E+03  0.7561462E-02  0.1168523E+00
         -4   -1    0    0    0  501 -0.00000000000E+00  0.00000000000E+00  0.41162295897E+03  0.41162295897E+03  0.00000000000E+00 0.  1.
          4   -1    0    0  501    0  0.00000000000E+00 -0.00000000000E+00 -0.10155999877E+03  0.10155999877E+03  0.00000000000E+00 0. -1.
         23    2    1    2    0    0 -0.14030354350E+03 -0.70659744600E+02  0.25166038685E+03  0.32196170462E+03  0.12509398509E+03 0.  0.
          5    1    3    3  502    0 -0.95953323168E+02  0.16759419964E+02  0.16186224036E+03  0.18895707354E+03  0.41800000000E+01 0.  1.
         -5    1    3    3    0  502 -0.44350220334E+02 -0.87419164563E+02  0.89798146490E+02  0.13300463108E+03  0.41800000000E+01 0.  1.
        -11    1    1    2    0    0  0.61043024393E+02  0.54889346139E+02  0.72094666995E+02  0.10925535298E+03  0.00000000000E+00 0. -1.
         11    1    1    2    0    0  0.79260519110E+02  0.15770398460E+02 -0.13692093642E+02  0.81965900138E+02  0.00000000000E+00 0.  1.
</event>
<event>
 7    1  0.6833760E-006  0.1041459E+03  0.7561462E-02  0.1271812E+00
          3   -1    0    0  501    0  0.00000000000E+00  0.00000000000E+00  0.18239400252E+03  0.18239400252E+03  0.00000000000E+00 0. -1.
         -3   -1    0    0    0  501 -0.00000000000E+00 -0.00000000000E+00 -0.10589364426E+03  0.10589364426E+03  0.00000000000E+00 0.  1.
         23    2    1    2    0    0  0.32718812971E+01 -0.34343696092E+02 -0.40745653012E+02  0.13600946247E+03  0.12509264956E+03 0.  0.
          5    1    3    3  502    0  0.25592315250E+02  0.37308577722E+02  0.83982540096E+01  0.46204974212E+02  0.41800000000E+01 0. -1.
         -5    1    3    3    0  502 -0.22320433953E+02 -0.71652273813E+02 -0.49143907021E+02  0.89804488261E+02  0.41800000000E+01 0. -1.
        -11    1    1    2    0    0 -0.22425456199E+02 -0.20014409043E+02  0.75059847610E+02  0.80854550758E+02  0.00000000000E+00 0. -1.
         11    1    1    2    0    0  0.19153574901E+02  0.54358105135E+02  0.42186163664E+02  0.71423633553E+02  0.00000000000E+00 0.  1.
</event>
<event>
 6    1  0.6833760E-006  0.1185774E+03  0.7561462E-02  0.1245463E+00
          1   -1    0    0  501    0  0.00000000000E+00  0.00000000000E+00  0.36297926762E+03  0.36297926762E+03  0.00000000000E+00 0. -1.
         -1   -1    0    0    0  501 -0.00000000000E+00 -0.00000000000E+00 -0.73483644376E+02  0.73483644376E+02  0.00000000000E+00 0.  1.
          5    1    1    2  502    0 -0.37207995214E+01 -0.47731761774E+02  0.29856510075E+02  0.56577813894E+02  0.41800000000E+01 0. -1.
         -5    1    1    2    0  502 -0.50394623630E+02  0.67556993893E+02 -0.14404468361E+02  0.85606814118E+02  0.41800000000E+01 0.  1.
        -11    1    1    2    0    0 -0.81474254248E+01  0.26099892301E+02  0.46518598981E+02  0.53958919284E+02  0.00000000000E+00 0.  1.
         11    1    1    2    0    0  0.62262848576E+02 -0.45925124419E+02  0.22752498255E+03  0.24031936470E+03  0.00000000000E+00 0. -1.
</event>
<event>
 7    1  0.6833760E-006  0.2043773E+03  0.7561462E-02  0.1146098E+00
          2   -1    0    0  501    0  0.00000000000E+00  0.00000000000E+00  0.81912337577E+03  0.81912337577E+03  0.00000000000E+00 0. -1.
         -2   -1    0    0    0  501 -0.00000000000E+00 -0.00000000000E+00 -0.59294736862E+02  0.59294736862E+02  0.00000000000E+00 0.  1.
         23    2    1    2    0    0 -0.14094186735E+02  0.18660956051E+03  0.31784674178E+03  0.38948208405E+03  0.12509183972E+03 0.  0.
          5    1    3    3  502    0  0.25874686466E+02  0.12687548343E+03  0.11147277399E+03  0.17091091081E+03  0.41800000000E+01 0.  1.
         -5    1    3    3    0  502 -0.39968873201E+02  0.59734077086E+02  0.20637396779E+03  0.21857117324E+03  0.41800000000E+01 0.  1.
        -11    1    1    2    0    0 -0.33063927678E+02 -0.33789590701E+02  0.13041572087E+03  0.13871993370E+03  0.00000000000E+00 0. -1.
         11    1    1    2    0    0  0.47158114412E+02 -0.15281996981E+03  0.31156617626E+03  0.35021609488E+03  0.00000000000E+00 0.  1.
</event>
<event>
 7    1  0.6833760E-006  0.1205892E+03  0.7561462E-02  0.1242128E+00
         -1   -1    0    0    0  501 -0.00000000000E+00  0.00000000000E+00  0.26241786504E+03  0.26241786504E+03  0.00000000000E+00 0.  1.
          1   -1    0    0  501    0  0.00000000000E+00 -0.00000000000E+00 -0.12525441685E+03  0.12525441685E+03  0.00000000000E+00 0. -1.
         23    2    1    2    0    0  0.10116877481E+03  0.23080581202E+02  0.18131951257E+03  0.24350162372E+03  0.12509372841E+03 0.  0.
          5    1    3    3  502    0  0.10645941627E+03  0.44017486737E+01  0.19297425109E+03  0.22047566008E+03  0.41800000000E+01 0. -1.
         -5    1    3    3    0  502 -0.52906414576E+01  0.18678832528E+02 -0.11654738516E+02  0.23025963639E+02  0.41800000000E+01 0. -1.
        -11    1    1    2    0    0 -0.33293330112E+02  0.15378635539E+02  0.21233359091E+02  0.42376925316E+02  0.00000000000E+00 0.  1.
         11    1    1    2    0    0 -0.67875444703E+02 -0.38459216741E+02 -0.65389423474E+02  0.10179373285E+03  0.00000000000E+00 0. -1.
</event>
<event>
 7    1  0.6833760E-006  0.1435327E+03  0.7561462E-02  0.1208653E+00
         -1   -1    0    0    0  501 -0.00000000000E+00  0.00000000000E+00  0.27142608820E+03  0.27142608820E+03  0.00000000000E+00 0.  1.
          1   -1    0    0  501    0  0.00000000000E+00 -0.00000000000E+00 -0.93611544528E+02  0.93611544528E+02  0.00000000000E+00 0. -1.
         23    2    1    2    0    0 -0.32081078638E+02  0.86353964775E+02  0.17219995230E+03  0.23191876243E+03  0.12508911207E+03 0.  0.
          5    1    3    3  502    0 -0.65945163750E+01  0.11572483718E+03  0.12291942299E+03  0.16900409029E+03  0.41800000000E+01 0.  1.
         -5    1    3    3    0  502 -0.25486562263E+02 -0.29370872405E+02  0.49280529306E+02  0.62914672140E+02  0.41800000000E+01 0.  1.
        -11    1    1    2    0    0  0.59460150736E+02 -0.86038433158E+02  0.11169375215E+02  0.10518020940E+03  0.00000000000E+00 0. -1.
         11    1    1    2    0    0 -0.27379072098E+02 -0.31553161636E+00 -0.55547838442E+01  0.27938660897E+02  0.00000000000E+00 0.  1.
</event>
<event>
 7    1  0.6833760E-006  0.1926248E+03  0.7561462E-02  0.1156115E+00
         -1   -1    0    0    0  501 -0.00000000000E+00  0.00000000000E+00  0.76761371276E+02  0.76761371276E+02  0.00000000000E+00 0.  1.
          1   -1    0    0  501    0  0.00000000000E+00 -0.00000000000E+00 -0.51746136853E+03  0.51746136853E+03  0.00000000000E+00 0. -1.
         23    2    1    2    0    0 -0.66861381861E+02 -0.15016407266E+03 -0.15157535693E+03  0.24951717609E+03  0.11074312273E+03 0.  0.
          5    1    3    3  502    0 -0.70777672324E+02 -0.28674041271E+02 -0.54743130448E+02  0.94052975889E+02  0.41800000000E+01 0. -1.
         -5    1    3    3    0  502  0.39162904635E+01 -0.12149003139E+03 -0.96832226483E+02  0.15546420020E+03  0.41800000000E+01 0.  1.
        -11    1    1    2    0    0  0.23443702322E+02  0.14078762743E+03 -0.23127675083E+03  0.27177140889E+03  0.00000000000E+00 0. -1.
         11    1    1    2    0    0  0.43417679539E+02  0.93764452313E+01 -0.57847889498E+02  0.72934154832E+02  0.00000000000E+00 0.  1.
</event>
<event>
 7    1  0.6833760E-006  0.8148423E+02  0.7561462E-02  0.1324891E+00
          1   -1    0    0  501    0  0.00000000000E+00  0.00000000000E+00  0.68600473404E+03  0.68600473404E+03  0.00000000000E+00 0. -1.
         -1   -1    0    0    0  501 -0.00000000000E+00 -0.00000000000E+00 -0.21211532949E+02  0.21211532949E+02  0.00000000000E+00 0.  1.
         23    2    1    2    0    0  0.36077698683E+02  0.10934347392E+02  0.26722749730E+03  0.29744910240E+03  0.12507706787E+03 0.  0.
          5    1    3    3  502    0  0.29653197376E+02  0.30623359137E+02  0.16605656879E+02  0.45938246372E+02  0.41800000000E+01 0. -1.
         -5    1    3    3    0  502  0.64245013074E+01 -0.19689011744E+02  0.25062184043E+03  0.25151085603E+03  0.41800000000E+01 0. -1.
        -11    1    1    2    0    0  0.23625914332E+01 -0.46546897149E+02  0.20148418762E+03  0.20680443258E+03  0.00000000000E+00 0.  1.
         11    1    1    2    0    0 -0.38440290116E+02  0.35612549757E+02  0.19608151616E+03  0.20296273201E+03  0.00000000000E+00 0. -1.
</event>
<event>
 7    1  0.6833760E-006  0.1115323E+03  0.7561462E-02  0.1257758E+00
         -2   -1    0    0    0  501 -0.00000000000E+00  0.00000000000E+00  0.24107376412E+03  0.24107376412E+03  0.00000000000E+00 0.  1.
          2   -1    0    0  501    0  0.00000000000E+00 -0.00000000000E+00 -0.77672534285E+02  0.77672534285E+02  0.00000000000E+00 0. -1.
         23    2    1    2    0    0  0.65090315857E+02 -0.51521977020E+02  0.10990073873E+03  0.18605410304E+03  0.12508674410E+03 0.  0.
          5    1    3    3  502    0  0.87744777628E+02 -0.60847314087E+02  0.11867693994E+03  0.15969730776E+03  0.41800000000E+01 0.  1.
         -5    1    3    3    0  502 -0.22654461771E+02  0.93253370678E+01 -0.87762012092E+01  0.26356795276E+02  0.41800000000E+01 0.  1.
        -11    1    1    2    0    0 -0.12906981828E+02 -0.55235268020E+01  0.53570136459E+02  0.55379229396E+02  0.00000000000E+00 0.  1.
         11    1    1    2    0    0 -0.52183334029E+02  0.57045503822E+02 -0.69645356430E-01  0.77312965970E+02  0.00000000000E+00 0. -1.
</event>
<event>
 7    1  0.6833760E-006  0.1076685E+03  0.7561462E-02  0.1264949E+00
          1   -1    0    0  501    0  0.00000000000E+00  0.00000000000E+00  0.58235000446E+03  0.58235000446E+03  0.00000000000E+00 0. -1.
         -1   -1    0    0    0  501 -0.00000000000E+00 -0.00000000000E+00 -0.31797038645E+02  0.31797038645E+02  0.00000000000E+00 0.  1.
         23    2    1    2    0    0 -0.61514551424E+02  0.51060760693E+02  0.26305293581E+03  0.30205300765E+03  0.12509169067E+03 0.  0.
          5    1    3    3  502    0 -0.50993464887E+02  0.66289001346E+02  0.26934499779E+03  0.28206163403E+03  0.41800000000E+01 0. -1.
         -5    1    3    3    0  502 -0.10521086538E+02 -0.15228240653E+02 -0.62920619750E+01  0.19991373620E+02  0.41800000000E+01 0. -1.
        -11    1    1    2    0    0  0.10602789426E+02 -0.60002956613E+02  0.95708292128E+02  0.11345858772E+03  0.00000000000E+00 0.  1.
         11    1    1    2    0    0  0.50911761998E+02  0.89421959201E+01  0.19179173788E+03  0.19863544773E+03  0.00000000000E+00 0. -1.
</event>
<event>
 7    1  0.6833760E-006  0.8869774E+02  0.7561462E-02  0.1306036E+00
         -2   -1    0    0    0  501 -0.00000000000E+00  0.00000000000E+00  0.11617730146E+03  0.11617730146E+03  0.00000000000E+00 0.  1.
          2   -1    0    0  501    0  0.00000000000E+00 -0.00000000000E+00 -0.10760899827E+03  0.10760899827E+03  0.00000000000E+00 0. -1.
         23    2    1    2    0    0  0.15157941112E+02 -0.23431455947E+02  0.17778484401E+02  0.12939229530E+03  0.12508994871E+03 0.  0.
          5    1    3    3  502    0  0.50393289937E+02  0.18244620814E+02  0.43274249459E+02  0.69010745000E+02  0.41800000000E+01 0. -1.
         -5    1    3    3    0  502 -0.35235348825E+02 -0.41676076761E+02 -0.25495765057E+02  0.60381550302E+02  0.41800000000E+01 0. -1.
        -11    1    1    2    0    0  0.45001180345E+01 -0.20386932073E+02  0.27083675092E+02  0.34196542489E+02  0.00000000000E+00 0.  1.
         11    1    1    2    0    0 -0.19658059146E+02  0.43818388020E+02 -0.36293856303E+02  0.60197461935E+02  0.00000000000E+00 0. -1.
</event>
<event>
 7    1  0.6833760E-006  0.1070418E+03  0.7561462E-02  0.1266148E+00
          2   -1    0    0  501    0  0.00000000000E+00  0.00000000000E+00  0.35733908591E+03  0.35733908591E+03  0.00000000000E+00 0. -1.
         -2   -1    0    0    0  501 -0.00000000000E+00 -0.00000000000E+00 -0.34285952219E+02  0.34285952219E+02  0.00000000000E+00 0.  1.
         23    2    1    2    0    0  0.14197828019E+02 -0.17900399517E+00  0.18454381711E+03  0.22339570017E+03  0.12509039954E+03 0.  0.
          5    1    3    3  502    0 -0.54855147521E+02 -0.10315955880E+02  0.81345832340E+02  0.98742711095E+02  0.41800000000E+01 0.  1.
         -5    1    3    3    0  502  0.69052975540E+02  0.10136951884E+02  0.10319798477E+03  0.12465298908E+03  0.41800000000E+01 0.  1.
        -11    1    1    2    0    0 -0.25280652567E+02  0.39744845806E+02  0.41119416279E+02  0.62526558817E+02  0.00000000000E+00 0.  1.
         11    1    1    2    0    0  0.11082824548E+02 -0.39565841811E+02  0.97389900299E+02  0.10570277914E+03  0.00000000000E+00 0. -1.
</event>
<event>
 7    1  0.6833760E-006  0.1453498E+03  0.7561462E-02  0.1206306E+00
         -3   -1    0    0    0  501 -0.00000000000E+00  0.00000000000E+00  0.98081164562E+02  0.98081164562E+02  0.00000000000E+00 0. -1.
          3   -1    0    0  501    0  0.00000000000E+00 -0.00000000000E+00 -0.30665692625E+03  0.30665692625E+03  0.00000000000E+00 0.  1.
         23    2    1    2    0    0  0.16365557795E+02  0.11579688115E+03 -0.33302425992E+02  0.17445204527E+03  0.12509082842E+03 0.  0.
          5    1    3    3  502    0 -0.44596062861E+02  0.70794225896E+02 -0.48865707576E+02  0.96984333888E+02  0.41800000000E+01 0. -1.
         -5    1    3    3    0  502  0.60961620656E+02  0.45002655254E+02  0.15563281584E+02  0.77467711381E+02  0.41800000000E+01 0. -1.
        -11    1    1    2    0    0 -0.38726596753E+02 -0.67633674125E+02 -0.15491758049E+03  0.17341718461E+03  0.00000000000E+00 0.  1.
         11    1    1    2    0    0  0.22361038959E+02 -0.48163207025E+02 -0.20355755207E+02  0.56868860937E+02  0.00000000000E+00 0. -1.
</event>
<event>
 7    1  0.6833760E-006  0.1082745E+03  0.7561462E-02  0.1263799E+00
          1   -1    0    0  501    0  0.00000000000E+00  0.00000000000E+00  0.27127096525E+03  0.27127096525E+03  0.00000000000E+00 0. -1.
         -1   -1    0    0    0  501 -0.00000000000E+00 -0.00000000000E+00 -0.49620662794E+02  0.49620662794E+02  0.00000000000E+00 0.  1.
         23    2    1    2    0    0 -0.71363187617E+01  0.21161110185E+02  0.84900901655E+02  0.15281508291E+03  0.12508224028E+03 0.  0.
          5    1    3    3  502    0  0.14492681034E+02 -0.47771008543E+02  0.15225828053E+02  0.52358431037E+02  0.41800000000E+01 0. -1.
         -5    1    3    3    0  502 -0.21628999796E+02  0.68932118728E+02  0.69675073602E+02  0.10045665188E+03  0.41800000000E+01 0. -1.
        -11    1    1    2    0    0 -0.20629338357E+02 -0.49979064116E+02  0.55372492661E+02  0.77392437579E+02  0.00000000000E+00 0.  1.
         11    1    1    2    0    0  0.27765657119E+02  0.28817953931E+02  0.81376908139E+02  0.90684107551E+02  0.00000000000E+00 0. -1.
</event>
<event>
 7    1  0.6833760E-006  0.9166350E+02  0.7561462E-02  0.1298873E+00
          1   -1    0    0  501    0  0.00000000000E+00  0.00000000000E+00  0.19733415669E+03  0.19733415669E+03  0.00000000000E+00 0. -1.
         -1   -1    0    0    0  501 -0.00000000000E+00 -0.00000000000E+00 -0.74780906492E+02  0.74780906492E+02  0.00000000000E+00 0.  1.
         23    2    1    2    0    0  0.52190718202E+01 -0.37955955095E+02  0.22533788957E+02  0.13275339630E+03  0.12509116415E+03 0.  0.
          5    1    3    3  502    0  0.22276530348E+02 -0.74403468327E+02 -0.13058555361E+02  0.78867725792E+02  0.41800000000E+01 0. -1.
         -5    1    3    3    0  502 -0.17057458528E+02  0.36447513233E+02  0.35592344318E+02  0.53885670510E+02  0.41800000000E+01 0. -1.
        -11    1    1    2    0    0  0.23233402464E+02  0.10310200569E+02 -0.60394496429E+01  0.26125967500E+02  0.00000000000E+00 0.  1.
         11    1    1    2    0    0 -0.28452474284E+02  0.27645754526E+02  0.10605891089E+03  0.11323569938E+03  0.00000000000E+00 0. -1.
</event>
<event>
 7    1  0.6833760E-006  0.1747169E+03  0.7561462E-02  0.1173016E+00
          2   -1    0    0  501    0  0.00000000000E+00  0.00000000000E+00  0.65612152848E+03  0.65612152848E+03  0.00000000000E+00 0. -1.
         -2   -1    0    0    0  501 -0.00000000000E+00 -0.00000000000E+00 -0.63099463404E+02  0.63099463404E+02  0.00000000000E+00 0.  1.
         23    2    1    2    0    0  0.43841451731E+02  0.14319896883E+03  0.16096345074E+03  0.25295083854E+03  0.12508747612E+03 0.  0.
          5    1    3    3  502    0  0.30887565105E+01  0.13249196832E+03  0.64179241971E+02  0.14730957059E+03  0.41800000000E+01 0. -1.
         -5    1    3    3    0  502  0.40752695221E+02  0.10707000503E+02  0.96784208767E+02  0.10564126795E+03  0.41800000000E+01 0. -1.
        -11    1    1    2    0    0 -0.71569466259E+02 -0.95769655280E+02  0.31611615252E+03  0.33796958037E+03  0.00000000000E+00 0. -1.
         11    1    1    2    0    0  0.27728014528E+02 -0.47429313546E+02  0.11594246182E+03  0.12830057298E+03  0.00000000000E+00 0.  1.
</event>
<event>
 7    1  0.6833760E-006  0.1759920E+03  0.7561462E-02  0.1171739E+00
         -2   -1    0    0    0  501 -0.00000000000E+00  0.00000000000E+00  0.34332975557E+02  0.34332975557E+02  0.00000000000E+00 0.  1.
          2   -1    0    0  501    0  0.00000000000E+00 -0.00000000000E+00 -0.12646746384E+04  0.12646746384E+04  0.00000000000E+00 0. -1.
         23    2    1    2    0    0 -0.11160886718E+02 -0.16706885343E+03 -0.45395130060E+03  0.49975013043E+03  0.12506735131E+03 0.  0.
          5    1    3    3  502    0 -0.28080565342E+02 -0.18697670775E+02 -0.21692908105E+03  0.21957645513E+03  0.41800000000E+01 0.  1.
         -5    1    3    3    0  502  0.16919678625E+02 -0.14837118266E+03 -0.23702221955E+03  0.28017367530E+03  0.41800000000E+01 0.  1.
        -11    1    1    2    0    0  0.11631057884E+02  0.43477164618E+02 -0.78317855091E+02  0.90328466038E+02  0.00000000000E+00 0.  1.
         11    1    1    2    0    0 -0.47017116649E+00  0.12359168881E+03 -0.69807250715E+03  0.70892901749E+03  0.00000000000E+00 0. -1.
</event>
<event>
 7    1  0.6833760E-006  0.1154012E+03  0.7561462E-02  0.1250882E+00
         -2   -1    0    0    0  501 -0.00000000000E+00  0.00000000000E+00  0.66644734509E+02  0.66644734509E+02  0.00000000000E+00 0.  1.
          2   -1    0    0  501    0  0.00000000000E+00 -0.00000000000E+00 -0.29450613925E+03  0.29450613925E+03  0.00000000000E+00 0. -1.
         23    2    1    2    0    0 -0.33408403728E+02  0.81299992122E+02 -0.12153891934E+03  0.19530660561E+03  0.12508857311E+03 0.  0.
          5    1    3    3  502    0 -0.92609613436E+01  0.10204231279E+03 -0.12647352809E+03  0.16282329291E+03  0.41800000000E+01 0.  1.
         -5    1    3    3    0  502 -0.24147442384E+02 -0.20742320671E+02  0.49346087521E+01  0.32483312701E+02  0.41800000000E+01 0.  1.
        -11    1    1    2    0    0 -0.54837087243E+01 -0.36125207242E+02  0.75518697173E+01  0.37311290462E+02  0.00000000000E+00 0.  1.
         11    1    1    2    0    0  0.38892112452E+02 -0.45174784879E+02 -0.11387435512E+03  0.12853297769E+03  0.00000000000E+00 0. -1.
</event>
<event>
 7    1  0.6833760E-006  0.2265790E+03  0.7561462E-02  0.1129071E+00
          2   -1    0    0  501    0  0.00000000000E+00  0.00000000000E+00  0.17322134672E+04  0.17322134672E+04  0.00000000000E+00 0. -1.
         -2   -1    0    0    0  501 -0.00000000000E+00 -0.00000000000E+00 -0.31711594704E+02  0.31711594704E+02  0.00000000000E+00 0.  1.
         23    2    1    2    0    0  0.17101270455E+03 -0.11635552017E+03  0.94202392594E+03  0.97254316261E+03  0.12508866417E+03 0.  0.
          5    1    3    3  502    0  0.16899480192E+03 -0.53211650710E+02  0.64941792903E+03  0.67316553818E+03  0.41800000000E+01 0.  1.
         -5    1    3    3    0  502  0.20179026317E+01 -0.63143869459E+02  0.29260599691E+03  0.29937762443E+03  0.41800000000E+01 0.  1.
        -11    1    1    2    0    0 -0.87843577834E+02  0.30248144343E+02  0.46922644724E+03  0.47833555502E+03  0.00000000000E+00 0.  1.
         11    1    1    2    0    0 -0.83169126720E+02  0.86107375827E+02  0.28925149936E+03  0.31304634432E+03  0.00000000000E+00 0. -1.
</event>
<event>
 7    1  0.6833760E-006  0.9400115E+02  0.7561462E-02  0.1293442E+00
          2   -1    0    0  501    0  0.00000000000E+00  0.00000000000E+00  0.61066338410E+03  0.61066338410E+03  0.00000000000E+00 0. -1.
         -2   -1    0    0    0  501 -0.00000000000E+00 -0.00000000000E+00 -0.25321718808E+02  0.25321718808E+02  0.00000000000E+00 0.  1.
         23    2    1    2    0    0  0.58413537193E+02  0.16723461201E+02  0.31521123248E+03  0.34452545620E+03  0.12509138022E+03 0.  0.
          5    1    3    3  502    0  0.13507459467E+01 -0.27523728918E+02  0.23448809838E+03  0.23613877455E+03  0.41800000000E+01 0.  1.
         -5    1    3    3    0  502  0.57062791246E+02  0.44247190119E+02  0.80723134108E+02  0.10838668165E+03  0.41800000000E+01 0.  1.
        -11    1    1    2    0    0 -0.24709903317E+02  0.24335335671E+02  0.20256713340E+03  0.20551455282E+03  0.00000000000E+00 0. -1.
         11    1    1    2    0    0 -0.33703633876E+02 -0.41058796872E+02  0.67563299401E+02  0.85945093885E+02  0.00000000000E+00 0.  1.
</event>
<event>
 7    1  0.6833760E-006  0.1490935E+03  0.7561462E-02  0.1201591E+00
         -1   -1    0    0    0  501 -0.00000000000E+00  0.00000000000E+00  0.58658162934E+02  0.58658162934E+02  0.00000000000E+00 0.  1.
          1   -1    0    0  501    0  0.00000000000E+00 -0.00000000000E+00 -0.77938116818E+03  0.77938116818E+03  0.00000000000E+00 0. -1.
         23    2    1    2    0    0 -0.60576292769E+02 -0.11143974077E+03 -0.11431262166E+03  0.21166749375E+03  0.12508976525E+03 0.  0.
          5    1    3    3  502    0 -0.62981488352E+02 -0.11824128120E+03 -0.13446537769E+03  0.18985804869E+03  0.41800000000E+01 0.  1.
         -5    1    3    3    0  502  0.24051955838E+01  0.68015404374E+01  0.20152756028E+02  0.21809445056E+02  0.41800000000E+01 0.  1.
        -11    1    1    2    0    0  0.67241190415E+02  0.29203091206E+02 -0.32173895143E+03  0.32998507707E+03  0.00000000000E+00 0.  1.
         11    1    1    2    0    0 -0.66648976463E+01  0.82236649561E+02 -0.28467143216E+03  0.29638676030E+03  0.00000000000E+00 0. -1.
</event>
<event>
 7    1  0.6833760E-006  0.1107964E+03  0.7561462E-02  0.1259102E+00
         -1   -1    0    0    0  501 -0.00000000000E+00  0.00000000000E+00  0.31460038969E+03  0.31460038969E+03  0.00000000000E+00 0.  1.
          1   -1    0    0  501    0  0.00000000000E+00 -0.00000000000E+00 -0.45877061797E+02  0.45877061797E+02  0.00000000000E+00 0. -1.
         23    2    1    2    0    0  0.43582551618E+02  0.17231060746E+02  0.20197345896E+03  0.24215057860E+03  0.12508907360E+03 0.  0.
          5    1    3    3  502    0  0.37252826443E+02 -0.51213021184E+02  0.11345800162E+03  0.13000283516E+03  0.41800000000E+01 0.  1.
         -5    1    3    3    0  502  0.63297251751E+01  0.68444081930E+02  0.88515457331E+02  0.11214774344E+03  0.41800000000E+01 0.  1.
        -11    1    1    2    0    0 -0.28322958659E+02 -0.47535401299E+02  0.63524154929E+02  0.84244421912E+02  0.00000000000E+00 0.  1.
         11    1    1    2    0    0 -0.15259592959E+02  0.30304340553E+02  0.32257140066E+01  0.34082450975E+02  0.00000000000E+00 0. -1.
</event>
<event>
 7    1  0.6833760E-006  0.9973332E+02  0.7561462E-02  0.1280858E+00
         -1   -1    0    0    0  501 -0.00000000000E+00  0.00000000000E+00  0.10446451683E+04  0.10446451683E+04  0.00000000000E+00 0.  1.
          1   -1    0    0  501    0  0.00000000000E+00 -0.00000000000E+00 -0.15310525739E+02  0.15310525739E+02  0.00000000000E+00 0. -1.
         23    2    1    2    0    0 -0.54947172227E+02  0.72994774846E+01  0.66824726265E+03  0.68211131722E+03  0.12509584699E+03 0.  0.
          5    1    3    3  502    0 -0.25832168632E+02 -0.46274924398E+02  0.50513459599E+03  0.50792430738E+03  0.41800000000E+01 0. -1.
         -5    1    3    3    0  502 -0.29115003595E+02  0.53574401883E+02  0.16311266666E+03  0.17418700984E+03  0.41800000000E+01 0. -1.
        -11    1    1    2    0    0  0.57998837935E+02 -0.27901148863E+02  0.34647713813E+03  0.35240423743E+03  0.00000000000E+00 0.  1.
         11    1    1    2    0    0 -0.30516657082E+01  0.20601671378E+02  0.14610241772E+02  0.25440139383E+02  0.00000000000E+00 0. -1.
</event>
<event>
 6    1  0.6833760E-006  0.7761339E+02  0.7561462E-02  0.1335964E+00
          3   -1    0    0  501    0  0.00000000000E+00  0.00000000000E+00  0.36156032788E+03  0.36156032788E+03  0.00000000000E+00 0. -1.
         -3   -1    0    0    0  501 -0.00000000000E+00 -0.00000000000E+00 -0.11544628858E+03  0.11544628858E+03  0.00000000000E+00 0.  1.
          5    1    1    2  502    0 -0.20088605128E+02 -0.41814369325E+02 -0.10113294918E+03  0.11134333994E+03  0.41800000000E+01 0.  1.
         -5    1    1    2    0  502 -0.25993619702E+00 -0.14911759889E+00  0.57148763628E+02  0.57302211014E+02  0.41800000000E+01 0. -1.
        -11    1    1    2    0    0  0.57289220828E+02  0.16589713555E+02  0.17179474671E+03  0.18185353562E+03  0.00000000000E+00 0.  1.
         11    1    1    2    0    0 -0.36940679503E+02  0.25373773368E+02  0.11830347814E+03  0.12650752988E+03  0.00000000000E+00 0. -1.
</event>
<event>
 7    1  0.6833760E-006  0.8965141E+02  0.7561462E-02  0.1303698E+00
         -1   -1    0    0    0  501 -0.00000000000E+00  0.00000000000E+00  0.89587449898E+02  0.89587449898E+02  0.00000000000E+00 0.  1.
          1   -1    0    0  501    0  0.00000000000E+00 -0.00000000000E+00 -0.20430645068E+03  0.20430645068E+03  0.00000000000E+00 0. -1.
         23    2    1    2    0    0 -0.56972331226E+02  0.41924673793E+02 -0.17092443763E+02  0.14217769418E+03  0.12214262274E+03 0.  0.
          5    1    3    3  502    0 -0.44046727879E+01 -0.19398990821E+01 -0.60610616350E+02  0.60944922390E+02  0.41800000000E+01 0. -1.
         -5    1    3    3    0  502 -0.52567658438E+02  0.43864572876E+02  0.43518172587E+02  0.81232771789E+02  0.41800000000E+01 0.  1.
        -11    1    1    2    0    0  0.49711478409E+02  0.11001032353E+02 -0.14561395376E+02  0.52955528831E+02  0.00000000000E+00 0.  1.
         11    1    1    2    0    0  0.72608528170E+01 -0.52925706147E+02 -0.83065161643E+02  0.98760677567E+02  0.00000000000E+00 0. -1.
</event>
<event>
 7    1  0.6833760E-006  0.1149128E+03  0.7561462E-02  0.1251733E+00
          2   -1    0    0  501    0  0.00000000000E+00  0.00000000000E+00  0.71335354200E+02  0.71335354200E+02  0.00000000000E+00 0.  1.
         -2   -1    0    0    0  501 -0.00000000000E+00 -0.00000000000E+00 -0.22623828646E+03  0.22623828646E+03  0.00000000000E+00 0. -1.
         23    2    1    2    0    0  0.61947708893E+02 -0.15059397991E+02 -0.11486676025E+03  0.18140452892E+03  0.12509566898E+03 0.  0.
          5    1    3    3  502    0  0.55793013437E+02 -0.67365623847E+02 -0.71254375582E+02  0.11289661671E+03  0.41800000000E+01 0. -1.
         -5    1    3    3    0  502  0.61546954559E+01  0.52306225856E+02 -0.43612384668E+02  0.68507912214E+02  0.41800000000E+01 0. -1.
        -11    1    1    2    0    0 -0.31889284151E+01  0.28884418683E+02 -0.47152233910E+02  0.55387833229E+02  0.00000000000E+00 0. -1.
         11    1    1    2    0    0 -0.58758780478E+02 -0.13825020692E+02  0.71160618990E+01  0.60781278510E+02  0.00000000000E+00 0.  1.
</event>
<event>
 7    1  0.6833760E-006  0.1480613E+03  0.7561462E-02  0.1202876E+00
         -2   -1    0    0    0  501 -0.00000000000E+00  0.00000000000E+00  0.32770964795E+03  0.32770964795E+03  0.00000000000E+00 0.  1.
          2   -1    0    0  501    0  0.00000000000E+00 -0.00000000000E+00 -0.81132358320E+02  0.81132358320E+02  0.00000000000E+00 0. -1.
         23    2    1    2    0    0  0.48543341520E+02 -0.97072191537E+02  0.17825083699E+03  0.24331003398E+03  0.12508775069E+03 0.  0.
          5    1    3    3  502    0  0.55019101032E+02 -0.69506102988E+01  0.12864115203E+03  0.14014788924E+03  0.41800000000E+01 0.  1.
         -5    1    3    3    0  502 -0.64757595123E+01 -0.90121581238E+02  0.49609684950E+02  0.10316214474E+03  0.41800000000E+01 0.  1.
        -11    1    1    2    0    0  0.22814991148E+02  0.70189033004E+02  0.41655975070E+02  0.84748123485E+02  0.00000000000E+00 0. -1.
         11    1    1    2    0    0 -0.71358332668E+02  0.26883158533E+02  0.26670477575E+02  0.80783848806E+02  0.00000000000E+00 0.  1.
</event>
<event>
 6    1  0.6833760E-006  0.1286486E+03  0.7561462E-02  0.1229475E+00
         -4   -1    0    0    0  501 -0.00000000000E+00  0.00000000000E+00  0.56989139663E+02  0.56989139663E+02  0.00000000000E+00 0.  1.
          4   -1    0    0  501    0  0.00000000000E+00 -0.00000000000E+00 -0.46185769056E+03  0.46185769056E+03  0.00000000000E+00 0. -1.
          5    1    1    2  502    0  0.40274168212E+02 -0.99685946427E+02 -0.24861579111E+03  0.27089957647E+03  0.41800000000E+01 0. -1.
         -5    1    1    2    0  502 -0.51617012150E+02  0.35154268330E+02 -0.63542762751E+01  0.62912540499E+02  0.41800000000E+01 0.  1.
        -11    1    1    2    0    0  0.33703754283E+02  0.26023144849E+02 -0.18738721902E+02  0.46521896126E+02  0.00000000000E+00 0. -1.
         11    1    1    2    0    0 -0.22360910345E+02  0.38508533248E+02 -0.13115976161E+03  0.13851281713E+03  0.00000000000E+00 0.  1.
</event>
<event>
 7    1  0.6833760E-006  0.1847192E+03  0.7561462E-02  0.1163312E+00
          2   -1    0    0  501    0  0.00000000000E+00  0.00000000000E+00  0.53266741524E+03  0.53266741524E+03  0.00000000000E+00 0.  1.
         -2   -1    0    0    0  501 -0.00000000000E+00 -0.00000000000E+00 -0.91408249255E+02  0.91408249255E+02  0.00000000000E+00 0. -1.
         23    2    1    2    0    0 -0.58802261562E+02 -0.14861951961E+03  0.79328030321E+02  0.21791270193E+03  0.12509013427E+03 0.  0.
          5    1    3    3  502    0 -0.85123310188E+02 -0.91226910845E+02  0.89784480432E+02  0.15377598163E+03  0.41800000000E+01 0.  1.
         -5    1    3    3    0  502  0.26321048626E+02 -0.57392608765E+02 -0.10456450111E+02  0.64136720298E+02  0.41800000000E+01 0.  1.
        -11    1    1    2    0    0 -0.20060422285E+02  0.57019402891E+02  0.15710456050E+03  0.16833144619E+03  0.00000000000E+00 0.  1.
         11    1    1    2    0    0  0.78862683847E+02  0.91600116719E+02  0.20482657516E+03  0.23783151637E+03  0.00000000000E+00 0. -1.
</event>
<event>
 7    1  0.6833760E-006  0.1259927E+03  0.7561462E-02  0.1233526E+00
         -2   -1    0    0    0  501 -0.00000000000E+00  0.00000000000E+00  0.51429234003E+02  0.51429234003E+02  0.00000000000E+00 0.  1.
          2   -1    0    0  501    0  0.00000000000E+00 -0.00000000000E+00 -0.31571258430E+03  0.31571258430E+03  0.00000000000E+00 0. -1.
         23    2    1    2    0    0 -0.55493221749E+02  0.36571709063E+02 -0.15474855509E+03  0.20978952410E+03  0.12509013373E+03 0.  0.
          5    1    3    3  502    0 -0.81869508178E+02 -0.13585900881E+02 -0.75483826803E+02  0.11226073927E+03  0.41800000000E+01 0. -1.
         -5    1    3    3    0  502  0.26376286428E+02  0.50157609944E+02 -0.79264728285E+02  0.97528784834E+02  0.41800000000E+01 0. -1.
        -11    1    1    2    0    0  0.80259690117E+02 -0.34010659308E+02 -0.76438787849E+02  0.11593632344E+03  0.00000000000E+00 0.  1.
         11    1    1    2    0    0 -0.24766468368E+02 -0.25610497547E+01 -0.33096007366E+02  0.41415970770E+02  0.00000000000E+00 0. -1.
</event>
<event>
 7    1  0.6833760E-006  0.3746210E+03  0.7561462E-02  0.1052940E+00
          1   -1    0    0  501    0  0.00000000000E+00  0.00000000000E+00  0.49506778960E+03  0.49506778960E+03  0.00000000000E+00 0. -1.
         -1   -1    0    0    0  501 -0.00000000000E+00 -0.00000000000E+00 -0.38775748876E+03  0.38775748876E+03  0.00000000000E+00 0.  1.
         23    2    1    2    0    0  0.35199497795E+03  0.88068177446E+02 -0.16680260991E+03  0.41862665074E+03  0.12557345922E+03 0.  0.
          5    1    3    3  502    0 -0.58027425614E+01  0.33172525071E+01  0.82092531324E+01  0.11381573811E+02  0.41800000000E+01 0. -1.
         -5    1    3    3    0  502  0.35779772051E+03  0.84750924939E+02 -0.17501186304E+03  0.40724507693E+03  0.41800000000E+01 0.  1.
        -11    1    1    2    0    0 -0.34105158507E+03 -0.10194682975E+03  0.26772533231E+03  0.44540565032E+03  0.00000000000E+00 0. -1.
         11    1    1    2    0    0 -0.10943392881E+02  0.13878652303E+02  0.63875784378E+01  0.18792977300E+02  0.00000000000E+00 0.  1.
</event>
<event>
 7    1  0.6833760E-006  0.6748265E+02  0.7561462E-02  0.1368869E+00
         -2   -1    0    0    0  501 -0.00000000000E+00  0.00000000000E+00  0.59597700587E+02  0.59597700587E+02  0.00000000000E+00 0.  1.
          2   -1    0    0  501    0  0.00000000000E+00 -0.00000000000E+00 -0.20246469561E+03  0.20246469561E+03  0.00000000000E+00 0. -1.
         23    2    1    2    0    0  0.10817013655E+02  0.72390268867E+01 -0.63349954964E+02  0.14081866768E+03  0.12508904460E+03 0.  0.
          5    1    3    3  502    0 -0.15904665602E+02 -0.26158912112E+01  0.34776266437E+02  0.38557261081E+02  0.41800000000E+01 0. -1.
         -5    1    3    3    0  502  0.26721679257E+02  0.98549180979E+01 -0.98126221401E+02  0.10226140660E+03  0.41800000000E+01 0. -1.
        -11    1    1    2    0    0  0.28207706204E+02 -0.32505098407E+02 -0.25700875619E+02  0.50127747998E+02  0.00000000000E+00 0.  1.
         11    1    1    2    0    0 -0.39024719859E+02  0.25266071521E+02 -0.53816164438E+02  0.71115980518E+02  0.00000000000E+00 0. -1.
</event>
<event>
 7    1  0.6833760E-006  0.8100233E+02  0.7561462E-02  0.1326231E+00
          2   -1    0    0  501    0  0.00000000000E+00  0.00000000000E+00  0.40208075794E+03  0.40208075794E+03  0.00000000000E+00 0. -1.
         -2   -1    0    0    0  501 -0.00000000000E+00 -0.00000000000E+00 -0.31829996175E+02  0.31829996175E+02  0.00000000000E+00 0.  1.
         23    2    1    2    0    0  0.16031536337E+02 -0.60519374485E+00  0.15460912529E+03  0.19952003426E+03  0.12508751349E+03 0.  0.
          5    1    3    3  502    0 -0.16625718289E+02 -0.32642560756E+02  0.14870002689E+03  0.15320287752E+03  0.41800000000E+01 0. -1.
         -5    1    3    3    0  502  0.32657254626E+02  0.32037367011E+02  0.59090983944E+01  0.46317156741E+02  0.41800000000E+01 0. -1.
        -11    1    1    2    0    0  0.16840042415E+02  0.30450272352E+02  0.15715279941E+03  0.16095902732E+03  0.00000000000E+00 0. -1.
         11    1    1    2    0    0 -0.32871578752E+02 -0.29845078607E+02  0.58488837072E+02  0.73431692536E+02  0.00000000000E+00 0.  1.
</event>
<event>
 7    1  0.6833760E-006  0.1358466E+03  0.7561462E-02  0.1219030E+00
          2   -1    0    0  501    0  0.00000000000E+00  0.00000000000E+00  0.69806170049E+03  0.69806170049E+03  0.00000000000E+00 0. -1.
         -2   -1    0    0    0  501 -0.00000000000E+00 -0.00000000000E+00 -0.56740224462E+02  0.56740224462E+02  0.00000000000E+00 0.  1.
         23    2    1    2    0    0  0.45907114071E+02  0.71373468283E+02  0.64277099005E+02  0.16426758996E+03  0.12510260012E+03 0.  0.
          5    1    3    3  502    0  0.15306138091E+02 -0.35744135423E+02  0.10494916381E+02  0.40491193490E+02  0.41800000000E+01 0. -1.
         -5    1    3    3    0  502  0.30600975979E+02  0.10711760371E+03  0.53782182624E+02  0.12377639647E+03  0.41800000000E+01 0. -1.
        -11    1    1    2    0    0 -0.47577670726E+02  0.20885188004E+01  0.15535045618E+03  0.16248618679E+03  0.00000000000E+00 0. -1.
         11    1    1    2    0    0  0.16705566549E+01 -0.73461987083E+02  0.42169392084E+03  0.42804814821E+03  0.00000000000E+00 0.  1.
</event>
<event>
 6    1  0.6833760E-006  0.1542625E+03  0.7561462E-02  0.1195331E+00
         -2   -1    0    0    0  501 -0.00000000000E+00  0.00000000000E+00  0.22317831963E+03  0.22317831963E+03  0.00000000000E+00 0.  1.
          2   -1    0    0  501    0  0.00000000000E+00 -0.00000000000E+00 -0.26943636690E+03  0.26943636690E+03  0.00000000000E+00 0. -1.
          5    1    1    2  502    0  0.98936686295E+01 -0.32234519885E+00  0.12071838122E+03  0.12119566226E+03  0.41800000000E+01 0. -1.
         -5    1    1    2    0  502  0.55634884151E+02  0.12047737270E+03  0.49226332719E+01  0.13285985995E+03  0.41800000000E+01 0.  1.
        -11    1    1    2    0    0  0.14165537485E+02 -0.68709219614E+02 -0.81353318315E+02  0.10742430690E+03  0.00000000000E+00 0.  1.
         11    1    1    2    0    0 -0.79694090265E+02 -0.51445807891E+02 -0.90545743450E+02  0.13113485742E+03  0.00000000000E+00 0. -1.
</event>
<event>
 7    1  0.6833760E-006  0.1426827E+03  0.7561462E-02  0.1209764E+00
          1   -1    0    0  501    0  0.00000000000E+00  0.00000000000E+00  0.73901111402E+03  0.73901111402E+03  0.00000000000E+00 0. -1.
         -1   -1    0    0    0  501 -0.00000000000E+00 -0.00000000000E+00 -0.35328875785E+02  0.35328875785E+02  0.00000000000E+00 0.  1.
         23    2    1    2    0    0 -0.27300449746E+02 -0.10758227419E+03  0.26681325546E+03  0.31488969249E+03  0.12508774869E+03 0.  0.
          5    1    3    3  502    0  0.25367450481E+02  0.13964527621E+02  0.22369902817E+02  0.36829343296E+02  0.41800000000E+01 0.  1.
         -5    1    3    3    0  502 -0.52667900227E+02 -0.12154680181E+03  0.24444335264E+03  0.27806034920E+03  0.41800000000E+01 0.  1.
        -11    1    1    2    0    0  0.43933155012E+02  0.72989491642E+02  0.38834987470E+03  0.39758422149E+03  0.00000000000E+00 0. -1.
         11    1    1    2    0    0 -0.16632705266E+02  0.34592782550E+02  0.48519108084E+02  0.61866075827E+02  0.00000000000E+00 0.  1.
</event>
<event>
 7    1  0.6984076E-006  0.1658883E+03  0.7561462E-02  0.1182205E+00
          3   -1    0    0  501    0  0.00000000000E+00  0.00000000000E+00  0.15903908984E+03  0.15903908984E+03  0.00000000000E+00 0. -1.
         -3   -1    0    0    0  501 -0.00000000000E+00 -0.00000000000E+00 -0.24916271179E+03  0.24916271179E+03  0.00000000000E+00 0.  1.
         23    2    1    2    0    0 -0.13194146248E+03  0.70720379356E+02 -0.12251117134E+03  0.23036181558E+03  0.12509059675E+03 0.  0.
          5    1    3    3  502    0  0.13188968019E+02  0.26860359366E+02  0.68914170735E+01  0.30990188963E+02  0.41800000000E+01 0. -1.
         -5    1    3    3    0  502 -0.14513043050E+03  0.43860019990E+02 -0.12940258841E+03  0.19937162662E+03  0.41800000000E+01 0. -1.
        -11    1    1    2    0    0  0.95618008881E+02 -0.47352652543E+02 -0.21432830311E+02  0.10883218063E+03  0.00000000000E+00 0.  1.
         11    1    1    2    0    0  0.36323453604E+02 -0.23367726813E+02  0.53820379696E+02  0.69007805420E+02  0.00000000000E+00 0. -1.
</event>
<event>
 7    1  0.6833760E-006  0.1016621E+03  0.7561462E-02  0.1276839E+00
         -2   -1    0    0    0  501 -0.00000000000E+00  0.00000000000E+00  0.22506848706E+02  0.22506848706E+02  0.00000000000E+00 0.  1.
          2   -1    0    0  501    0  0.00000000000E+00 -0.00000000000E+00 -0.61072659211E+03  0.61072659211E+03  0.00000000000E+00 0. -1.
         23    2    1    2    0    0  0.39791833126E+02 -0.51379199745E+00 -0.27757206376E+03  0.30704490413E+03  0.12508664438E+03 0.  0.
          5    1    3    3  502    0  0.58248647680E+02 -0.39461784673E+02 -0.23858462910E+03  0.24877748099E+03  0.41800000000E+01 0. -1.
         -5    1    3    3    0  502 -0.18456814554E+02  0.38947992676E+02 -0.38987434660E+02  0.58267423131E+02  0.41800000000E+01 0. -1.
        -11    1    1    2    0    0  0.32369114754E+01  0.34535514524E+02 -0.57387299305E+02  0.67055808703E+02  0.00000000000E+00 0.  1.
         11    1    1    2    0    0 -0.43028744602E+02 -0.34021722527E+02 -0.25326038034E+03  0.25913272799E+03  0.00000000000E+00 0. -1.
</event>
<event>
 7    1  0.6833760E-006  0.1097139E+03  0.7561462E-02  0.1261101E+00
          1   -1    0    0  501    0  0.00000000000E+00  0.00000000000E+00  0.21086108717E+03  0.21086108717E+03  0.00000000000E+00 0. -1.
         -1   -1    0    0    0  501 -0.00000000000E+00 -0.00000000000E+00 -0.57936608880E+02  0.57936608880E+02  0.00000000000E+00 0.  1.
         23    2    1    2    0    0  0.21765456386E+02 -0.10475558634E+02  0.80436272819E+02  0.15069811568E+03  0.12512575939E+03 0.  0.
          5    1    3    3  502    0  0.16307606009E+02 -0.67301373542E+02  0.52522911003E+02  0.87014604950E+02  0.41800000000E+01 0.  1.
         -5    1    3    3    0  502  0.54578503777E+01  0.56825814908E+02  0.27913361816E+02  0.63683510728E+02  0.41800000000E+01 0.  1.
        -11    1    1    2    0    0 -0.56992482832E+02  0.64359586070E+01  0.50181980915E+02  0.76208896273E+02  0.00000000000E+00 0. -1.
         11    1    1    2    0    0  0.35227026446E+02  0.40396000270E+01  0.22306224561E+02  0.41890684104E+02  0.00000000000E+00 0.  1.
</event>
<event>
 7    1  0.6833760E-006  0.1055074E+03  0.7561462E-02  0.1269123E+00
          2   -1    0    0  501    0  0.00000000000E+00  0.00000000000E+00  0.11672630890E+03  0.11672630890E+03  0.00000000000E+00 0. -1.
         -2   -1    0    0    0  501 -0.00000000000E+00 -0.00000000000E+00 -0.10342189722E+03  0.10342189722E+03  0.00000000000E+00 0.  1.
         23    2    1    2    0    0 -0.21095647216E+02  0.89220012538E+01 -0.92986477124E+01  0.12751242619E+03  0.12509326739E+03 0.  0.
          5    1    3    3  502    0  0.20588416614E+02 -0.49556633759E+02 -0.13369610635E+02  0.55461353542E+02  0.41800000000E+01 0. -1.
         -5    1    3    3    0  502 -0.41684063830E+02  0.58478635013E+02  0.40709629227E+01  0.72051072646E+02  0.41800000000E+01 0. -1.
        -11    1    1    2    0    0 -0.16265483817E+02 -0.35737295583E+02  0.25062882805E+02  0.46581845754E+02  0.00000000000E+00 0. -1.
         11    1    1    2    0    0  0.37361131033E+02  0.26815294329E+02 -0.24598234067E+01  0.46053934177E+02  0.00000000000E+00 0.  1.
</event>
<event>
 7    1  0.6833760E-006  0.6332772E+02  0.7561462E-02  0.1384375E+00
          2   -1    0    0  501    0  0.00000000000E+00  0.00000000000E+00  0.42943764353E+03  0.42943764353E+03  0.00000000000E+00 0. -1.
         -2   -1    0    0    0  501 -0.00000000000E+00 -0.00000000000E+00 -0.29997589313E+02  0.29997589313E+02  0.00000000000E+00 0.  1.
         23    2    1    2    0    0 -0.32722249126E+02 -0.72133437848E+01  0.24788019319E+03  0.27966879807E+03  0.12508904236E+03 0.  0.
          5    1    3    3  502    0 -0.16644555232E+02  0.54457261445E+01  0.25645866164E+03  0.25708989611E+03  0.41800000000E+01 0.  1.
         -5    1    3    3    0  502 -0.16077693894E+02 -0.12659069929E+02 -0.85784684515E+01  0.22578901953E+02  0.41800000000E+01 0.  1.
        -11    1    1    2    0    0  0.59901595764E+02  0.87741989727E+01  0.13486717676E+03  0.14783214505E+03  0.00000000000E+00 0. -1.
         11    1    1    2    0    0 -0.27179346638E+02 -0.15608551879E+01  0.16692684273E+02  0.31934289734E+02  0.00000000000E+00 0.  1.
</event>
<event>
 7    1  0.6833760E-006  0.1265185E+03  0.7561462E-02  0.1232715E+00
         -1   -1    0    0    0  501 -0.00000000000E+00  0.00000000000E+00  0.13190006015E+03  0.13190006015E+03  0.00000000000E+00 0.  1.
          1   -1    0    0  501    0  0.00000000000E+00 -0.00000000000E+00 -0.13407432092E+03  0.13407432092E+03  0.00000000000E+00 0. -1.
         23    2    1    2    0    0  0.36321531551E+02 -0.66342980806E+02  0.79109926176E+01  0.14639247592E+03  0.12509008132E+03 0.  0.
          5    1    3    3  502    0  0.16211562773E+02 -0.10110022646E+03 -0.84627418884E+01  0.10282587689E+03  0.41800000000E+01 0.  1.
         -5    1    3    3    0  502  0.20109968779E+02  0.34757245652E+02  0.16373734506E+02  0.43566599032E+02  0.41800000000E+01 0.  1.
        -11    1    1    2    0    0 -0.54426615116E+02  0.16063855776E+02  0.17576675490E+02  0.59407435702E+02  0.00000000000E+00 0.  1.
         11    1    1    2    0    0  0.18105083565E+02  0.50279125030E+02 -0.27661928880E+02  0.60174469453E+02  0.00000000000E+00 0. -1.
</event>
<event>
 7    1  0.6833760E-006  0.1158750E+03  0.7561462E-02  0.1250062E+00
          4   -1    0    0  501    0  0.00000000000E+00  0.00000000000E+00  0.12516853553E+03  0.12516853553E+03  0.00000000000E+00 0. -1.
         -4   -1    0    0    0  501 -0.00000000000E+00 -0.00000000000E+00 -0.13408836335E+03  0.13408836335E+03  0.00000000000E+00 0.  1.
         23    2    1    2    0    0 -0.52779215945E+02  0.28244748412E+02 -0.42950579044E+02  0.14517584551E+03  0.12509141629E+03 0.  0.
          5    1    3    3  502    0  0.32384730390E+02 -0.13821263011E+01 -0.44113613495E+02  0.54901405548E+02  0.41800000000E+01 0. -1.
         -5    1    3    3    0  502 -0.85163946335E+02  0.29626874713E+02  0.11630344513E+01  0.90274439958E+02  0.41800000000E+01 0. -1.
        -11    1    1    2    0    0 -0.16798688857E+01 -0.50093669110E+02  0.17948570509E+02  0.53238602796E+02  0.00000000000E+00 0. -1.
         11    1    1    2    0    0  0.54459084831E+02  0.21848920699E+02  0.16082180719E+02  0.60842450583E+02  0.00000000000E+00 0.  1.
</event>
<event>
 7    1  0.6833760E-006  0.1664702E+03  0.7561462E-02  0.1181580E+00
          2   -1    0    0  501    0  0.00000000000E+00  0.00000000000E+00  0.10809748832E+04  0.10809748832E+04  0.00000000000E+00 0. -1.
         -2   -1    0    0    0  501 -0.00000000000E+00 -0.00000000000E+00 -0.27362548860E+02  0.27362548860E+02  0.00000000000E+00 0.  1.
         23    2    1    2    0    0 -0.70780057693E+01 -0.13295688376E+03  0.60932154530E+03  0.63598501219E+03  0.12440481928E+03 0.  0.
          5    1    3    3  502    0  0.43019657136E+02 -0.11490182223E+03  0.49185712716E+03  0.50694578170E+03  0.41800000000E+01 0.  1.
         -5    1    3    3    0  502 -0.50097662905E+02 -0.18055061534E+02  0.11746441814E+03  0.12903923049E+03  0.41800000000E+01 0.  1.
        -11    1    1    2    0    0 -0.36160295293E+02  0.83956549152E+02  0.20819766916E+03  0.22738192220E+03  0.00000000000E+00 0. -1.
         11    1    1    2    0    0  0.43238301063E+02  0.49000334610E+02  0.23609311986E+03  0.24497049764E+03  0.00000000000E+00 0.  1.
</event>
<event>
 7    1  0.6833760E-006  0.7378158E+02  0.7561462E-02  0.1347686E+00
         -1   -1    0    0    0  501 -0.00000000000E+00  0.00000000000E+00  0.44072008988E+03  0.44072008988E+03  0.00000000000E+00 0.  1.
          1   -1    0    0  501    0  0.00000000000E+00 -0.00000000000E+00 -0.31870686720E+02  0.31870686720E+02  0.00000000000E+00 0. -1.
         23    2    1    2    0    0 -0.23034000976E+02 -0.17240475005E+02  0.29936377996E+03  0.32571909173E+03  0.12508578969E+03 0.  0.
          5    1    3    3  502    0 -0.13042635797E+02 -0.44754684837E+02  0.31934747826E+02  0.56660327233E+02  0.41800000000E+01 0.  1.
         -5    1    3    3    0  502 -0.99913651793E+01  0.27514209832E+02  0.26742903214E+03  0.26905876449E+03  0.41800000000E+01 0.  1.
        -11    1    1    2    0    0  0.27242828055E+02 -0.19947631963E+02  0.10362854927E+03  0.10899062311E+03  0.00000000000E+00 0.  1.
         11    1    1    2    0    0 -0.42088270788E+01  0.37188106968E+02  0.58570739204E+01  0.37881061761E+02  0.00000000000E+00 0. -1.
</event>
<event>
 7    1  0.6833760E-006  0.2213064E+03  0.7561462E-02  0.1132913E+00
         -2   -1    0    0    0  501 -0.00000000000E+00  0.00000000000E+00  0.73528796516E+03  0.73528796516E+03  0.00000000000E+00 0.  1.
          2   -1    0    0  501    0  0.00000000000E+00 -0.00000000000E+00 -0.73036012808E+02  0.73036012808E+02  0.00000000000E+00 0. -1.
         23    2    1    2    0    0  0.50241066299E+02 -0.19069627534E+03  0.43653671225E+03  0.49507699814E+03  0.12509076217E+03 0.  0.
          5    1    3    3  502    0  0.75241599280E+02 -0.50248755888E+02  0.15863429169E+03  0.18267059596E+03  0.41800000000E+01 0. -1.
         -5    1    3    3    0  502 -0.25000532981E+02 -0.14044751945E+03  0.27790242056E+03  0.31240640218E+03  0.41800000000E+01 0. -1.
        -11    1    1    2    0    0 -0.66615709738E+02  0.12530861196E+03  0.18943403557E+03  0.23669633467E+03  0.00000000000E+00 0.  1.
         11    1    1    2    0    0  0.16374643439E+02  0.65387663387E+02  0.36281204536E+02  0.76550645154E+02  0.00000000000E+00 0. -1.
</event>
<event>
 7    1  0.6833760E-006  0.7727165E+02  0.7561462E-02  0.1336977E+00
         -1   -1    0    0    0  501 -0.00000000000E+00  0.00000000000E+00  0.10695166264E+03  0.10695166264E+03  0.00000000000E+00 0.  1.
          1   -1    0    0  501    0  0.00000000000E+00 -0.00000000000E+00 -0.19151881013E+03  0.19151881013E+03  0.00000000000E+00 0. -1.
         23    2    1    2    0    0  0.23893587412E+02 -0.23017997712E+02  0.43940736396E+02  0.13667159493E+03  0.12509038655E+03 0.  0.
          5    1    3    3  502    0  0.50410790938E+02 -0.38466990990E+02 -0.19164281092E+02  0.66375442059E+02  0.41800000000E+01 0. -1.
         -5    1    3    3    0  502 -0.26517203526E+02  0.15448993278E+02  0.63105017487E+02  0.70296152869E+02  0.41800000000E+01 0. -1.
        -11    1    1    2    0    0 -0.37556199338E+02  0.57360249984E+01 -0.74026601180E+01  0.38706194186E+02  0.00000000000E+00 0.  1.
         11    1    1    2    0    0  0.13662611926E+02  0.17281972713E+02 -0.12110522377E+03  0.12309268366E+03  0.00000000000E+00 0. -1.
</event>
<event>
 7    1  0.6833760E-006  0.7844993E+02  0.7561462E-02  0.1333509E+00
          1   -1    0    0  501    0  0.00000000000E+00  0.00000000000E+00  0.39488369931E+03  0.39488369931E+03  0.00000000000E+00 0. -1.
         -1   -1    0    0    0  501 -0.00000000000E+00 -0.00000000000E+00 -0.45896179178E+02  0.45896179178E+02  0.00000000000E+00 0.  1.
         23    2    1    2    0    0 -0.52386289366E+02 -0.44177633559E+02  0.12586412871E+03  0.19022313980E+03  0.12508827842E+03 0.  0.
          5    1    3    3  502    0  0.12763553465E+01 -0.29662286992E+02  0.13086076144E+03  0.13425159826E+03  0.41800000000E+01 0. -1.
         -5    1    3    3    0  502 -0.53662644713E+02 -0.14515346567E+02 -0.49966327237E+01  0.55971541538E+02  0.41800000000E+01 0. -1.
        -11    1    1    2    0    0  0.15569867090E+02  0.25521047327E+02  0.72352475325E+01  0.30758631711E+02  0.00000000000E+00 0.  1.
         11    1    1    2    0    0  0.36816422277E+02  0.18656586232E+02  0.21588814389E+03  0.21979810698E+03  0.00000000000E+00 0. -1.
</event>
<event>
 7    1  0.6833760E-006  0.1261740E+03  0.7561462E-02  0.1233246E+00
          1   -1    0    0  501    0  0.00000000000E+00  0.00000000000E+00  0.31262939283E+03  0.31262939283E+03  0.00000000000E+00 0. -1.
         -1   -1    0    0    0  501 -0.00000000000E+00 -0.00000000000E+00 -0.89702033424E+02  0.89702033424E+02  0.00000000000E+00 0.  1.
         23    2    1    2    0    0 -0.57974231208E+02  0.48598926055E+02  0.36393447543E+02  0.15064656222E+03  0.12508811529E+03 0.  0.
          5    1    3    3  502    0 -0.12310370255E+02  0.60020475212E+02 -0.30639386032E+02  0.68631239512E+02  0.41800000000E+01 0. -1.
         -5    1    3    3    0  502 -0.45663860953E+02 -0.11421549157E+02  0.67032833575E+02  0.82015322711E+02  0.41800000000E+01 0. -1.
        -11    1    1    2    0    0  0.47436200050E+02 -0.89580574560E+02  0.58935281430E+02  0.11725288828E+03  0.00000000000E+00 0.  1.
         11    1    1    2    0    0  0.10538031158E+02  0.40981648505E+02  0.12759863043E+03  0.13443197574E+03  0.00000000000E+00 0. -1.
</event>
<event>
 7    1  0.6833760E-006  0.2384043E+03  0.7561462E-02  0.1120860E+00
         -1   -1    0    0    0  501 -0.00000000000E+00  0.00000000000E+00  0.52811440379E+02  0.52811440379E+02  0.00000000000E+00 0.  1.
          1   -1    0    0  501    0  0.00000000000E+00 -0.00000000000E+00 -0.11027767969E+04  0.11027767969E+04  0.00000000000E+00 0. -1.
         23    2    1    2    0    0  0.19687916821E+03  0.85297679543E+02 -0.59501657134E+03  0.64476996470E+03  0.12508591528E+03 0.  0.
          5    1    3    3  502    0  0.40337968103E+02  0.81654575280E+02 -0.23997633899E+03  0.25671138854E+03  0.41800000000E+01 0. -1.
         -5    1    3    3    0  502  0.15654120011E+03  0.36431042629E+01 -0.35504023235E+03  0.38805857616E+03  0.41800000000E+01 0. -1.
        -11    1    1    2    0    0 -0.71579952510E+02  0.90505694869E+01 -0.10583194815E+03  0.12808592295E+03  0.00000000000E+00 0.  1.
         11    1    1    2    0    0 -0.12529921570E+03 -0.94348249030E+02 -0.34911683703E+03  0.38273234962E+03  0.00000000000E+00 0. -1.
</event>
<event>
 7    1  0.6833760E-006  0.1135603E+03  0.7561462E-02  0.1254115E+00
          2   -1    0    0  501    0  0.00000000000E+00  0.00000000000E+00  0.58860411465E+03  0.58860411465E+03  0.00000000000E+00 0. -1.
         -2   -1    0    0    0  501 -0.00000000000E+00 -0.00000000000E+00 -0.32090282721E+02  0.32090282721E+02  0.00000000000E+00 0.  1.
         23    2    1    2    0    0 -0.73471977332E+02  0.40026145032E+02  0.33859127858E+03  0.37053015409E+03  0.12509323489E+03 0.  0.
          5    1    3    3  502    0 -0.81609337388E+02  0.22428360540E+02  0.99823907350E+02  0.13094044518E+03  0.41800000000E+01 0.  1.
         -5    1    3    3    0  502  0.81373600560E+01  0.17597784491E+02  0.23876737123E+03  0.23958970890E+03  0.41800000000E+01 0.  1.
        -11    1    1    2    0    0  0.86164517459E+02 -0.61626174794E+01  0.14541665867E+03  0.16913990228E+03  0.00000000000E+00 0.  1.
         11    1    1    2    0    0 -0.12692540127E+02 -0.33863527552E+02  0.72505894676E+02  0.81024341009E+02  0.00000000000E+00 0. -1.
</event>
<event>
 7    1  0.6833760E-006  0.6779277E+02  0.7561462E-02  0.1367764E+00
          1   -1    0    0  501    0  0.00000000000E+00  0.00000000000E+00  0.58430495263E+02  0.58430495263E+02  0.00000000000E+00 0. -1.
         -1   -1    0    0    0  501 -0.00000000000E+00 -0.00000000000E+00 -0.36006123704E+03  0.36006123704E+03  0.00000000000E+00 0.  1.
         23    2    1    2    0    0  0.44996670731E+02 -0.10205162040E+02 -0.28757362870E+03  0.31697411714E+03  0.12508058723E+03 0.  0.
          5    1    3    3  502    0  0.58788217888E+02 -0.28749560867E+01 -0.29378624779E+03  0.29965338597E+03  0.41800000000E+01 0. -1.
         -5    1    3    3    0  502 -0.13791547157E+02 -0.73302059529E+01  0.62126190851E+01  0.17320731168E+02  0.41800000000E+01 0. -1.
        -11    1    1    2    0    0 -0.15390147990E+02  0.23391506970E+02  0.33691769163E+02  0.43808156351E+02  0.00000000000E+00 0. -1.
         11    1    1    2    0    0 -0.29606522741E+02 -0.13186344931E+02 -0.47748882240E+02  0.57709458814E+02  0.00000000000E+00 0.  1.
</event>
<event>
 7    1  0.6833760E-006  0.4277796E+03  0.7561462E-02  0.1034564E+00
          2   -1    0    0  501    0  0.00000000000E+00  0.00000000000E+00  0.10250469016E+04  0.10250469016E+04  0.00000000000E+00 0. -1.
         -2   -1    0    0    0  501 -0.00000000000E+00 -0.00000000000E+00 -0.20361205241E+03  0.20361205241E+03  0.00000000000E+00 0.  1.
         23    2    1    2    0    0 -0.15747569740E+03  0.38360348182E+03  0.20266764518E+03  0.47819662232E+03  0.12509040195E+03 0.  0.
          5    1    3    3  502    0 -0.54387300876E+02  0.26389532342E+02  0.19092642602E+02  0.63532568934E+02  0.41800000000E+01 0. -1.
         -5    1    3    3    0  502 -0.10308839652E+03  0.35721394947E+03  0.18357500258E+03  0.41466405338E+03  0.41800000000E+01 0. -1.
        -11    1    1    2    0    0  0.62650667777E+01 -0.11291570049E+03  0.19423936691E+03  0.22476240374E+03  0.00000000000E+00 0.  1.
         11    1    1    2    0    0  0.15121063062E+03 -0.27068778132E+03  0.42452783711E+03  0.52569992795E+03  0.00000000000E+00 0. -1.
</event>
<event>
 7    1  0.6833760E-006  0.1277000E+03  0.7561462E-02  0.1230909E+00
         -1   -1    0    0    0  501 -0.00000000000E+00  0.00000000000E+00  0.58624967634E+02  0.58624967634E+02  0.00000000000E+00 0.  1.
          1   -1    0    0  501    0  0.00000000000E+00 -0.00000000000E+00 -0.38957815298E+03  0.38957815298E+03  0.00000000000E+00 0. -1.
         23    2    1    2    0    0 -0.79803945559E+02 -0.36269810284E+02 -0.94784493866E+02  0.17976680785E+03  0.12509131090E+03 0.  0.
          5    1    3    3  502    0 -0.43382685817E+01 -0.65313858678E+02 -0.68008427246E+02  0.94484598142E+02  0.41800000000E+01 0. -1.
         -5    1    3    3    0  502 -0.75465676977E+02  0.29044048394E+02 -0.26776066620E+02  0.85282209706E+02  0.41800000000E+01 0. -1.
        -11    1    1    2    0    0  0.48252671120E+02  0.54185594717E+02 -0.79546377160E+02  0.10766626707E+03  0.00000000000E+00 0.  1.
         11    1    1    2    0    0  0.31551274438E+02 -0.17915784433E+02 -0.15662231432E+03  0.16077004570E+03  0.00000000000E+00 0. -1.
</event>
<event>
 7    1  0.6833760E-006  0.1758921E+03  0.7561462E-02  0.1171839E+00
          2   -1    0    0  501    0  0.00000000000E+00  0.00000000000E+00  0.16151638210E+03  0.16151638210E+03  0.00000000000E+00 0. -1.
         -2   -1    0    0    0  501 -0.00000000000E+00 -0.00000000000E+00 -0.25967276122E+03  0.25967276122E+03  0.00000000000E+00 0.  1.
         23    2    1    2    0    0  0.13638621448E+03 -0.99034691162E+02 -0.92644520977E+02  0.22943859021E+03  0.12509991950E+03 0.  0.
          5    1    3    3  502    0 -0.73827747874E+01 -0.40396526153E+01  0.20980303377E+02  0.22988468557E+02  0.41800000000E+01 0.  1.
         -5    1    3    3    0  502  0.14376898926E+03 -0.94995038546E+02 -0.11362482435E+03  0.20645012166E+03  0.41800000000E+01 0.  1.
        -11    1    1    2    0    0 -0.56034610335E+02  0.54421582211E+02 -0.46731574050E+02  0.91024316415E+02  0.00000000000E+00 0.  1.
         11    1    1    2    0    0 -0.80351604142E+02  0.44613108951E+02  0.41219715910E+02  0.10072623669E+03  0.00000000000E+00 0. -1.
</event>
<event>
 7    1  0.6833760E-006  0.9380025E+02  0.7561462E-02  0.1293901E+00
          2   -1    0    0  501    0  0.00000000000E+00  0.00000000000E+00  0.15003178619E+03  0.15003178619E+03  0.00000000000E+00 0. -1.
         -2   -1    0    0    0  501 -0.00000000000E+00 -0.00000000000E+00 -0.83452078804E+02  0.83452078804E+02  0.00000000000E+00 0.  1.
         23    2    1    2    0    0  0.15876894176E+02 -0.23654848921E+01  0.12814161574E+02  0.12676480016E+03  0.12508972993E+03 0.  0.
          5    1    3    3  502    0  0.66270171745E+02 -0.19717921105E+02  0.21664031004E+02  0.72576406051E+02  0.41800000000E+01 0. -1.
         -5    1    3    3    0  502 -0.50393277569E+02  0.17352436213E+02 -0.88498694303E+01  0.54188394105E+02  0.41800000000E+01 0. -1.
        -11    1    1    2    0    0 -0.30986089284E+02 -0.20724498813E+02 -0.88315462796E+01  0.38309774077E+02  0.00000000000E+00 0.  1.
         11    1    1    2    0    0  0.15109195108E+02  0.23089983705E+02  0.62597092096E+02  0.68409290767E+02  0.00000000000E+00 0. -1.
</event>
<event>
 7    1  0.7587492E-006  0.1365454E+03  0.7561462E-02  0.1218054E+00
         -1   -1    0    0    0  501 -0.00000000000E+00  0.00000000000E+00  0.36891807076E+03  0.36891807076E+03  0.00000000000E+00 0.  1.
          1   -1    0    0  501    0  0.00000000000E+00 -0.00000000000E+00 -0.53882297792E+02  0.53882297792E+02  0.00000000000E+00 0. -1.
         23    2    1    2    0    0  0.77819391153E+02 -0.35998317971E+02  0.18103617111E+03  0.23616451543E+03  0.12509135287E+03 0.  0.
          5    1    3    3  502    0  0.10658898390E+03 -0.42159263654E+02  0.10896501285E+03  0.15820702078E+03  0.41800000000E+01 0. -1.
         -5    1    3    3    0  502 -0.28769592745E+02  0.61609456834E+01  0.72071158256E+02  0.77957494641E+02  0.41800000000E+01 0. -1.
        -11    1    1    2    0    0 -0.65877274842E+02 -0.22003707940E+02  0.85041821103E+02  0.10980022696E+03  0.00000000000E+00 0.  1.
         11    1    1    2    0    0 -0.11942116311E+02  0.58002025911E+02  0.48957780759E+02  0.76835626168E+02  0.00000000000E+00 0. -1.
</event>
<event>
 7    1  0.6833760E-006  0.1199538E+03  0.7561462E-02  0.1243173E+00
         -1   -1    0    0    0  501 -0.00000000000E+00  0.00000000000E+00  0.11144561513E+03  0.11144561513E+03  0.00000000000E+00 0.  1.
          1   -1    0    0  501    0  0.00000000000E+00 -0.00000000000E+00 -0.29478333327E+03  0.29478333327E+03  0.00000000000E+00 0. -1.
         23    2    1    2    0    0  0.66171598730E+02 -0.35197457300E+02  0.41873882989E+02  0.15171768580E+03  0.12508913873E+03 0.  0.
          5    1    3    3  502    0  0.83813727209E+02 -0.23865395146E+01 -0.13315060240E+02  0.85001174514E+02  0.41800000000E+01 0.  1.
         -5    1    3    3    0  502 -0.17642128479E+02 -0.32810917785E+02  0.55188943229E+02  0.66716511284E+02  0.41800000000E+01 0.  1.
        -11    1    1    2    0    0  0.15996832206E+02  0.32537591291E+02 -0.73510130680E+02  0.81965436620E+02  0.00000000000E+00 0. -1.
         11    1    1    2    0    0 -0.82168430936E+02  0.26598660088E+01 -0.15170147044E+03  0.17254582598E+03  0.00000000000E+00 0.  1.
</event>
<event>
 7    1  0.6833760E-006  0.1033565E+03  0.7561462E-02  0.1273392E+00
          3   -1    0    0  501    0  0.00000000000E+00  0.00000000000E+00  0.18603267811E+03  0.18603267811E+03  0.00000000000E+00 0. -1.
         -3   -1    0    0    0  501 -0.00000000000E+00 -0.00000000000E+00 -0.91142861623E+02  0.91142861623E+02  0.00000000000E+00 0.  1.
         23    2    1    2    0    0  0.54527910644E+02  0.43713857612E+02  0.31449072057E+02  0.14669891339E+03  0.12508929878E+03 0.  0.
          5    1    3    3  502    0  0.22621415570E+02  0.58676002295E+02 -0.34469664282E+02  0.71834753730E+02  0.41800000000E+01 0. -1.
         -5    1    3    3    0  502  0.31906495074E+02 -0.14962144683E+02  0.65918736338E+02  0.74864159662E+02  0.41800000000E+01 0. -1.
        -11    1    1    2    0    0 -0.69894610876E+02 -0.92977795823E+01  0.60081515217E+02  0.92636352505E+02  0.00000000000E+00 0.  1.
         11    1    1    2    0    0  0.15366700232E+02 -0.34416078030E+02  0.33592292108E+01  0.37840273835E+02  0.00000000000E+00 0. -1.
</event>
<event>
 7    1  0.6833760E-006  0.8476057E+02  0.7561462E-02  0.1316060E+00
         -1   -1    0    0    0  501 -0.00000000000E+00  0.00000000000E+00  0.42371166589E+02  0.42371166589E+02  0.00000000000E+00 0.  1.
          1   -1    0    0  501    0  0.00000000000E+00 -0.00000000000E+00 -0.37348368536E+03  0.37348368536E+03  0.00000000000E+00 0. -1.
         23    2    1    2    0    0  0.18383186778E+01  0.61740438454E+02 -0.20722107169E+03  0.24980771370E+03  0.12509220645E+03 0.  0.
          5    1    3    3  502    0  0.10260473341E+02  0.57571481341E+02 -0.19471642026E+02  0.61776775735E+02  0.41800000000E+01 0. -1.
         -5    1    3    3    0  502 -0.84221546628E+01  0.41689571127E+01 -0.18774942966E+03  0.18803093796E+03  0.41800000000E+01 0. -1.
        -11    1    1    2    0    0  0.38403101829E+02 -0.37245222930E+02 -0.99563406237E+02  0.11302600021E+03  0.00000000000E+00 0.  1.
         11    1    1    2    0    0 -0.40241420507E+02 -0.24495215524E+02 -0.24328040842E+02  0.53021138041E+02  0.00000000000E+00 0. -1.
</event>
<event>
 7    1  0.6833760E-006  0.1381276E+03  0.7561462E-02  0.1215871E+00
         -2   -1    0    0    0  501 -0.00000000000E+00  0.00000000000E+00  0.21841267072E+02  0.21841267072E+02  0.00000000000E+00 0. -1.
          2   -1    0    0  501    0  0.00000000000E+00 -0.00000000000E+00 -0.12491466528E+04  0.12491466528E+04  0.00000000000E+00 0.  1.
         23    2    1    2    0    0 -0.12983862709E+02 -0.11841775712E+03 -0.52071075769E+03  0.54861498349E+03  0.12508941216E+03 0.  0.
          5    1    3    3  502    0  0.47197879027E+01 -0.10390734510E+03 -0.18642170276E+03  0.21351706354E+03  0.41800000000E+01 0.  1.
         -5    1    3    3    0  502 -0.17703650612E+02 -0.14510412022E+02 -0.33428905493E+03  0.33509791994E+03  0.41800000000E+01 0.  1.
        -11    1    1    2    0    0  0.44172832840E+02  0.10685331699E+03 -0.58460615445E+03  0.59593055496E+03  0.00000000000E+00 0.  1.
         11    1    1    2    0    0 -0.31188970131E+02  0.11564440130E+02 -0.12198847360E+03  0.12644238144E+03  0.00000000000E+00 0. -1.
</event>
<event>
 7    1  0.6833760E-006  0.1415830E+03  0.7561462E-02  0.1211215E+00
         -1   -1    0    0    0  501 -0.00000000000E+00  0.00000000000E+00  0.79814366049E+02  0.79814366049E+02  0.00000000000E+00 0.  1.
          1   -1    0    0  501    0  0.00000000000E+00 -0.00000000000E+00 -0.43338129595E+03  0.43338129595E+03  0.00000000000E+00 0. -1.
         23    2    1    2    0    0  0.85862344799E+02  0.98471573329E+01 -0.24350189023E+02  0.15397979282E+03  0.12509011204E+03 0.  0.
          5    1    3    3  502    0 -0.87108611748E+01 -0.36523512974E+02 -0.30256068465E+02  0.48401943983E+02  0.41800000000E+01 0.  1.
         -5    1    3    3    0  502  0.94573205974E+02  0.46370670307E+02  0.59058794411E+01  0.10557784884E+03  0.41800000000E+01 0.  1.
        -11    1    1    2    0    0 -0.70201915487E+02  0.44698573279E+02 -0.15415507452E+03  0.17518578251E+03  0.00000000000E+00 0.  1.
         11    1    1    2    0    0 -0.15660429312E+02 -0.54545730611E+02 -0.17506166635E+03  0.18403008667E+03  0.00000000000E+00 0. -1.
</event>
<event>
 7    1  0.6833760E-006  0.1200256E+03  0.7561462E-02  0.1243055E+00
          3   -1    0    0  501    0  0.00000000000E+00  0.00000000000E+00  0.67016603525E+02  0.67016603525E+02  0.00000000000E+00 0. -1.
         -3   -1    0    0    0  501 -0.00000000000E+00 -0.00000000000E+00 -0.32618651258E+03  0.32618651258E+03  0.00000000000E+00 0.  1.
         23    2    1    2    0    0  0.44894634378E+02  0.94740586238E+02 -0.16281652388E+03  0.23053887697E+03  0.12509055309E+03 0.  0.
          5    1    3    3  502    0  0.41406980541E+01  0.50595172544E+02  0.60120616426E+01  0.51289708035E+02  0.41800000000E+01 0.  1.
         -5    1    3    3    0  502  0.40753936324E+02  0.44145413694E+02 -0.16882858552E+03  0.17924916894E+03  0.41800000000E+01 0.  1.
        -11    1    1    2    0    0 -0.62150731463E+02 -0.46399700312E+02 -0.43229491367E+02  0.88794338414E+02  0.00000000000E+00 0. -1.
         11    1    1    2    0    0  0.17256097085E+02 -0.48340885926E+02 -0.53123893807E+02  0.73869900716E+02  0.00000000000E+00 0.  1.
</event>
<event>
 7    1  0.6833760E-006  0.9481758E+02  0.7561462E-02  0.1291587E+00
         -2   -1    0    0    0  501 -0.00000000000E+00  0.00000000000E+00  0.73723941589E+02  0.73723941589E+02  0.00000000000E+00 0.  1.
          2   -1    0    0  501    0  0.00000000000E+00 -0.00000000000E+00 -0.18192767021E+03  0.18192767021E+03  0.00000000000E+00 0. -1.
         23    2    1    2    0    0  0.28587489309E+02  0.32477190195E+01 -0.30290841189E+02  0.13188391292E+03  0.12509212286E+03 0.  0.
          5    1    3    3  502    0 -0.36845541410E+02  0.26763821548E+02  0.15772137358E+02  0.48374877597E+02  0.41800000000E+01 0. -1.
         -5    1    3    3    0  502  0.65433030719E+02 -0.23516102528E+02 -0.46062978547E+02  0.83509035319E+02  0.41800000000E+01 0. -1.
        -11    1    1    2    0    0  0.86033535125E+01  0.25710876227E+02  0.57734224936E+01  0.27720015427E+02  0.00000000000E+00 0.  1.
         11    1    1    2    0    0 -0.37190842822E+02 -0.28958595246E+02 -0.83686309924E+02  0.96047683456E+02  0.00000000000E+00 0. -1.
</event>
<event>
 7    1  0.6833760E-006  0.1373400E+03  0.7561462E-02  0.1216954E+00
          1   -1    0    0  501    0  0.00000000000E+00  0.00000000000E+00  0.81238950863E+03  0.81238950863E+03  0.00000000000E+00 0. -1.
         -1   -1    0    0    0  501 -0.00000000000E+00 -0.00000000000E+00 -0.55221865275E+02  0.55221865275E+02  0.00000000000E+00 0.  1.
         23    2    1    2    0    0  0.29827815914E+02 -0.80213357044E+02  0.70030599891E+02  0.16912986005E+03  0.12797165073E+03 0.  0.
          5    1    3    3  502    0 -0.14197205743E+02  0.28406611465E+02  0.33372479692E+02  0.46256794383E+02  0.41800000000E+01 0. -1.
         -5    1    3    3    0  502  0.44025021657E+02 -0.10861996851E+03  0.36658120199E+02  0.12287306567E+03  0.41800000000E+01 0.  1.
        -11    1    1    2    0    0 -0.62938015151E+02  0.47745220591E+02  0.43567297787E+03  0.44277730688E+03  0.00000000000E+00 0. -1.
         11    1    1    2    0    0  0.33110199237E+02  0.32468136453E+02  0.25146406559E+03  0.25570420697E+03  0.00000000000E+00 0.  1.
</event>
<event>
 7    1  0.6833760E-006  0.6343375E+02  0.7561462E-02  0.1383962E+00
         -3   -1    0    0    0  501 -0.00000000000E+00  0.00000000000E+00  0.54632542570E+03  0.54632542570E+03  0.00000000000E+00 0.  1.
          3   -1    0    0  501    0  0.00000000000E+00 -0.00000000000E+00 -0.25856048806E+02  0.25856048806E+02  0.00000000000E+00 0. -1.
         23    2    1    2    0    0  0.13152442765E+01 -0.18409571333E+02  0.42225215159E+03  0.44084240880E+03  0.12531762719E+03 0.  0.
          5    1    3    3  502    0 -0.18158427639E+02 -0.17801888795E+02  0.92807094226E+01  0.27390503945E+02  0.41800000000E+01 0.  1.
         -5    1    3    3    0  502  0.19473671916E+02 -0.60768253831E+00  0.41297144217E+03  0.41345190485E+03  0.41800000000E+01 0.  1.
        -11    1    1    2    0    0 -0.22706172448E+02  0.42970406972E+02  0.33932490116E+02  0.59274277964E+02  0.00000000000E+00 0.  1.
         11    1    1    2    0    0  0.21390928172E+02 -0.24560835639E+02  0.64284735186E+02  0.72064787749E+02  0.00000000000E+00 0. -1.
</event>
<event>
 7    1  0.6833760E-006  0.1064837E+03  0.7561462E-02  0.1267224E+00
          1   -1    0    0  501    0  0.00000000000E+00  0.00000000000E+00  0.22851761284E+03  0.22851761284E+03  0.00000000000E+00 0. -1.
         -1   -1    0    0    0  501 -0.00000000000E+00 -0.00000000000E+00 -0.54775149637E+02  0.54775149637E+02  0.00000000000E+00 0.  1.
         23    2    1    2    0    0 -0.19547941055E+02 -0.87542263967E+01  0.73328433168E+02  0.14657197481E+03  0.12509007239E+03 0.  0.
          5    1    3    3  502    0 -0.83055875283E+01  0.57074721434E+02  0.47546079531E+02  0.74863934506E+02  0.41800000000E+01 0.  1.
         -5    1    3    3    0  502 -0.11242353527E+02 -0.65828947831E+02  0.25782353637E+02  0.71708040305E+02  0.41800000000E+01 0.  1.
        -11    1    1    2    0    0  0.39694614937E+02  0.36509179151E+02  0.80997737460E+02  0.97309897189E+02  0.00000000000E+00 0. -1.
         11    1    1    2    0    0 -0.20146673882E+02 -0.27754952754E+02  0.19416292578E+02  0.39410890479E+02  0.00000000000E+00 0.  1.
</event>
<event>
 7    1  0.6833760E-006  0.1115168E+03  0.7561462E-02  0.1257787E+00
         -1   -1    0    0    0  501 -0.00000000000E+00  0.00000000000E+00  0.56306365950E+02  0.56306365950E+02  0.00000000000E+00 0.  1.
          1   -1    0    0  501    0  0.00000000000E+00 -0.00000000000E+00 -0.35363176588E+03  0.35363176588E+03  0.00000000000E+00 0. -1.
         23    2    1    2    0    0  0.14813009988E+02 -0.65816165280E+02 -0.77292048357E+02  0.16177728829E+03  0.12508651962E+03 0.  0.
          5    1    3    3  502    0  0.30322896722E+02  0.18537240231E+02  0.12146341858E+02  0.37790387158E+02  0.41800000000E+01 0. -1.
         -5    1    3    3    0  502 -0.15509886734E+02 -0.84353405510E+02 -0.89438390216E+02  0.12398690113E+03  0.41800000000E+01 0. -1.
        -11    1    1    2    0    0  0.24846319418E+02  0.54875640777E+02 -0.68861646485E+02  0.91490993523E+02  0.00000000000E+00 0.  1.
         11    1    1    2    0    0 -0.39659329406E+02  0.10940524503E+02 -0.15117170509E+03  0.15666985002E+03  0.00000000000E+00 0. -1.
</event>
<event>
 7    1  0.6833760E-006  0.1180790E+03  0.7561462E-02  0.1246300E+00
          1   -1    0    0  501    0  0.00000000000E+00  0.00000000000E+00  0.11907655354E+03  0.11907655354E+03  0.00000000000E+00 0. -1.
         -1   -1    0    0    0  501 -0.00000000000E+00 -0.00000000000E+00 -0.16001664345E+03  0.16001664345E+03  0.00000000000E+00 0.  1.
         23    2    1    2    0    0 -0.52126744108E+02  0.17656078832E+02 -0.85678056755E+02  0.16130678098E+03  0.12510081378E+03 0.  0.
          5    1    3    3  502    0 -0.71686897559E+02  0.51225475033E+02 -0.29768803386E+02  0.93095191224E+02  0.41800000000E+01 0. -1.
         -5    1    3    3    0  502  0.19560153451E+02 -0.33569396201E+02 -0.55909253368E+02  0.68211589752E+02  0.41800000000E+01 0. -1.
        -11    1    1    2    0    0  0.79632975067E+02 -0.95820736715E+01  0.30889417617E+02  0.85949886414E+02  0.00000000000E+00 0. -1.
         11    1    1    2    0    0 -0.27506230959E+02 -0.80740051607E+01  0.13848549235E+02  0.31836529598E+02  0.00000000000E+00 0.  1.
</event>
<event>
 7    1  0.6833760E-006  0.1567234E+03  0.7561462E-02  0.1192446E+00
          2   -1    0    0  501    0  0.00000000000E+00  0.00000000000E+00  0.76762408182E+02  0.76762408182E+02  0.00000000000E+00 0. -1.
         -2   -1    0    0    0  501 -0.00000000000E+00 -0.00000000000E+00 -0.59772892179E+03  0.59772892179E+03  0.00000000000E+00 0.  1.
         23    2    1    2    0    0 -0.14934449992E+02 -0.12318026104E+03 -0.48651980407E+03  0.51743988937E+03  0.12508439091E+03 0.  0.
          5    1    3    3  502    0  0.52737433022E+02 -0.37076889621E+02 -0.21936536034E+03  0.22868005226E+03  0.41800000000E+01 0. -1.
         -5    1    3    3    0  502 -0.67671883014E+02 -0.86103371421E+02 -0.26715444373E+03  0.28875983711E+03  0.41800000000E+01 0. -1.
        -11    1    1    2    0    0 -0.22687043435E+02  0.73574500763E+02  0.13884855063E+02  0.78234891848E+02  0.00000000000E+00 0.  1.
         11    1    1    2    0    0  0.37621493428E+02  0.49605760279E+02 -0.48331564596E+02  0.78816548750E+02  0.00000000000E+00 0. -1.
</event>
<event>
 7    1  0.6833760E-006  0.9626963E+02  0.7561462E-02  0.1288342E+00
          2   -1    0    0  501    0  0.00000000000E+00  0.00000000000E+00  0.68978941434E+02  0.68978941434E+02  0.00000000000E+00 0. -1.
         -2   -1    0    0    0  501 -0.00000000000E+00 -0.00000000000E+00 -0.24861634749E+03  0.24861634749E+03  0.00000000000E+00 0.  1.
         23    2    1    2    0    0 -0.36012085504E+02  0.57903904352E+02 -0.13464818693E+03  0.19602825130E+03  0.12508880295E+03 0.  0.
          5    1    3    3  502    0  0.25309526596E+02  0.39130492363E+02 -0.12181572434E+03  0.13049256938E+03  0.41800000000E+01 0. -1.
         -5    1    3    3    0  502 -0.61321612100E+02  0.18773411989E+02 -0.12832462592E+02  0.65535681918E+02  0.41800000000E+01 0. -1.
        -11    1    1    2    0    0  0.39087693351E+02 -0.20848752720E+02 -0.65521399028E+02  0.79092174025E+02  0.00000000000E+00 0.  1.
         11    1    1    2    0    0 -0.30756078472E+01 -0.37055151633E+02  0.20532179899E+02  0.42474863597E+02  0.00000000000E+00 0. -1.
</event>
<event>
 7    1  0.6833760E-006  0.1205793E+03  0.7561462E-02  0.1242144E+00
          1   -1    0    0  501    0  0.00000000000E+00  0.00000000000E+00  0.32091470326E+03  0.32091470326E+03  0.00000000000E+00 0. -1.
         -1   -1    0    0    0  501 -0.00000000000E+00 -0.00000000000E+00 -0.63652313366E+02  0.63652313366E+02  0.00000000000E+00 0.  1.
         23    2    1    2    0    0  0.69650266327E+02 -0.16859577625E+02  0.61180622727E+02  0.15660605593E+03  0.12508790190E+03 0.  0.
          5    1    3    3  502    0 -0.71614654148E+01  0.39308853051E+02 -0.51982496669E+01  0.40508847363E+02  0.41800000000E+01 0. -1.
         -5    1    3    3    0  502  0.76811731742E+02 -0.56168430675E+02  0.66378872394E+02  0.11609720857E+03  0.41800000000E+01 0. -1.
        -11    1    1    2    0    0 -0.27711660770E+02  0.46672971478E+02  0.52817435378E+02  0.75736278553E+02  0.00000000000E+00 0.  1.
         11    1    1    2    0    0 -0.41938605557E+02 -0.29813393854E+02  0.14326433178E+03  0.15222468213E+03  0.00000000000E+00 0. -1.
</event>
<event>
 7    1  0.6833760E-006  0.1724999E+03  0.7561462E-02  0.1175266E+00
         -2   -1    0    0    0  501 -0.00000000000E+00  0.00000000000E+00  0.10019450862E+03  0.10019450862E+03  0.00000000000E+00 0.  1.
          2   -1    0    0  501    0  0.00000000000E+00 -0.00000000000E+00 -0.33203513147E+03  0.33203513147E+03  0.00000000000E+00 0. -1.
         23    2    1    2    0    0  0.91809925940E+02  0.11875093679E+03 -0.94154441924E+02  0.21688037253E+03  0.12506474149E+03 0.  0.
          5    1    3    3  502    0 -0.14850463418E+02  0.79690808137E+02 -0.31311312901E+02  0.87000183223E+02  0.41800000000E+01 0.  1.
         -5    1    3    3    0  502  0.10666038936E+03  0.39060128657E+02 -0.62843129023E+02  0.12988018931E+03  0.41800000000E+01 0.  1.
        -11    1    1    2    0    0 -0.27802990729E+02 -0.39257280225E+02 -0.91395508063E+02  0.10328252146E+03  0.00000000000E+00 0. -1.
         11    1    1    2    0    0 -0.64006935211E+02 -0.79493656569E+02 -0.46290672856E+02  0.11206674611E+03  0.00000000000E+00 0.  1.
</event>
<event>
 7    1  0.6833760E-006  0.1426803E+03  0.7561462E-02  0.1209767E+00
          2   -1    0    0  501    0  0.00000000000E+00  0.00000000000E+00  0.98898673335E+03  0.98898673335E+03  0.00000000000E+00 0. -1.
         -2   -1    0    0    0  501 -0.00000000000E+00 -0.00000000000E+00 -0.28719684436E+02  0.28719684436E+02  0.00000000000E+00 0.  1.
         23    2    1    2    0    0  0.99369915435E+02  0.24726269854E+02  0.27855641399E+03  0.32206624901E+03  0.12508886627E+03 0.  0.
          5    1    3    3  502    0 -0.21663450599E+02  0.33401688967E+02  0.76349689618E+02  0.86207455724E+02  0.41800000000E+01 0. -1.
         -5    1    3    3    0  502  0.12103336603E+03 -0.86754191132E+01  0.20220672437E+03  0.23585879329E+03  0.41800000000E+01 0. -1.
        -11    1    1    2    0    0 -0.10936191645E+03 -0.28852177213E+02  0.67084539443E+03  0.68031317798E+03  0.00000000000E+00 0.  1.
         11    1    1    2    0    0  0.99920010183E+01  0.41259073589E+01  0.10865240497E+02  0.15326990799E+02  0.00000000000E+00 0. -1.
</event>
<event>
 7    1  0.6833760E-006  0.1971549E+03  0.7561462E-02  0.1152162E+00
         -1   -1    0    0    0  501 -0.00000000000E+00  0.00000000000E+00  0.42273916162E+02  0.42273916162E+02  0.00000000000E+00 0.  1.
          1   -1    0    0  501    0  0.00000000000E+00 -0.00000000000E+00 -0.94279740181E+03  0.94279740181E+03  0.00000000000E+00 0. -1.
         23    2    1    2    0    0 -0.70642122297E+02  0.14826660736E+03 -0.54352377305E+03  0.58141094267E+03  0.12508915256E+03 0.  0.
          5    1    3    3  502    0 -0.10646137548E+03  0.10041316575E+03 -0.39463809494E+03  0.42091985782E+03  0.41800000000E+01 0. -1.
         -5    1    3    3    0  502  0.35819253185E+02  0.47853441610E+02 -0.14888567811E+03  0.16049108485E+03  0.41800000000E+01 0. -1.
        -11    1    1    2    0    0  0.60419338225E+02 -0.16082033558E+03 -0.31810306977E+03  0.36152903032E+03  0.00000000000E+00 0.  1.
         11    1    1    2    0    0  0.10222784071E+02  0.12553728221E+02 -0.38896642828E+02  0.42131344978E+02  0.00000000000E+00 0. -1.
</event>
<event>
 7    1  0.6833760E-006  0.7277216E+02  0.7561462E-02  0.1350912E+00
         -1   -1    0    0    0  501 -0.00000000000E+00  0.00000000000E+00  0.47826794477E+02  0.47826794477E+02  0.00000000000E+00 0.  1.
          1   -1    0    0  501    0  0.00000000000E+00 -0.00000000000E+00 -0.24722537913E+03  0.24722537913E+03  0.00000000000E+00 0. -1.
         23    2    1    2    0    0 -0.64804743537E+01 -0.14976836132E+02 -0.12860153975E+03  0.18014156934E+03  0.12508527815E+03 0.  0.
          5    1    3    3  502    0  0.14789252885E+02 -0.26455789812E+02  0.15269604364E+02  0.34194502964E+02  0.41800000000E+01 0. -1.
         -5    1    3    3    0  502 -0.21269727239E+02  0.11478953680E+02 -0.14387114412E+03  0.14594706638E+03  0.41800000000E+01 0. -1.
        -11    1    1    2    0    0 -0.20606577058E+02  0.45296312929E+02 -0.41515757456E+02  0.64806983421E+02  0.00000000000E+00 0. -1.
         11    1    1    2    0    0  0.27087051411E+02 -0.30319476797E+02 -0.29281287443E+02  0.50103620844E+02  0.00000000000E+00 0.  1.
</event>
<event>
 7    1  0.6833760E-006  0.1095816E+03  0.7561462E-02  0.1261347E+00
         -1   -1    0    0    0  501 -0.00000000000E+00  0.00000000000E+00  0.30763386139E+03  0.30763386139E+03  0.00000000000E+00 0.  1.
          1   -1    0    0  501    0  0.00000000000E+00 -0.00000000000E+00 -0.53221910390E+02  0.53221910390E+02  0.00000000000E+00 0. -1.
         23    2    1    2    0    0 -0.24936568178E+02  0.89307887746E+01  0.23359680774E+03  0.26630456378E+03  0.12509620571E+03 0.  0.
          5    1    3    3  502    0 -0.44739279894E+02 -0.48983535290E+02  0.12516770785E+03  0.14172303053E+03  0.41800000000E+01 0. -1.
         -5    1    3    3    0  502  0.19802711716E+02  0.57914324064E+02  0.10842909988E+03  0.12458153324E+03  0.41800000000E+01 0. -1.
        -11    1    1    2    0    0  0.57497718112E+02  0.30016532716E+00  0.19379124319E+02  0.60676421670E+02  0.00000000000E+00 0.  1.
         11    1    1    2    0    0 -0.32561149933E+02 -0.92309541018E+01  0.14360189418E+01  0.33874786332E+02  0.00000000000E+00 0. -1.
</event>
<event>
 7    1  0.6833760E-006  0.9168241E+02  0.7561462E-02  0.1298828E+00
         -2   -1    0    0    0  501 -0.00000000000E+00  0.00000000000E+00  0.74619671404E+02  0.74619671404E+02  0.00000000000E+00 0.  1.
          2   -1    0    0  501    0  0.00000000000E+00 -0.00000000000E+00 -0.18929934624E+03  0.18929934624E+03  0.00000000000E+00 0. -1.
         23    2    1    2    0    0  0.78465626904E+01 -0.39160180334E+02 -0.33889559294E+02  0.13561925379E+03  0.12509592919E+03 0.  0.
          5    1    3    3  502    0  0.44697267693E+02 -0.48951105409E+02  0.20097208939E+02  0.69393275374E+02  0.41800000000E+01 0.  1.
         -5    1    3    3    0  502 -0.36850705003E+02  0.97909250744E+01 -0.53986768233E+02  0.66225978417E+02  0.41800000000E+01 0.  1.
        -11    1    1    2    0    0  0.30041580615E+02  0.14296519227E+02  0.26208049967E+01  0.33372977792E+02  0.00000000000E+00 0.  1.
         11    1    1    2    0    0 -0.37888143306E+02  0.24863661107E+02 -0.83410920541E+02  0.94926786063E+02  0.00000000000E+00 0. -1.
</event>
<event>
 7    1  0.6833760E-006  0.1338954E+03  0.7561462E-02  0.1221788E+00
         -1   -1    0    0    0  501 -0.00000000000E+00  0.00000000000E+00  0.35284649643E+02  0.35284649643E+02  0.00000000000E+00 0.  1.
          1   -1    0    0  501    0  0.00000000000E+00 -0.00000000000E+00 -0.61526021564E+03  0.61526021564E+03  0.00000000000E+00 0. -1.
         23    2    1    2    0    0 -0.57068731316E+02  0.56326655776E+02 -0.18389502879E+03  0.23642310718E+03  0.12509585025E+03 0.  0.
          5    1    3    3  502    0 -0.59160264613E+02 -0.25772020702E+02 -0.63540290762E+02  0.90658562255E+02  0.41800000000E+01 0. -1.
         -5    1    3    3    0  502  0.20915332964E+01  0.82098676478E+02 -0.12035473803E+03  0.14576454492E+03  0.41800000000E+01 0. -1.
        -11    1    1    2    0    0  0.81939883912E+02 -0.40378771248E+02 -0.30121069518E+03  0.31475779996E+03  0.00000000000E+00 0.  1.
         11    1    1    2    0    0 -0.24871152596E+02 -0.15947884528E+02 -0.94869842021E+02  0.99363958141E+02  0.00000000000E+00 0. -1.
</event>
<event>
 7    1  0.6833760E-006  0.1980939E+03  0.7561462E-02  0.1151357E+00
          2   -1    0    0  501    0  0.00000000000E+00  0.00000000000E+00  0.90896086237E+03  0.90896086237E+03  0.00000000000E+00 0. -1.
         -2   -1    0    0    0  501 -0.00000000000E+00 -0.00000000000E+00 -0.10305512938E+03  0.10305512938E+03  0.00000000000E+00 0.  1.
         23    2    1    2    0    0 -0.17447630742E+03  0.46195582532E+02  0.44455909663E+02  0.22405997082E+03  0.12510207402E+03 0.  0.
          5    1    3    3  502    0 -0.11330178360E+03  0.64046837872E+02 -0.21807058641E+02  0.13203148040E+03  0.41800000000E+01 0. -1.
         -5    1    3    3    0  502 -0.61174523815E+02 -0.17851255341E+02  0.66262968303E+02  0.92028490424E+02  0.41800000000E+01 0. -1.
        -11    1    1    2    0    0  0.59321463465E+02  0.27503878218E+02  0.27416744279E+03  0.28185685379E+03  0.00000000000E+00 0.  1.
         11    1    1    2    0    0  0.11515484395E+03 -0.73699460749E+02  0.48728238053E+03  0.50609916714E+03  0.00000000000E+00 0. -1.
</event>
<event>
 7    1  0.6833760E-006  0.1351096E+03  0.7561462E-02  0.1220065E+00
         -1   -1    0    0    0  501 -0.00000000000E+00  0.00000000000E+00  0.94866024723E+03  0.94866024723E+03  0.00000000000E+00 0.  1.
          1   -1    0    0  501    0  0.00000000000E+00 -0.00000000000E+00 -0.28146961932E+02  0.28146961932E+02  0.00000000000E+00 0. -1.
         23    2    1    2    0    0  0.35011178390E+02  0.10759323131E+03  0.62664392000E+03  0.64894789361E+03  0.12509468462E+03 0.  0.
          5    1    3    3  502    0  0.57879716179E+02  0.11628634021E+03  0.39171138034E+03  0.41270795043E+03  0.41800000000E+01 0. -1.
         -5    1    3    3    0  502 -0.22868537789E+02 -0.86931088993E+01  0.23493253966E+03  0.23623994318E+03  0.41800000000E+01 0. -1.
        -11    1    1    2    0    0 -0.23012773238E+02 -0.35186101464E+02  0.21906162617E+03  0.22305973533E+03  0.00000000000E+00 0.  1.
         11    1    1    2    0    0 -0.11998405152E+02 -0.72407129847E+02  0.74807739133E+02  0.10479958021E+03  0.00000000000E+00 0. -1.
</event>
<event>
 7    1  0.6833760E-006  0.9830601E+02  0.7561462E-02  0.1283899E+00
          1   -1    0    0  501    0  0.00000000000E+00  0.00000000000E+00  0.70839034123E+02  0.70839034123E+02  0.00000000000E+00 0. -1.
         -1   -1    0    0    0  501 -0.00000000000E+00 -0.00000000000E+00 -0.20874129124E+03  0.20874129124E+03  0.00000000000E+00 0.  1.
         23    2    1    2    0    0 -0.18718022315E+01 -0.65453416927E+01 -0.14772042608E+03  0.18830111366E+03  0.11657461123E+03 0.  0.
          5    1    3    3  502    0 -0.48346747014E+02  0.19943480518E+02 -0.33892587504E+02  0.62460629598E+02  0.41800000000E+01 0. -1.
         -5    1    3    3    0  502  0.46474944783E+02 -0.26488822211E+02 -0.11382783858E+03  0.12584048407E+03  0.41800000000E+01 0.  1.
        -11    1    1    2    0    0 -0.43672698810E+02 -0.36272656703E+01  0.82052808842E+01  0.44584619679E+02  0.00000000000E+00 0. -1.
         11    1    1    2    0    0  0.45544501041E+02  0.10172607363E+02  0.16128880842E+01  0.46694592017E+02  0.00000000000E+00 0.  1.
</event>
<event>
 7    1  0.6833760E-006  0.2098562E+03  0.7561462E-02  0.1141680E+00
         -2   -1    0    0    0  501 -0.00000000000E+00  0.00000000000E+00  0.11349691221E+03  0.11349691221E+03  0.00000000000E+00 0.  1.
          2   -1    0    0  501    0  0.00000000000E+00 -0.00000000000E+00 -0.47649226299E+03  0.47649226299E+03  0.00000000000E+00 0. -1.
         23    2    1    2    0    0  0.11569804202E+03  0.15337927691E+03 -0.97777006140E+02  0.24923637622E+03  0.12508872366E+03 0.  0.
          5    1    3    3  502    0 -0.17159151684E+02  0.22988358805E+02 -0.48704323326E+02  0.56678784723E+02  0.41800000000E+01 0.  1.
         -5    1    3    3    0  502  0.13285719371E+03  0.13039091811E+03 -0.49072682814E+02  0.19255759150E+03  0.41800000000E+01 0.  1.
        -11    1    1    2    0    0 -0.64681494859E+02 -0.13605210432E+03 -0.14535513363E+03  0.20933701474E+03  0.00000000000E+00 0.  1.
         11    1    1    2    0    0 -0.51016547164E+02 -0.17327172596E+02 -0.11986321101E+03  0.13141578425E+03  0.00000000000E+00 0. -1.
</event>
<event>
 7    1  0.6833760E-006  0.1088066E+03  0.7561462E-02  0.1262796E+00
          1   -1    0    0  501    0  0.00000000000E+00  0.00000000000E+00  0.62739640514E+02  0.62739640514E+02  0.00000000000E+00 0. -1.
         -1   -1    0    0    0  501 -0.00000000000E+00 -0.00000000000E+00 -0.24311888029E+03  0.24311888029E+03  0.00000000000E+00 0.  1.
         23    2    1    2    0    0  0.32569628353E+02  0.38606483273E+02 -0.13927865075E+03  0.19389638357E+03  0.12508406679E+03 0.  0.
          5    1    3    3  502    0 -0.68661120944E+01 -0.42239053130E+02 -0.30678899715E+02  0.52819962063E+02  0.41800000000E+01 0.  1.
         -5    1    3    3    0  502  0.39435740447E+02  0.80845536403E+02 -0.10859975103E+03  0.14107642151E+03  0.41800000000E+01 0.  1.
        -11    1    1    2    0    0  0.20943902459E+02 -0.16523094880E+02 -0.46719163208E+02  0.53799069932E+02  0.00000000000E+00 0.  1.
         11    1    1    2    0    0 -0.53513530812E+02 -0.22083388393E+02  0.56185741742E+01  0.58163067307E+02  0.00000000000E+00 0. -1.
</event>
<event>
 7    1  0.6833760E-006  0.1660207E+03  0.7561462E-02  0.1182062E+00
          1   -1    0    0  501    0  0.00000000000E+00  0.00000000000E+00  0.30434088895E+03  0.30434088895E+03  0.00000000000E+00 0. -1.
         -1   -1    0    0    0  501 -0.00000000000E+00 -0.00000000000E+00 -0.31406663869E+03  0.31406663869E+03  0.00000000000E+00 0.  1.
         23    2    1    2    0    0  0.13389683873E+03 -0.58032657804E+02 -0.25456777216E+03  0.31897184319E+03  0.12506851456E+03 0.  0.
          5    1    3    3  502    0  0.91759434049E+02 -0.90998371946E+02 -0.13007346757E+03  0.18340413518E+03  0.41800000000E+01 0. -1.
         -5    1    3    3    0  502  0.42137404678E+02  0.32965714142E+02 -0.12449430459E+03  0.13556770801E+03  0.41800000000E+01 0. -1.
        -11    1    1    2    0    0 -0.64134874775E+02  0.11329173816E+02  0.18557410917E+03  0.19667074601E+03  0.00000000000E+00 0. -1.
         11    1    1    2    0    0 -0.69761963952E+02  0.46703483989E+02  0.59267913247E+02  0.10276493844E+03  0.00000000000E+00 0.  1.
</event>
<event>
 7    1  0.6833760E-006  0.1050017E+03  0.7561462E-02  0.1270116E+00
          1   -1    0    0  501    0  0.00000000000E+00  0.00000000000E+00  0.28352291886E+03  0.28352291886E+03  0.00000000000E+00 0. -1.
         -1   -1    0    0    0  501 -0.00000000000E+00 -0.00000000000E+00 -0.49439733746E+02  0.49439733746E+02  0.00000000000E+00 0.  1.
         23    2    1    2    0    0 -0.28090343733E+02  0.22391025101E+02  0.87760654083E+02  0.15699707325E+03  0.12512283240E+03 0.  0.
          5    1    3    3  502    0 -0.17222473136E+02 -0.44203755991E+02  0.74008440122E+02  0.88007427152E+02  0.41800000000E+01 0.  1.
         -5    1    3    3    0  502 -0.10867870597E+02  0.66594781092E+02  0.13752213960E+02  0.68989646098E+02  0.41800000000E+01 0.  1.
        -11    1    1    2    0    0 -0.31700125183E+02 -0.12948427971E+02  0.33356051001E+02  0.47803617665E+02  0.00000000000E+00 0. -1.
         11    1    1    2    0    0  0.59790468916E+02 -0.94425971307E+01  0.11296648003E+03  0.12816196169E+03  0.00000000000E+00 0.  1.
</event>
<event>
 7    1  0.6833760E-006  0.1106393E+03  0.7561462E-02  0.1259391E+00
          1   -1    0    0  501    0  0.00000000000E+00  0.00000000000E+00  0.81434992711E+03  0.81434992711E+03  0.00000000000E+00 0. -1.
         -1   -1    0    0    0  501 -0.00000000000E+00 -0.00000000000E+00 -0.16150720909E+02  0.16150720909E+02  0.00000000000E+00 0.  1.
         23    2    1    2    0    0  0.40707794854E+01  0.26754938550E+02  0.43160713365E+03  0.45018186692E+03  0.12508636018E+03 0.  0.
          5    1    3    3  502    0  0.38061318829E+02  0.64923592365E+02  0.28775311724E+03  0.29746103227E+03  0.41800000000E+01 0. -1.
         -5    1    3    3    0  502 -0.33990539344E+02 -0.38168653816E+02  0.14385401642E+03  0.15272083466E+03  0.41800000000E+01 0. -1.
        -11    1    1    2    0    0 -0.41756440861E+02  0.89564262744E+01  0.23511384608E+03  0.23896095611E+03  0.00000000000E+00 0. -1.
         11    1    1    2    0    0  0.37685661375E+02 -0.35711364824E+02  0.13147822647E+03  0.14135782499E+03  0.00000000000E+00 0.  1.
</event>
<event>
 7    1  0.6833760E-006  0.3308426E+02  0.7561462E-02  0.1566302E+00
          1   -1    0    0  501    0  0.00000000000E+00  0.00000000000E+00  0.44780609385E+02  0.44780609385E+02  0.00000000000E+00 0. -1.
         -1   -1    0    0    0  501 -0.00000000000E+00 -0.00000000000E+00 -0.27143981768E+03  0.27143981768E+03  0.00000000000E+00 0.  1.
         23    2    1    2    0    0  0.84469261061E+01  0.72927614819E+01 -0.15954063730E+03  0.20304031776E+03  0.12509045030E+03 0.  0.
          5    1    3    3  502    0  0.11511362449E+02 -0.34740751531E+01  0.19670982267E+02  0.23430761980E+02  0.41800000000E+01 0.  1.
         -5    1    3    3    0  502 -0.30644363428E+01  0.10766836635E+02 -0.17921161956E+03  0.17960955578E+03  0.41800000000E+01 0.  1.
        -11    1    1    2    0    0 -0.24640882423E+02 -0.39908551133E+01  0.15195448726E+02  0.29223307019E+02  0.00000000000E+00 0. -1.
         11    1    1    2    0    0  0.16193956317E+02 -0.33019063686E+01 -0.82314019720E+02  0.83956802282E+02  0.00000000000E+00 0.  1.
</event>
<event>
 7    1  0.6833760E-006  0.1267020E+03  0.7561462E-02  0.1232433E+00
          2   -1    0    0  501    0  0.00000000000E+00  0.00000000000E+00  0.30456380921E+02  0.30456380921E+02  0.00000000000E+00 0. -1.
         -2   -1    0    0    0  501 -0.00000000000E+00 -0.00000000000E+00 -0.78664024127E+03  0.78664024127E+03  0.00000000000E+00 0.  1.
         23    2    1    2    0    0  0.55880724052E+02  0.65308012202E+02 -0.59698130544E+03  0.61597257306E+03  0.12509092671E+03 0.  0.
          5    1    3    3  502    0  0.75588717012E+02  0.77346701578E+02 -0.57012305764E+03  0.58030504016E+03  0.41800000000E+01 0.  1.
         -5    1    3    3    0  502 -0.19707992960E+02 -0.12038689376E+02 -0.26858247794E+02  0.35667532898E+02  0.41800000000E+01 0.  1.
        -11    1    1    2    0    0  0.14570561034E+02 -0.46582043332E+02 -0.77891776362E+02  0.91920165550E+02  0.00000000000E+00 0.  1.
         11    1    1    2    0    0 -0.70451285086E+02 -0.18725968869E+02 -0.81310778548E+02  0.10920388358E+03  0.00000000000E+00 0. -1.
</event>
<event>
 7    1  0.6833760E-006  0.1047188E+03  0.7561462E-02  0.1270675E+00
          1   -1    0    0  501    0  0.00000000000E+00  0.00000000000E+00  0.81289411886E+02  0.81289411886E+02  0.00000000000E+00 0. -1.
         -1   -1    0    0    0  501 -0.00000000000E+00 -0.00000000000E+00 -0.27939648632E+03  0.27939648632E+03  0.00000000000E+00 0.  1.
         23    2    1    2    0    0 -0.40597413417E+00  0.54503060236E+02 -0.21261329060E+03  0.25263210955E+03  0.12509125887E+03 0.  0.
          5    1    3    3  502    0 -0.32223375263E+02 -0.26785205740E+02 -0.11035730208E+03  0.11811858314E+03  0.41800000000E+01 0. -1.
         -5    1    3    3    0  502  0.31817401129E+02  0.81288265976E+02 -0.10225598852E+03  0.13451352641E+03  0.41800000000E+01 0. -1.
        -11    1    1    2    0    0 -0.15279527164E+02 -0.61052932787E+02 -0.22895140481E+02  0.66970978863E+02  0.00000000000E+00 0.  1.
         11    1    1    2    0    0  0.15685501298E+02  0.65498725512E+01  0.37401356647E+02  0.41082809792E+02  0.00000000000E+00 0. -1.
</event>
<event>
 7    1  0.6833760E-006  0.9850578E+02  0.7561462E-02  0.1283470E+00
          2   -1    0    0  501    0  0.00000000000E+00  0.00000000000E+00  0.32643397332E+03  0.32643397332E+03  0.00000000000E+00 0. -1.
         -2   -1    0    0    0  501 -0.00000000000E+00 -0.00000000000E+00 -0.60561435395E+02  0.60561435395E+02  0.00000000000E+00 0.  1.
         23    2    1    2    0    0  0.85058688536E+02  0.36379060298E+01  0.18016934100E+03  0.23527812881E+03  0.12508633660E+03 0.  0.
          5    1    3    3  502    0  0.43775461962E+02  0.16433201237E+02  0.18566632507E+03  0.19150926306E+03  0.41800000000E+01 0.  1.
         -5    1    3    3    0  502  0.41283226574E+02 -0.12795295207E+02 -0.54969840644E+01  0.43768865757E+02  0.41800000000E+01 0.  1.
        -11    1    1    2    0    0 -0.14795910429E+02  0.26373714916E+02 -0.75427353497E+01  0.31167044461E+02  0.00000000000E+00 0.  1.
         11    1    1    2    0    0 -0.70262778107E+02 -0.30011620946E+02  0.93245932268E+02  0.12055023544E+03  0.00000000000E+00 0. -1.
</event>
<event>
 7    1  0.6833760E-006  0.9039189E+02  0.7561462E-02  0.1301905E+00
          1   -1    0    0  501    0  0.00000000000E+00  0.00000000000E+00  0.41413501591E+03  0.41413501591E+03  0.00000000000E+00 0. -1.
         -1   -1    0    0    0  501 -0.00000000000E+00 -0.00000000000E+00 -0.42719029413E+02  0.42719029413E+02  0.00000000000E+00 0.  1.
         23    2    1    2    0    0 -0.23077666341E+01 -0.21066666167E+02  0.78600474818E+02  0.14925182473E+03  0.12509573267E+03 0.  0.
          5    1    3    3  502    0 -0.49231322183E+02 -0.11317084790E+02  0.86736142978E+02  0.10046108894E+03  0.41800000000E+01 0. -1.
         -5    1    3    3    0  502  0.46923555549E+02 -0.97495813770E+01 -0.81356681601E+01  0.48790735789E+02  0.41800000000E+01 0. -1.
        -11    1    1    2    0    0  0.32378773667E+02  0.35995317390E+02  0.24132356668E+03  0.24613230526E+03  0.00000000000E+00 0. -1.
         11    1    1    2    0    0 -0.30071007033E+02 -0.14928651223E+02  0.51491944994E+02  0.61469915330E+02  0.00000000000E+00 0.  1.
</event>
<event>
 7    1  0.6833760E-006  0.1365193E+03  0.7561462E-02  0.1218091E+00
          2   -1    0    0  501    0  0.00000000000E+00  0.00000000000E+00  0.24264440240E+03  0.24264440240E+03  0.00000000000E+00 0. -1.
         -2   -1    0    0    0  501 -0.00000000000E+00 -0.00000000000E+00 -0.10738171106E+03  0.10738171106E+03  0.00000000000E+00 0.  1.
         23    2    1    2    0    0 -0.10363084685E+03 -0.98810377528E+01  0.91403494439E+01  0.16299896374E+03  0.12509248125E+03 0.  0.
          5    1    3    3  502    0 -0.11147420858E+03  0.33310983581E+02  0.18606570367E+02  0.11789740313E+03  0.41800000000E+01 0.  1.
         -5    1    3    3    0  502  0.78433617306E+01 -0.43192021334E+02 -0.94662209226E+01  0.45101560601E+02  0.41800000000E+01 0.  1.
        -11    1    1    2    0    0  0.34386597392E+02  0.23894857431E+02  0.10538363854E+03  0.11339803157E+03  0.00000000000E+00 0. -1.
         11    1    1    2    0    0  0.69244249454E+02 -0.14013819678E+02  0.20738703356E+02  0.73629118162E+02  0.00000000000E+00 0.  1.
</event>
<event>
 7    1  0.6833760E-006  0.1021280E+03  0.7561462E-02  0.1275884E+00
         -2   -1    0    0    0  501 -0.00000000000E+00  0.00000000000E+00  0.20885472640E+03  0.20885472640E+03  0.00000000000E+00 0.  1.
          2   -1    0    0  501    0  0.00000000000E+00 -0.00000000000E+00 -0.78710500223E+02  0.78710500223E+02  0.00000000000E+00 0. -1.
         23    2    1    2    0    0 -0.53214920021E+02 -0.38892347002E+02  0.56518670704E+02  0.15226870151E+03  0.12508778899E+03 0.  0.
          5    1    3    3  502    0  0.21878673735E+02 -0.43596065109E+02 -0.12013767217E+02  0.50409287440E+02  0.41800000000E+01 0. -1.
         -5    1    3    3    0  502 -0.75093593756E+02  0.47037181074E+01  0.68532437922E+02  0.10185941407E+03  0.41800000000E+01 0. -1.
        -11    1    1    2    0    0  0.81879140132E+01  0.33626039598E+02 -0.13447150959E+02  0.37129211463E+02  0.00000000000E+00 0. -1.
         11    1    1    2    0    0  0.45027006008E+02  0.52663074042E+01  0.87072706429E+02  0.98167313647E+02  0.00000000000E+00 0.  1.
</event>
<event>
 7    1  0.6833760E-006  0.9154785E+02  0.7561462E-02  0.1299146E+00
         -2   -1    0    0    0  501 -0.00000000000E+00  0.00000000000E+00  0.49044338999E+02  0.49044338999E+02  0.00000000000E+00 0.  1.
          2   -1    0    0  501    0  0.00000000000E+00 -0.00000000000E+00 -0.25825628347E+03  0.25825628347E+03  0.00000000000E+00 0. -1.
         23    2    1    2    0    0  0.43508001547E+01 -0.25722330433E+02 -0.78871609766E+02  0.15015841242E+03  0.12508497211E+03 0.  0.
          5    1    3    3  502    0  0.51051649603E+02 -0.45187548361E+02 -0.17502658419E+02  0.70512416678E+02  0.41800000000E+01 0. -1.
         -5    1    3    3    0  502 -0.46700849448E+02  0.19465217929E+02 -0.61368951347E+02  0.79645995741E+02  0.41800000000E+01 0. -1.
        -11    1    1    2    0    0  0.71824521643E+01  0.42809241855E+02 -0.12942128126E+03  0.13650672822E+03  0.00000000000E+00 0. -1.
         11    1    1    2    0    0 -0.11533252319E+02 -0.17086911422E+02 -0.91905344661E+00  0.20635481827E+02  0.00000000000E+00 0.  1.
</event>
<event>
 7    1  0.6833760E-006  0.8026192E+02  0.7561462E-02  0.1328310E+00
          1   -1    0    0  501    0  0.00000000000E+00  0.00000000000E+00  0.72774522647E+02  0.72774522647E+02  0.00000000000E+00 0. -1.
         -1   -1    0    0    0  501 -0.00000000000E+00 -0.00000000000E+00 -0.22103330479E+03  0.22103330479E+03  0.00000000000E+00 0.  1.
         23    2    1    2    0    0  0.12204554725E+02 -0.59893370705E+02 -0.10436080247E+03  0.17400181204E+03  0.12509710824E+03 0.  0.
          5    1    3    3  502    0  0.15365796628E+02 -0.18027469486E+02  0.26923982611E+02  0.36103609262E+02  0.41800000000E+01 0.  1.
         -5    1    3    3    0  502 -0.31612419032E+01 -0.41865901219E+02 -0.13128478508E+03  0.13789820278E+03  0.41800000000E+01 0.  1.
        -11    1    1    2    0    0 -0.39849184704E+02  0.17170882662E+02  0.11191028548E+02  0.44811113052E+02  0.00000000000E+00 0. -1.
         11    1    1    2    0    0  0.27644629979E+02  0.42722488042E+02 -0.55089008223E+02  0.74994902348E+02  0.00000000000E+00 0.  1.
</event>
<event>
 7    1  0.6833760E-006  0.1008626E+03  0.7561462E-02  0.1278492E+00
          2   -1    0    0  501    0  0.00000000000E+00  0.00000000000E+00  0.93228073998E+03  0.93228073998E+03  0.00000000000E+00 0. -1.
         -2   -1    0    0    0  501 -0.00000000000E+00 -0.00000000000E+00 -0.17030263681E+02  0.17030263681E+02  0.00000000000E+00 0.  1.
         23    2    1    2    0    0 -0.31556872688E+02  0.40986521135E+02  0.38077325863E+03  0.40411834907E+03  0.12509050499E+03 0.  0.
          5    1    3    3  502    0  0.24147034966E+02  0.28344940400E+02  0.28128408866E+02  0.46852905238E+02  0.41800000000E+01 0. -1.
         -5    1    3    3    0  502 -0.55703907654E+02  0.12641580735E+02  0.35264484977E+03  0.35726544384E+03  0.41800000000E+01 0. -1.
        -11    1    1    2    0    0  0.62944135140E+02 -0.41843429916E+02  0.35070450373E+03  0.35875686156E+03  0.00000000000E+00 0.  1.
         11    1    1    2    0    0 -0.31387262452E+02  0.85690878028E+00  0.18377271393E+03  0.18643579303E+03  0.00000000000E+00 0. -1.
</event>
<event>
 7    1  0.6833760E-006  0.1482366E+03  0.7561462E-02  0.1202657E+00
          2   -1    0    0  501    0  0.00000000000E+00  0.00000000000E+00  0.37496993070E+02  0.37496993070E+02  0.00000000000E+00 0.  1.
         -2   -1    0    0    0  501 -0.00000000000E+00 -0.00000000000E+00 -0.76997812173E+03  0.76997812173E+03  0.00000000000E+00 0. -1.
         23    2    1    2    0    0 -0.99271173917E+02  0.83265427815E+02 -0.41969854898E+03  0.45670826132E+03  0.12509063314E+03 0.  0.
          5    1    3    3  502    0  0.13795691796E+02  0.23762423035E+02 -0.20467710280E+03  0.20655547117E+03  0.41800000000E+01 0.  1.
         -5    1    3    3    0  502 -0.11306686571E+03  0.59503004781E+02 -0.21502144618E+03  0.25015279014E+03  0.41800000000E+01 0.  1.
        -11    1    1    2    0    0  0.18093654847E+02 -0.49895779207E+02 -0.20505064088E+03  0.21180824926E+03  0.00000000000E+00 0.  1.
         11    1    1    2    0    0  0.81177519069E+02 -0.33369648608E+02 -0.10773193880E+03  0.13895860422E+03  0.00000000000E+00 0. -1.
</event>
<event>
 7    1  0.6833760E-006  0.1938884E+03  0.7561462E-02  0.1155000E+00
          3   -1    0    0  501    0  0.00000000000E+00  0.00000000000E+00  0.92516147943E+02  0.92516147943E+02  0.00000000000E+00 0. -1.
         -3   -1    0    0    0  501 -0.00000000000E+00 -0.00000000000E+00 -0.49615145575E+03  0.49615145575E+03  0.00000000000E+00 0.  1.
         23    2    1    2    0    0 -0.96862918950E+02 -0.14921533469E+03 -0.27168019640E+03  0.34800298927E+03  0.12509320625E+03 0.  0.
          5    1    3    3  502    0 -0.79786962815E+02 -0.49201153944E+02 -0.55135977609E+02  0.10883088446E+03  0.41800000000E+01 0.  1.
         -5    1    3    3    0  502 -0.17075956135E+02 -0.10001418075E+03 -0.21654421879E+03  0.23917210481E+03  0.41800000000E+01 0.  1.
        -11    1    1    2    0    0  0.43701555562E+02  0.12783570067E+03 -0.12293353408E+03  0.18265937185E+03  0.00000000000E+00 0.  1.
         11    1    1    2    0    0  0.53161363388E+02  0.21379634029E+02 -0.90215773287E+01  0.58005242574E+02  0.00000000000E+00 0. -1.
</event>
<event>
 7    1  0.6833760E-006  0.9980533E+02  0.7561462E-02  0.1280706E+00
          2   -1    0    0  501    0  0.00000000000E+00  0.00000000000E+00  0.70959851339E+02  0.70959851339E+02  0.00000000000E+00 0. -1.
         -2   -1    0    0    0  501 -0.00000000000E+00 -0.00000000000E+00 -0.18137883791E+03  0.18137883791E+03  0.00000000000E+00 0.  1.
         23    2    1    2    0    0  0.84654459006E+01 -0.29339240076E+02 -0.79656505730E+02  0.15140993665E+03  0.12508938896E+03 0.  0.
          5    1    3    3  502    0 -0.45103562257E+02 -0.40547192330E+00  0.65697915246E+01  0.45772593289E+02  0.41800000000E+01 0.  1.
         -5    1    3    3    0  502  0.53569008157E+02 -0.28933768152E+02 -0.86226297254E+02  0.10563734336E+03  0.41800000000E+01 0.  1.
        -11    1    1    2    0    0  0.39930893222E+02  0.99699045498E+01 -0.15785282866E+01  0.41186975876E+02  0.00000000000E+00 0. -1.
         11    1    1    2    0    0 -0.48396339123E+02  0.19369335526E+02 -0.29183952557E+02  0.59741776723E+02  0.00000000000E+00 0.  1.
</event>
<event>
 7    1  0.6833760E-006  0.5068804E+02  0.7561462E-02  0.1441665E+00
         -1   -1    0    0    0  501 -0.00000000000E+00  0.00000000000E+00  0.37054313931E+03  0.37054313931E+03  0.00000000000E+00 0.  1.
          1   -1    0    0  501    0  0.00000000000E+00 -0.00000000000E+00 -0.21716990718E+02  0.21716990718E+02  0.00000000000E+00 0. -1.
         23    2    1    2    0    0 -0.99693445825E+01  0.50424281624E+01  0.22887954076E+03  0.26107136012E+03  0.12509035528E+03 0.  0.
          5    1    3    3  502    0  0.59636913929E+01 -0.23098529840E+02 -0.51668675979E+01  0.24764422395E+02  0.41800000000E+01 0. -1.
         -5    1    3    3    0  502 -0.15933035975E+02  0.28140958002E+02  0.23404640836E+03  0.23630693773E+03  0.41800000000E+01 0. -1.
        -11    1    1    2    0    0 -0.67627742119E+01 -0.20612356835E+02  0.94615467375E+02  0.97070546696E+02  0.00000000000E+00 0.  1.
         11    1    1    2    0    0  0.16732118794E+02  0.15569928672E+02  0.25331140461E+02  0.34118223214E+02  0.00000000000E+00 0. -1.
</event>
<event>
 7    1  0.6833760E-006  0.1188397E+03  0.7561462E-02  0.1245024E+00
         -1   -1    0    0    0  501 -0.00000000000E+00  0.00000000000E+00  0.58366459090E+02  0.58366459090E+02  0.00000000000E+00 0.  1.
          1   -1    0    0  501    0  0.00000000000E+00 -0.00000000000E+00 -0.31634601362E+03  0.31634601362E+03  0.00000000000E+00 0. -1.
         23    2    1    2    0    0 -0.44495866997E+02  0.28376885979E+02 -0.63566089203E+02  0.14991103885E+03  0.12509013564E+03 0.  0.
          5    1    3    3  502    0 -0.10856609774E+02 -0.46955309816E+02 -0.49657365354E+01  0.48629189126E+02  0.41800000000E+01 0.  1.
         -5    1    3    3    0  502 -0.33639257222E+02  0.75332195795E+02 -0.58600352667E+02  0.10128184972E+03  0.41800000000E+01 0.  1.
        -11    1    1    2    0    0  0.73192024778E+02 -0.26845255956E+02 -0.17026871669E+03  0.18726765909E+03  0.00000000000E+00 0. -1.
         11    1    1    2    0    0 -0.28696157781E+02 -0.15316300236E+01 -0.24144748638E+02  0.37533774773E+02  0.00000000000E+00 0.  1.
</event>
<event>
 7    1  0.6833760E-006  0.1621595E+03  0.7561462E-02  0.1186280E+00
          1   -1    0    0  501    0  0.00000000000E+00  0.00000000000E+00  0.32428042323E+03  0.32428042323E+03  0.00000000000E+00 0. -1.
         -1   -1    0    0    0  501 -0.00000000000E+00 -0.00000000000E+00 -0.99912082205E+02  0.99912082205E+02  0.00000000000E+00 0.  1.
         23    2    1    2    0    0  0.13193187858E+03 -0.40932304990E+02  0.16371774014E+03  0.24806529859E+03  0.12510563439E+03 0.  0.
          5    1    3    3  502    0  0.95400799400E+02  0.16455633876E+02  0.36134492904E+02  0.10341795971E+03  0.41800000000E+01 0.  1.
         -5    1    3    3    0  502  0.36531079176E+02 -0.57387938865E+02  0.12758324723E+03  0.14464733889E+03  0.41800000000E+01 0.  1.
        -11    1    1    2    0    0 -0.79135824141E+02 -0.16936946541E+02  0.71015243850E+01  0.81238971370E+02  0.00000000000E+00 0.  1.
         11    1    1    2    0    0 -0.52796054435E+02  0.57869251531E+02  0.53549076505E+02  0.94888235473E+02  0.00000000000E+00 0. -1.
</event>
<event>
 7    1  0.6833760E-006  0.1386109E+03  0.7561462E-02  0.1215210E+00
          2   -1    0    0  501    0  0.00000000000E+00  0.00000000000E+00  0.69781181198E+03  0.69781181198E+03  0.00000000000E+00 0. -1.
         -2   -1    0    0    0  501 -0.00000000000E+00 -0.00000000000E+00 -0.27761614595E+02  0.27761614595E+02  0.00000000000E+00 0.  1.
         23    2    1    2    0    0  0.53368587092E+02 -0.65620937045E+02  0.33469349697E+03  0.36718022934E+03  0.12508905003E+03 0.  0.
          5    1    3    3  502    0 -0.49285024707E+01 -0.88002318593E+02  0.20450421564E+03  0.22272885945E+03  0.41800000000E+01 0. -1.
         -5    1    3    3    0  502  0.58297089563E+02  0.22381381549E+02  0.13018928133E+03  0.14445136990E+03  0.41800000000E+01 0. -1.
        -11    1    1    2    0    0 -0.85866015646E+01  0.79151162948E+02  0.20804240962E+03  0.22275610097E+03  0.00000000000E+00 0.  1.
         11    1    1    2    0    0 -0.44781985528E+02 -0.13530225904E+02  0.12731429080E+03  0.13563709626E+03  0.00000000000E+00 0. -1.
</event>
<event>
 7    1  0.6833760E-006  0.1172445E+03  0.7561462E-02  0.1247713E+00
          1   -1    0    0  501    0  0.00000000000E+00  0.00000000000E+00  0.68752228799E+03  0.68752228799E+03  0.00000000000E+00 0. -1.
         -1   -1    0    0    0  501 -0.00000000000E+00 -0.00000000000E+00 -0.23205388991E+02  0.23205388991E+02  0.00000000000E+00 0.  1.
         23    2    1    2    0    0 -0.47467942581E+02  0.37206329119E+02  0.32311629158E+03  0.35169237698E+03  0.12508346670E+03 0.  0.
          5    1    3    3  502    0 -0.82094754248E+02  0.51481315840E+02  0.26722429515E+03  0.28428185111E+03  0.41800000000E+01 0.  1.
         -5    1    3    3    0  502  0.34626811668E+02 -0.14274986721E+02  0.55891996437E+02  0.67410525869E+02  0.41800000000E+01 0.  1.
        -11    1    1    2    0    0  0.70019491914E+02 -0.29485549593E+02  0.31310345700E+03  0.32218923270E+03  0.00000000000E+00 0. -1.
         11    1    1    2    0    0 -0.22551549334E+02 -0.77207795264E+01  0.28097150413E+02  0.36846067296E+02  0.00000000000E+00 0.  1.
</event>
<event>
 7    1  0.6833760E-006  0.1356239E+03  0.7561462E-02  0.1219342E+00
         -2   -1    0    0    0  501 -0.00000000000E+00  0.00000000000E+00  0.11757642615E+03  0.11757642615E+03  0.00000000000E+00 0.  1.
          2   -1    0    0  501    0  0.00000000000E+00 -0.00000000000E+00 -0.29064992684E+03  0.29064992684E+03  0.00000000000E+00 0. -1.
         23    2    1    2    0    0  0.59604376193E+02  0.10691313310E+03  0.24403315823E+01  0.17502821836E+03  0.12508326153E+03 0.  0.
          5    1    3    3  502    0  0.78399379024E+02  0.74199607245E+02  0.45858536806E+02  0.11735638945E+03  0.41800000000E+01 0.  1.
         -5    1    3    3    0  502 -0.18795002831E+02  0.32713525856E+02 -0.43418205223E+02  0.57671828913E+02  0.41800000000E+01 0.  1.
        -11    1    1    2    0    0 -0.43481738438E+02 -0.97094345858E+02 -0.18396823896E+03  0.21251420311E+03  0.00000000000E+00 0. -1.
         11    1    1    2    0    0 -0.16122637755E+02 -0.98187872431E+01  0.84544066891E+01  0.20683931531E+02  0.00000000000E+00 0.  1.
</event>
<event>
 7    1  0.6833760E-006  0.9590496E+02  0.7561462E-02  0.1289151E+00
          4   -1    0    0  501    0  0.00000000000E+00  0.00000000000E+00  0.44697240013E+03  0.44697240013E+03  0.00000000000E+00 0. -1.
         -4   -1    0    0    0  501 -0.00000000000E+00 -0.00000000000E+00 -0.27566158759E+02  0.27566158759E+02  0.00000000000E+00 0.  1.
         23    2    1    2    0    0 -0.17278068097E+02 -0.18582456477E+02  0.23380533362E+03  0.26637066293E+03  0.12507820238E+03 0.  0.
          5    1    3    3  502    0 -0.19073423265E+02  0.52384379858E+02  0.90143981522E+02  0.10607227976E+03  0.41800000000E+01 0. -1.
         -5    1    3    3    0  502  0.17953551680E+01 -0.70966836335E+02  0.14366135210E+03  0.16029838317E+03  0.41800000000E+01 0. -1.
        -11    1    1    2    0    0  0.34165442806E+02 -0.62790553329E+01  0.20461695857E+02  0.40316063986E+02  0.00000000000E+00 0.  1.
         11    1    1    2    0    0 -0.16887374709E+02  0.24861511810E+02  0.16513921189E+03  0.16785183198E+03  0.00000000000E+00 0. -1.
</event>
<event>
 7    1  0.6833760E-006  0.1715928E+03  0.7561462E-02  0.1176197E+00
          2   -1    0    0  501    0  0.00000000000E+00  0.00000000000E+00  0.11891408100E+03  0.11891408100E+03  0.00000000000E+00 0.  1.
         -2   -1    0    0    0  501 -0.00000000000E+00 -0.00000000000E+00 -0.31620682297E+03  0.31620682297E+03  0.00000000000E+00 0. -1.
         23    2    1    2    0    0  0.14633868019E+03 -0.31974888115E+02 -0.39634001488E+02  0.19913874103E+03  0.12509189149E+03 0.  0.
          5    1    3    3  502    0 -0.14760201395E+02 -0.66841863226E+01  0.19436398648E+02  0.25647375781E+02  0.41800000000E+01 0.  1.
         -5    1    3    3    0  502  0.16109888158E+03 -0.25290701792E+02 -0.59070400137E+02  0.17349136525E+03  0.41800000000E+01 0.  1.
        -11    1    1    2    0    0 -0.98860114529E+02 -0.10764900638E+02 -0.51258688830E+02  0.11187787320E+03  0.00000000000E+00 0.  1.
         11    1    1    2    0    0 -0.47478565659E+02  0.42739788753E+02 -0.10640005165E+03  0.12410428974E+03  0.00000000000E+00 0. -1.
</event>
<event>
 7    1  0.6833760E-006  0.9102125E+02  0.7561462E-02  0.1300397E+00
          2   -1    0    0  501    0  0.00000000000E+00  0.00000000000E+00  0.46139276931E+03  0.46139276931E+03  0.00000000000E+00 0. -1.
         -2   -1    0    0    0  501 -0.00000000000E+00 -0.00000000000E+00 -0.21550768813E+02  0.21550768813E+02  0.00000000000E+00 0.  1.
         23    2    1    2    0    0  0.29877186698E+02 -0.45586227528E+02  0.24653481813E+03  0.27579028771E+03  0.11095096132E+03 0.  0.
          5    1    3    3  502    0  0.12229785354E+02  0.33305582205E+02  0.12310144153E+03  0.12818060213E+03  0.41800000000E+01 0. -1.
         -5    1    3    3    0  502  0.17647401344E+02 -0.78891809733E+02  0.12343337660E+03  0.14760968558E+03  0.41800000000E+01 0.  1.
        -11    1    1    2    0    0  0.67446197830E+01  0.18862484005E+02  0.11447635411E+03  0.11621582874E+03  0.00000000000E+00 0.  1.
         11    1    1    2    0    0 -0.36621806481E+02  0.26723743523E+02  0.78830828256E+02  0.90937421678E+02  0.00000000000E+00 0. -1.
</event>
<event>
 7    1  0.6833760E-006  0.1348269E+03  0.7561462E-02  0.1220464E+00
         -2   -1    0    0    0  501 -0.00000000000E+00  0.00000000000E+00  0.97002171628E+02  0.97002171628E+02  0.00000000000E+00 0.  1.
          2   -1    0    0  501    0  0.00000000000E+00 -0.00000000000E+00 -0.24703218687E+03  0.24703218687E+03  0.00000000000E+00 0. -1.
         23    2    1    2    0    0 -0.16183177554E+02  0.10830982974E+03 -0.73132506053E+02  0.18162740879E+03  0.12508891928E+03 0.  0.
          5    1    3    3  502    0 -0.36179900283E+02  0.97104550084E+02  0.12121563746E+01  0.10371702153E+03  0.41800000000E+01 0. -1.
         -5    1    3    3    0  502  0.19996722728E+02  0.11205279660E+02 -0.74344662427E+02  0.77910387263E+02  0.41800000000E+01 0. -1.
        -11    1    1    2    0    0 -0.38106433084E+02 -0.51488019144E+02 -0.28482182076E+02  0.70102432580E+02  0.00000000000E+00 0.  1.
         11    1    1    2    0    0  0.54289610639E+02 -0.56821810599E+02 -0.48415327116E+02  0.92304517131E+02  0.00000000000E+00 0. -1.
</event>
<event>
 7    1  0.6833760E-006  0.1110072E+03  0.7561462E-02  0.1258716E+00
         -1   -1    0    0    0  501 -0.00000000000E+00  0.00000000000E+00  0.50103016426E+02  0.50103016426E+02  0.00000000000E+00 0.  1.
          1   -1    0    0  501    0  0.00000000000E+00 -0.00000000000E+00 -0.35951597872E+03  0.35951597872E+03  0.00000000000E+00 0. -1.
         23    2    1    2    0    0 -0.22055804546E+01 -0.55061446130E+02 -0.86001867630E+02  0.16149481424E+03  0.12509047268E+03 0.  0.
          5    1    3    3  502    0 -0.80846936605E+01 -0.87944577547E+02 -0.25100707168E+02  0.91908263457E+02  0.41800000000E+01 0. -1.
         -5    1    3    3    0  502  0.58791132059E+01  0.32883131417E+02 -0.60901160463E+02  0.69586550781E+02  0.41800000000E+01 0. -1.
        -11    1    1    2    0    0 -0.54551801495E+01  0.76744642913E+02 -0.20401366556E+03  0.21803915919E+03  0.00000000000E+00 0.  1.
         11    1    1    2    0    0  0.76607606041E+01 -0.21683196783E+02 -0.19397429105E+02  0.30085021716E+02  0.00000000000E+00 0. -1.
</event>
<event>
 7    1  0.6833760E-006  0.1016595E+03  0.7561462E-02  0.1276845E+00
         -1   -1    0    0    0  501 -0.00000000000E+00  0.00000000000E+00  0.15098756482E+02  0.15098756482E+02  0.00000000000E+00 0.  1.
          1   -1    0    0  501    0  0.00000000000E+00 -0.00000000000E+00 -0.89795428171E+03  0.89795428171E+03  0.00000000000E+00 0. -1.
         23    2    1    2    0    0 -0.23645191437E+02  0.17927389862E+02 -0.35615394267E+03  0.37864524048E+03  0.12508437501E+03 0.  0.
          5    1    3    3  502    0 -0.66746953651E+02  0.25018106132E+01 -0.11421696341E+03  0.13237976435E+03  0.41800000000E+01 0.  1.
         -5    1    3    3    0  502  0.43101762214E+02  0.15425579249E+02 -0.24193697926E+03  0.24626547613E+03  0.41800000000E+01 0.  1.
        -11    1    1    2    0    0 -0.29770972773E+02  0.83156521698E+01 -0.18190653178E+03  0.18451408400E+03  0.00000000000E+00 0. -1.
         11    1    1    2    0    0  0.53416164210E+02 -0.26243042032E+02 -0.34479505077E+03  0.34989371371E+03  0.00000000000E+00 0.  1.
</event>
<event>
 7    1  0.6833760E-006  0.1150533E+03  0.7561462E-02  0.1251488E+00
         -3   -1    0    0    0  501 -0.00000000000E+00  0.00000000000E+00  0.13719929676E+03  0.13719929676E+03  0.00000000000E+00 0.  1.
          3   -1    0    0  501    0  0.00000000000E+00 -0.00000000000E+00 -0.20012134859E+03  0.20012134859E+03  0.00000000000E+00 0. -1.
         23    2    1    2    0    0  0.52989284825E+02  0.27623513400E+02  0.83708020563E+02  0.15472919081E+03  0.11559916516E+03 0.  0.
          5    1    3    3  502    0 -0.22194917566E+02 -0.21696102750E+02 -0.70661623829E+00  0.31325819172E+02  0.41800000000E+01 0. -1.
         -5    1    3    3    0  502  0.75184202391E+02  0.49319616150E+02  0.84414636801E+02  0.12340337164E+03  0.41800000000E+01 0.  1.
        -11    1    1    2    0    0 -0.47186151008E+02  0.26649824353E+02 -0.70772501062E+02  0.89137494308E+02  0.00000000000E+00 0.  1.
         11    1    1    2    0    0 -0.58031338171E+01 -0.54273337753E+02 -0.75857571329E+02  0.93453960220E+02  0.00000000000E+00 0. -1.
</event>
<event>
 7    1  0.6833760E-006  0.7533344E+02  0.7561462E-02  0.1342842E+00
         -1   -1    0    0    0  501 -0.00000000000E+00  0.00000000000E+00  0.15536153536E+03  0.15536153536E+03  0.00000000000E+00 0.  1.
          1   -1    0    0  501    0  0.00000000000E+00 -0.00000000000E+00 -0.93769834588E+02  0.93769834588E+02  0.00000000000E+00 0. -1.
         23    2    1    2    0    0  0.49460706899E+02  0.10787375849E+02  0.25570863540E+02  0.13733952850E+03  0.12508216508E+03 0.  0.
          5    1    3    3  502    0  0.63125946582E+02 -0.68039806021E+01  0.65568637128E+02  0.91366831284E+02  0.41800000000E+01 0.  1.
         -5    1    3    3    0  502 -0.13665239683E+02  0.17591356451E+02 -0.39997773589E+02  0.45972697217E+02  0.41800000000E+01 0.  1.
        -11    1    1    2    0    0 -0.34780449395E+02  0.12404243683E+02  0.63179355832E+02  0.73179067532E+02  0.00000000000E+00 0.  1.
         11    1    1    2    0    0 -0.14680257504E+02 -0.23191619532E+02 -0.27158518600E+02  0.38612773915E+02  0.00000000000E+00 0. -1.
</event>
<event>
 7    1  0.6833760E-006  0.1182625E+03  0.7561462E-02  0.1245991E+00
         -1   -1    0    0    0  501 -0.00000000000E+00  0.00000000000E+00  0.31365073165E+02  0.31365073165E+02  0.00000000000E+00 0.  1.
          1   -1    0    0  501    0  0.00000000000E+00 -0.00000000000E+00 -0.61564496488E+03  0.61564496488E+03  0.00000000000E+00 0. -1.
         23    2    1    2    0    0  0.58634787675E+02  0.53597578676E+02 -0.24318034098E+03  0.28477430457E+03  0.12509591337E+03 0.  0.
          5    1    3    3  502    0  0.27593668962E+02 -0.21831202355E+02 -0.17450288174E+03  0.17806386522E+03  0.41800000000E+01 0. -1.
         -5    1    3    3    0  502  0.31041118713E+02  0.75428781031E+02 -0.68677459243E+02  0.10671043935E+03  0.41800000000E+01 0. -1.
        -11    1    1    2    0    0  0.23968558914E+02 -0.14681135356E+02 -0.11520059440E+03  0.11857994983E+03  0.00000000000E+00 0. -1.
         11    1    1    2    0    0 -0.82603346589E+02 -0.38916443320E+02 -0.22589895634E+03  0.24365578364E+03  0.00000000000E+00 0.  1.
</event>
<event>
 7    1  0.6833760E-006  0.1659555E+03  0.7561462E-02  0.1182132E+00
         -2   -1    0    0    0  501 -0.00000000000E+00  0.00000000000E+00  0.34825199340E+02  0.34825199340E+02  0.00000000000E+00 0.  1.
          2   -1    0    0  501    0  0.00000000000E+00 -0.00000000000E+00 -0.83425254088E+03  0.83425254088E+03  0.00000000000E+00 0. -1.
         23    2    1    2    0    0 -0.19363033368E+02 -0.12758071097E+03 -0.34979986155E+03  0.39326884884E+03  0.12509468196E+03 0.  0.
          5    1    3    3  502    0  0.46230140512E+02 -0.90350204961E+02 -0.23289657070E+03  0.25408398311E+03  0.41800000000E+01 0.  1.
         -5    1    3    3    0  502 -0.65593173880E+02 -0.37230506014E+02 -0.11690329084E+03  0.13918486573E+03  0.41800000000E+01 0.  1.
        -11    1    1    2    0    0  0.36254322392E+02  0.13236487506E+03 -0.38073288435E+03  0.40471269472E+03  0.00000000000E+00 0.  1.
         11    1    1    2    0    0 -0.16891289024E+02 -0.47841640828E+01 -0.68894595640E+02  0.71096196658E+02  0.00000000000E+00 0. -1.
</event>
<event>
 7    1  0.6833760E-006  0.2130905E+03  0.7561462E-02  0.1139142E+00
         -2   -1    0    0    0  501 -0.00000000000E+00  0.00000000000E+00  0.71342386307E+03  0.71342386307E+03  0.00000000000E+00 0.  1.
          2   -1    0    0  501    0  0.00000000000E+00 -0.00000000000E+00 -0.68555668780E+02  0.68555668780E+02  0.00000000000E+00 0. -1.
         23    2    1    2    0    0  0.11462080330E+03 -0.15248783591E+03  0.29364516173E+03  0.37184021879E+03  0.12508876310E+03 0.  0.
          5    1    3    3  502    0  0.31886020985E+00  0.17611096189E+02  0.69189212304E+01  0.19380305771E+02  0.41800000000E+01 0.  1.
         -5    1    3    3    0  502  0.11430194309E+03 -0.17009893210E+03  0.28672624050E+03  0.35245991302E+03  0.41800000000E+01 0.  1.
        -11    1    1    2    0    0 -0.83733700813E+02  0.53406537814E+02  0.11391849519E+03  0.15113244019E+03  0.00000000000E+00 0.  1.
         11    1    1    2    0    0 -0.30887102483E+02  0.99081298101E+02  0.23730453737E+03  0.25900687287E+03  0.00000000000E+00 0. -1.
</event>
<event>
 7    1  0.6833760E-006  0.1104901E+03  0.7561462E-02  0.1259665E+00
         -1   -1    0    0    0  501 -0.00000000000E+00  0.00000000000E+00  0.21875864110E+02  0.21875864110E+02  0.00000000000E+00 0.  1.
          1   -1    0    0  501    0  0.00000000000E+00 -0.00000000000E+00 -0.65719067029E+03  0.65719067029E+03  0.00000000000E+00 0. -1.
         23    2    1    2    0    0  0.38189336578E+02  0.31603523407E+02 -0.32321029040E+03  0.35009920983E+03  0.12508939516E+03 0.  0.
          5    1    3    3  502    0  0.81030361261E+02  0.17629662793E+02 -0.15418887663E+03  0.17512397475E+03  0.41800000000E+01 0.  1.
         -5    1    3    3    0  502 -0.42841024684E+02  0.13973860614E+02 -0.16902141378E+03  0.17497523508E+03  0.41800000000E+01 0.  1.
        -11    1    1    2    0    0 -0.31111783758E+02  0.22330774279E+02 -0.20811965032E+03  0.21161378834E+03  0.00000000000E+00 0. -1.
         11    1    1    2    0    0 -0.70775528195E+01 -0.53934297686E+02 -0.10398486546E+03  0.11735353623E+03  0.00000000000E+00 0.  1.
</event>
<event>
 7    1  0.6833760E-006  0.8818046E+02  0.7561462E-02  0.1307319E+00
         -1   -1    0    0    0  501 -0.00000000000E+00  0.00000000000E+00  0.82252127928E+02  0.82252127928E+02  0.00000000000E+00 0. -1.
          1   -1    0    0  501    0  0.00000000000E+00 -0.00000000000E+00 -0.19559437304E+03  0.19559437304E+03  0.00000000000E+00 0.  1.
         23    2    1    2    0    0  0.54746348936E+02 -0.34548705988E+02 -0.63234076629E+02  0.15438004291E+03  0.12507547080E+03 0.  0.
          5    1    3    3  502    0  0.79274262737E+02 -0.20663172675E+02 -0.85298994794E+02  0.11834173545E+03  0.41800000000E+01 0. -1.
         -5    1    3    3    0  502 -0.24527913801E+02 -0.13885533313E+02  0.22064918165E+02  0.36038307458E+02  0.41800000000E+01 0. -1.
        -11    1    1    2    0    0 -0.14413240870E+02  0.15715252527E+02 -0.71116341208E+02  0.74244492464E+02  0.00000000000E+00 0.  1.
         11    1    1    2    0    0 -0.40333108066E+02  0.18833453461E+02  0.21008172726E+02  0.49221965593E+02  0.00000000000E+00 0. -1.
</event>
<event>
 7    1  0.6833760E-006  0.1059051E+03  0.7561462E-02  0.1268347E+00
         -1   -1    0    0    0  501 -0.00000000000E+00  0.00000000000E+00  0.22854283703E+02  0.22854283703E+02  0.00000000000E+00 0.  1.
          1   -1    0    0  501    0  0.00000000000E+00 -0.00000000000E+00 -0.81339077557E+03  0.81339077557E+03  0.00000000000E+00 0. -1.
         23    2    1    2    0    0  0.21365196017E+02  0.79119880552E+02 -0.35185319248E+03  0.38232756748E+03  0.12512902419E+03 0.  0.
          5    1    3    3  502    0 -0.17304942938E+02  0.56958860160E+02 -0.52006280712E+02  0.79157428169E+02  0.41800000000E+01 0.  1.
         -5    1    3    3    0  502  0.38670138954E+02  0.22161020393E+02 -0.29984691177E+03  0.30317013931E+03  0.41800000000E+01 0.  1.
        -11    1    1    2    0    0  0.24547534199E+02 -0.40566755385E+02 -0.10958899877E+03  0.11940683285E+03  0.00000000000E+00 0.  1.
         11    1    1    2    0    0 -0.45912730215E+02 -0.38553125167E+02 -0.32909430061E+03  0.33451065895E+03  0.00000000000E+00 0. -1.
</event>
<event>
 7    1  0.6833760E-006  0.1072655E+03  0.7561462E-02  0.1265719E+00
          2   -1    0    0  501    0  0.00000000000E+00  0.00000000000E+00  0.30065532590E+03  0.30065532590E+03  0.00000000000E+00 0. -1.
         -2   -1    0    0    0  501 -0.00000000000E+00 -0.00000000000E+00 -0.61826377636E+02  0.61826377636E+02  0.00000000000E+00 0.  1.
         23    2    1    2    0    0  0.41694359348E+02  0.44237626663E+02  0.57602978707E+02  0.15051556760E+03  0.12506576557E+03 0.  0.
          5    1    3    3  502    0  0.65391986517E+02  0.71810504575E+02  0.22451611185E+02  0.99771778138E+02  0.41800000000E+01 0.  1.
         -5    1    3    3    0  502 -0.23697627169E+02 -0.27572877913E+02  0.35151367522E+02  0.50743789457E+02  0.41800000000E+01 0.  1.
        -11    1    1    2    0    0 -0.52547995438E+02 -0.24026196339E+02  0.43452540658E+02  0.72295734484E+02  0.00000000000E+00 0.  1.
         11    1    1    2    0    0  0.10853636089E+02 -0.20211430323E+02  0.13777342890E+03  0.13967040145E+03  0.00000000000E+00 0. -1.
</event>
<event>
 7    1  0.6833760E-006  0.2898065E+03  0.7561462E-02  0.1090450E+00
         -2   -1    0    0    0  501 -0.00000000000E+00  0.00000000000E+00  0.13374072972E+03  0.13374072972E+03  0.00000000000E+00 0.  1.
          2   -1    0    0  501    0  0.00000000000E+00 -0.00000000000E+00 -0.70981327910E+03  0.70981327910E+03  0.00000000000E+00 0. -1.
         23    2    1    2    0    0 -0.16054195807E+03  0.23358014051E+03 -0.22750855942E+03  0.38521163201E+03  0.12764973359E+03 0.  0.
          5    1    3    3  502    0 -0.90288092217E+02  0.16261154662E+03 -0.21526126494E+03  0.28451597367E+03  0.41800000000E+01 0. -1.
         -5    1    3    3    0  502 -0.70253865856E+02  0.70968593892E+02 -0.12247294477E+02  0.10069565834E+03  0.41800000000E+01 0.  1.
        -11    1    1    2    0    0  0.45360001689E+02 -0.13363381781E+03 -0.13027514999E+03  0.19206025544E+03  0.00000000000E+00 0.  1.
         11    1    1    2    0    0  0.11518195638E+03 -0.99946322702E+02 -0.21828883997E+03  0.26628212136E+03  0.00000000000E+00 0. -1.
</event>
<event>
 7    1  0.6833760E-006  0.1208841E+03  0.7561462E-02  0.1241646E+00
         -2   -1    0    0    0  501 -0.00000000000E+00  0.00000000000E+00  0.72805755676E+02  0.72805755676E+02  0.00000000000E+00 0.  1.
          2   -1    0    0  501    0  0.00000000000E+00 -0.00000000000E+00 -0.24995536349E+03  0.24995536349E+03  0.00000000000E+00 0. -1.
         23    2    1    2    0    0 -0.32562263733E+02  0.52264735379E+02 -0.39803739657E+02  0.14499433975E+03  0.12508843786E+03 0.  0.
          5    1    3    3  502    0 -0.29980307142E+01  0.86102668229E+02 -0.22511230644E+01  0.86285558580E+02  0.41800000000E+01 0.  1.
         -5    1    3    3    0  502 -0.29564233018E+02 -0.33837932850E+02 -0.37552616593E+02  0.58708781170E+02  0.41800000000E+01 0.  1.
        -11    1    1    2    0    0  0.47162973206E+02  0.84713311370E+01 -0.41657257654E+02  0.63493595017E+02  0.00000000000E+00 0.  1.
         11    1    1    2    0    0 -0.14600709474E+02 -0.60736066516E+02 -0.95688610505E+02  0.11427318440E+03  0.00000000000E+00 0. -1.
</event>
<event>
 7    1  0.6833760E-006  0.9991640E+02  0.7561462E-02  0.1280472E+00
         -2   -1    0    0    0  501 -0.00000000000E+00  0.00000000000E+00  0.79484019060E+02  0.79484019060E+02  0.00000000000E+00 0.  1.
          2   -1    0    0  501    0  0.00000000000E+00 -0.00000000000E+00 -0.15400167481E+03  0.15400167481E+03  0.00000000000E+00 0. -1.
         23    2    1    2    0    0 -0.42854918217E+01  0.74007716811E+01 -0.96507499010E+01  0.12575200548E+03  0.12508914041E+03 0.  0.
          5    1    3    3  502    0  0.41674131207E+02 -0.34173296798E+02 -0.28143850814E+02  0.60943384912E+02  0.41800000000E+01 0.  1.
         -5    1    3    3    0  502 -0.45959623028E+02  0.41574068480E+02  0.18493100913E+02  0.64808620570E+02  0.41800000000E+01 0.  1.
        -11    1    1    2    0    0 -0.27440148784E+02  0.25854591434E+02 -0.16947764754E+02  0.41335800387E+02  0.00000000000E+00 0.  1.
         11    1    1    2    0    0  0.31725640605E+02 -0.33255363115E+02 -0.47919141095E+02  0.66397888001E+02  0.00000000000E+00 0. -1.
</event>
<event>
 7    1  0.6833760E-006  0.1956333E+03  0.7561462E-02  0.1153476E+00
          3   -1    0    0  501    0  0.00000000000E+00  0.00000000000E+00  0.28455994748E+03  0.28455994748E+03  0.00000000000E+00 0. -1.
         -3   -1    0    0    0  501 -0.00000000000E+00 -0.00000000000E+00 -0.18473086430E+03  0.18473086430E+03  0.00000000000E+00 0.  1.
         23    2    1    2    0    0  0.17097787716E+03  0.66602381716E+02  0.13681570337E+03  0.26083579056E+03  0.12508981261E+03 0.  0.
          5    1    3    3  502    0  0.31573903585E+02 -0.25278948362E+02  0.70001774042E+02  0.80954662540E+02  0.41800000000E+01 0.  1.
         -5    1    3    3    0  502  0.13940397357E+03  0.91881330078E+02  0.66813929330E+02  0.17988112802E+03  0.41800000000E+01 0.  1.
        -11    1    1    2    0    0 -0.11402604914E+03 -0.47469535121E+02  0.20617769992E+02  0.12522136034E+03  0.00000000000E+00 0.  1.
         11    1    1    2    0    0 -0.56951828022E+02 -0.19132846595E+02 -0.57604390184E+02  0.83233660873E+02  0.00000000000E+00 0. -1.
</event>
<event>
 7    1  0.6833760E-006  0.1151820E+03  0.7561462E-02  0.1251264E+00
         -2   -1    0    0    0  501 -0.00000000000E+00  0.00000000000E+00  0.25975353046E+02  0.25975353046E+02  0.00000000000E+00 0. -1.
          2   -1    0    0  501    0  0.00000000000E+00 -0.00000000000E+00 -0.80318707019E+03  0.80318707019E+03  0.00000000000E+00 0.  1.
         23    2    1    2    0    0  0.57602832798E+02  0.53666106042E+02 -0.25900886663E+03  0.29821254889E+03  0.12508794523E+03 0.  0.
          5    1    3    3  502    0  0.80567242054E+02  0.28281989767E+02 -0.24751520043E+03  0.26186293797E+03  0.41800000000E+01 0. -1.
         -5    1    3    3    0  502 -0.22964409256E+02  0.25384116275E+02 -0.11493666193E+02  0.36349610921E+02  0.41800000000E+01 0. -1.
        -11    1    1    2    0    0 -0.71887921543E+02 -0.61046678468E+02 -0.48467837220E+03  0.49376886769E+03  0.00000000000E+00 0.  1.
         11    1    1    2    0    0  0.14285088745E+02  0.73805724261E+01 -0.33524478317E+02  0.37181006659E+02  0.00000000000E+00 0. -1.
</event>
<event>
 6    1  0.6833760E-006  0.1527866E+03  0.7561462E-02  0.1197090E+00
         -2   -1    0    0    0  501 -0.00000000000E+00  0.00000000000E+00  0.42834875841E+03  0.42834875841E+03  0.00000000000E+00 0.  1.
          2   -1    0    0  501    0  0.00000000000E+00 -0.00000000000E+00 -0.18259285223E+03  0.18259285223E+03  0.00000000000E+00 0. -1.
          5    1    1    2  502    0  0.75344728384E+02  0.42941725870E+01  0.15576505556E+03  0.17313432053E+03  0.41800000000E+01 0. -1.
         -5    1    1    2    0  502 -0.11210753136E+03 -0.59176828814E+02  0.22689632115E+03  0.25994116375E+03  0.41800000000E+01 0.  1.
        -11    1    1    2    0    0  0.44016447632E+02  0.72098388478E+02 -0.74187934151E+02  0.11242541909E+03  0.00000000000E+00 0. -1.
         11    1    1    2    0    0 -0.72536446542E+01 -0.17215732251E+02 -0.62717536384E+02  0.65440707269E+02  0.00000000000E+00 0.  1.
</event>
<event>
 7    1  0.6833760E-006  0.1209231E+03  0.7561462E-02  0.1241582E+00
         -2   -1    0    0    0  501 -0.00000000000E+00  0.00000000000E+00  0.61674959926E+02  0.61674959926E+02  0.00000000000E+00 0.  1.
          2   -1    0    0  501    0  0.00000000000E+00 -0.00000000000E+00 -0.36595770028E+03  0.36595770028E+03  0.00000000000E+00 0. -1.
         23    2    1    2    0    0 -0.71368135671E+02 -0.61806214978E+02 -0.10938346506E+03  0.19112132091E+03  0.12509675406E+03 0.  0.
          5    1    3    3  502    0 -0.57023268391E+02 -0.75501801704E+02 -0.13089534825E+03  0.16156497081E+03  0.41800000000E+01 0.  1.
         -5    1    3    3    0  502 -0.14344867280E+02  0.13695586726E+02  0.21511883186E+02  0.29556350101E+02  0.41800000000E+01 0.  1.
        -11    1    1    2    0    0  0.60648583856E+02 -0.34423304121E+01 -0.55752939818E+02  0.82452960291E+02  0.00000000000E+00 0. -1.
         11    1    1    2    0    0  0.10719551815E+02  0.65248545390E+02 -0.13914633548E+03  0.15405837901E+03  0.00000000000E+00 0.  1.
</event>
<event>
 7    1  0.6833760E-006  0.1174175E+03  0.7561462E-02  0.1247419E+00
          3   -1    0    0  501    0  0.00000000000E+00  0.00000000000E+00  0.85918591361E+03  0.85918591361E+03  0.00000000000E+00 0. -1.
         -3   -1    0    0    0  501 -0.00000000000E+00 -0.00000000000E+00 -0.17292533861E+02  0.17292533861E+02  0.00000000000E+00 0.  1.
         23    2    1    2    0    0 -0.33080071703E+01  0.51898108083E+02  0.50401806912E+03  0.52190630831E+03  0.12509046372E+03 0.  0.
          5    1    3    3  502    0  0.30155480371E+02  0.81016925453E+02  0.26512965012E+03  0.27889836675E+03  0.41800000000E+01 0. -1.
         -5    1    3    3    0  502 -0.33463487541E+02 -0.29118817370E+02  0.23888841901E+03  0.24300794156E+03  0.41800000000E+01 0. -1.
        -11    1    1    2    0    0  0.45750930096E+02 -0.36692104402E+02  0.14319006038E+03  0.15473477799E+03  0.00000000000E+00 0.  1.
         11    1    1    2    0    0 -0.42442922925E+02 -0.15206003681E+02  0.19468525026E+03  0.19983736118E+03  0.00000000000E+00 0. -1.
</event>
<event>
 7    1  0.6833760E-006  0.1125096E+03  0.7561462E-02  0.1255992E+00
         -2   -1    0    0    0  501 -0.00000000000E+00  0.00000000000E+00  0.43284990169E+02  0.43284990169E+02  0.00000000000E+00 0.  1.
          2   -1    0    0  501    0  0.00000000000E+00 -0.00000000000E+00 -0.29661054702E+03  0.29661054702E+03  0.00000000000E+00 0. -1.
         23    2    1    2    0    0 -0.24480928228E+02 -0.22924120544E+02 -0.13711000620E+03  0.18860298983E+03  0.12508838005E+03 0.  0.
          5    1    3    3  502    0 -0.40477070410E+02 -0.69162615647E+02 -0.80533997964E+02  0.11368842448E+03  0.41800000000E+01 0.  1.
         -5    1    3    3    0  502  0.15996142181E+02  0.46238495103E+02 -0.56576008239E+02  0.74914565355E+02  0.41800000000E+01 0.  1.
        -11    1    1    2    0    0 -0.14098778291E+02  0.47752096899E+02 -0.48566862210E+02  0.69554140153E+02  0.00000000000E+00 0.  1.
         11    1    1    2    0    0  0.38579706519E+02 -0.24827976355E+02 -0.67648688443E+02  0.81738407209E+02  0.00000000000E+00 0. -1.
</event>
<event>
 7    1  0.6833760E-006  0.1156302E+03  0.7561462E-02  0.1250485E+00
          3   -1    0    0  501    0  0.00000000000E+00  0.00000000000E+00  0.52527058439E+02  0.52527058439E+02  0.00000000000E+00 0. -1.
         -3   -1    0    0    0  501 -0.00000000000E+00 -0.00000000000E+00 -0.44971763818E+03  0.44971763818E+03  0.00000000000E+00 0.  1.
         23    2    1    2    0    0  0.59715585367E+02  0.85753312196E+02 -0.24517265687E+03  0.29440956476E+03  0.12509108064E+03 0.  0.
          5    1    3    3  502    0  0.93714880623E+01  0.46083738886E+02 -0.22066873565E+03  0.22566279949E+03  0.41800000000E+01 0. -1.
         -5    1    3    3    0  502  0.50344097305E+02  0.39669573310E+02 -0.24503921216E+02  0.68746765270E+02  0.41800000000E+01 0. -1.
        -11    1    1    2    0    0 -0.51857703192E+02 -0.23267135243E+02 -0.17773722393E+02  0.59552381736E+02  0.00000000000E+00 0. -1.
         11    1    1    2    0    0 -0.78578821758E+01 -0.62486176954E+02 -0.13424420048E+03  0.14828275012E+03  0.00000000000E+00 0.  1.
</event>
<event>
 7    1  0.6833760E-006  0.1188226E+03  0.7561462E-02  0.1245052E+00
         -2   -1    0    0    0  501 -0.00000000000E+00  0.00000000000E+00  0.12900203828E+03  0.12900203828E+03  0.00000000000E+00 0.  1.
          2   -1    0    0  501    0  0.00000000000E+00 -0.00000000000E+00 -0.12624423223E+03  0.12624423223E+03  0.00000000000E+00 0. -1.
         23    2    1    2    0    0 -0.17576706130E+02 -0.54296460828E+02  0.46735636890E+02  0.14025442392E+03  0.11928972049E+03 0.  0.
          5    1    3    3  502    0  0.27024708134E+02  0.27113330212E+02  0.67533431058E+01  0.39096643948E+02  0.41800000000E+01 0. -1.
         -5    1    3    3    0  502 -0.44601414264E+02 -0.81409791041E+02  0.39982293784E+02  0.10115777997E+03  0.41800000000E+01 0.  1.
        -11    1    1    2    0    0  0.35635210960E+02  0.72368902317E+02 -0.34651193051E+02  0.87794256433E+02  0.00000000000E+00 0. -1.
         11    1    1    2    0    0 -0.18058504830E+02 -0.18072441489E+02 -0.93266377886E+01  0.27197590160E+02  0.00000000000E+00 0.  1.
</event>
<event>
 7    1  0.6833760E-006  0.1218918E+03  0.7561462E-02  0.1240008E+00
         -4   -1    0    0    0  501 -0.00000000000E+00  0.00000000000E+00  0.35658650160E+03  0.35658650160E+03  0.00000000000E+00 0.  1.
          4   -1    0    0  501    0  0.00000000000E+00 -0.00000000000E+00 -0.47133760572E+02  0.47133760572E+02  0.00000000000E+00 0. -1.
         23    2    1    2    0    0 -0.55905631358E+02  0.27148468391E+02  0.20081915717E+03  0.24461701868E+03  0.12508666191E+03 0.  0.
          5    1    3    3  502    0 -0.50394391269E+01  0.70126288289E+02  0.12615243871E+03  0.14448184124E+03  0.41800000000E+01 0.  1.
         -5    1    3    3    0  502 -0.50866192232E+02 -0.42977819898E+02  0.74666718459E+02  0.10013517744E+03  0.41800000000E+01 0.  1.
        -11    1    1    2    0    0 -0.18309520458E+02  0.12805320082E+02  0.96048982669E+00  0.22363749742E+02  0.00000000000E+00 0. -1.
         11    1    1    2    0    0  0.74215151817E+02 -0.39953788473E+02  0.10767309403E+03  0.13673949375E+03  0.00000000000E+00 0.  1.
</event>
<event>
 7    1  0.6833760E-006  0.1145179E+03  0.7561462E-02  0.1252425E+00
          1   -1    0    0  501    0  0.00000000000E+00  0.00000000000E+00  0.85986440400E+03  0.85986440400E+03  0.00000000000E+00 0. -1.
         -1   -1    0    0    0  501 -0.00000000000E+00 -0.00000000000E+00 -0.18298367528E+02  0.18298367528E+02  0.00000000000E+00 0.  1.
         23    2    1    2    0    0  0.49827900339E+02  0.59284911451E+01  0.33033883943E+03  0.35677667265E+03  0.12509148113E+03 0.  0.
          5    1    3    3  502    0 -0.54248349829E+01  0.53890154893E+02  0.86323244815E+02  0.10199388523E+03  0.41800000000E+01 0. -1.
         -5    1    3    3    0  502  0.55252735322E+02 -0.47961663748E+02  0.24401559462E+03  0.25478278742E+03  0.41800000000E+01 0. -1.
        -11    1    1    2    0    0 -0.64975071712E+02  0.22874839098E+02  0.37930832677E+03  0.38551241869E+03  0.00000000000E+00 0. -1.
         11    1    1    2    0    0  0.15147171373E+02 -0.28803330243E+02  0.13191887026E+03  0.13587368018E+03  0.00000000000E+00 0.  1.
</event>
<event>
 7    1  0.6833760E-006  0.1382671E+03  0.7561462E-02  0.1215680E+00
          2   -1    0    0  501    0  0.00000000000E+00  0.00000000000E+00  0.53264824766E+03  0.53264824766E+03  0.00000000000E+00 0. -1.
         -2   -1    0    0    0  501 -0.00000000000E+00 -0.00000000000E+00 -0.41331742828E+02  0.41331742828E+02  0.00000000000E+00 0.  1.
         23    2    1    2    0    0 -0.14425876817E+02 -0.83720152796E+02  0.16505648518E+03  0.22385040707E+03  0.12509273176E+03 0.  0.
          5    1    3    3  502    0  0.43727913601E+02  0.51244866429E+01  0.58782125033E+02  0.73560868773E+02  0.41800000000E+01 0.  1.
         -5    1    3    3    0  502 -0.58153790418E+02 -0.88844639439E+02  0.10627436015E+03  0.15028953830E+03  0.41800000000E+01 0.  1.
        -11    1    1    2    0    0  0.39721020071E+01  0.10354956577E+03  0.24951362515E+03  0.27017649657E+03  0.00000000000E+00 0. -1.
         11    1    1    2    0    0  0.10453774810E+02 -0.19829412975E+02  0.76746394502E+02  0.79953086844E+02  0.00000000000E+00 0.  1.
</event>
<event>
 7    1  0.6833760E-006  0.1125565E+03  0.7561462E-02  0.1255907E+00
          2   -1    0    0  501    0  0.00000000000E+00  0.00000000000E+00  0.17033108266E+03  0.17033108266E+03  0.00000000000E+00 0.  1.
         -2   -1    0    0    0  501 -0.00000000000E+00 -0.00000000000E+00 -0.12414291624E+03  0.12414291624E+03  0.00000000000E+00 0. -1.
         23    2    1    2    0    0  0.33974686152E+02 -0.84290436560E+02 -0.82189744182E+01  0.15483501380E+03  0.12508866041E+03 0.  0.
          5    1    3    3  502    0  0.54310568677E+02 -0.75457254249E+02 -0.51253889257E+02  0.10624438175E+03  0.41800000000E+01 0.  1.
         -5    1    3    3    0  502 -0.20335882525E+02 -0.88331823110E+01  0.43034914839E+02  0.48590632050E+02  0.41800000000E+01 0.  1.
        -11    1    1    2    0    0  0.15775565918E+02  0.39542422196E+02  0.58785001550E+02  0.72582009069E+02  0.00000000000E+00 0.  1.
         11    1    1    2    0    0 -0.49750252069E+02  0.44748014364E+02 -0.43778607138E+01  0.67056976035E+02  0.00000000000E+00 0. -1.
</event>
<event>
 7    1  0.6833760E-006  0.1337242E+03  0.7561462E-02  0.1222032E+00
         -3   -1    0    0    0  501 -0.00000000000E+00  0.00000000000E+00  0.44242318714E+02  0.44242318714E+02  0.00000000000E+00 0.  1.
          3   -1    0    0  501    0  0.00000000000E+00 -0.00000000000E+00 -0.51652334657E+03  0.51652334657E+03  0.00000000000E+00 0. -1.
         23    2    1    2    0    0  0.70096566585E+02 -0.75356721870E+02 -0.28394753863E+03  0.32690400648E+03  0.12509140890E+03 0.  0.
          5    1    3    3  502    0  0.95246471168E+02 -0.49070723016E+02 -0.12927762599E+03  0.16795833742E+03  0.41800000000E+01 0.  1.
         -5    1    3    3    0  502 -0.25149904583E+02 -0.26285998854E+02 -0.15466991264E+03  0.15894566906E+03  0.41800000000E+01 0.  1.
        -11    1    1    2    0    0 -0.49147882104E+02  0.40849349348E+01 -0.26947908883E+02  0.56199562293E+02  0.00000000000E+00 0.  1.
         11    1    1    2    0    0 -0.20948684480E+02  0.71271786935E+02 -0.16138558034E+03  0.17766209651E+03  0.00000000000E+00 0. -1.
</event>
<event>
 7    1  0.6833760E-006  0.8650206E+02  0.7561462E-02  0.1311551E+00
          2   -1    0    0  501    0  0.00000000000E+00  0.00000000000E+00  0.63318972604E+03  0.63318972604E+03  0.00000000000E+00 0. -1.
         -2   -1    0    0    0  501 -0.00000000000E+00 -0.00000000000E+00 -0.23289685628E+02  0.23289685628E+02  0.00000000000E+00 0.  1.
         23    2    1    2    0    0 -0.27637753092E+02  0.36089316863E+02  0.25984352379E+03  0.29194515587E+03  0.12508810092E+03 0.  0.
          5    1    3    3  502    0  0.18673030576E+02  0.16422824740E+02  0.23376418115E+03  0.23512030119E+03  0.41800000000E+01 0.  1.
         -5    1    3    3    0  502 -0.46310783667E+02  0.19666492123E+02  0.26079342639E+02  0.56824854674E+02  0.41800000000E+01 0.  1.
        -11    1    1    2    0    0  0.51536216057E+02  0.28474981308E+01  0.13177416715E+03  0.14152215706E+03  0.00000000000E+00 0.  1.
         11    1    1    2    0    0 -0.23898462965E+02 -0.38936814994E+02  0.21828234947E+03  0.22301209874E+03  0.00000000000E+00 0. -1.
</event>
<event>
 7    1  0.6833760E-006  0.1040560E+03  0.7561462E-02  0.1271991E+00
          1   -1    0    0  501    0  0.00000000000E+00  0.00000000000E+00  0.52217203080E+03  0.52217203080E+03  0.00000000000E+00 0. -1.
         -1   -1    0    0    0  501 -0.00000000000E+00 -0.00000000000E+00 -0.30954964459E+02  0.30954964459E+02  0.00000000000E+00 0.  1.
         23    2    1    2    0    0 -0.76886691764E+01 -0.58614432945E+02  0.21270856264E+03  0.25374496539E+03  0.12508719942E+03 0.  0.
          5    1    3    3  502    0  0.37221712261E+02 -0.58835268017E+02  0.52469431317E+02  0.87278624239E+02  0.41800000000E+01 0.  1.
         -5    1    3    3    0  502 -0.44910381438E+02  0.22083507294E+00  0.16023913133E+03  0.16646634115E+03  0.41800000000E+01 0.  1.
        -11    1    1    2    0    0 -0.26363330133E+02  0.10565550808E+01  0.22166596822E+02  0.34460114611E+02  0.00000000000E+00 0.  1.
         11    1    1    2    0    0  0.34051999309E+02  0.57557877864E+02  0.25634190688E+03  0.26492191526E+03  0.00000000000E+00 0. -1.
</event>
<event>
 7    1  0.6833760E-006  0.2653326E+03  0.7561462E-02  0.1103981E+00
         -1   -1    0    0    0  501 -0.00000000000E+00  0.00000000000E+00  0.62379422903E+02  0.62379422903E+02  0.00000000000E+00 0.  1.
          1   -1    0    0  501    0  0.00000000000E+00 -0.00000000000E+00 -0.12777235875E+04  0.12777235875E+04  0.00000000000E+00 0. -1.
         23    2    1    2    0    0 -0.19336693216E+03 -0.17171410477E+03 -0.69824918800E+03  0.75503359559E+03  0.12508915898E+03 0.  0.
          5    1    3    3  502    0  0.74806391910E+01 -0.10126971445E+02 -0.31104383392E+01  0.13625811536E+02  0.41800000000E+01 0. -1.
         -5    1    3    3    0  502 -0.20084757135E+03 -0.16158713332E+03 -0.69513874966E+03  0.74140778405E+03  0.41800000000E+01 0. -1.
        -11    1    1    2    0    0  0.17692029330E+03  0.14764307009E+03 -0.37599533241E+03  0.44098951951E+03  0.00000000000E+00 0.  1.
         11    1    1    2    0    0  0.16446638866E+02  0.24071034672E+02 -0.14109964422E+03  0.14407989533E+03  0.00000000000E+00 0. -1.
</event>
<event>
 7    1  0.6833760E-006  0.1181420E+03  0.7561462E-02  0.1246194E+00
          1   -1    0    0  501    0  0.00000000000E+00  0.00000000000E+00  0.30073799336E+02  0.30073799336E+02  0.00000000000E+00 0. -1.
         -1   -1    0    0    0  501 -0.00000000000E+00 -0.00000000000E+00 -0.76506861745E+03  0.76506861745E+03  0.00000000000E+00 0.  1.
         23    2    1    2    0    0  0.70820317987E+02  0.61140940707E+02 -0.52934561063E+03  0.55191414268E+03  0.12509481734E+03 0.  0.
          5    1    3    3  502    0  0.87801071593E+02  0.76602922723E+02 -0.30781986496E+03  0.32916193219E+03  0.41800000000E+01 0. -1.
         -5    1    3    3    0  502 -0.16980753606E+02 -0.15461982016E+02 -0.22152574567E+03  0.22275221049E+03  0.41800000000E+01 0. -1.
        -11    1    1    2    0    0 -0.16374892338E+02 -0.28489042979E+02 -0.16409343649E+03  0.16735118334E+03  0.00000000000E+00 0.  1.
         11    1    1    2    0    0 -0.54445425649E+02 -0.32651897728E+02 -0.41555770997E+02  0.75877090762E+02  0.00000000000E+00 0. -1.
</event>
<event>
 7    1  0.6833760E-006  0.7478949E+02  0.7561462E-02  0.1344524E+00
          2   -1    0    0  501    0  0.00000000000E+00  0.00000000000E+00  0.83128987148E+02  0.83128987148E+02  0.00000000000E+00 0. -1.
         -2   -1    0    0    0  501 -0.00000000000E+00 -0.00000000000E+00 -0.14878847208E+03  0.14878847208E+03  0.00000000000E+00 0.  1.
         23    2    1    2    0    0 -0.20858785019E+02  0.55460266801E+01 -0.58147572665E+02  0.13962013021E+03  0.12508714254E+03 0.  0.
          5    1    3    3  502    0  0.34459805512E+02  0.37131752454E+02 -0.56165541201E+02  0.75751472954E+02  0.41800000000E+01 0.  1.
         -5    1    3    3    0  502 -0.55318590531E+02 -0.31585725774E+02 -0.19820314635E+01  0.63868657257E+02  0.41800000000E+01 0.  1.
        -11    1    1    2    0    0  0.46780009932E+01  0.10886487744E+02  0.38795757031E+02  0.40564887185E+02  0.00000000000E+00 0. -1.
         11    1    1    2    0    0  0.16180784026E+02 -0.16432514424E+02 -0.46307669298E+02  0.51732441831E+02  0.00000000000E+00 0.  1.
</event>
<event>
 7    1  0.6833760E-006  0.7422614E+02  0.7561462E-02  0.1346284E+00
         -2   -1    0    0    0  501 -0.00000000000E+00  0.00000000000E+00  0.29405636752E+02  0.29405636752E+02  0.00000000000E+00 0.  1.
          2   -1    0    0  501    0  0.00000000000E+00 -0.00000000000E+00 -0.44376607277E+03  0.44376607277E+03  0.00000000000E+00 0. -1.
         23    2    1    2    0    0  0.35120261100E+02 -0.24244470758E+01 -0.21852455650E+03  0.25426763366E+03  0.12513887105E+03 0.  0.
          5    1    3    3  502    0 -0.19788250728E+02  0.15912874769E+02 -0.18592754530E+03  0.18770007712E+03  0.41800000000E+01 0.  1.
         -5    1    3    3    0  502  0.54908511828E+02 -0.18337321845E+02 -0.32597011203E+02  0.66567556535E+02  0.41800000000E+01 0.  1.
        -11    1    1    2    0    0 -0.22491254970E+02 -0.25517113790E+02 -0.18076319738E+02  0.38519254686E+02  0.00000000000E+00 0.  1.
         11    1    1    2    0    0 -0.12629006130E+02  0.27941560866E+02 -0.17775955978E+03  0.18038482118E+03  0.00000000000E+00 0. -1.
</event>
<event>
 7    1  0.6833760E-006  0.1075220E+03  0.7561462E-02  0.1265229E+00
         -2   -1    0    0    0  501 -0.00000000000E+00  0.00000000000E+00  0.46183595100E+02  0.46183595100E+02  0.00000000000E+00 0.  1.
          2   -1    0    0  501    0  0.00000000000E+00 -0.00000000000E+00 -0.28651063793E+03  0.28651063793E+03  0.00000000000E+00 0. -1.
         23    2    1    2    0    0  0.23663987143E+02  0.25196651597E+02 -0.11302501452E+03  0.17209500084E+03  0.12508868801E+03 0.  0.
          5    1    3    3  502    0  0.39849222030E+01  0.74798175136E+02 -0.77439097657E+02  0.10781898188E+03  0.41800000000E+01 0. -1.
         -5    1    3    3    0  502  0.19679064940E+02 -0.49601523539E+02 -0.35585916861E+02  0.64276018959E+02  0.41800000000E+01 0. -1.
        -11    1    1    2    0    0 -0.50212986655E+02 -0.31413743800E+02 -0.46444635918E+02  0.75267998073E+02  0.00000000000E+00 0.  1.
         11    1    1    2    0    0  0.26548999512E+02  0.62170922035E+01 -0.80857392391E+02  0.85331234110E+02  0.00000000000E+00 0. -1.
</event>
<event>
 7    1  0.6833760E-006  0.1434557E+03  0.7561462E-02  0.1208753E+00
         -2   -1    0    0    0  501 -0.00000000000E+00  0.00000000000E+00  0.29009905309E+02  0.29009905309E+02  0.00000000000E+00 0.  1.
          2   -1    0    0  501    0  0.00000000000E+00 -0.00000000000E+00 -0.81034015029E+03  0.81034015029E+03  0.00000000000E+00 0. -1.
         23    2    1    2    0    0 -0.10539815506E+03 -0.66719326468E+02 -0.37716758414E+03  0.41554199760E+03  0.12189965392E+03 0.  0.
          5    1    3    3  502    0  0.88572502639E+01 -0.41661119317E+02 -0.19023330418E+03  0.19498790261E+03  0.41800000000E+01 0. -1.
         -5    1    3    3    0  502 -0.11425540533E+03 -0.25058207151E+02 -0.18693427996E+03  0.22055409499E+03  0.41800000000E+01 0.  1.
        -11    1    1    2    0    0  0.30686922282E+02  0.33116810817E+02 -0.16141087016E+03  0.16760632257E+03  0.00000000000E+00 0. -1.
         11    1    1    2    0    0  0.74711232780E+02  0.33602515651E+02 -0.24275179068E+03  0.25620173543E+03  0.00000000000E+00 0.  1.
</event>
<event>
 7    1  0.6833760E-006  0.1295638E+03  0.7561462E-02  0.1228104E+00
         -1   -1    0    0    0  501 -0.00000000000E+00  0.00000000000E+00  0.13692679455E+02  0.13692679455E+02  0.00000000000E+00 0.  1.
          1   -1    0    0  501    0  0.00000000000E+00 -0.00000000000E+00 -0.13324049327E+04  0.13324049327E+04  0.00000000000E+00 0. -1.
         23    2    1    2    0    0  0.55317053095E+02 -0.56886605927E+02 -0.77550170577E+03  0.78952305215E+03  0.12509073479E+03 0.  0.
          5    1    3    3  502    0 -0.34045523514E+02 -0.30259759714E+02 -0.39946844401E+03  0.40207867500E+03  0.41800000000E+01 0. -1.
         -5    1    3    3    0  502  0.89362576610E+02 -0.26626846213E+02 -0.37603326177E+03  0.38744437716E+03  0.41800000000E+01 0. -1.
        -11    1    1    2    0    0 -0.63978526435E+01  0.69286814123E+02 -0.27567455185E+03  0.28432033636E+03  0.00000000000E+00 0.  1.
         11    1    1    2    0    0 -0.48919200452E+02 -0.12400208197E+02 -0.26753599559E+03  0.27225422361E+03  0.00000000000E+00 0. -1.
</event>
<event>
 7    1  0.6833760E-006  0.1149832E+03  0.7561462E-02  0.1251610E+00
         -4   -1    0    0    0  501 -0.00000000000E+00  0.00000000000E+00  0.30437446561E+03  0.30437446561E+03  0.00000000000E+00 0.  1.
          4   -1    0    0  501    0  0.00000000000E+00 -0.00000000000E+00 -0.58186921210E+02  0.58186921210E+02  0.00000000000E+00 0. -1.
         23    2    1    2    0    0 -0.68943824820E+02 -0.84914163930E-01  0.18697203777E+03  0.23528351837E+03  0.12508610202E+03 0.  0.
          5    1    3    3  502    0  0.98471877968E+01 -0.48886462438E+02  0.64176723495E+02  0.81381678255E+02  0.41800000000E+01 0. -1.
         -5    1    3    3    0  502 -0.78791012616E+02  0.48801548274E+02  0.12279531427E+03  0.15390184012E+03  0.41800000000E+01 0. -1.
        -11    1    1    2    0    0  0.34625139935E+02  0.26696005286E+02  0.69999386575E+02  0.82531758339E+02  0.00000000000E+00 0.  1.
         11    1    1    2    0    0  0.34318684885E+02 -0.26611091122E+02 -0.10783879948E+02  0.44746110106E+02  0.00000000000E+00 0. -1.
</event>
<event>
 7    1  0.6833760E-006  0.1103970E+03  0.7561462E-02  0.1259836E+00
         -2   -1    0    0    0  501 -0.00000000000E+00  0.00000000000E+00  0.51010212914E+02  0.51010212914E+02  0.00000000000E+00 0.  1.
          2   -1    0    0  501    0  0.00000000000E+00 -0.00000000000E+00 -0.26734153708E+03  0.26734153708E+03  0.00000000000E+00 0. -1.
         23    2    1    2    0    0  0.17564147516E+02 -0.15179436095E+02 -0.72393740669E+02  0.14637200957E+03  0.12507996218E+03 0.  0.
          5    1    3    3  502    0  0.67413065164E+02  0.14359177564E+02 -0.36895191159E+02  0.78290707404E+02  0.41800000000E+01 0. -1.
         -5    1    3    3    0  502 -0.49848917648E+02 -0.29538613659E+02 -0.35498549510E+02  0.68081302168E+02  0.41800000000E+01 0. -1.
        -11    1    1    2    0    0  0.18557522140E+02 -0.30323146326E+02 -0.63186803235E+02  0.72501358154E+02  0.00000000000E+00 0. -1.
         11    1    1    2    0    0 -0.36121669656E+02  0.45502582421E+02 -0.80750780262E+02  0.99478382268E+02  0.00000000000E+00 0.  1.
</event>
<event>
 7    1  0.6833760E-006  0.1225775E+03  0.7561462E-02  0.1238904E+00
         -1   -1    0    0    0  501 -0.00000000000E+00  0.00000000000E+00  0.24399331744E+03  0.24399331744E+03  0.00000000000E+00 0. -1.
          1   -1    0    0  501    0  0.00000000000E+00 -0.00000000000E+00 -0.71702313698E+02  0.71702313698E+02  0.00000000000E+00 0.  1.
         23    2    1    2    0    0 -0.78675690759E+02  0.15345550723E+02  0.95105546569E+02  0.17640280729E+03  0.12509010827E+03 0.  0.
          5    1    3    3  502    0 -0.16144673955E+02 -0.44920028363E+02  0.71918004128E+02  0.86418349689E+02  0.41800000000E+01 0. -1.
         -5    1    3    3    0  502 -0.62531016804E+02  0.60265579085E+02  0.23187542441E+02  0.89984457600E+02  0.41800000000E+01 0. -1.
        -11    1    1    2    0    0  0.56555801604E+02 -0.45715619588E+02  0.70200981643E+02  0.10107746729E+03  0.00000000000E+00 0. -1.
         11    1    1    2    0    0  0.22119889155E+02  0.30370068865E+02  0.69844755348E+01  0.38215356568E+02  0.00000000000E+00 0.  1.
</event>
<event>
 7    1  0.6833760E-006  0.1599729E+03  0.7561462E-02  0.1188727E+00
          1   -1    0    0  501    0  0.00000000000E+00  0.00000000000E+00  0.48643717228E+03  0.48643717228E+03  0.00000000000E+00 0. -1.
         -1   -1    0    0    0  501 -0.00000000000E+00 -0.00000000000E+00 -0.71642191875E+02  0.71642191875E+02  0.00000000000E+00 0.  1.
         23    2    1    2    0    0  0.93962182208E+02 -0.99992817512E+02  0.12227096840E+03  0.22231818947E+03  0.12509089663E+03 0.  0.
          5    1    3    3  502    0  0.63717048328E+02 -0.11199477703E+03  0.41977798277E+02  0.13558134192E+03  0.41800000000E+01 0. -1.
         -5    1    3    3    0  502  0.30245133880E+02  0.12001959513E+02  0.80293170122E+02  0.86736847555E+02  0.41800000000E+01 0. -1.
        -11    1    1    2    0    0 -0.14717389228E+02 -0.13384595131E+02  0.12664731114E+02  0.23582712878E+02  0.00000000000E+00 0.  1.
         11    1    1    2    0    0 -0.79244792980E+02  0.11337741264E+03  0.27985928090E+03  0.31217846181E+03  0.00000000000E+00 0. -1.
</event>
<event>
 7    1  0.6833760E-006  0.3333856E+03  0.7561462E-02  0.1069649E+00
          2   -1    0    0  501    0  0.00000000000E+00  0.00000000000E+00  0.76510623799E+03  0.76510623799E+03  0.00000000000E+00 0. -1.
         -2   -1    0    0    0  501 -0.00000000000E+00 -0.00000000000E+00 -0.15452224262E+03  0.15452224262E+03  0.00000000000E+00 0.  1.
         23    2    1    2    0    0 -0.14930818252E+03 -0.28941376645E+03  0.29905712502E+03  0.45949594675E+03  0.12509236376E+03 0.  0.
          5    1    3    3  502    0 -0.61529880728E+02 -0.21762277845E+03  0.14699202938E+03  0.26975864958E+03  0.41800000000E+01 0. -1.
         -5    1    3    3    0  502 -0.87778301788E+02 -0.71790988006E+02  0.15206509565E+03  0.18973729717E+03  0.41800000000E+01 0. -1.
        -11    1    1    2    0    0  0.91745138755E+02  0.20861389365E+03  0.26799920827E+03  0.35179610962E+03  0.00000000000E+00 0. -1.
         11    1    1    2    0    0  0.57563043760E+02  0.80799872800E+02  0.43527662077E+02  0.10833642424E+03  0.00000000000E+00 0.  1.
</event>
<event>
 7    1  0.6833760E-006  0.2136372E+03  0.7561462E-02  0.1138718E+00
          2   -1    0    0  501    0  0.00000000000E+00  0.00000000000E+00  0.41099490387E+03  0.41099490387E+03  0.00000000000E+00 0. -1.
         -2   -1    0    0    0  501 -0.00000000000E+00 -0.00000000000E+00 -0.13560194506E+03  0.13560194506E+03  0.00000000000E+00 0.  1.
         23    2    1    2    0    0 -0.20136562035E+03 -0.37690620632E-01  0.76430253950E+02  0.24906433022E+03  0.12507334805E+03 0.  0.
          5    1    3    3  502    0 -0.10166811114E+03  0.50584922418E+02  0.76834012098E+02  0.13717207082E+03  0.41800000000E+01 0. -1.
         -5    1    3    3    0  502 -0.99697509207E+02 -0.50622613038E+02 -0.40375814787E+00  0.11189225940E+03  0.41800000000E+01 0. -1.
        -11    1    1    2    0    0  0.12230737437E+03  0.60919446529E+01  0.17704379119E+03  0.21526892394E+03  0.00000000000E+00 0.  1.
         11    1    1    2    0    0  0.79058245976E+02 -0.60542540323E+01  0.21918913669E+02  0.82263594774E+02  0.00000000000E+00 0. -1.
</event>
<event>
 7    1  0.6833760E-006  0.1654838E+03  0.7561462E-02  0.1182641E+00
         -1   -1    0    0    0  501 -0.00000000000E+00  0.00000000000E+00  0.13464375402E+03  0.13464375402E+03  0.00000000000E+00 0.  1.
          1   -1    0    0  501    0  0.00000000000E+00 -0.00000000000E+00 -0.23116294155E+03  0.23116294155E+03  0.00000000000E+00 0. -1.
         23    2    1    2    0    0  0.71158815424E+02 -0.11323899074E+03 -0.61577620492E+01  0.18322582616E+03  0.12508852586E+03 0.  0.
          5    1    3    3  502    0  0.25329925446E+01 -0.10309421858E+03 -0.33548274922E+02  0.10852554126E+03  0.41800000000E+01 0. -1.
         -5    1    3    3    0  502  0.68625822879E+02 -0.10144772159E+02  0.27390512873E+02  0.74700284895E+02  0.41800000000E+01 0. -1.
        -11    1    1    2    0    0 -0.90845200530E+02  0.91713205333E+02 -0.78548438912E+02  0.15110929736E+03  0.00000000000E+00 0.  1.
         11    1    1    2    0    0  0.19686385107E+02  0.21525785404E+02 -0.11812986571E+02  0.31471572054E+02  0.00000000000E+00 0. -1.
</event>
<event>
 7    1  0.6833760E-006  0.9618782E+02  0.7561462E-02  0.1288523E+00
          2   -1    0    0  501    0  0.00000000000E+00  0.00000000000E+00  0.79773391824E+03  0.79773391824E+03  0.00000000000E+00 0. -1.
         -2   -1    0    0    0  501 -0.00000000000E+00 -0.00000000000E+00 -0.14976407371E+02  0.14976407371E+02  0.00000000000E+00 0.  1.
         23    2    1    2    0    0 -0.14351921553E+02 -0.14884060723E+02  0.46436446516E+03  0.48136187436E+03  0.12508950662E+03 0.  0.
          5    1    3    3  502    0  0.53384934723E+01 -0.55764039446E+02  0.39088165402E+03  0.39489754045E+03  0.41800000000E+01 0.  1.
         -5    1    3    3    0  502 -0.19690415025E+02  0.40879978723E+02  0.73482811140E+02  0.86464333903E+02  0.41800000000E+01 0.  1.
        -11    1    1    2    0    0  0.48887635300E+02  0.24640772144E+02  0.21671157666E+03  0.22351974408E+03  0.00000000000E+00 0.  1.
         11    1    1    2    0    0 -0.34535713747E+02 -0.97567114215E+01  0.10168146905E+03  0.10782870717E+03  0.00000000000E+00 0. -1.
</event>
<event>
 6    1  0.6833760E-006  0.1230737E+03  0.7561462E-02  0.1238111E+00
          1   -1    0    0  501    0  0.00000000000E+00  0.00000000000E+00  0.16046289603E+03  0.16046289603E+03  0.00000000000E+00 0. -1.
         -1   -1    0    0    0  501 -0.00000000000E+00 -0.00000000000E+00 -0.10152560531E+03  0.10152560531E+03  0.00000000000E+00 0.  1.
          5    1    1    2  502    0 -0.27691203453E+02  0.56791949122E+02  0.28072056944E+02  0.69265005701E+02  0.41800000000E+01 0. -1.
         -5    1    1    2    0  502  0.76402710684E+02 -0.23403823314E+02  0.13615625551E+01  0.80027741428E+02  0.41800000000E+01 0.  1.
        -11    1    1    2    0    0  0.10563412824E+02  0.20268774783E+02  0.23083624818E+02  0.32484806548E+02  0.00000000000E+00 0. -1.
         11    1    1    2    0    0 -0.59274920055E+02 -0.53656900591E+02  0.64200464065E+01  0.80210947660E+02  0.00000000000E+00 0.  1.
</event>
<event>
 7    1  0.6833760E-006  0.1191393E+03  0.7561462E-02  0.1244524E+00
          1   -1    0    0  501    0  0.00000000000E+00  0.00000000000E+00  0.55959483029E+03  0.55959483029E+03  0.00000000000E+00 0. -1.
         -1   -1    0    0    0  501 -0.00000000000E+00 -0.00000000000E+00 -0.42225865751E+02  0.42225865751E+02  0.00000000000E+00 0.  1.
         23    2    1    2    0    0 -0.18727864076E+02  0.49306697011E+02  0.10621533054E+03  0.17236822218E+03  0.12508886566E+03 0.  0.
          5    1    3    3  502    0 -0.37559108684E+02 -0.19853314981E+02  0.88737907018E+02  0.98471972169E+02  0.41800000000E+01 0. -1.
         -5    1    3    3    0  502  0.18831244608E+02  0.69160011992E+02  0.17477423523E+02  0.73896250008E+02  0.41800000000E+01 0. -1.
        -11    1    1    2    0    0  0.22029631767E+02  0.33948408752E+02  0.14706590203E+03  0.15253254956E+03  0.00000000000E+00 0. -1.
         11    1    1    2    0    0 -0.33017676912E+01 -0.83255105764E+02  0.26408773196E+03  0.27691992431E+03  0.00000000000E+00 0.  1.
</event>
<event>
 7    1  0.6833760E-006  0.8138523E+02  0.7561462E-02  0.1325166E+00
          2   -1    0    0  501    0  0.00000000000E+00  0.00000000000E+00  0.31027487485E+03  0.31027487485E+03  0.00000000000E+00 0. -1.
         -2   -1    0    0    0  501 -0.00000000000E+00 -0.00000000000E+00 -0.51253254909E+02  0.51253254909E+02  0.00000000000E+00 0.  1.
         23    2    1    2    0    0  0.24792836973E+02 -0.42885346832E+02  0.88647125671E+02  0.16112115312E+03  0.12509146796E+03 0.  0.
          5    1    3    3  502    0  0.12272254422E+01 -0.43993096319E+02  0.11636727004E+03  0.12448177595E+03  0.41800000000E+01 0.  1.
         -5    1    3    3    0  502  0.23565611530E+02  0.11077494871E+01 -0.27720144373E+02  0.36639377175E+02  0.41800000000E+01 0.  1.
        -11    1    1    2    0    0  0.71405172834E+01  0.58585421930E+02  0.58861774756E+02  0.83354347080E+02  0.00000000000E+00 0.  1.
         11    1    1    2    0    0 -0.31933354256E+02 -0.15700075098E+02  0.11151271952E+03  0.11705262956E+03  0.00000000000E+00 0. -1.
</event>
<event>
 7    1  0.6833760E-006  0.1254867E+03  0.7561462E-02  0.1234311E+00
          1   -1    0    0  501    0  0.00000000000E+00  0.00000000000E+00  0.67446296504E+03  0.67446296504E+03  0.00000000000E+00 0. -1.
         -1   -1    0    0    0  501 -0.00000000000E+00 -0.00000000000E+00 -0.29896290676E+02  0.29896290676E+02  0.00000000000E+00 0.  1.
         23    2    1    2    0    0 -0.64369675337E+02  0.29406473759E+02  0.22739724248E+03  0.26901024504E+03  0.12509520475E+03 0.  0.
          5    1    3    3  502    0 -0.10280499046E+01  0.59990068309E+02  0.16227776288E+03  0.17306475640E+03  0.41800000000E+01 0. -1.
         -5    1    3    3    0  502 -0.63341625433E+02 -0.30583594550E+02  0.65119479591E+02  0.95945488639E+02  0.41800000000E+01 0. -1.
        -11    1    1    2    0    0  0.52883532077E+02 -0.64519082376E+02  0.33543728758E+03  0.34565525290E+03  0.00000000000E+00 0. -1.
         11    1    1    2    0    0  0.11486143260E+02  0.35112608617E+02  0.81732144304E+02  0.89693757773E+02  0.00000000000E+00 0.  1.
</event>
<event>
 6    1  0.6833760E-006  0.1214768E+03  0.7561462E-02  0.1240680E+00
          1   -1    0    0  501    0  0.00000000000E+00  0.00000000000E+00  0.26217718868E+03  0.26217718868E+03  0.00000000000E+00 0. -1.
         -1   -1    0    0    0  501 -0.00000000000E+00 -0.00000000000E+00 -0.80640737776E+02  0.80640737776E+02  0.00000000000E+00 0.  1.
          5    1    1    2  502    0 -0.26149670538E+02 -0.81329186496E+02  0.73090779900E+02  0.11250767241E+03  0.41800000000E+01 0. -1.
         -5    1    1    2    0  502  0.24243970537E+02  0.11257580449E+03  0.14114746249E+01  0.11524125357E+03  0.41800000000E+01 0.  1.
        -11    1    1    2    0    0  0.14040559208E+02 -0.85137908215E+01  0.38828573862E+02  0.42157799814E+02  0.00000000000E+00 0.  1.
         11    1    1    2    0    0 -0.12134859206E+02 -0.22732827168E+02  0.68205622513E+02  0.72911200658E+02  0.00000000000E+00 0. -1.
</event>
<event>
 7    1  0.6833760E-006  0.1046538E+03  0.7561462E-02  0.1270803E+00
          3   -1    0    0  501    0  0.00000000000E+00  0.00000000000E+00  0.50988072931E+02  0.50988072931E+02  0.00000000000E+00 0. -1.
         -3   -1    0    0    0  501 -0.00000000000E+00 -0.00000000000E+00 -0.26347735120E+03  0.26347735120E+03  0.00000000000E+00 0.  1.
         23    2    1    2    0    0 -0.24381320484E+02 -0.28555389038E+02 -0.14712266793E+03  0.19672648090E+03  0.12508545014E+03 0.  0.
          5    1    3    3  502    0 -0.51962928555E+02  0.32345840101E+02 -0.52228175987E+02  0.80570801676E+02  0.41800000000E+01 0. -1.
         -5    1    3    3    0  502  0.27581608071E+02 -0.60901229139E+02 -0.94894491940E+02  0.11615567922E+03  0.41800000000E+01 0. -1.
        -11    1    1    2    0    0  0.31304922708E+02 -0.16499644569E+02  0.30601597887E+01  0.35519023559E+02  0.00000000000E+00 0. -1.
         11    1    1    2    0    0 -0.69236022246E+01  0.45055033607E+02 -0.68426770133E+02  0.82219919679E+02  0.00000000000E+00 0.  1.
</event>
<event>
 7    1  0.6833760E-006  0.1215739E+03  0.7561462E-02  0.1240523E+00
         -2   -1    0    0    0  501 -0.00000000000E+00  0.00000000000E+00  0.33881784694E+02  0.33881784694E+02  0.00000000000E+00 0.  1.
          2   -1    0    0  501    0  0.00000000000E+00 -0.00000000000E+00 -0.54359333390E+03  0.54359333390E+03  0.00000000000E+00 0. -1.
         23    2    1    2    0    0 -0.58726138062E+02  0.46303435367E+02 -0.35016614757E+03  0.37930323958E+03  0.12514731012E+03 0.  0.
          5    1    3    3  502    0 -0.62890421024E+02  0.81194603007E+02 -0.30543993944E+03  0.32227131057E+03  0.41800000000E+01 0. -1.
         -5    1    3    3    0  502  0.41642829617E+01 -0.34891167640E+02 -0.44726208132E+02  0.57031929002E+02  0.41800000000E+01 0. -1.
        -11    1    1    2    0    0 -0.15723660891E+02 -0.21223150744E+02 -0.82089991153E+01  0.27659416223E+02  0.00000000000E+00 0.  1.
         11    1    1    2    0    0  0.74449798953E+02 -0.25080284622E+02 -0.15133640252E+03  0.17051246280E+03  0.00000000000E+00 0. -1.
</event>
<event>
 7    1  0.6833760E-006  0.7024032E+02  0.7561462E-02  0.1359278E+00
          1   -1    0    0  501    0  0.00000000000E+00  0.00000000000E+00  0.21733898946E+02  0.21733898946E+02  0.00000000000E+00 0. -1.
         -1   -1    0    0    0  501 -0.00000000000E+00 -0.00000000000E+00 -0.73736106946E+03  0.73736106946E+03  0.00000000000E+00 0.  1.
         23    2    1    2    0    0  0.16088519171E+02  0.13638269597E+02 -0.58602306377E+03  0.59959757943E+03  0.12509749454E+03 0.  0.
          5    1    3    3  502    0  0.43052529073E+02 -0.67770525846E+01 -0.54276846021E+03  0.54453147063E+03  0.41800000000E+01 0.  1.
         -5    1    3    3    0  502 -0.26964009902E+02  0.20415322181E+02 -0.43254603558E+02  0.55066108804E+02  0.41800000000E+01 0.  1.
        -11    1    1    2    0    0  0.21978585822E+02 -0.10685457204E+02 -0.54578331148E-01  0.24438498505E+02  0.00000000000E+00 0. -1.
         11    1    1    2    0    0 -0.38067104992E+02 -0.29528123924E+01 -0.12954952841E+03  0.13505889047E+03  0.00000000000E+00 0.  1.
</event>
<event>
 7    1  0.6833760E-006  0.1616238E+03  0.7561462E-02  0.1186876E+00
         -2   -1    0    0    0  501 -0.00000000000E+00  0.00000000000E+00  0.70566952830E+02  0.70566952830E+02  0.00000000000E+00 0.  1.
          2   -1    0    0  501    0  0.00000000000E+00 -0.00000000000E+00 -0.50516503836E+03  0.50516503836E+03  0.00000000000E+00 0. -1.
         23    2    1    2    0    0 -0.12263729334E+03  0.92477215988E+02 -0.20104054438E+03  0.28223423396E+03  0.12508765383E+03 0.  0.
          5    1    3    3  502    0 -0.40003215293E+02  0.74424690778E+02 -0.17376462077E+03  0.19326382916E+03  0.41800000000E+01 0.  1.
         -5    1    3    3    0  502 -0.82634078051E+02  0.18052525210E+02 -0.27275923614E+02  0.88970404803E+02  0.41800000000E+01 0.  1.
        -11    1    1    2    0    0  0.93155593881E+02 -0.64380746457E+02 -0.91103222287E+02  0.14533630757E+03  0.00000000000E+00 0.  1.
         11    1    1    2    0    0  0.29481699463E+02 -0.28096469531E+02 -0.14245431887E+03  0.14816144967E+03  0.00000000000E+00 0. -1.
</event>
<event>
 7    1  0.6833760E-006  0.1298979E+03  0.7561462E-02  0.1227607E+00
         -2   -1    0    0    0  501 -0.00000000000E+00  0.00000000000E+00  0.24342968390E+02  0.24342968390E+02  0.00000000000E+00 0.  1.
          2   -1    0    0  501    0  0.00000000000E+00 -0.00000000000E+00 -0.10455072222E+04  0.10455072222E+04  0.00000000000E+00 0. -1.
         23    2    1    2    0    0 -0.32859570306E+02  0.10820610272E+03 -0.45591111758E+03  0.48610045707E+03  0.12510153961E+03 0.  0.
          5    1    3    3  502    0  0.11083951444E+01  0.18937676800E+02  0.84751190141E+00  0.19443631832E+02  0.41800000000E+01 0.  1.
         -5    1    3    3    0  502 -0.33967965451E+02  0.89268425915E+02 -0.45675862948E+03  0.46665682524E+03  0.41800000000E+01 0.  1.
        -11    1    1    2    0    0  0.28864511859E+02 -0.12459652816E+03 -0.47407375503E+03  0.49102278978E+03  0.00000000000E+00 0. -1.
         11    1    1    2    0    0  0.39950584472E+01  0.16390425445E+02 -0.91179381218E+02  0.92726943751E+02  0.00000000000E+00 0.  1.
</event>
<event>
 7    1  0.6833760E-006  0.1304244E+03  0.7561462E-02  0.1226827E+00
          1   -1    0    0  501    0  0.00000000000E+00  0.00000000000E+00  0.62374828852E+02  0.62374828852E+02  0.00000000000E+00 0. -1.
         -1   -1    0    0    0  501 -0.00000000000E+00 -0.00000000000E+00 -0.34266785764E+03  0.34266785764E+03  0.00000000000E+00 0.  1.
         23    2    1    2    0    0 -0.44780820419E+02  0.77009856882E+02 -0.20797847794E+03  0.25853059732E+03  0.12508869865E+03 0.  0.
          5    1    3    3  502    0 -0.12655158599E+01  0.10036524534E+03 -0.11160885264E+03  0.15016255322E+03  0.41800000000E+01 0.  1.
         -5    1    3    3    0  502 -0.43515304559E+02 -0.23355388459E+02 -0.96369625301E+02  0.10836804410E+03  0.41800000000E+01 0.  1.
        -11    1    1    2    0    0  0.36233292627E+02 -0.30372090123E+01 -0.61250319468E+02  0.71229753391E+02  0.00000000000E+00 0.  1.
         11    1    1    2    0    0  0.85475277922E+01 -0.73972647869E+02 -0.11064231377E+02  0.75282335778E+02  0.00000000000E+00 0. -1.
</event>
<event>
 7    1  0.6833760E-006  0.1128788E+03  0.7561462E-02  0.1255330E+00
          1   -1    0    0  501    0  0.00000000000E+00  0.00000000000E+00  0.44986256641E+03  0.44986256641E+03  0.00000000000E+00 0. -1.
         -1   -1    0    0    0  501 -0.00000000000E+00 -0.00000000000E+00 -0.39153462795E+02  0.39153462795E+02  0.00000000000E+00 0.  1.
         23    2    1    2    0    0 -0.46662138836E+02  0.50374698429E+02  0.16179057351E+03  0.21572389522E+03  0.12508254814E+03 0.  0.
          5    1    3    3  502    0  0.38359180142E+02  0.10869187779E+02  0.17824055123E+02  0.43871805128E+02  0.41800000000E+01 0.  1.
         -5    1    3    3    0  502 -0.85021318978E+02  0.39505510650E+02  0.14396651838E+03  0.17185209009E+03  0.41800000000E+01 0.  1.
        -11    1    1    2    0    0  0.71702122380E+01  0.14328357365E+02  0.34550754280E+01  0.16390586156E+02  0.00000000000E+00 0.  1.
         11    1    1    2    0    0  0.39491926598E+02 -0.64703055794E+02  0.24546345468E+03  0.25690154783E+03  0.00000000000E+00 0. -1.
</event>
<event>
 7    1  0.6833760E-006  0.1137724E+03  0.7561462E-02  0.1253739E+00
         -1   -1    0    0    0  501 -0.00000000000E+00  0.00000000000E+00  0.25168698837E+03  0.25168698837E+03  0.00000000000E+00 0.  1.
          1   -1    0    0  501    0  0.00000000000E+00 -0.00000000000E+00 -0.97684820799E+02  0.97684820799E+02  0.00000000000E+00 0. -1.
         23    2    1    2    0    0 -0.60527123300E+02  0.82975631507E+02  0.13638953651E+03  0.21165608108E+03  0.12509077867E+03 0.  0.
          5    1    3    3  502    0 -0.54165822440E+02  0.57275399041E+02  0.15839460620E+03  0.17697664063E+03  0.41800000000E+01 0. -1.
         -5    1    3    3    0  502 -0.63613008605E+01  0.25700232466E+02 -0.22005069691E+02  0.34679440444E+02  0.41800000000E+01 0. -1.
        -11    1    1    2    0    0  0.65359931112E+02 -0.36084498870E+02  0.40910350981E+02  0.85133239519E+02  0.00000000000E+00 0.  1.
         11    1    1    2    0    0 -0.48328078122E+01 -0.46891132637E+02 -0.23297719918E+02  0.52582488575E+02  0.00000000000E+00 0. -1.
</event>
<event>
 7    1  0.6833760E-006  0.1113284E+03  0.7561462E-02  0.1258130E+00
         -1   -1    0    0    0  501 -0.00000000000E+00  0.00000000000E+00  0.34627102083E+03  0.34627102083E+03  0.00000000000E+00 0.  1.
          1   -1    0    0  501    0  0.00000000000E+00 -0.00000000000E+00 -0.42194916349E+02  0.42194916349E+02  0.00000000000E+00 0. -1.
         23    2    1    2    0    0  0.13274955400E+02  0.34462232477E+02  0.23065775305E+03  0.26498120233E+03  0.12509264021E+03 0.  0.
          5    1    3    3  502    0 -0.22105860068E+02 -0.37206097337E+02  0.12558289438E+03  0.13289657065E+03  0.41800000000E+01 0.  1.
         -5    1    3    3    0  502  0.35380815468E+02  0.71668329814E+02  0.10507485867E+03  0.13208463168E+03  0.41800000000E+01 0.  1.
        -11    1    1    2    0    0  0.27187306780E+02 -0.49091287769E+02  0.38223219863E+02  0.67897855058E+02  0.00000000000E+00 0.  1.
         11    1    1    2    0    0 -0.40462262180E+02  0.14629055292E+02  0.35195131570E+02  0.55586879798E+02  0.00000000000E+00 0. -1.
</event>
<event>
 7    1  0.6833760E-006  0.1267608E+03  0.7561462E-02  0.1232343E+00
         -1   -1    0    0    0  501 -0.00000000000E+00  0.00000000000E+00  0.27554137224E+03  0.27554137224E+03  0.00000000000E+00 0.  1.
          1   -1    0    0  501    0  0.00000000000E+00 -0.00000000000E+00 -0.76323707868E+02  0.76323707868E+02  0.00000000000E+00 0. -1.
         23    2    1    2    0    0 -0.85298098394E+02  0.14707128101E+02  0.16117416649E+03  0.22162493679E+03  0.12509370670E+03 0.  0.
          5    1    3    3  502    0  0.16512308347E+02  0.24008218608E+02  0.95759506274E+02  0.10018186627E+03  0.41800000000E+01 0.  1.
         -5    1    3    3    0  502 -0.10181040674E+03 -0.93010905069E+01  0.65414660221E+02  0.12144307052E+03  0.41800000000E+01 0.  1.
        -11    1    1    2    0    0  0.73480068964E+02  0.27101117738E+02  0.37396738779E+02  0.86788865581E+02  0.00000000000E+00 0. -1.
         11    1    1    2    0    0  0.11818029430E+02 -0.41808245839E+02  0.64675910073E+00  0.43451277738E+02  0.00000000000E+00 0.  1.
</event>
<event>
 7    1  0.6833760E-006  0.9108397E+02  0.7561462E-02  0.1300248E+00
         -2   -1    0    0    0  501 -0.00000000000E+00  0.00000000000E+00  0.26625919691E+02  0.26625919691E+02  0.00000000000E+00 0.  1.
          2   -1    0    0  501    0  0.00000000000E+00 -0.00000000000E+00 -0.51194224664E+03  0.51194224664E+03  0.00000000000E+00 0. -1.
         23    2    1    2    0    0  0.24570449077E+02  0.22701118014E+02 -0.20274864607E+03  0.24057313092E+03  0.12509744246E+03 0.  0.
          5    1    3    3  502    0  0.30742904385E+02 -0.27082238360E+02 -0.11425501009E+02  0.42738604071E+02  0.41800000000E+01 0. -1.
         -5    1    3    3    0  502 -0.61724553084E+01  0.49783356374E+02 -0.19132314506E+03  0.19783452685E+03  0.41800000000E+01 0. -1.
        -11    1    1    2    0    0  0.31589935394E+02 -0.76030860184E+01 -0.14580597895E+03  0.14938244352E+03  0.00000000000E+00 0.  1.
         11    1    1    2    0    0 -0.56160384471E+02 -0.15098031995E+02 -0.13676170193E+03  0.14861259189E+03  0.00000000000E+00 0. -1.
</event>
<event>
 7    1  0.1138787E-005  0.2225368E+03  0.7561462E-02  0.1132006E+00
         -1   -1    0    0    0  501 -0.00000000000E+00  0.00000000000E+00  0.54399017177E+03  0.54399017177E+03  0.00000000000E+00 0.  1.
          1   -1    0    0  501    0  0.00000000000E+00 -0.00000000000E+00 -0.12160903441E+03  0.12160903441E+03  0.00000000000E+00 0. -1.
         23    2    1    2    0    0 -0.14815292444E+03 -0.16019960497E+03  0.32165358980E+03  0.40831594869E+03  0.12509068579E+03 0.  0.
          5    1    3    3  502    0 -0.22402002178E+02 -0.56828667189E+02  0.18778562020E+03  0.19751521124E+03  0.41800000000E+01 0.  1.
         -5    1    3    3    0  502 -0.12575092226E+03 -0.10337093778E+03  0.13386796960E+03  0.21080073746E+03  0.41800000000E+01 0.  1.
        -11    1    1    2    0    0  0.61680117246E+02  0.42280320504E+02  0.80144948688E+02  0.10961421060E+03  0.00000000000E+00 0.  1.
         11    1    1    2    0    0  0.86472807190E+02  0.11791928446E+03  0.20582598870E+02  0.14766904689E+03  0.00000000000E+00 0. -1.
</event>
<event>
 6    1  0.6833760E-006  0.6271021E+02  0.7561462E-02  0.1386798E+00
          2   -1    0    0  501    0  0.00000000000E+00  0.00000000000E+00  0.33123893399E+03  0.33123893399E+03  0.00000000000E+00 0. -1.
         -2   -1    0    0    0  501 -0.00000000000E+00 -0.00000000000E+00 -0.63883128384E+02  0.63883128384E+02  0.00000000000E+00 0.  1.
          5    1    1    2  502    0 -0.62121330656E+01  0.25864632812E+02  0.16310752987E+03  0.16531517937E+03  0.41800000000E+01 0. -1.
         -5    1    1    2    0  502 -0.37622375717E+01 -0.77486002727E+01 -0.48906704202E+02  0.49835061489E+02  0.41800000000E+01 0.  1.
        -11    1    1    2    0    0  0.15906106692E+02 -0.52073083881E+02  0.61986878798E+02  0.82504444959E+02  0.00000000000E+00 0.  1.
         11    1    1    2    0    0 -0.59317360549E+01  0.33957051341E+02  0.91168101137E+02  0.97467376559E+02  0.00000000000E+00 0. -1.
</event>
<event>
 7    1  0.6833760E-006  0.1755157E+03  0.7561462E-02  0.1172215E+00
          1   -1    0    0  501    0  0.00000000000E+00  0.00000000000E+00  0.90358902091E+03  0.90358902091E+03  0.00000000000E+00 0. -1.
         -1   -1    0    0    0  501 -0.00000000000E+00 -0.00000000000E+00 -0.40630615187E+02  0.40630615187E+02  0.00000000000E+00 0.  1.
         23    2    1    2    0    0 -0.49602458203E+02  0.14808402531E+03  0.39073488626E+03  0.43899184582E+03  0.12510318519E+03 0.  0.
          5    1    3    3  502    0 -0.67041735546E+02  0.10359805222E+03  0.15368861154E+03  0.19714160506E+03  0.41800000000E+01 0. -1.
         -5    1    3    3    0  502  0.17439277344E+02  0.44485973085E+02  0.23704627472E+03  0.24185024076E+03  0.41800000000E+01 0. -1.
        -11    1    1    2    0    0  0.47898525197E+02 -0.20663200076E+02  0.13995477899E+03  0.14936055944E+03  0.00000000000E+00 0. -1.
         11    1    1    2    0    0  0.17039330055E+01 -0.12742082523E+03  0.33226874047E+03  0.35586723084E+03  0.00000000000E+00 0.  1.
</event>
<event>
 7    1  0.6833760E-006  0.7112033E+02  0.7561462E-02  0.1356324E+00
         -2   -1    0    0    0  501 -0.00000000000E+00  0.00000000000E+00  0.64812402816E+03  0.64812402816E+03  0.00000000000E+00 0.  1.
          2   -1    0    0  501    0  0.00000000000E+00 -0.00000000000E+00 -0.18392086478E+02  0.18392086478E+02  0.00000000000E+00 0. -1.
         23    2    1    2    0    0  0.35905086218E+01 -0.17688534191E+02  0.41527771981E+03  0.43408294433E+03  0.12508653801E+03 0.  0.
          5    1    3    3  502    0 -0.25056429993E+02  0.13418526294E+02  0.16667097630E+02  0.33213642910E+02  0.41800000000E+01 0.  1.
         -5    1    3    3    0  502  0.28646938615E+02 -0.31107060485E+02  0.39861062218E+03  0.40086930142E+03  0.41800000000E+01 0.  1.
        -11    1    1    2    0    0 -0.35718653463E+02  0.34805983186E+01  0.17885246337E+03  0.18241748936E+03  0.00000000000E+00 0.  1.
         11    1    1    2    0    0  0.32128144842E+02  0.14207935873E+02  0.35601758498E+02  0.50015680950E+02  0.00000000000E+00 0. -1.
</event>
<event>
 7    1  0.6833760E-006  0.1445567E+03  0.7561462E-02  0.1207326E+00
          2   -1    0    0  501    0  0.00000000000E+00  0.00000000000E+00  0.75997002321E+02  0.75997002321E+02  0.00000000000E+00 0. -1.
         -2   -1    0    0    0  501 -0.00000000000E+00 -0.00000000000E+00 -0.32700507593E+03  0.32700507593E+03  0.00000000000E+00 0.  1.
         23    2    1    2    0    0 -0.32550335346E+02 -0.10650780986E+03 -0.10331861514E+03  0.19678719052E+03  0.12508806589E+03 0.  0.
          5    1    3    3  502    0 -0.54563218683E+02 -0.11926449575E+03 -0.10876375733E+03  0.17043530176E+03  0.41800000000E+01 0.  1.
         -5    1    3    3    0  502  0.22012883338E+02  0.12756685891E+02  0.54451421924E+01  0.26351888761E+02  0.41800000000E+01 0.  1.
        -11    1    1    2    0    0 -0.38826681322E+01  0.93264365265E+02 -0.61706752739E+02  0.11189745428E+03  0.00000000000E+00 0. -1.
         11    1    1    2    0    0  0.36433003478E+02  0.13243444592E+02 -0.85982705732E+02  0.94317433447E+02  0.00000000000E+00 0.  1.
</event>
<event>
 7    1  0.6833760E-006  0.1596987E+03  0.7561462E-02  0.1189037E+00
         -1   -1    0    0    0  501 -0.00000000000E+00  0.00000000000E+00  0.38923856863E+02  0.38923856863E+02  0.00000000000E+00 0.  1.
          1   -1    0    0  501    0  0.00000000000E+00 -0.00000000000E+00 -0.76339550740E+03  0.76339550740E+03  0.00000000000E+00 0. -1.
         23    2    1    2    0    0  0.12121768544E+03 -0.54793984125E+02 -0.39639979763E+03  0.43643611451E+03  0.12509026553E+03 0.  0.
          5    1    3    3  502    0 -0.94575732050E+01 -0.34409749152E+02 -0.29775884283E+02  0.46664249833E+02  0.41800000000E+01 0.  1.
         -5    1    3    3    0  502  0.13067525864E+03 -0.20384234973E+02 -0.36662391335E+03  0.38977186468E+03  0.41800000000E+01 0.  1.
        -11    1    1    2    0    0 -0.10772093220E+03  0.14549954662E+02 -0.16659460539E+03  0.19892024271E+03  0.00000000000E+00 0. -1.
         11    1    1    2    0    0 -0.13496753241E+02  0.40244029463E+02 -0.16147724752E+03  0.16696300705E+03  0.00000000000E+00 0.  1.
</event>
<event>
 7    1  0.6833760E-006  0.1351878E+03  0.7561462E-02  0.1219955E+00
          1   -1    0    0  501    0  0.00000000000E+00  0.00000000000E+00  0.64942998804E+02  0.64942998804E+02  0.00000000000E+00 0. -1.
         -1   -1    0    0    0  501 -0.00000000000E+00 -0.00000000000E+00 -0.37530225787E+03  0.37530225787E+03  0.00000000000E+00 0.  1.
         23    2    1    2    0    0  0.40570194630E+02  0.10056299602E+03 -0.19810117003E+03  0.25816624629E+03  0.12508749055E+03 0.  0.
          5    1    3    3  502    0  0.52307711642E+02 -0.76319207514E+01 -0.91580574260E+02  0.10582446264E+03  0.41800000000E+01 0.  1.
         -5    1    3    3    0  502 -0.11737517012E+02  0.10819491677E+03 -0.10652059577E+03  0.15234178365E+03  0.41800000000E+01 0.  1.
        -11    1    1    2    0    0 -0.26132554283E+02 -0.65285314572E+02 -0.76423499854E+01  0.70735339155E+02  0.00000000000E+00 0. -1.
         11    1    1    2    0    0 -0.14437640347E+02 -0.35277681446E+02 -0.10461573905E+03  0.11134367123E+03  0.00000000000E+00 0.  1.
</event>
<event>
 7    1  0.6833760E-006  0.1069749E+03  0.7561462E-02  0.1266277E+00
          2   -1    0    0  501    0  0.00000000000E+00  0.00000000000E+00  0.18956225282E+03  0.18956225282E+03  0.00000000000E+00 0. -1.
         -2   -1    0    0    0  501 -0.00000000000E+00 -0.00000000000E+00 -0.88931019836E+02  0.88931019836E+02  0.00000000000E+00 0.  1.
         23    2    1    2    0    0 -0.38463588383E+02 -0.13279286678E+02 -0.71224812195E+01  0.13173588061E+03  0.12509126834E+03 0.  0.
          5    1    3    3  502    0 -0.27931540915E+02  0.52790598169E+02 -0.20684887960E+02  0.63343154507E+02  0.41800000000E+01 0.  1.
         -5    1    3    3    0  502 -0.10532047467E+02 -0.66069884848E+02  0.13562406740E+02  0.68392726106E+02  0.41800000000E+01 0.  1.
        -11    1    1    2    0    0 -0.22624940026E+02  0.12716138120E+02  0.38678835520E+01  0.26240209661E+02  0.00000000000E+00 0.  1.
         11    1    1    2    0    0  0.61088528409E+02  0.56314855852E+00  0.10388583065E+03  0.12051718239E+03  0.00000000000E+00 0. -1.
</event>
<event>
 7    1  0.6833760E-006  0.1036050E+03  0.7561462E-02  0.1272893E+00
         -1   -1    0    0    0  501 -0.00000000000E+00  0.00000000000E+00  0.12394390754E+03  0.12394390754E+03  0.00000000000E+00 0.  1.
          1   -1    0    0  501    0  0.00000000000E+00 -0.00000000000E+00 -0.13243053450E+03  0.13243053450E+03  0.00000000000E+00 0. -1.
         23    2    1    2    0    0 -0.65787244709E+02 -0.17195253849E+02 -0.27996009559E+01  0.14242116811E+03  0.12510920445E+03 0.  0.
          5    1    3    3  502    0 -0.89515294222E+02 -0.45450623293E+02  0.14385238587E+02  0.10150445580E+03  0.41800000000E+01 0.  1.
         -5    1    3    3    0  502  0.23728049513E+02  0.28255369444E+02 -0.17184839543E+02  0.40916712310E+02  0.41800000000E+01 0.  1.
        -11    1    1    2    0    0  0.42430187360E+02  0.36266283966E+01  0.41576414375E+02  0.59515304462E+02  0.00000000000E+00 0.  1.
         11    1    1    2    0    0  0.23357057348E+02  0.13568625453E+02 -0.47263440378E+02  0.54437969479E+02  0.00000000000E+00 0. -1.
</event>
<event>
 7    1  0.6833760E-006  0.8372904E+02  0.7561462E-02  0.1318790E+00
         -2   -1    0    0    0  501 -0.00000000000E+00  0.00000000000E+00  0.23370632370E+03  0.23370632370E+03  0.00000000000E+00 0.  1.
          2   -1    0    0  501    0  0.00000000000E+00 -0.00000000000E+00 -0.53512878827E+02  0.53512878827E+02  0.00000000000E+00 0. -1.
         23    2    1    2    0    0  0.13067009486E+02  0.26448734802E+02  0.15126921748E+03  0.19028336044E+03  0.11160241392E+03 0.  0.
          5    1    3    3  502    0  0.30002972539E+02 -0.13266808258E+02  0.15954153737E+00  0.33070899837E+02  0.41800000000E+01 0. -1.
         -5    1    3    3    0  502 -0.16935963053E+02  0.39715543060E+02  0.15110967594E+03  0.15721246060E+03  0.41800000000E+01 0.  1.
        -11    1    1    2    0    0 -0.44585406915E+02  0.69084876607E+01  0.56220868718E+01  0.45466400477E+02  0.00000000000E+00 0.  1.
         11    1    1    2    0    0  0.31518397429E+02 -0.33357222463E+02  0.23302140523E+02  0.51469441612E+02  0.00000000000E+00 0. -1.
</event>
<event>
 7    1  0.6833760E-006  0.1184276E+03  0.7561462E-02  0.1245714E+00
         -2   -1    0    0    0  501 -0.00000000000E+00  0.00000000000E+00  0.13260569630E+03  0.13260569630E+03  0.00000000000E+00 0. -1.
          2   -1    0    0  501    0  0.00000000000E+00 -0.00000000000E+00 -0.10807608489E+03  0.10807608489E+03  0.00000000000E+00 0.  1.
         23    2    1    2    0    0 -0.22947087419E+01 -0.49807541692E+02  0.24962210821E+02  0.13692806888E+03  0.12506049408E+03 0.  0.
          5    1    3    3  502    0 -0.34051014007E+02 -0.82158491643E+02  0.14348513576E+02  0.90182268466E+02  0.41800000000E+01 0.  1.
         -5    1    3    3    0  502  0.31756305265E+02  0.32350949950E+02  0.10613697245E+02  0.46745800410E+02  0.41800000000E+01 0.  1.
        -11    1    1    2    0    0  0.28278307912E+02 -0.15331247817E+02 -0.81980377837E+01  0.33195145450E+02  0.00000000000E+00 0. -1.
         11    1    1    2    0    0 -0.25983599170E+02  0.65138789509E+02  0.77654383685E+01  0.70558566862E+02  0.00000000000E+00 0.  1.
</event>
<event>
 7    1  0.6833760E-006  0.2847423E+03  0.7561462E-02  0.1093127E+00
          1   -1    0    0  501    0  0.00000000000E+00  0.00000000000E+00  0.86130815691E+03  0.86130815691E+03  0.00000000000E+00 0. -1.
         -1   -1    0    0    0  501 -0.00000000000E+00 -0.00000000000E+00 -0.19667726627E+03  0.19667726627E+03  0.00000000000E+00 0.  1.
         23    2    1    2    0    0 -0.25320641805E+03  0.94513658351E+02 -0.36800722630E+02  0.30007856117E+03  0.12508608208E+03 0.  0.
          5    1    3    3  502    0 -0.27096749932E+02  0.59548653348E+02 -0.27392357616E+02  0.71049909417E+02  0.41800000000E+01 0.  1.
         -5    1    3    3    0  502 -0.22610966812E+03  0.34965005003E+02 -0.94083650144E+01  0.22902865175E+03  0.41800000000E+01 0.  1.
        -11    1    1    2    0    0  0.95701549834E+02 -0.62684055941E+02  0.40349170872E+03  0.41939675311E+03  0.00000000000E+00 0. -1.
         11    1    1    2    0    0  0.15750486822E+03 -0.31829602410E+02  0.29793990455E+03  0.33851010890E+03  0.00000000000E+00 0.  1.
</event>
<event>
 6    1  0.6833760E-006  0.1095840E+03  0.7561462E-02  0.1261342E+00
         -2   -1    0    0    0  501 -0.00000000000E+00  0.00000000000E+00  0.24545138115E+02  0.24545138115E+02  0.00000000000E+00 0.  1.
          2   -1    0    0  501    0  0.00000000000E+00 -0.00000000000E+00 -0.62294985797E+03  0.62294985797E+03  0.00000000000E+00 0. -1.
          5    1    1    2  502    0  0.22809206920E+02  0.51225808942E+02 -0.25643075398E+03  0.26252342259E+03  0.41800000000E+01 0. -1.
         -5    1    1    2    0  502 -0.25392202429E+02 -0.64588248261E+02 -0.76337456189E+02  0.10325350055E+03  0.41800000000E+01 0.  1.
        -11    1    1    2    0    0 -0.26020658911E+02 -0.31096060705E+02 -0.10243532836E+03  0.11016821764E+03  0.00000000000E+00 0.  1.
         11    1    1    2    0    0  0.28603654420E+02  0.44458500024E+02 -0.16320118132E+03  0.17154985530E+03  0.00000000000E+00 0. -1.
</event>
<event>
 7    1  0.6833760E-006  0.7184440E+02  0.7561462E-02  0.1353931E+00
         -1   -1    0    0    0  501 -0.00000000000E+00  0.00000000000E+00  0.28070882835E+02  0.28070882835E+02  0.00000000000E+00 0.  1.
          1   -1    0    0  501    0  0.00000000000E+00 -0.00000000000E+00 -0.49400034706E+03  0.49400034706E+03  0.00000000000E+00 0. -1.
         23    2    1    2    0    0  0.41410933107E+02  0.13314719510E+02 -0.28624858777E+03  0.31539477709E+03  0.12507383531E+03 0.  0.
          5    1    3    3  502    0  0.54456011381E+02 -0.71204459354E+01 -0.40370921207E+02  0.68289395991E+02  0.41800000000E+01 0.  1.
         -5    1    3    3    0  502 -0.13045078273E+02  0.20435165445E+02 -0.24587766656E+03  0.24710538110E+03  0.41800000000E+01 0.  1.
        -11    1    1    2    0    0 -0.51324113351E+02 -0.59679837377E+01 -0.18583755056E+03  0.19288695300E+03  0.00000000000E+00 0. -1.
         11    1    1    2    0    0  0.99131802434E+01 -0.73467357719E+01  0.61566740954E+01  0.13789499808E+02  0.00000000000E+00 0.  1.
</event>
<event>
 7    1  0.6833760E-006  0.1319164E+03  0.7561462E-02  0.1224639E+00
          2   -1    0    0  501    0  0.00000000000E+00  0.00000000000E+00  0.38284925017E+03  0.38284925017E+03  0.00000000000E+00 0. -1.
         -2   -1    0    0    0  501 -0.00000000000E+00 -0.00000000000E+00 -0.85423578289E+02  0.85423578289E+02  0.00000000000E+00 0.  1.
         23    2    1    2    0    0 -0.77360561377E+02  0.59016533303E+02  0.19093485361E+02  0.15962517329E+03  0.12509207452E+03 0.  0.
          5    1    3    3  502    0 -0.43414924288E+02  0.81663340376E+02 -0.28428952628E+02  0.96847480916E+02  0.41800000000E+01 0. -1.
         -5    1    3    3    0  502 -0.33945637089E+02 -0.22646807073E+02  0.47522437989E+02  0.62777692379E+02  0.41800000000E+01 0. -1.
        -11    1    1    2    0    0  0.22288817938E+02  0.22620040646E+02  0.42277076777E+02  0.52875408884E+02  0.00000000000E+00 0.  1.
         11    1    1    2    0    0  0.55071743439E+02 -0.81636573949E+02  0.23605510974E+03  0.25577224628E+03  0.00000000000E+00 0. -1.
</event>
<event>
 7    1  0.6833760E-006  0.2113257E+03  0.7561462E-02  0.1140520E+00
          2   -1    0    0  501    0  0.00000000000E+00  0.00000000000E+00  0.46797166322E+02  0.46797166322E+02  0.00000000000E+00 0. -1.
         -2   -1    0    0    0  501 -0.00000000000E+00 -0.00000000000E+00 -0.14724505909E+04  0.14724505909E+04  0.00000000000E+00 0.  1.
         23    2    1    2    0    0  0.32277438293E+02 -0.18919524743E+03 -0.11507830780E+04  0.11721609521E+04  0.11323837905E+03 0.  0.
          5    1    3    3  502    0  0.56849408687E+02 -0.40145763222E+02 -0.44011707198E+03  0.44560525920E+03  0.41800000000E+01 0. -1.
         -5    1    3    3    0  502 -0.24571970394E+02 -0.14904948421E+03 -0.71066600597E+03  0.72655569292E+03  0.41800000000E+01 0.  1.
        -11    1    1    2    0    0 -0.48551294010E+02  0.16921384909E+03 -0.26759644493E+03  0.32030986906E+03  0.00000000000E+00 0. -1.
         11    1    1    2    0    0  0.16273855717E+02  0.19981398336E+02 -0.72739017180E+01  0.26776936075E+02  0.00000000000E+00 0.  1.
</event>
<event>
 7    1  0.7737145E-006  0.9317279E+02  0.7561462E-02  0.1295345E+00
          1   -1    0    0  501    0  0.00000000000E+00  0.00000000000E+00  0.88576806963E+02  0.88576806963E+02  0.00000000000E+00 0. -1.
         -1   -1    0    0    0  501 -0.00000000000E+00 -0.00000000000E+00 -0.13417907839E+03  0.13417907839E+03  0.00000000000E+00 0.  1.
         23    2    1    2    0    0 -0.75210593393E+01  0.11978715127E+02 -0.24844346168E+02  0.12831421125E+03  0.12508892566E+03 0.  0.
          5    1    3    3  502    0  0.75746061383E+01  0.57976195318E+02 -0.46784530941E+02  0.74999190776E+02  0.41800000000E+01 0.  1.
         -5    1    3    3    0  502 -0.15095665478E+02 -0.45997480191E+02  0.21940184773E+02  0.53315020473E+02  0.41800000000E+01 0.  1.
        -11    1    1    2    0    0  0.42872644750E+02 -0.65797925561E+01 -0.35213534639E+02  0.55869046526E+02  0.00000000000E+00 0.  1.
         11    1    1    2    0    0 -0.35351585411E+02 -0.53989225706E+01  0.14455609378E+02  0.38572627581E+02  0.00000000000E+00 0. -1.
</event>
<event>
 7    1  0.6833760E-006  0.1404191E+03  0.7561462E-02  0.1212766E+00
         -2   -1    0    0    0  501 -0.00000000000E+00  0.00000000000E+00  0.68302694253E+02  0.68302694253E+02  0.00000000000E+00 0.  1.
          2   -1    0    0  501    0  0.00000000000E+00 -0.00000000000E+00 -0.40932944175E+03  0.40932944175E+03  0.00000000000E+00 0. -1.
         23    2    1    2    0    0 -0.11720897792E+03 -0.13942515894E+02 -0.11742502673E+03  0.20825891179E+03  0.12510315416E+03 0.  0.
          5    1    3    3  502    0 -0.10122761030E+03 -0.56337722224E+02 -0.48479447130E+02  0.12565308284E+03  0.41800000000E+01 0.  1.
         -5    1    3    3    0  502 -0.15981367624E+02  0.42395206330E+02 -0.68945579596E+02  0.82605828951E+02  0.41800000000E+01 0.  1.
        -11    1    1    2    0    0  0.91099288114E+02  0.31266128377E+01 -0.22321478176E+03  0.24110930053E+03  0.00000000000E+00 0. -1.
         11    1    1    2    0    0  0.26109689808E+02  0.10815903056E+02 -0.38693901129E+00  0.28263923694E+02  0.00000000000E+00 0.  1.
</event>
<event>
 7    1  0.6833760E-006  0.1094998E+03  0.7561462E-02  0.1261499E+00
          1   -1    0    0  501    0  0.00000000000E+00  0.00000000000E+00  0.27870801826E+03  0.27870801826E+03  0.00000000000E+00 0. -1.
         -1   -1    0    0    0  501 -0.00000000000E+00 -0.00000000000E+00 -0.97017744070E+02  0.97017744070E+02  0.00000000000E+00 0.  1.
         23    2    1    2    0    0 -0.50562861213E+02  0.73462987782E+02  0.10340528717E+01  0.15362891771E+03  0.12508941436E+03 0.  0.
          5    1    3    3  502    0 -0.42564652600E+02  0.30736752657E+02 -0.59195424174E+02  0.79234261894E+02  0.41800000000E+01 0.  1.
         -5    1    3    3    0  502 -0.79982086130E+01  0.42726235125E+02  0.60229477045E+02  0.74394655817E+02  0.41800000000E+01 0.  1.
        -11    1    1    2    0    0  0.44651411251E+02  0.41321822892E+01  0.10213673270E+03  0.11154701082E+03  0.00000000000E+00 0. -1.
         11    1    1    2    0    0  0.59114499614E+01 -0.77595170072E+02  0.78519488622E+02  0.11054983380E+03  0.00000000000E+00 0.  1.
</event>
<event>
 7    1  0.6833760E-006  0.1469401E+03  0.7561462E-02  0.1204284E+00
         -1   -1    0    0    0  501 -0.00000000000E+00  0.00000000000E+00  0.26176164712E+03  0.26176164712E+03  0.00000000000E+00 0.  1.
          1   -1    0    0  501    0  0.00000000000E+00 -0.00000000000E+00 -0.11787608295E+03  0.11787608295E+03  0.00000000000E+00 0. -1.
         23    2    1    2    0    0  0.12265928841E+03 -0.30557022510E+02  0.11641384125E+02  0.17822016366E+03  0.12509145556E+03 0.  0.
          5    1    3    3  502    0  0.36377174319E+02 -0.63639268174E+02 -0.26647160839E+02  0.78107610679E+02  0.41800000000E+01 0. -1.
         -5    1    3    3    0  502  0.86282114087E+02  0.33082245665E+02  0.38288544964E+02  0.10011255298E+03  0.41800000000E+01 0. -1.
        -11    1    1    2    0    0 -0.48047031196E+02  0.22038383830E+02  0.11167637179E+03  0.12355492538E+03  0.00000000000E+00 0.  1.
         11    1    1    2    0    0 -0.74612257210E+02  0.85186386796E+01  0.20567808256E+02  0.77862641025E+02  0.00000000000E+00 0. -1.
</event>
<event>
 7    1  0.6833760E-006  0.1453325E+03  0.7561462E-02  0.1206329E+00
         -1   -1    0    0    0  501 -0.00000000000E+00  0.00000000000E+00  0.99625348626E+02  0.99625348626E+02  0.00000000000E+00 0.  1.
          1   -1    0    0  501    0  0.00000000000E+00 -0.00000000000E+00 -0.33085523128E+03  0.33085523128E+03  0.00000000000E+00 0. -1.
         23    2    1    2    0    0 -0.12842485578E+03  0.65867157243E+02 -0.11338589691E+03  0.22211357663E+03  0.12508658329E+03 0.  0.
          5    1    3    3  502    0 -0.24200425492E+02  0.21042920706E+02 -0.10317354957E+03  0.10812362756E+03  0.41800000000E+01 0. -1.
         -5    1    3    3    0  502 -0.10422443029E+03  0.44824236537E+02 -0.10212347338E+02  0.11398994907E+03  0.41800000000E+01 0. -1.
        -11    1    1    2    0    0  0.75964010334E+02 -0.45289464533E+02 -0.12331402137E+03  0.15174984128E+03  0.00000000000E+00 0. -1.
         11    1    1    2    0    0  0.52460845447E+02 -0.20577692710E+02  0.54700356253E+01  0.56617161992E+02  0.00000000000E+00 0.  1.
</event>
<event>
 7    1  0.6833760E-006  0.8838504E+02  0.7561462E-02  0.1306810E+00
         -2   -1    0    0    0  501 -0.00000000000E+00  0.00000000000E+00  0.44995621230E+02  0.44995621230E+02  0.00000000000E+00 0.  1.
          2   -1    0    0  501    0  0.00000000000E+00 -0.00000000000E+00 -0.32153914029E+03  0.32153914029E+03  0.00000000000E+00 0. -1.
         23    2    1    2    0    0  0.12646673248E+02  0.52296302296E+02 -0.16385657466E+03  0.21305353970E+03  0.12509193476E+03 0.  0.
          5    1    3    3  502    0  0.63540872918E+00 -0.24678884973E+02 -0.12194699067E+03  0.12449093156E+03  0.41800000000E+01 0. -1.
         -5    1    3    3    0  502  0.12011264519E+02  0.76975187269E+02 -0.41909583989E+02  0.88562608140E+02  0.41800000000E+01 0. -1.
        -11    1    1    2    0    0  0.14118744669E+02 -0.43192637118E+02 -0.94114020578E+01  0.46406005441E+02  0.00000000000E+00 0.  1.
         11    1    1    2    0    0 -0.26765417917E+02 -0.91036651773E+01 -0.10327554235E+03  0.10707521638E+03  0.00000000000E+00 0. -1.
</event>
<event>
 7    1  0.6833760E-006  0.1150885E+03  0.7561462E-02  0.1251427E+00
         -1   -1    0    0    0  501 -0.00000000000E+00  0.00000000000E+00  0.49725645303E+02  0.49725645303E+02  0.00000000000E+00 0.  1.
          1   -1    0    0  501    0  0.00000000000E+00 -0.00000000000E+00 -0.36714415952E+03  0.36714415952E+03  0.00000000000E+00 0. -1.
         23    2    1    2    0    0  0.76466698887E+02  0.86275592839E+01 -0.14947213967E+03  0.20955051225E+03  0.12509158976E+03 0.  0.
          5    1    3    3  502    0  0.10390057615E+03  0.23524012778E+02 -0.14130644908E+03  0.17701325897E+03  0.41800000000E+01 0. -1.
         -5    1    3    3    0  502 -0.27433877259E+02 -0.14896453494E+02 -0.81656905943E+01  0.32537253281E+02  0.41800000000E+01 0. -1.
        -11    1    1    2    0    0 -0.16617674676E+02 -0.25001423627E+02 -0.19251019528E+01  0.30081959919E+02  0.00000000000E+00 0.  1.
         11    1    1    2    0    0 -0.59849024211E+02  0.16373864344E+02 -0.16602127259E+03  0.17723733265E+03  0.00000000000E+00 0. -1.
</event>
<event>
 7    1  0.6833760E-006  0.9034536E+02  0.7561462E-02  0.1302018E+00
          2   -1    0    0  501    0  0.00000000000E+00  0.00000000000E+00  0.74400238343E+02  0.74400238343E+02  0.00000000000E+00 0. -1.
         -2   -1    0    0    0  501 -0.00000000000E+00 -0.00000000000E+00 -0.53200260266E+03  0.53200260266E+03  0.00000000000E+00 0.  1.
         23    2    1    2    0    0 -0.53208172420E+01 -0.32152042477E+02 -0.48900637303E+03  0.50580176280E+03  0.12508447327E+03 0.  0.
          5    1    3    3  502    0 -0.11797470504E+02  0.46721446467E+02 -0.22585245328E+03  0.23097375808E+03  0.41800000000E+01 0. -1.
         -5    1    3    3    0  502  0.64766532618E+01 -0.78873488944E+02 -0.26315391975E+03  0.27482800472E+03  0.41800000000E+01 0. -1.
        -11    1    1    2    0    0  0.23772842627E+02  0.18050563151E+02 -0.25425179397E+02  0.39209828156E+02  0.00000000000E+00 0.  1.
         11    1    1    2    0    0 -0.18452025385E+02  0.14101479326E+02  0.56829188117E+02  0.61391250044E+02  0.00000000000E+00 0. -1.
</event>
<event>
 7    1  0.6833760E-006  0.7715204E+02  0.7561462E-02  0.1337333E+00
          4   -1    0    0  501    0  0.00000000000E+00  0.00000000000E+00  0.35474505418E+03  0.35474505418E+03  0.00000000000E+00 0. -1.
         -4   -1    0    0    0  501 -0.00000000000E+00 -0.00000000000E+00 -0.34810351017E+02  0.34810351017E+02  0.00000000000E+00 0.  1.
         23    2    1    2    0    0 -0.37038114683E+01 -0.27739145219E+02  0.19155934941E+03  0.23048947070E+03  0.12508890182E+03 0.  0.
          5    1    3    3  502    0 -0.32701517867E+02  0.41653360182E+01  0.18343261500E+03  0.18641817492E+03  0.41800000000E+01 0.  1.
         -5    1    3    3    0  502  0.28997706399E+02 -0.31904481237E+02  0.81267344112E+01  0.44071295779E+02  0.41800000000E+01 0.  1.
        -11    1    1    2    0    0 -0.25472767578E+02  0.38918743176E+02  0.11684223973E+03  0.12576024588E+03  0.00000000000E+00 0. -1.
         11    1    1    2    0    0  0.29176579046E+02 -0.11179597957E+02  0.11533114022E+02  0.33305688619E+02  0.00000000000E+00 0.  1.
</event>
<event>
 7    1  0.6833760E-006  0.2491260E+03  0.7561462E-02  0.1113858E+00
         -2   -1    0    0    0  501 -0.00000000000E+00  0.00000000000E+00  0.34269656629E+03  0.34269656629E+03  0.00000000000E+00 0.  1.
          2   -1    0    0  501    0  0.00000000000E+00 -0.00000000000E+00 -0.23277346668E+03  0.23277346668E+03  0.00000000000E+00 0. -1.
         23    2    1    2    0    0  0.21998927605E+03 -0.73201399175E+02  0.17761284734E+03  0.31772305987E+03  0.12509153774E+03 0.  0.
          5    1    3    3  502    0  0.14277758196E+03 -0.10410336348E+03  0.96049869100E+02  0.20116162147E+03  0.41800000000E+01 0.  1.
         -5    1    3    3    0  502  0.77211694084E+02  0.30901964306E+02  0.81562978243E+02  0.11656143840E+03  0.41800000000E+01 0.  1.
        -11    1    1    2    0    0 -0.81617190308E+02 -0.15488057861E+00 -0.59342712672E+02  0.10091059057E+03  0.00000000000E+00 0.  1.
         11    1    1    2    0    0 -0.13837208574E+03  0.73356279754E+02 -0.83470350650E+01  0.15683638253E+03  0.00000000000E+00 0. -1.
</event>
<event>
 7    1  0.6833760E-006  0.1559534E+03  0.7561462E-02  0.1193343E+00
         -1   -1    0    0    0  501 -0.00000000000E+00  0.00000000000E+00  0.22130394822E+02  0.22130394822E+02  0.00000000000E+00 0.  1.
          1   -1    0    0  501    0  0.00000000000E+00 -0.00000000000E+00 -0.12694136724E+04  0.12694136724E+04  0.00000000000E+00 0. -1.
         23    2    1    2    0    0 -0.35506910825E+02 -0.12153003187E+03 -0.61896746332E+03  0.64404828269E+03  0.12508869025E+03 0.  0.
          5    1    3    3  502    0 -0.44203255416E+02 -0.75796022020E+01 -0.33348048129E+03  0.33650866550E+03  0.41800000000E+01 0.  1.
         -5    1    3    3    0  502  0.86963445915E+01 -0.11395042967E+03 -0.28548698203E+03  0.30753961719E+03  0.41800000000E+01 0.  1.
        -11    1    1    2    0    0  0.69407863120E+01  0.12366546874E+03 -0.55774829332E+03  0.57133569937E+03  0.00000000000E+00 0. -1.
         11    1    1    2    0    0  0.28566124513E+02 -0.21354368671E+01 -0.70567520979E+02  0.76160085198E+02  0.00000000000E+00 0.  1.
</event>
<event>
 7    1  0.7765201E-006  0.2909724E+03  0.7561462E-02  0.1089843E+00
         -3   -1    0    0    0  501 -0.00000000000E+00  0.00000000000E+00  0.79239577139E+03  0.79239577139E+03  0.00000000000E+00 0.  1.
          3   -1    0    0  501    0  0.00000000000E+00 -0.00000000000E+00 -0.12460485873E+03  0.12460485873E+03  0.00000000000E+00 0. -1.
         23    2    1    2    0    0 -0.74343665323E+02  0.27729026941E+03  0.43586412910E+03  0.53669534825E+03  0.12508990251E+03 0.  0.
          5    1    3    3  502    0 -0.56134552895E+02  0.11663342292E+03  0.29514831590E+03  0.32231109840E+03  0.41800000000E+01 0.  1.
         -5    1    3    3    0  502 -0.18209112428E+02  0.16065684649E+03  0.14071581320E+03  0.21438424985E+03  0.41800000000E+01 0.  1.
        -11    1    1    2    0    0  0.74558822437E+02 -0.20059275773E+03  0.12220902329E+03  0.24643765506E+03  0.00000000000E+00 0. -1.
         11    1    1    2    0    0 -0.21515711356E+00 -0.76697511681E+02  0.10971776026E+03  0.13386762681E+03  0.00000000000E+00 0.  1.
</event>
<event>
 7    1  0.6833760E-006  0.1005610E+03  0.7561462E-02  0.1279121E+00
         -1   -1    0    0    0  501 -0.00000000000E+00  0.00000000000E+00  0.38942694692E+02  0.38942694692E+02  0.00000000000E+00 0.  1.
          1   -1    0    0  501    0  0.00000000000E+00 -0.00000000000E+00 -0.36048754837E+03  0.36048754837E+03  0.00000000000E+00 0. -1.
         23    2    1    2    0    0  0.53938899459E+00 -0.49436471631E+02 -0.18600388626E+03  0.23004121197E+03  0.12600499129E+03 0.  0.
          5    1    3    3  502    0 -0.42227447671E+02 -0.43049178215E+02 -0.17511555473E+03  0.18525474081E+03  0.41800000000E+01 0.  1.
         -5    1    3    3    0  502  0.42766836666E+02 -0.63872934160E+01 -0.10888331529E+02  0.44786471161E+02  0.41800000000E+01 0.  1.
        -11    1    1    2    0    0 -0.39881770510E+02  0.40595916171E+02 -0.10257989517E+03  0.11730822189E+03  0.00000000000E+00 0. -1.
         11    1    1    2    0    0  0.39342381516E+02  0.88405554596E+01 -0.32961072243E+02  0.52080809206E+02  0.00000000000E+00 0.  1.
</event>
<event>
 7    1  0.6833760E-006  0.1084707E+03  0.7561462E-02  0.1263428E+00
          4   -1    0    0  501    0  0.00000000000E+00  0.00000000000E+00  0.14389828206E+03  0.14389828206E+03  0.00000000000E+00 0. -1.
         -4   -1    0    0    0  501 -0.00000000000E+00 -0.00000000000E+00 -0.10002897545E+03  0.10002897545E+03  0.00000000000E+00 0.  1.
         23    2    1    2    0    0 -0.21317482061E+02  0.31734064168E+02 -0.16059561068E+02  0.13178747568E+03  0.12509413805E+03 0.  0.
          5    1    3    3  502    0 -0.64913879109E+02 -0.84396213554E+01 -0.27742443709E+02  0.71219059897E+02  0.41800000000E+01 0.  1.
         -5    1    3    3    0  502  0.43596397048E+02  0.40173685523E+02  0.11682882642E+02  0.60568415787E+02  0.41800000000E+01 0.  1.
        -11    1    1    2    0    0 -0.32083488030E+02 -0.60043322809E+01  0.86651627693E+01  0.33771100902E+02  0.00000000000E+00 0. -1.
         11    1    1    2    0    0  0.53400970091E+02 -0.25729731887E+02  0.51263704911E+02  0.78368680931E+02  0.00000000000E+00 0.  1.
</event>
<event>
 7    1  0.6833760E-006  0.1622855E+03  0.7561462E-02  0.1186140E+00
          4   -1    0    0  501    0  0.00000000000E+00  0.00000000000E+00  0.82915695159E+02  0.82915695159E+02  0.00000000000E+00 0. -1.
         -4   -1    0    0    0  501 -0.00000000000E+00 -0.00000000000E+00 -0.53333171609E+03  0.53333171609E+03  0.00000000000E+00 0.  1.
         23    2    1    2    0    0  0.19420721532E+02  0.15792888047E+03 -0.35967132391E+03  0.41270972128E+03  0.12508859694E+03 0.  0.
          5    1    3    3  502    0 -0.24634236859E+01  0.50636097323E+02 -0.18102008302E+02  0.53992943177E+02  0.41800000000E+01 0.  1.
         -5    1    3    3    0  502  0.21884145218E+02  0.10729278315E+03 -0.34156931561E+03  0.35871677810E+03  0.41800000000E+01 0.  1.
        -11    1    1    2    0    0  0.12611289590E+02 -0.42765854989E+02 -0.68831958442E+02  0.82010983905E+02  0.00000000000E+00 0.  1.
         11    1    1    2    0    0 -0.32032011122E+02 -0.11516302548E+03 -0.21912738582E+02  0.12152670607E+03  0.00000000000E+00 0. -1.
</event>
<event>
 7    1  0.6833760E-006  0.1005703E+03  0.7561462E-02  0.1279101E+00
          4   -1    0    0  501    0  0.00000000000E+00  0.00000000000E+00  0.19126592386E+03  0.19126592386E+03  0.00000000000E+00 0. -1.
         -4   -1    0    0    0  501 -0.00000000000E+00 -0.00000000000E+00 -0.82077417047E+02  0.82077417047E+02  0.00000000000E+00 0.  1.
         23    2    1    2    0    0  0.33467688759E+02 -0.16213654249E+02  0.31686475982E+01  0.12880980006E+03  0.12328404393E+03 0.  0.
          5    1    3    3  502    0 -0.33057223361E+02 -0.26134166261E+02 -0.31733674165E+02  0.52917607075E+02  0.41800000000E+01 0. -1.
         -5    1    3    3    0  502  0.66524912120E+02  0.99205120121E+01  0.34902321763E+02  0.75892192982E+02  0.41800000000E+01 0.  1.
        -11    1    1    2    0    0 -0.27435377309E+02 -0.32378162368E+02  0.76149642552E+02  0.87176908566E+02  0.00000000000E+00 0. -1.
         11    1    1    2    0    0 -0.60323114494E+01  0.48591816617E+02  0.29870216664E+02  0.57356632286E+02  0.00000000000E+00 0.  1.
</event>
<event>
 7    1  0.6833760E-006  0.9730412E+02  0.7561462E-02  0.1286069E+00
         -1   -1    0    0    0  501 -0.00000000000E+00  0.00000000000E+00  0.41235522762E+02  0.41235522762E+02  0.00000000000E+00 0.  1.
          1   -1    0    0  501    0  0.00000000000E+00 -0.00000000000E+00 -0.33759037732E+03  0.33759037732E+03  0.00000000000E+00 0. -1.
         23    2    1    2    0    0 -0.16907015408E+00 -0.45170131303E+02 -0.18921287510E+03  0.23120998910E+03  0.12496470545E+03 0.  0.
          5    1    3    3  502    0 -0.23556661790E+02 -0.69253195255E+02 -0.18258445479E+03  0.19673707556E+03  0.41800000000E+01 0.  1.
         -5    1    3    3    0  502  0.23387591636E+02  0.24083063952E+02 -0.66284203044E+01  0.34472913535E+02  0.41800000000E+01 0.  1.
        -11    1    1    2    0    0 -0.25352150318E+01  0.66228980719E+02 -0.10760560007E+03  0.12637907409E+03  0.00000000000E+00 0. -1.
         11    1    1    2    0    0  0.27042851859E+01 -0.21058849416E+02  0.46362061184E+00  0.21236836892E+02  0.00000000000E+00 0.  1.
</event>
<event>
 6    1  0.6833760E-006  0.9430658E+02  0.7561462E-02  0.1292746E+00
         -2   -1    0    0    0  501 -0.00000000000E+00  0.00000000000E+00  0.35517165588E+02  0.35517165588E+02  0.00000000000E+00 0.  1.
          2   -1    0    0  501    0  0.00000000000E+00 -0.00000000000E+00 -0.41787635358E+03  0.41787635358E+03  0.00000000000E+00 0. -1.
          5    1    1    2  502    0  0.19029377977E+02 -0.50097765498E+02 -0.15227749880E+03  0.16148626064E+03  0.41800000000E+01 0. -1.
         -5    1    1    2    0  502 -0.36578950992E+01  0.57090614532E+02 -0.17409448648E+02  0.59943971894E+02  0.41800000000E+01 0.  1.
        -11    1    1    2    0    0  0.30878044695E+02 -0.42514729197E+01 -0.29125260693E+02  0.42659224988E+02  0.00000000000E+00 0. -1.
         11    1    1    2    0    0 -0.46249527572E+02 -0.27413761138E+01 -0.18354697985E+03  0.18930406165E+03  0.00000000000E+00 0.  1.
</event>
<event>
 7    1  0.6833760E-006  0.1651896E+03  0.7561462E-02  0.1182959E+00
         -2   -1    0    0    0  501 -0.00000000000E+00  0.00000000000E+00  0.25031121413E+03  0.25031121413E+03  0.00000000000E+00 0.  1.
          2   -1    0    0  501    0  0.00000000000E+00 -0.00000000000E+00 -0.14615996797E+03  0.14615996797E+03  0.00000000000E+00 0. -1.
         23    2    1    2    0    0 -0.92930408509E+02 -0.92748339118E+02  0.14322300440E+03  0.23108008843E+03  0.12508742161E+03 0.  0.
          5    1    3    3  502    0 -0.88184557573E+02 -0.12028019472E+03  0.10061210534E+03  0.17995585452E+03  0.41800000000E+01 0.  1.
         -5    1    3    3    0  502 -0.47458509358E+01  0.27531855603E+02  0.42610899057E+02  0.51124233906E+02  0.41800000000E+01 0.  1.
        -11    1    1    2    0    0  0.45831773393E+02  0.95312907685E+02 -0.26421382020E+01  0.10579264019E+03  0.00000000000E+00 0. -1.
         11    1    1    2    0    0  0.47098635116E+02 -0.25645685666E+01 -0.36429620033E+02  0.59598453482E+02  0.00000000000E+00 0.  1.
</event>
<event>
 7    1  0.6833760E-006  0.6868993E+02  0.7561462E-02  0.1364606E+00
          2   -1    0    0  501    0  0.00000000000E+00  0.00000000000E+00  0.76477918073E+03  0.76477918073E+03  0.00000000000E+00 0. -1.
         -2   -1    0    0    0  501 -0.00000000000E+00 -0.00000000000E+00 -0.18757306869E+02  0.18757306869E+02  0.00000000000E+00 0.  1.
         23    2    1    2    0    0 -0.13605462754E+02  0.21935083897E+02  0.56286337153E+03  0.57717395450E+03  0.12509333406E+03 0.  0.
          5    1    3    3  502    0  0.25029975812E+01 -0.11816430270E+02  0.51991292679E+03  0.52007001150E+03  0.41800000000E+01 0.  1.
         -5    1    3    3    0  502 -0.16108460335E+02  0.33751514166E+02  0.42950444738E+02  0.57103942999E+02  0.41800000000E+01 0.  1.
        -11    1    1    2    0    0  0.48843070836E+02 -0.10932055373E+02  0.61869266879E+02  0.79579906934E+02  0.00000000000E+00 0.  1.
         11    1    1    2    0    0 -0.35237608083E+02 -0.11003028523E+02  0.12128923546E+03  0.12678262617E+03  0.00000000000E+00 0. -1.
</event>
<event>
 7    1  0.6833760E-006  0.1080714E+03  0.7561462E-02  0.1264184E+00
          1   -1    0    0  501    0  0.00000000000E+00  0.00000000000E+00  0.40460944836E+02  0.40460944836E+02  0.00000000000E+00 0. -1.
         -1   -1    0    0    0  501 -0.00000000000E+00 -0.00000000000E+00 -0.36933087032E+03  0.36933087032E+03  0.00000000000E+00 0.  1.
         23    2    1    2    0    0 -0.62680554895E+02  0.58396384178E+01 -0.21061079562E+03  0.24873754507E+03  0.11640663966E+03 0.  0.
          5    1    3    3  502    0 -0.10380971186E+02 -0.46099578203E+02 -0.37263460987E+02  0.60323905693E+02  0.41800000000E+01 0. -1.
         -5    1    3    3    0  502 -0.52299583709E+02  0.51939216621E+02 -0.17334733464E+03  0.18841363938E+03  0.41800000000E+01 0.  1.
        -11    1    1    2    0    0 -0.40207943248E+01 -0.25124524629E+02 -0.18508914898E+01  0.25511454764E+02  0.00000000000E+00 0.  1.
         11    1    1    2    0    0  0.66701349219E+02  0.19284886211E+02 -0.11640823838E+03  0.13554281532E+03  0.00000000000E+00 0. -1.
</event>
<event>
 7    1  0.6833760E-006  0.8953119E+02  0.7561462E-02  0.1303991E+00
         -2   -1    0    0    0  501 -0.00000000000E+00  0.00000000000E+00  0.98690824764E+02  0.98690824764E+02  0.00000000000E+00 0.  1.
          2   -1    0    0  501    0  0.00000000000E+00 -0.00000000000E+00 -0.14083307389E+03  0.14083307389E+03  0.00000000000E+00 0. -1.
         23    2    1    2    0    0 -0.90063328238E+01  0.38760720743E+02  0.13261436356E+02  0.13193387232E+03  0.12508866243E+03 0.  0.
          5    1    3    3  502    0  0.33267293332E+02 -0.22796057688E+02  0.35517488725E+02  0.53901182335E+02  0.41800000000E+01 0. -1.
         -5    1    3    3    0  502 -0.42273626156E+02  0.61556778431E+02 -0.22256052369E+02  0.78032689985E+02  0.41800000000E+01 0. -1.
        -11    1    1    2    0    0 -0.19795635730E+02 -0.24764028858E+02  0.11251915017E+02  0.33641193658E+02  0.00000000000E+00 0.  1.
         11    1    1    2    0    0  0.28801968553E+02 -0.13996691885E+02 -0.66655600498E+02  0.73948832675E+02  0.00000000000E+00 0. -1.
</event>
<event>
 7    1  0.6833760E-006  0.1080225E+03  0.7561462E-02  0.1264276E+00
         -2   -1    0    0    0  501 -0.00000000000E+00  0.00000000000E+00  0.41481504796E+03  0.41481504796E+03  0.00000000000E+00 0.  1.
          2   -1    0    0  501    0  0.00000000000E+00 -0.00000000000E+00 -0.35924468742E+02  0.35924468742E+02  0.00000000000E+00 0. -1.
         23    2    1    2    0    0  0.47827779234E+02 -0.45651105727E+01  0.15365339782E+03  0.20387739811E+03  0.12509312570E+03 0.  0.
          5    1    3    3  502    0  0.55822738520E+02  0.40476692828E+02  0.13973646625E+03  0.15587909802E+03  0.41800000000E+01 0. -1.
         -5    1    3    3    0  502 -0.79949592863E+01 -0.45041803401E+02  0.13916931569E+02  0.47998300094E+02  0.41800000000E+01 0. -1.
        -11    1    1    2    0    0  0.18917458815E+02  0.24884897410E+02  0.67988688025E+02  0.74830408702E+02  0.00000000000E+00 0. -1.
         11    1    1    2    0    0 -0.66745238048E+02 -0.20319786837E+02  0.15724849337E+03  0.17203170988E+03  0.00000000000E+00 0.  1.
</event>
<event>
 7    1  0.6833760E-006  0.1012734E+03  0.7561462E-02  0.1277641E+00
         -1   -1    0    0    0  501 -0.00000000000E+00  0.00000000000E+00  0.15548312938E+02  0.15548312938E+02  0.00000000000E+00 0.  1.
          1   -1    0    0  501    0  0.00000000000E+00 -0.00000000000E+00 -0.90381208158E+03  0.90381208158E+03  0.00000000000E+00 0. -1.
         23    2    1    2    0    0 -0.17270960935E+02 -0.57924448418E+02 -0.48110200856E+03  0.50075780471E+03  0.12508280665E+03 0.  0.
          5    1    3    3  502    0 -0.53687173987E+02 -0.23066768845E+02 -0.40603064091E+03  0.41023498417E+03  0.41800000000E+01 0. -1.
         -5    1    3    3    0  502  0.36416213051E+02 -0.34857679572E+02 -0.75071367647E+02  0.90522820540E+02  0.41800000000E+01 0. -1.
        -11    1    1    2    0    0 -0.15307139286E+02 -0.98368845345E+01 -0.41856801888E+02  0.45640603357E+02  0.00000000000E+00 0.  1.
         11    1    1    2    0    0  0.32578100221E+02  0.67761332952E+02 -0.36530495819E+03  0.37296198645E+03  0.00000000000E+00 0. -1.
</event>
<event>
 7    1  0.6833760E-006  0.9976298E+02  0.7561462E-02  0.1280795E+00
         -2   -1    0    0    0  501 -0.00000000000E+00  0.00000000000E+00  0.34050762242E+03  0.34050762242E+03  0.00000000000E+00 0.  1.
          2   -1    0    0  501    0  0.00000000000E+00 -0.00000000000E+00 -0.47927973330E+02  0.47927973330E+02  0.00000000000E+00 0. -1.
         23    2    1    2    0    0  0.59989187316E+01 -0.52140206685E+02  0.23316371940E+03  0.26748152623E+03  0.12011019379E+03 0.  0.
          5    1    3    3  502    0 -0.42759172727E+02  0.15671135558E+02  0.62652369886E+02  0.77567539565E+02  0.41800000000E+01 0. -1.
         -5    1    3    3    0  502  0.48758091458E+02 -0.67811342244E+02  0.17051134951E+03  0.18991398667E+03  0.41800000000E+01 0.  1.
        -11    1    1    2    0    0  0.13310937021E+02  0.48786513678E+02 -0.75940041026E+01  0.51136815109E+02  0.00000000000E+00 0.  1.
         11    1    1    2    0    0 -0.19309855753E+02  0.33536930079E+01  0.67009933795E+02  0.69817254409E+02  0.00000000000E+00 0. -1.
</event>
<event>
 7    1  0.6833760E-006  0.7237168E+02  0.7561462E-02  0.1352209E+00
         -1   -1    0    0    0  501 -0.00000000000E+00  0.00000000000E+00  0.60940611876E+02  0.60940611876E+02  0.00000000000E+00 0.  1.
          1   -1    0    0  501    0  0.00000000000E+00 -0.00000000000E+00 -0.23950542280E+03  0.23950542280E+03  0.00000000000E+00 0. -1.
         23    2    1    2    0    0 -0.12139592742E+02 -0.42136998149E+02 -0.64215064912E+02  0.14728766028E+03  0.12508870446E+03 0.  0.
          5    1    3    3  502    0  0.36693487659E+02 -0.33528439256E+01  0.20219936293E+02  0.42237090604E+02  0.41800000000E+01 0.  1.
         -5    1    3    3    0  502 -0.48833080401E+02 -0.38784154223E+02 -0.84435001205E+02  0.10505056967E+03  0.41800000000E+01 0.  1.
        -11    1    1    2    0    0 -0.16834165076E+00  0.18584938259E+02  0.13247172476E+02  0.22823580956E+02  0.00000000000E+00 0.  1.
         11    1    1    2    0    0  0.12307934393E+02  0.23552059890E+02 -0.12759691849E+03  0.13033479345E+03  0.00000000000E+00 0. -1.
</event>
<event>
 7    1  0.6833760E-006  0.1135903E+03  0.7561462E-02  0.1254062E+00
         -1   -1    0    0    0  501 -0.00000000000E+00  0.00000000000E+00  0.15160063219E+03  0.15160063219E+03  0.00000000000E+00 0.  1.
          1   -1    0    0  501    0  0.00000000000E+00 -0.00000000000E+00 -0.14181936803E+03  0.14181936803E+03  0.00000000000E+00 0. -1.
         23    2    1    2    0    0  0.37411529589E+02 -0.18937237582E+02  0.93318315154E+02  0.16159711881E+03  0.12508828623E+03 0.  0.
          5    1    3    3  502    0  0.53953887462E+02 -0.60502894238E+02  0.36081307530E+02  0.88831049394E+02  0.41800000000E+01 0. -1.
         -5    1    3    3    0  502 -0.16542357873E+02  0.41565656656E+02  0.57237007623E+02  0.72766069420E+02  0.41800000000E+01 0. -1.
        -11    1    1    2    0    0  0.29837199558E+02  0.15780223823E+02 -0.36384496791E+02  0.49629684142E+02  0.00000000000E+00 0.  1.
         11    1    1    2    0    0 -0.67248729147E+02  0.31570137590E+01 -0.47152554202E+02  0.82193197258E+02  0.00000000000E+00 0. -1.
</event>
<event>
 7    1  0.7921289E-006  0.2873407E+03  0.7561462E-02  0.1091746E+00
         -1   -1    0    0    0  501 -0.00000000000E+00  0.00000000000E+00  0.37859430990E+03  0.37859430990E+03  0.00000000000E+00 0.  1.
          1   -1    0    0  501    0  0.00000000000E+00 -0.00000000000E+00 -0.22971304423E+03  0.22971304423E+03  0.00000000000E+00 0. -1.
         23    2    1    2    0    0 -0.21698994964E+03 -0.16984083516E+03  0.93913805611E+02  0.31685644521E+03  0.12509059298E+03 0.  0.
          5    1    3    3  502    0 -0.93571372998E+02 -0.12379238751E+02 -0.29730790686E+01  0.94525969955E+02  0.41800000000E+01 0.  1.
         -5    1    3    3    0  502 -0.12341857664E+03 -0.15746159641E+03  0.96886884680E+02  0.22233047525E+03  0.41800000000E+01 0.  1.
        -11    1    1    2    0    0  0.46864831625E+02  0.65431791197E+02  0.43561150381E+02  0.91516149203E+02  0.00000000000E+00 0.  1.
         11    1    1    2    0    0  0.17012511802E+03  0.10440904396E+03  0.11406309683E+02  0.19993475971E+03  0.00000000000E+00 0. -1.
</event>
<event>
 7    1  0.6833760E-006  0.1270554E+03  0.7561462E-02  0.1231892E+00
          1   -1    0    0  501    0  0.00000000000E+00  0.00000000000E+00  0.55168706518E+02  0.55168706518E+02  0.00000000000E+00 0. -1.
         -1   -1    0    0    0  501 -0.00000000000E+00 -0.00000000000E+00 -0.30318634053E+03  0.30318634053E+03  0.00000000000E+00 0.  1.
         23    2    1    2    0    0 -0.70861395145E+02 -0.33338430631E+02 -0.14012729996E+03  0.19797082997E+03  0.11586199138E+03 0.  0.
          5    1    3    3  502    0  0.30199324933E+02 -0.87758469470E+01 -0.14658677190E+02  0.34948017583E+02  0.41800000000E+01 0. -1.
         -5    1    3    3    0  502 -0.10106072008E+03 -0.24562583684E+02 -0.12546862277E+03  0.16302281239E+03  0.41800000000E+01 0.  1.
        -11    1    1    2    0    0 -0.21311951334E+02  0.54239520219E+01 -0.25214888612E+02  0.33457572131E+02  0.00000000000E+00 0.  1.
         11    1    1    2    0    0  0.92173346480E+02  0.27914478609E+02 -0.82675445437E+02  0.12692664494E+03  0.00000000000E+00 0. -1.
</event>
<event>
 7    1  0.6833760E-006  0.1162419E+03  0.7561462E-02  0.1249429E+00
          1   -1    0    0  501    0  0.00000000000E+00  0.00000000000E+00  0.41079567866E+03  0.41079567866E+03  0.00000000000E+00 0.  1.
         -1   -1    0    0    0  501 -0.00000000000E+00 -0.00000000000E+00 -0.35638430617E+02  0.35638430617E+02  0.00000000000E+00 0. -1.
         23    2    1    2    0    0  0.54532376254E+01 -0.43655827663E+02  0.15203405521E+03  0.20173591814E+03  0.12508979829E+03 0.  0.
          5    1    3    3  502    0  0.39087968996E+02 -0.76004474328E+02  0.10319577988E+03  0.13405741615E+03  0.41800000000E+01 0.  1.
         -5    1    3    3    0  502 -0.33634731370E+02  0.32348646665E+02  0.48838275325E+02  0.67678501994E+02  0.41800000000E+01 0.  1.
        -11    1    1    2    0    0 -0.35653983626E+02  0.56849638292E+02  0.15962675984E+03  0.17315828129E+03  0.00000000000E+00 0.  1.
         11    1    1    2    0    0  0.30200746000E+02 -0.13193810629E+02  0.63496432999E+02  0.71539909851E+02  0.00000000000E+00 0. -1.
</event>
<event>
 7    1  0.7006470E-006  0.2029857E+03  0.7561462E-02  0.1147244E+00
         -1   -1    0    0    0  501 -0.00000000000E+00  0.00000000000E+00  0.10404299439E+03  0.10404299439E+03  0.00000000000E+00 0.  1.
          1   -1    0    0  501    0  0.00000000000E+00 -0.00000000000E+00 -0.65316403628E+03  0.65316403628E+03  0.00000000000E+00 0. -1.
         23    2    1    2    0    0 -0.79934943013E+02 -0.17864763925E+03 -0.88404597838E+02  0.24853063723E+03  0.12509008993E+03 0.  0.
          5    1    3    3  502    0 -0.55685233349E+02 -0.13622592097E+03  0.23650460083E+00  0.14722729058E+03  0.41800000000E+01 0.  1.
         -5    1    3    3    0  502 -0.24249709664E+02 -0.42421718285E+02 -0.88641102439E+02  0.10130334665E+03  0.41800000000E+01 0.  1.
        -11    1    1    2    0    0  0.26606699861E+02  0.14323889159E+03 -0.36999082481E+03  0.39764117869E+03  0.00000000000E+00 0. -1.
         11    1    1    2    0    0  0.53328243152E+02  0.35408747661E+02 -0.90725619239E+02  0.11103521475E+03  0.00000000000E+00 0.  1.
</event>
<event>
 7    1  0.6833760E-006  0.8051694E+02  0.7561462E-02  0.1327591E+00
          1   -1    0    0  501    0  0.00000000000E+00  0.00000000000E+00  0.53791944456E+03  0.53791944456E+03  0.00000000000E+00 0. -1.
         -1   -1    0    0    0  501 -0.00000000000E+00 -0.00000000000E+00 -0.39879275240E+02  0.39879275240E+02  0.00000000000E+00 0.  1.
         23    2    1    2    0    0 -0.14985130696E+02  0.53690808934E+02  0.11065010508E+03  0.17606156949E+03  0.12508786269E+03 0.  0.
          5    1    3    3  502    0 -0.26625202475E+02  0.34773263554E+02  0.13550428170E+03  0.14246741390E+03  0.41800000000E+01 0. -1.
         -5    1    3    3    0  502  0.11640071779E+02  0.18917545380E+02 -0.24854176621E+02  0.33594155589E+02  0.41800000000E+01 0. -1.
        -11    1    1    2    0    0  0.43378783744E+02 -0.49364567530E+02  0.34023835551E+03  0.34652664828E+03  0.00000000000E+00 0. -1.
         11    1    1    2    0    0 -0.28393653048E+02 -0.43262414044E+01  0.47151708733E+02  0.55210502032E+02  0.00000000000E+00 0.  1.
</event>
<event>
 7    1  0.6833760E-006  0.1126489E+03  0.7561462E-02  0.1255742E+00
         -3   -1    0    0    0  501 -0.00000000000E+00  0.00000000000E+00  0.26084306726E+03  0.26084306726E+03  0.00000000000E+00 0.  1.
          3   -1    0    0  501    0  0.00000000000E+00 -0.00000000000E+00 -0.97921016957E+02  0.97921016957E+02  0.00000000000E+00 0. -1.
         23    2    1    2    0    0 -0.41614698748E+02  0.94573801736E+02  0.15887878739E+03  0.21977210420E+03  0.11127138704E+03 0.  0.
          5    1    3    3  502    0 -0.38627581396E+02  0.71762912995E+02  0.27178858267E+02  0.86012606417E+02  0.41800000000E+01 0. -1.
         -5    1    3    3    0  502 -0.29871173520E+01  0.22810888741E+02  0.13169992913E+03  0.13375949778E+03  0.41800000000E+01 0.  1.
        -11    1    1    2    0    0  0.30371235617E+02 -0.10227009731E+03  0.29001993077E+02  0.11055632212E+03  0.00000000000E+00 0.  1.
         11    1    1    2    0    0  0.11243463131E+02  0.76962955782E+01 -0.24958730166E+02  0.28435657902E+02  0.00000000000E+00 0. -1.
</event>
<event>
 7    1  0.6833760E-006  0.1175591E+03  0.7561462E-02  0.1247179E+00
          1   -1    0    0  501    0  0.00000000000E+00  0.00000000000E+00  0.80746114850E+02  0.80746114850E+02  0.00000000000E+00 0. -1.
         -1   -1    0    0    0  501 -0.00000000000E+00 -0.00000000000E+00 -0.21340519513E+03  0.21340519513E+03  0.00000000000E+00 0.  1.
         23    2    1    2    0    0 -0.15118505405E+02 -0.68682890498E+02 -0.52567284893E+02  0.15283126873E+03  0.12509264010E+03 0.  0.
          5    1    3    3  502    0 -0.33914807711E+02  0.26432349238E+02 -0.31658917271E+02  0.53559711641E+02  0.41800000000E+01 0.  1.
         -5    1    3    3    0  502  0.18796302306E+02 -0.95115239736E+02 -0.20908367621E+02  0.99271557090E+02  0.41800000000E+01 0.  1.
        -11    1    1    2    0    0  0.36316834584E+02  0.19288984155E+02  0.42142339906E+01  0.41336874000E+02  0.00000000000E+00 0. -1.
         11    1    1    2    0    0 -0.21198329179E+02  0.49393906342E+02 -0.84306029383E+02  0.99983167254E+02  0.00000000000E+00 0.  1.
</event>
<event>
 7    1  0.6833760E-006  0.1012336E+03  0.7561462E-02  0.1277723E+00
         -2   -1    0    0    0  501 -0.00000000000E+00  0.00000000000E+00  0.53354493712E+02  0.53354493712E+02  0.00000000000E+00 0.  1.
          2   -1    0    0  501    0  0.00000000000E+00 -0.00000000000E+00 -0.30455559004E+03  0.30455559004E+03  0.00000000000E+00 0. -1.
         23    2    1    2    0    0  0.37297748676E+01 -0.34410694321E+02 -0.57566686340E+02  0.14198450510E+03  0.12509064396E+03 0.  0.
          5    1    3    3  502    0  0.41289830335E+02  0.32531211447E+02 -0.27175649904E+02  0.59322155684E+02  0.41800000000E+01 0. -1.
         -5    1    3    3    0  502 -0.37560055467E+02 -0.66941905769E+02 -0.30391036436E+02  0.82662349412E+02  0.41800000000E+01 0. -1.
        -11    1    1    2    0    0 -0.31498294522E+02  0.32140379749E+02 -0.41352981146E+02  0.61116410381E+02  0.00000000000E+00 0.  1.
         11    1    1    2    0    0  0.27768519654E+02  0.22703145724E+01 -0.15228142884E+03  0.15480916827E+03  0.00000000000E+00 0. -1.
</event>
<event>
 7    1  0.6855148E-006  0.2023460E+03  0.7561462E-02  0.1147775E+00
         -1   -1    0    0    0  501 -0.00000000000E+00  0.00000000000E+00  0.99515384248E+02  0.99515384248E+02  0.00000000000E+00 0.  1.
          1   -1    0    0  501    0  0.00000000000E+00 -0.00000000000E+00 -0.43363700153E+03  0.43363700153E+03  0.00000000000E+00 0. -1.
         23    2    1    2    0    0 -0.62718960768E+02  0.16219951135E+03 -0.13336621506E+03  0.25234134875E+03  0.12508900610E+03 0.  0.
          5    1    3    3  502    0 -0.43196359561E+02 -0.16293950048E+01 -0.59412362707E+01  0.43833219090E+02  0.41800000000E+01 0.  1.
         -5    1    3    3    0  502 -0.19522601207E+02  0.16382890635E+03 -0.12742497879E+03  0.20850812966E+03  0.41800000000E+01 0.  1.
        -11    1    1    2    0    0  0.83506747679E+02 -0.98063547626E+02 -0.12698587250E+03  0.18087356937E+03  0.00000000000E+00 0. -1.
         11    1    1    2    0    0 -0.20787786911E+02 -0.64135963723E+02 -0.73769529720E+02  0.99937467661E+02  0.00000000000E+00 0.  1.
</event>
<event>
 7    1  0.6833760E-006  0.1424259E+03  0.7561462E-02  0.1210102E+00
          2   -1    0    0  501    0  0.00000000000E+00  0.00000000000E+00  0.25117883419E+03  0.25117883419E+03  0.00000000000E+00 0.  1.
         -2   -1    0    0    0  501 -0.00000000000E+00 -0.00000000000E+00 -0.89469954823E+02  0.89469954823E+02  0.00000000000E+00 0. -1.
         23    2    1    2    0    0 -0.82781037959E+02 -0.51275814501E+02  0.49275666644E+02  0.16600693084E+03  0.12509316675E+03 0.  0.
          5    1    3    3  502    0 -0.99408140790E+02 -0.85645457112E+00  0.52790237398E+02  0.11263655505E+03  0.41800000000E+01 0.  1.
         -5    1    3    3    0  502  0.16627102831E+02 -0.50419359930E+02 -0.35145707538E+01  0.53370375790E+02  0.41800000000E+01 0.  1.
        -11    1    1    2    0    0 -0.67606566866E+01  0.41473466242E+02  0.48561314749E+02  0.64218036183E+02  0.00000000000E+00 0. -1.
         11    1    1    2    0    0  0.89541694646E+02  0.98023482588E+01  0.63871897975E+02  0.11042382199E+03  0.00000000000E+00 0.  1.
</event>
<event>
 7    1  0.6833760E-006  0.1281156E+03  0.7561462E-02  0.1230279E+00
         -1   -1    0    0    0  501 -0.00000000000E+00  0.00000000000E+00  0.51280753841E+02  0.51280753841E+02  0.00000000000E+00 0.  1.
          1   -1    0    0  501    0  0.00000000000E+00 -0.00000000000E+00 -0.50122869234E+03  0.50122869234E+03  0.00000000000E+00 0. -1.
         23    2    1    2    0    0  0.25313751844E+02  0.76621039669E+02 -0.11007109388E+03  0.18513421268E+03  0.12508981272E+03 0.  0.
          5    1    3    3  502    0  0.33172322372E+02 -0.20894932946E+02 -0.67902827313E+02  0.78519217721E+02  0.41800000000E+01 0.  1.
         -5    1    3    3    0  502 -0.78585705278E+01  0.97515972616E+02 -0.42168266562E+02  0.10661499496E+03  0.41800000000E+01 0.  1.
        -11    1    1    2    0    0 -0.56819587261E+02 -0.35192314810E+02 -0.89813648480E+02  0.11195291855E+03  0.00000000000E+00 0.  1.
         11    1    1    2    0    0  0.31505835416E+02 -0.41428724859E+02 -0.25006319614E+03  0.25542231495E+03  0.00000000000E+00 0. -1.
</event>
<event>
 7    1  0.6833760E-006  0.9396617E+02  0.7561462E-02  0.1293522E+00
         -2   -1    0    0    0  501 -0.00000000000E+00  0.00000000000E+00  0.16966277753E+02  0.16966277753E+02  0.00000000000E+00 0.  1.
          2   -1    0    0  501    0  0.00000000000E+00 -0.00000000000E+00 -0.93706676285E+03  0.93706676285E+03  0.00000000000E+00 0. -1.
         23    2    1    2    0    0 -0.38226547294E+02 -0.41445635933E+02 -0.39411554863E+03  0.41731616940E+03  0.12508680952E+03 0.  0.
          5    1    3    3  502    0 -0.18493145836E+00  0.13527412303E+02 -0.30748255850E+03  0.30780841650E+03  0.41800000000E+01 0.  1.
         -5    1    3    3    0  502 -0.38041615836E+02 -0.54973048236E+02 -0.86632990123E+02  0.10950775290E+03  0.41800000000E+01 0.  1.
        -11    1    1    2    0    0 -0.38577451581E+01  0.60478862391E+02 -0.29633840599E+03  0.30247152901E+03  0.00000000000E+00 0.  1.
         11    1    1    2    0    0  0.42084292452E+02 -0.19033226458E+02 -0.22964653047E+03  0.23424534219E+03  0.00000000000E+00 0. -1.
</event>
<event>
 6    1  0.6833760E-006  0.9689673E+02  0.7561462E-02  0.1286960E+00
         -2   -1    0    0    0  501 -0.00000000000E+00  0.00000000000E+00  0.12138960435E+02  0.12138960435E+02  0.00000000000E+00 0.  1.
          2   -1    0    0  501    0  0.00000000000E+00 -0.00000000000E+00 -0.13221607279E+04  0.13221607279E+04  0.00000000000E+00 0. -1.
          5    1    1    2  502    0 -0.18301047138E+02 -0.70155189973E+02 -0.82512074140E+03  0.82831056331E+03  0.41800000000E+01 0. -1.
         -5    1    1    2    0  502  0.37533297712E+01  0.12357124712E+02 -0.54785825133E+01  0.14638076440E+02  0.41800000000E+01 0.  1.
        -11    1    1    2    0    0  0.20570946506E+02 -0.20514648845E+02 -0.13304077168E+03  0.13617584803E+03  0.00000000000E+00 0. -1.
         11    1    1    2    0    0 -0.60232291390E+01  0.78312714107E+02 -0.34638167191E+03  0.35517520059E+03  0.00000000000E+00 0.  1.
</event>
<event>
 7    1  0.6833760E-006  0.1300401E+03  0.7561462E-02  0.1227396E+00
         -2   -1    0    0    0  501 -0.00000000000E+00  0.00000000000E+00  0.10762131030E+03  0.10762131030E+03  0.00000000000E+00 0.  1.
          2   -1    0    0  501    0  0.00000000000E+00 -0.00000000000E+00 -0.20739338578E+03  0.20739338578E+03  0.00000000000E+00 0. -1.
         23    2    1    2    0    0  0.67327580486E+02  0.43429331023E+02 -0.26668596118E-01  0.14855326942E+03  0.12509581631E+03 0.  0.
          5    1    3    3  502    0 -0.25852303719E+02  0.92582569346E+01  0.33678303632E+02  0.43654982128E+02  0.41800000000E+01 0. -1.
         -5    1    3    3    0  502  0.93179884205E+02  0.34171074088E+02 -0.33704972228E+02  0.10489828730E+03  0.41800000000E+01 0. -1.
        -11    1    1    2    0    0 -0.23780339648E+02 -0.75324705434E+02 -0.53730936765E+02  0.95531823850E+02  0.00000000000E+00 0. -1.
         11    1    1    2    0    0 -0.43547240838E+02  0.31895374411E+02 -0.46014470127E+02  0.70929602808E+02  0.00000000000E+00 0.  1.
</event>
<event>
 7    1  0.6833760E-006  0.1061273E+03  0.7561462E-02  0.1267914E+00
         -3   -1    0    0    0  501 -0.00000000000E+00  0.00000000000E+00  0.18006488971E+03  0.18006488971E+03  0.00000000000E+00 0. -1.
          3   -1    0    0  501    0  0.00000000000E+00 -0.00000000000E+00 -0.11438968351E+03  0.11438968351E+03  0.00000000000E+00 0.  1.
         23    2    1    2    0    0 -0.51872133798E+02 -0.16591267006E+02  0.11171993964E+03  0.17633646298E+03  0.12508882786E+03 0.  0.
          5    1    3    3  502    0 -0.79918340020E+02 -0.41325949698E+02  0.10461169183E+03  0.13804294136E+03  0.41800000000E+01 0.  1.
         -5    1    3    3    0  502  0.28046206222E+02  0.24734682691E+02  0.71082478077E+01  0.38293521622E+02  0.41800000000E+01 0.  1.
        -11    1    1    2    0    0  0.31523653043E+02 -0.23687595425E+02 -0.59184405285E+02  0.71117063403E+02  0.00000000000E+00 0.  1.
         11    1    1    2    0    0  0.20348480755E+02  0.40278862432E+02  0.13139671844E+02  0.47001046839E+02  0.00000000000E+00 0. -1.
</event>
<event>
 7    1  0.6833760E-006  0.1282929E+03  0.7561462E-02  0.1230011E+00
          1   -1    0    0  501    0  0.00000000000E+00  0.00000000000E+00  0.35158441435E+03  0.35158441435E+03  0.00000000000E+00 0. -1.
         -1   -1    0    0    0  501 -0.00000000000E+00 -0.00000000000E+00 -0.55622697919E+02  0.55622697919E+02  0.00000000000E+00 0.  1.
         23    2    1    2    0    0 -0.60137943331E+02  0.63509697718E+02  0.18331076333E+03  0.23853782463E+03  0.12508958348E+03 0.  0.
          5    1    3    3  502    0  0.20307934621E+02  0.68616916752E+02  0.79593480434E+02  0.10711343520E+03  0.41800000000E+01 0.  1.
         -5    1    3    3    0  502 -0.80445877952E+02 -0.51072190338E+01  0.10371728289E+03  0.13142438943E+03  0.41800000000E+01 0.  1.
        -11    1    1    2    0    0  0.32408125075E+02  0.25866262981E+01 -0.29555805870E+01  0.32645254833E+02  0.00000000000E+00 0.  1.
         11    1    1    2    0    0  0.27729818256E+02 -0.66096324016E+02  0.11560653369E+03  0.13602403280E+03  0.00000000000E+00 0. -1.
</event>
<event>
 7    1  0.6833760E-006  0.1194695E+03  0.7561462E-02  0.1243975E+00
         -1   -1    0    0    0  501 -0.00000000000E+00  0.00000000000E+00  0.58932520123E+02  0.58932520123E+02  0.00000000000E+00 0.  1.
          1   -1    0    0  501    0  0.00000000000E+00 -0.00000000000E+00 -0.32890573311E+03  0.32890573311E+03  0.00000000000E+00 0. -1.
         23    2    1    2    0    0  0.15336311138E+02 -0.81183634552E+02 -0.12369105505E+03  0.19435275307E+03  0.12509008980E+03 0.  0.
          5    1    3    3  502    0 -0.42327458785E+02 -0.62312752040E+02 -0.27010544426E+02  0.80134479123E+02  0.41800000000E+01 0. -1.
         -5    1    3    3    0  502  0.57663769923E+02 -0.18870882512E+02 -0.96680510623E+02  0.11421827394E+03  0.41800000000E+01 0. -1.
        -11    1    1    2    0    0 -0.33443561996E+01 -0.10084431609E+02  0.83599771608E+01  0.13519234350E+02  0.00000000000E+00 0.  1.
         11    1    1    2    0    0 -0.11991954938E+02  0.91268066162E+02 -0.15464213509E+03  0.17996626581E+03  0.00000000000E+00 0. -1.
</event>
<event>
 7    1  0.6833760E-006  0.1035375E+03  0.7561462E-02  0.1273028E+00
          1   -1    0    0  501    0  0.00000000000E+00  0.00000000000E+00  0.14862753257E+02  0.14862753257E+02  0.00000000000E+00 0. -1.
         -1   -1    0    0    0  501 -0.00000000000E+00 -0.00000000000E+00 -0.87313911301E+03  0.87313911301E+03  0.00000000000E+00 0.  1.
         23    2    1    2    0    0 -0.21310420774E+02 -0.22754919853E+02 -0.52171147336E+03  0.53740303624E+03  0.12508893443E+03 0.  0.
          5    1    3    3  502    0 -0.44128203674E+02 -0.65124216257E+02 -0.36551864668E+03  0.37391150741E+03  0.41800000000E+01 0. -1.
         -5    1    3    3    0  502  0.22817782899E+02  0.42369296405E+02 -0.15619282668E+03  0.16349152883E+03  0.41800000000E+01 0. -1.
        -11    1    1    2    0    0 -0.27685436124E+02  0.76898040736E+01 -0.37866779187E+02  0.47534297366E+02  0.00000000000E+00 0. -1.
         11    1    1    2    0    0  0.48995856899E+02  0.15065115779E+02 -0.29869810721E+03  0.30306453266E+03  0.00000000000E+00 0.  1.
</event>
<event>
 7    1  0.6833760E-006  0.1174300E+03  0.7561462E-02  0.1247398E+00
         -2   -1    0    0    0  501 -0.00000000000E+00  0.00000000000E+00  0.53295199644E+03  0.53295199644E+03  0.00000000000E+00 0.  1.
          2   -1    0    0  501    0  0.00000000000E+00 -0.00000000000E+00 -0.34289689257E+02  0.34289689257E+02  0.00000000000E+00 0. -1.
         23    2    1    2    0    0 -0.70981345277E+02 -0.11785694951E+02  0.36101432615E+03  0.38878908764E+03  0.12509339311E+03 0.  0.
          5    1    3    3  502    0 -0.26506337128E+02  0.47599184461E+02  0.72071300271E+02  0.90443424261E+02  0.41800000000E+01 0. -1.
         -5    1    3    3    0  502 -0.44475008149E+02 -0.59384879412E+02  0.28894302588E+03  0.29834566338E+03  0.41800000000E+01 0. -1.
        -11    1    1    2    0    0  0.32383692211E+02 -0.33372419275E+02  0.93543859681E+02  0.10446470970E+03  0.00000000000E+00 0. -1.
         11    1    1    2    0    0  0.38597653066E+02  0.45158114226E+02  0.44104121348E+02  0.73987888350E+02  0.00000000000E+00 0.  1.
</event>
<event>
 7    1  0.6833760E-006  0.1571805E+03  0.7561462E-02  0.1191917E+00
          2   -1    0    0  501    0  0.00000000000E+00  0.00000000000E+00  0.11831034766E+04  0.11831034766E+04  0.00000000000E+00 0. -1.
         -2   -1    0    0    0  501 -0.00000000000E+00 -0.00000000000E+00 -0.22257926063E+02  0.22257926063E+02  0.00000000000E+00 0.  1.
         23    2    1    2    0    0 -0.95917356464E+02 -0.70092812909E+02  0.67243845016E+03  0.69421518637E+03  0.12509242199E+03 0.  0.
          5    1    3    3  502    0 -0.19782213486E+02  0.33232512728E+02  0.23932862039E+03  0.24246937294E+03  0.41800000000E+01 0.  1.
         -5    1    3    3    0  502 -0.76135142977E+02 -0.10332532564E+03  0.43310982977E+03  0.45174581343E+03  0.41800000000E+01 0.  1.
        -11    1    1    2    0    0 -0.16417006213E+02  0.13540754543E+02  0.38483118549E+02  0.43975226433E+02  0.00000000000E+00 0.  1.
         11    1    1    2    0    0  0.11233436268E+03  0.56552058366E+02  0.44992398186E+03  0.46717098989E+03  0.00000000000E+00 0. -1.
</event>
<event>
 7    1  0.6833760E-006  0.8856812E+02  0.7561462E-02  0.1306357E+00
          1   -1    0    0  501    0  0.00000000000E+00  0.00000000000E+00  0.27289827575E+02  0.27289827575E+02  0.00000000000E+00 0.  1.
         -1   -1    0    0    0  501 -0.00000000000E+00 -0.00000000000E+00 -0.51201241008E+03  0.51201241008E+03  0.00000000000E+00 0. -1.
         23    2    1    2    0    0  0.25546489614E+02  0.33415237412E+02 -0.33779017848E+03  0.36265526744E+03  0.12508971620E+03 0.  0.
          5    1    3    3  502    0 -0.41152486402E+02  0.13747073755E+02 -0.49001688966E+02  0.65583131180E+02  0.41800000000E+01 0. -1.
         -5    1    3    3    0  502  0.66698976015E+02  0.19668163657E+02 -0.28878848952E+03  0.29707213626E+03  0.41800000000E+01 0. -1.
        -11    1    1    2    0    0 -0.24004700600E+02  0.57534069089E+01 -0.11300242777E+00  0.24684815403E+02  0.00000000000E+00 0.  1.
         11    1    1    2    0    0 -0.15417890138E+01 -0.39168644321E+02 -0.14681940159E+03  0.15196215481E+03  0.00000000000E+00 0. -1.
</event>
<event>
 7    1  0.6833760E-006  0.1573340E+03  0.7561462E-02  0.1191740E+00
          4   -1    0    0  501    0  0.00000000000E+00  0.00000000000E+00  0.41059712559E+02  0.41059712559E+02  0.00000000000E+00 0. -1.
         -4   -1    0    0    0  501 -0.00000000000E+00 -0.00000000000E+00 -0.91323636227E+03  0.91323636227E+03  0.00000000000E+00 0.  1.
         23    2    1    2    0    0  0.11829340972E+03  0.94674042268E+02 -0.58853571335E+03  0.62046634382E+03  0.12509073851E+03 0.  0.
          5    1    3    3  502    0  0.69031378232E+02  0.17250015539E+02 -0.96726821392E+02  0.12015175651E+03  0.41800000000E+01 0. -1.
         -5    1    3    3    0  502  0.49262031483E+02  0.77424026729E+02 -0.49180889196E+03  0.50031458731E+03  0.41800000000E+01 0. -1.
        -11    1    1    2    0    0 -0.33657169355E+02 -0.28167196392E+02 -0.18418480826E+02  0.47596601113E+02  0.00000000000E+00 0. -1.
         11    1    1    2    0    0 -0.84636240360E+02 -0.66506845876E+02 -0.26522245553E+03  0.28623312989E+03  0.00000000000E+00 0.  1.
</event>
<event>
 7    1  0.6833760E-006  0.6011425E+02  0.7561462E-02  0.1397353E+00
          2   -1    0    0  501    0  0.00000000000E+00  0.00000000000E+00  0.29653917576E+03  0.29653917576E+03  0.00000000000E+00 0. -1.
         -2   -1    0    0    0  501 -0.00000000000E+00 -0.00000000000E+00 -0.40844976675E+02  0.40844976675E+02  0.00000000000E+00 0.  1.
         23    2    1    2    0    0  0.21500871638E+02  0.85877513486E+01  0.12192095844E+03  0.17620442555E+03  0.12508893846E+03 0.  0.
          5    1    3    3  502    0 -0.13357347352E+02 -0.52475759164E+01  0.13533310857E+03  0.13615608123E+03  0.41800000000E+01 0. -1.
         -5    1    3    3    0  502  0.34858218991E+02  0.13835327265E+02 -0.13412150134E+02  0.40048344322E+02  0.41800000000E+01 0. -1.
        -11    1    1    2    0    0  0.20637750265E+02  0.81709725392E+01  0.25511321115E+01  0.22342555881E+02  0.00000000000E+00 0.  1.
         11    1    1    2    0    0 -0.42138621904E+02 -0.16758723888E+02  0.13122210853E+03  0.13883717100E+03  0.00000000000E+00 0. -1.
</event>
<event>
 7    1  0.6833760E-006  0.1168354E+03  0.7561462E-02  0.1248411E+00
          2   -1    0    0  501    0  0.00000000000E+00  0.00000000000E+00  0.76841269069E+03  0.76841269069E+03  0.00000000000E+00 0. -1.
         -2   -1    0    0    0  501 -0.00000000000E+00 -0.00000000000E+00 -0.34811803914E+02  0.34811803914E+02  0.00000000000E+00 0.  1.
         23    2    1    2    0    0  0.82038862939E+02 -0.78026216339E+02  0.29812522449E+03  0.34255201903E+03  0.12507905818E+03 0.  0.
          5    1    3    3  502    0  0.49804347008E+02 -0.30226992075E+02  0.25269919234E+02  0.63641065743E+02  0.41800000000E+01 0. -1.
         -5    1    3    3    0  502  0.32234515932E+02 -0.47799224264E+02  0.27285530525E+03  0.27891095329E+03  0.41800000000E+01 0. -1.
        -11    1    1    2    0    0 -0.74401103312E+02  0.53150060351E+02  0.42116229302E+03  0.43097346804E+03  0.00000000000E+00 0. -1.
         11    1    1    2    0    0 -0.76377596272E+01  0.24876155988E+02  0.14313369263E+02  0.29699007534E+02  0.00000000000E+00 0.  1.
</event>
<event>
 7    1  0.6833760E-006  0.9864888E+02  0.7561462E-02  0.1283163E+00
         -1   -1    0    0    0  501 -0.00000000000E+00  0.00000000000E+00  0.54390350777E+02  0.54390350777E+02  0.00000000000E+00 0.  1.
          1   -1    0    0  501    0  0.00000000000E+00 -0.00000000000E+00 -0.23021907454E+03  0.23021907454E+03  0.00000000000E+00 0. -1.
         23    2    1    2    0    0 -0.32049277229E+02  0.87208744159E+01 -0.10555594460E+03  0.16701061194E+03  0.12508907721E+03 0.  0.
          5    1    3    3  502    0 -0.75043928779E+02 -0.42099707127E+01 -0.94064970259E+02  0.12047823924E+03  0.41800000000E+01 0.  1.
         -5    1    3    3    0  502  0.42994651550E+02  0.12930845129E+02 -0.11490974340E+02  0.46532372699E+02  0.41800000000E+01 0.  1.
        -11    1    1    2    0    0  0.22957307296E+02  0.29647914935E+02 -0.68543401299E+02  0.78129601816E+02  0.00000000000E+00 0. -1.
         11    1    1    2    0    0  0.90919699324E+01 -0.38368789351E+02 -0.17293778629E+01  0.39469211562E+02  0.00000000000E+00 0.  1.
</event>
<event>
 7    1  0.6833760E-006  0.1312313E+03  0.7561462E-02  0.1225640E+00
         -2   -1    0    0    0  501 -0.00000000000E+00  0.00000000000E+00  0.11859084666E+03  0.11859084666E+03  0.00000000000E+00 0.  1.
          2   -1    0    0  501    0  0.00000000000E+00 -0.00000000000E+00 -0.18114465491E+03  0.18114465491E+03  0.00000000000E+00 0. -1.
         23    2    1    2    0    0 -0.75240244121E+02 -0.24556622613E+02  0.26989842430E+02  0.15047600852E+03  0.12510178054E+03 0.  0.
          5    1    3    3  502    0 -0.10948223290E+03 -0.17354459157E+02  0.10068496849E+02  0.11138394679E+03  0.41800000000E+01 0. -1.
         -5    1    3    3    0  502  0.34241988778E+02 -0.72021634558E+01  0.16921345581E+02  0.39092061728E+02  0.41800000000E+01 0. -1.
        -11    1    1    2    0    0  0.88117979237E+02 -0.50342044241E+00 -0.51996005249E+02  0.10231625608E+03  0.00000000000E+00 0.  1.
         11    1    1    2    0    0 -0.12877735117E+02  0.25060043055E+02 -0.37547645433E+02  0.46943236970E+02  0.00000000000E+00 0. -1.
</event>
<event>
 7    1  0.6833760E-006  0.2075091E+03  0.7561462E-02  0.1143554E+00
         -2   -1    0    0    0  501 -0.00000000000E+00  0.00000000000E+00  0.74403667290E+02  0.74403667290E+02  0.00000000000E+00 0.  1.
          2   -1    0    0  501    0  0.00000000000E+00 -0.00000000000E+00 -0.66999870897E+03  0.66999870897E+03  0.00000000000E+00 0. -1.
         23    2    1    2    0    0 -0.47708556667E+00  0.19089379340E+03 -0.24266789596E+03  0.33313107201E+03  0.12509170814E+03 0.  0.
          5    1    3    3  502    0  0.41241367791E+02  0.16450153442E+03 -0.14317948981E+03  0.22198973838E+03  0.41800000000E+01 0.  1.
         -5    1    3    3    0  502 -0.41718453358E+02  0.26392258978E+02 -0.99488406141E+02  0.11114133363E+03  0.41800000000E+01 0.  1.
        -11    1    1    2    0    0  0.20004759442E+02 -0.13811711881E+03 -0.17034255883E+03  0.22021152616E+03  0.00000000000E+00 0.  1.
         11    1    1    2    0    0 -0.19527673875E+02 -0.52776674594E+02 -0.18258458690E+03  0.19105977809E+03  0.00000000000E+00 0. -1.
</event>
<event>
 7    1  0.6833760E-006  0.1709541E+03  0.7561462E-02  0.1176857E+00
         -1   -1    0    0    0  501 -0.00000000000E+00  0.00000000000E+00  0.32266745208E+03  0.32266745208E+03  0.00000000000E+00 0.  1.
          1   -1    0    0  501    0  0.00000000000E+00 -0.00000000000E+00 -0.12841495977E+03  0.12841495977E+03  0.00000000000E+00 0. -1.
         23    2    1    2    0    0 -0.15324783921E+03  0.62722599673E+02  0.49859585951E+02  0.21349418467E+03  0.12519889714E+03 0.  0.
          5    1    3    3  502    0 -0.98106600412E+02  0.53870733446E+02 -0.30004302413E+02  0.11595124635E+03  0.41800000000E+01 0.  1.
         -5    1    3    3    0  502 -0.55141238794E+02  0.88518662272E+01  0.79863888363E+02  0.97542938319E+02  0.41800000000E+01 0.  1.
        -11    1    1    2    0    0  0.57081407107E+02  0.34235720763E+01  0.94926389626E+02  0.11081979665E+03  0.00000000000E+00 0.  1.
         11    1    1    2    0    0  0.96166432098E+02 -0.66146171750E+02  0.49466516730E+02  0.12676843052E+03  0.00000000000E+00 0. -1.
</event>
<event>
 7    1  0.6833760E-006  0.1072662E+03  0.7561462E-02  0.1265718E+00
         -3   -1    0    0    0  501 -0.00000000000E+00  0.00000000000E+00  0.13387050454E+03  0.13387050454E+03  0.00000000000E+00 0.  1.
          3   -1    0    0  501    0  0.00000000000E+00 -0.00000000000E+00 -0.89053107185E+02  0.89053107185E+02  0.00000000000E+00 0. -1.
         23    2    1    2    0    0  0.16082648709E+02  0.32312719720E+02  0.28738661786E+02  0.12244892701E+03  0.11342427253E+03 0.  0.
          5    1    3    3  502    0 -0.38730401166E+02  0.47835240772E+02  0.11232504076E+02  0.62704830612E+02  0.41800000000E+01 0. -1.
         -5    1    3    3    0  502  0.54813049875E+02 -0.15522521053E+02  0.17506157710E+02  0.59744096396E+02  0.41800000000E+01 0.  1.
        -11    1    1    2    0    0  0.35908499087E+02 -0.29967828304E+01 -0.65847686512E+01  0.36630044939E+02  0.00000000000E+00 0.  1.
         11    1    1    2    0    0 -0.51991147796E+02 -0.29315936889E+02  0.22663504222E+02  0.63844639779E+02  0.00000000000E+00 0. -1.
</event>
<event>
 7    1  0.6833760E-006  0.1665227E+03  0.7561462E-02  0.1181523E+00
          2   -1    0    0  501    0  0.00000000000E+00  0.00000000000E+00  0.64567142187E+03  0.64567142187E+03  0.00000000000E+00 0. -1.
         -2   -1    0    0    0  501 -0.00000000000E+00 -0.00000000000E+00 -0.51300297596E+02  0.51300297596E+02  0.00000000000E+00 0.  1.
         23    2    1    2    0    0 -0.37542262420E+02 -0.13117360541E+03  0.21274855913E+03  0.28200332866E+03  0.12509193315E+03 0.  0.
          5    1    3    3  502    0 -0.70602729048E+02 -0.13246929880E+03  0.15863127151E+03  0.21843583308E+03  0.41800000000E+01 0. -1.
         -5    1    3    3    0  502  0.33060466627E+02  0.12956933842E+01  0.54117287628E+02  0.63567495587E+02  0.41800000000E+01 0. -1.
        -11    1    1    2    0    0  0.54509348783E+02  0.10560013159E+03  0.21606462945E+03  0.24658990449E+03  0.00000000000E+00 0. -1.
         11    1    1    2    0    0 -0.16967086363E+02  0.25573473824E+02  0.16555793570E+03  0.16837848632E+03  0.00000000000E+00 0.  1.
</event>
<event>
 6    1  0.6833760E-006  0.1235851E+03  0.7561462E-02  0.1237297E+00
          2   -1    0    0  501    0  0.00000000000E+00  0.00000000000E+00  0.59689201709E+03  0.59689201709E+03  0.00000000000E+00 0. -1.
         -2   -1    0    0    0  501 -0.00000000000E+00 -0.00000000000E+00 -0.46591363580E+02  0.46591363580E+02  0.00000000000E+00 0.  1.
          5    1    1    2  502    0  0.25775010518E+02 -0.25552001342E+02  0.28028747708E+03  0.28265844787E+03  0.41800000000E+01 0. -1.
         -5    1    1    2    0  502  0.42924670995E+02 -0.51178123603E+02  0.16552398638E+02  0.68943324667E+02  0.41800000000E+01 0.  1.
        -11    1    1    2    0    0 -0.94520850787E+02  0.68048300529E+02  0.19053496660E+03  0.22331219388E+03  0.00000000000E+00 0.  1.
         11    1    1    2    0    0  0.25821169274E+02  0.86818244163E+01  0.62925811187E+02  0.68569414256E+02  0.00000000000E+00 0. -1.
</event>
<event>
 7    1  0.6833760E-006  0.2270343E+03  0.7561462E-02  0.1128745E+00
         -2   -1    0    0    0  501 -0.00000000000E+00  0.00000000000E+00  0.31394325869E+03  0.31394325869E+03  0.00000000000E+00 0.  1.
          2   -1    0    0  501    0  0.00000000000E+00 -0.00000000000E+00 -0.17973951126E+03  0.17973951126E+03  0.00000000000E+00 0. -1.
         23    2    1    2    0    0  0.18630720964E+03 -0.81214387568E+02  0.12919436788E+03  0.27137792656E+03  0.12509452913E+03 0.  0.
          5    1    3    3  502    0  0.19836736527E+02  0.29703996896E+02  0.35182353009E+02  0.50309978244E+02  0.41800000000E+01 0. -1.
         -5    1    3    3    0  502  0.16647047311E+03 -0.11091838446E+03  0.94012014873E+02  0.22106794831E+03  0.41800000000E+01 0. -1.
        -11    1    1    2    0    0 -0.99074397256E+02  0.85242853911E+02  0.24137627722E+02  0.13290863556E+03  0.00000000000E+00 0. -1.
         11    1    1    2    0    0 -0.87232812382E+02 -0.40284663428E+01 -0.19128248178E+02  0.89396207836E+02  0.00000000000E+00 0.  1.
</event>
<event>
 7    1  0.6833760E-006  0.8284921E+02  0.7561462E-02  0.1321155E+00
         -1   -1    0    0    0  501 -0.00000000000E+00  0.00000000000E+00  0.12062466267E+03  0.12062466267E+03  0.00000000000E+00 0.  1.
          1   -1    0    0  501    0  0.00000000000E+00 -0.00000000000E+00 -0.13244638848E+03  0.13244638848E+03  0.00000000000E+00 0. -1.
         23    2    1    2    0    0 -0.30034196362E+02  0.16172451528E+02  0.38896922867E+02  0.13536878630E+03  0.12509251200E+03 0.  0.
          5    1    3    3  502    0 -0.37151166612E+02  0.44888797525E+02 -0.25985649506E+02  0.63936997928E+02  0.41800000000E+01 0. -1.
         -5    1    3    3    0  502  0.71169702498E+01 -0.28716345996E+02  0.64882572373E+02  0.71431788376E+02  0.41800000000E+01 0. -1.
        -11    1    1    2    0    0  0.48497943446E+02  0.56384383281E+01  0.10680102946E+02  0.49979066660E+02  0.00000000000E+00 0.  1.
         11    1    1    2    0    0 -0.18463747084E+02 -0.21810889857E+02 -0.61398751622E+02  0.67723198192E+02  0.00000000000E+00 0. -1.
</event>
<event>
 7    1  0.6833760E-006  0.8451099E+02  0.7561462E-02  0.1316716E+00
          3   -1    0    0  501    0  0.00000000000E+00  0.00000000000E+00  0.76833760606E+02  0.76833760606E+02  0.00000000000E+00 0. -1.
         -3   -1    0    0    0  501 -0.00000000000E+00 -0.00000000000E+00 -0.25965999412E+03  0.25965999412E+03  0.00000000000E+00 0.  1.
         23    2    1    2    0    0  0.62259959848E+02  0.36312494721E+02 -0.16544141711E+03  0.21957681772E+03  0.12509283158E+03 0.  0.
          5    1    3    3  502    0  0.32321435839E+02 -0.12264996503E+02 -0.15810385696E+03  0.16189319732E+03  0.41800000000E+01 0.  1.
         -5    1    3    3    0  502  0.29938524010E+02  0.48577491224E+02 -0.73375601544E+01  0.57683620400E+02  0.41800000000E+01 0.  1.
        -11    1    1    2    0    0 -0.30908991993E+02 -0.27089549361E+01  0.35304340423E+02  0.47001071005E+02  0.00000000000E+00 0. -1.
         11    1    1    2    0    0 -0.31350967855E+02 -0.33603539785E+02 -0.52689156823E+02  0.69915865998E+02  0.00000000000E+00 0.  1.
</event>
<event>
 7    1  0.6833760E-006  0.1031768E+03  0.7561462E-02  0.1273754E+00
          2   -1    0    0  501    0  0.00000000000E+00  0.00000000000E+00  0.29213126058E+03  0.29213126058E+03  0.00000000000E+00 0. -1.
         -2   -1    0    0    0  501 -0.00000000000E+00 -0.00000000000E+00 -0.81335457616E+02  0.81335457616E+02  0.00000000000E+00 0.  1.
         23    2    1    2    0    0  0.54236668196E+02 -0.60807823090E+02  0.27690293293E+02  0.15183311619E+03  0.12508930931E+03 0.  0.
          5    1    3    3  502    0  0.39760800627E+02 -0.27353504435E+02 -0.47702505510E+02  0.67986299379E+02  0.41800000000E+01 0. -1.
         -5    1    3    3    0  502  0.14475867570E+02 -0.33454318655E+02  0.75392798803E+02  0.83846816815E+02  0.41800000000E+01 0. -1.
        -11    1    1    2    0    0 -0.78892360355E+02  0.54130270658E+02  0.16348523783E+03  0.18942416349E+03  0.00000000000E+00 0.  1.
         11    1    1    2    0    0  0.24655692159E+02  0.66775524318E+01  0.19620271835E+02  0.32209438511E+02  0.00000000000E+00 0. -1.
</event>
<event>
 7    1  0.6833760E-006  0.1020210E+03  0.7561462E-02  0.1276103E+00
          1   -1    0    0  501    0  0.00000000000E+00  0.00000000000E+00  0.43108616207E+02  0.43108616207E+02  0.00000000000E+00 0. -1.
         -1   -1    0    0    0  501 -0.00000000000E+00 -0.00000000000E+00 -0.28917751604E+03  0.28917751604E+03  0.00000000000E+00 0.  1.
         23    2    1    2    0    0 -0.20641451278E+02 -0.12749898583E+02 -0.15750439732E+03  0.20259256460E+03  0.12508989820E+03 0.  0.
          5    1    3    3  502    0  0.51323115989E+02 -0.15787470335E+02 -0.52688731124E+02  0.75345081073E+02  0.41800000000E+01 0.  1.
         -5    1    3    3    0  502 -0.71964567267E+02  0.30375717519E+01 -0.10481566620E+03  0.12724748353E+03  0.41800000000E+01 0.  1.
        -11    1    1    2    0    0  0.95336468858E+01  0.43920188966E+02 -0.85334324926E+02  0.96445945650E+02  0.00000000000E+00 0.  1.
         11    1    1    2    0    0  0.11107804392E+02 -0.31170290383E+02 -0.32301775823E+01  0.33247621993E+02  0.00000000000E+00 0. -1.
</event>
<event>
 7    1  0.6833760E-006  0.1285560E+03  0.7561462E-02  0.1229614E+00
         -1   -1    0    0    0  501 -0.00000000000E+00  0.00000000000E+00  0.37178327688E+02  0.37178327688E+02  0.00000000000E+00 0.  1.
          1   -1    0    0  501    0  0.00000000000E+00 -0.00000000000E+00 -0.70865335544E+03  0.70865335544E+03  0.00000000000E+00 0. -1.
         23    2    1    2    0    0 -0.28127033123E+02 -0.10839773118E+03 -0.26011269935E+03  0.30959153764E+03  0.12508839155E+03 0.  0.
          5    1    3    3  502    0 -0.18612414043E+01 -0.20710122851E+02  0.10657550549E+02  0.23736663451E+02  0.41800000000E+01 0. -1.
         -5    1    3    3    0  502 -0.26265791719E+02 -0.87687608326E+02 -0.27077024990E+03  0.28585487419E+03  0.41800000000E+01 0. -1.
        -11    1    1    2    0    0  0.52864533434E+02  0.27328280597E+02 -0.14572557593E+03  0.15740850452E+03  0.00000000000E+00 0. -1.
         11    1    1    2    0    0 -0.24737500311E+02  0.81069450580E+02 -0.26563675247E+03  0.27883164096E+03  0.00000000000E+00 0.  1.
</event>
<event>
 7    1  0.6833760E-006  0.2096699E+03  0.7561462E-02  0.1141828E+00
          1   -1    0    0  501    0  0.00000000000E+00  0.00000000000E+00  0.21133735980E+03  0.21133735980E+03  0.00000000000E+00 0. -1.
         -1   -1    0    0    0  501 -0.00000000000E+00 -0.00000000000E+00 -0.30049353426E+03  0.30049353426E+03  0.00000000000E+00 0.  1.
         23    2    1    2    0    0  0.11631685191E+03 -0.17071336953E+03 -0.14299132364E+03  0.28064576616E+03  0.12507143099E+03 0.  0.
          5    1    3    3  502    0  0.94486418021E+02 -0.14347726230E+03 -0.46611572974E+02  0.17805482055E+03  0.41800000000E+01 0. -1.
         -5    1    3    3    0  502  0.21830433891E+02 -0.27236107233E+02 -0.96379750669E+02  0.10259094560E+03  0.41800000000E+01 0. -1.
        -11    1    1    2    0    0 -0.11186754227E+03  0.13051952110E+03  0.10962375795E+02  0.17224942985E+03  0.00000000000E+00 0.  1.
         11    1    1    2    0    0 -0.44493096458E+01  0.40193848431E+02  0.42872773385E+02  0.58935698059E+02  0.00000000000E+00 0. -1.
</event>
<event>
 7    1  0.6833760E-006  0.1052942E+03  0.7561462E-02  0.1269541E+00
          2   -1    0    0  501    0  0.00000000000E+00  0.00000000000E+00  0.56910879289E+03  0.56910879289E+03  0.00000000000E+00 0.  1.
         -2   -1    0    0    0  501 -0.00000000000E+00 -0.00000000000E+00 -0.24101070801E+02  0.24101070801E+02  0.00000000000E+00 0. -1.
         23    2    1    2    0    0  0.37811270663E+02 -0.35911288258E+01  0.25323805431E+03  0.28498994775E+03  0.12508864766E+03 0.  0.
          5    1    3    3  502    0  0.65679055592E+02 -0.33065343235E+02  0.22117755664E+03  0.23311808002E+03  0.41800000000E+01 0.  1.
         -5    1    3    3    0  502 -0.27867784928E+02  0.29474214409E+02  0.32060497669E+02  0.51871867738E+02  0.41800000000E+01 0.  1.
        -11    1    1    2    0    0 -0.62501296790E+02 -0.16142507030E+02  0.22924716771E+03  0.23816224835E+03  0.00000000000E+00 0. -1.
         11    1    1    2    0    0  0.24690026126E+02  0.19733635855E+02  0.62522500058E+02  0.70057667587E+02  0.00000000000E+00 0.  1.
</event>
<event>
 7    1  0.6833760E-006  0.1069222E+03  0.7561462E-02  0.1266378E+00
         -1   -1    0    0    0  501 -0.00000000000E+00  0.00000000000E+00  0.27975276858E+02  0.27975276858E+02  0.00000000000E+00 0.  1.
          1   -1    0    0  501    0  0.00000000000E+00 -0.00000000000E+00 -0.44497897264E+03  0.44497897264E+03  0.00000000000E+00 0. -1.
         23    2    1    2    0    0 -0.88310626206E+01 -0.28004126067E+02 -0.22726045145E+03  0.26106776334E+03  0.12508735155E+03 0.  0.
          5    1    3    3  502    0  0.45223986737E+02 -0.44579145442E+02 -0.16507852502E+03  0.17692060651E+03  0.41800000000E+01 0.  1.
         -5    1    3    3    0  502 -0.54055049358E+02  0.16575019375E+02 -0.62181926437E+02  0.84147156837E+02  0.41800000000E+01 0.  1.
        -11    1    1    2    0    0  0.33895189002E+02 -0.20001516167E+02 -0.93651823883E+02  0.10158547437E+03  0.00000000000E+00 0. -1.
         11    1    1    2    0    0 -0.25064126382E+02  0.48005642234E+02 -0.96091420443E+02  0.11030101178E+03  0.00000000000E+00 0.  1.
</event>
<event>
 7    1  0.6833760E-006  0.1048384E+03  0.7561462E-02  0.1270438E+00
          1   -1    0    0  501    0  0.00000000000E+00  0.00000000000E+00  0.78233314362E+03  0.78233314362E+03  0.00000000000E+00 0. -1.
         -1   -1    0    0    0  501 -0.00000000000E+00 -0.00000000000E+00 -0.27637779777E+02  0.27637779777E+02  0.00000000000E+00 0.  1.
         23    2    1    2    0    0 -0.83092163578E+02 -0.24958222695E+02  0.27994037973E+03  0.31865394859E+03  0.12508597932E+03 0.  0.
          5    1    3    3  502    0 -0.33055657438E+02  0.80194560734E+01  0.24849942979E+03  0.25085140457E+03  0.41800000000E+01 0.  1.
         -5    1    3    3    0  502 -0.50036506140E+02 -0.32977678769E+02  0.31440949933E+02  0.67802544026E+02  0.41800000000E+01 0.  1.
        -11    1    1    2    0    0  0.43676203915E+02  0.51717864325E+02  0.37129045613E+03  0.37741085185E+03  0.00000000000E+00 0. -1.
         11    1    1    2    0    0  0.39415959663E+02 -0.26759641630E+02  0.10346452798E+03  0.11390612296E+03  0.00000000000E+00 0.  1.
</event>
<event>
 7    1  0.6833760E-006  0.6402630E+02  0.7561462E-02  0.1381672E+00
          2   -1    0    0  501    0  0.00000000000E+00  0.00000000000E+00  0.25082320404E+02  0.25082320404E+02  0.00000000000E+00 0.  1.
         -2   -1    0    0    0  501 -0.00000000000E+00 -0.00000000000E+00 -0.61385826477E+03  0.61385826477E+03  0.00000000000E+00 0. -1.
         23    2    1    2    0    0  0.16947161527E+02 -0.37084651238E+02 -0.42565867363E+03  0.44552380784E+03  0.12507469478E+03 0.  0.
          5    1    3    3  502    0 -0.12068441008E+02  0.13189187054E+02 -0.26726832830E+01  0.18553101073E+02  0.41800000000E+01 0. -1.
         -5    1    3    3    0  502  0.29015602535E+02 -0.50273838292E+02 -0.42298599035E+03  0.42697070677E+03  0.41800000000E+01 0. -1.
        -11    1    1    2    0    0 -0.60423955937E+01  0.39802174222E+02 -0.17350424156E+03  0.17811357460E+03  0.00000000000E+00 0. -1.
         11    1    1    2    0    0 -0.10904765933E+02 -0.27175229841E+01  0.10386970821E+02  0.15303202739E+02  0.00000000000E+00 0.  1.
</event>
<event>
 7    1  0.6833760E-006  0.1038727E+03  0.7561462E-02  0.1272357E+00
         -1   -1    0    0    0  501 -0.00000000000E+00  0.00000000000E+00  0.25392155175E+03  0.25392155175E+03  0.00000000000E+00 0.  1.
          1   -1    0    0  501    0  0.00000000000E+00 -0.00000000000E+00 -0.53198604259E+02  0.53198604259E+02  0.00000000000E+00 0. -1.
         23    2    1    2    0    0  0.27755799075E+02 -0.28593589814E+02  0.14507610891E+03  0.19563014579E+03  0.12504438733E+03 0.  0.
          5    1    3    3  502    0 -0.23487944547E+02 -0.64261821667E+02  0.71688119492E+02  0.99186310242E+02  0.41800000000E+01 0. -1.
         -5    1    3    3    0  502  0.51243743622E+02  0.35668231853E+02  0.73387989418E+02  0.96443835545E+02  0.41800000000E+01 0. -1.
        -11    1    1    2    0    0 -0.47707877286E+02  0.87888243262E+01 -0.70419993077E+00  0.48515779760E+02  0.00000000000E+00 0. -1.
         11    1    1    2    0    0  0.19952078210E+02  0.19804765488E+02  0.56351038513E+02  0.62974230463E+02  0.00000000000E+00 0.  1.
</event>
<event>
 7    1  0.6833760E-006  0.9268898E+02  0.7561462E-02  0.1296468E+00
          1   -1    0    0  501    0  0.00000000000E+00  0.00000000000E+00  0.26151861199E+03  0.26151861199E+03  0.00000000000E+00 0. -1.
         -1   -1    0    0    0  501 -0.00000000000E+00 -0.00000000000E+00 -0.47372191250E+02  0.47372191250E+02  0.00000000000E+00 0.  1.
         23    2    1    2    0    0 -0.22822591535E+02 -0.15251085029E+01  0.12305206542E+03  0.17695369322E+03  0.12509037572E+03 0.  0.
          5    1    3    3  502    0  0.39897187405E+02  0.24604160142E+02  0.89370512064E+02  0.10100352017E+03  0.41800000000E+01 0. -1.
         -5    1    3    3    0  502 -0.62719778939E+02 -0.26129268645E+02  0.33681553354E+02  0.75950173051E+02  0.41800000000E+01 0. -1.
        -11    1    1    2    0    0 -0.11381454871E+02 -0.24665712820E+02  0.83992049922E+02  0.88275700813E+02  0.00000000000E+00 0. -1.
         11    1    1    2    0    0  0.34204046405E+02  0.26190821323E+02  0.71023053963E+01  0.43661409208E+02  0.00000000000E+00 0.  1.
</event>
<event>
 7    1  0.6833760E-006  0.1536857E+03  0.7561462E-02  0.1196016E+00
         -1   -1    0    0    0  501 -0.00000000000E+00  0.00000000000E+00  0.69935580192E+02  0.69935580192E+02  0.00000000000E+00 0.  1.
          1   -1    0    0  501    0  0.00000000000E+00 -0.00000000000E+00 -0.45884448288E+03  0.45884448288E+03  0.00000000000E+00 0. -1.
         23    2    1    2    0    0 -0.26126124527E+02 -0.11995022770E+03 -0.25611970122E+03  0.31034738777E+03  0.12509024036E+03 0.  0.
          5    1    3    3  502    0 -0.40459181460E+02  0.76807295746E+01 -0.33283817137E+02  0.53115194196E+02  0.41800000000E+01 0.  1.
         -5    1    3    3    0  502  0.14333056934E+02 -0.12763095727E+03 -0.22283588408E+03  0.25723219357E+03  0.41800000000E+01 0.  1.
        -11    1    1    2    0    0  0.44336809987E+02  0.58611150199E+02 -0.27953848087E+01  0.73544774279E+02  0.00000000000E+00 0.  1.
         11    1    1    2    0    0 -0.18210685460E+02  0.61339077499E+02 -0.12999381666E+03  0.14488790102E+03  0.00000000000E+00 0. -1.
</event>
<event>
 7    1  0.6833760E-006  0.9053814E+02  0.7561462E-02  0.1301554E+00
          1   -1    0    0  501    0  0.00000000000E+00  0.00000000000E+00  0.13714183065E+03  0.13714183065E+03  0.00000000000E+00 0. -1.
         -1   -1    0    0    0  501 -0.00000000000E+00 -0.00000000000E+00 -0.87345332071E+02  0.87345332071E+02  0.00000000000E+00 0.  1.
         23    2    1    2    0    0  0.10472362320E+02 -0.17085995339E+02  0.33590818694E+02  0.13106505069E+03  0.12509237708E+03 0.  0.
          5    1    3    3  502    0  0.14061941468E+02  0.37895060534E+02  0.57868244703E+02  0.70710536384E+02  0.41800000000E+01 0.  1.
         -5    1    3    3    0  502 -0.35895791483E+01 -0.54981055874E+02 -0.24277426009E+02  0.60354514306E+02  0.41800000000E+01 0.  1.
        -11    1    1    2    0    0  0.34945902868E+02  0.18900811347E+02 -0.99805286506E+01  0.40964225234E+02  0.00000000000E+00 0. -1.
         11    1    1    2    0    0 -0.45418265188E+02 -0.18148160079E+01  0.26186208539E+02  0.52457886800E+02  0.00000000000E+00 0.  1.
</event>
<event>
 7    1  0.6833760E-006  0.1180202E+03  0.7561462E-02  0.1246399E+00
          2   -1    0    0  501    0  0.00000000000E+00  0.00000000000E+00  0.43737273889E+02  0.43737273889E+02  0.00000000000E+00 0.  1.
         -2   -1    0    0    0  501 -0.00000000000E+00 -0.00000000000E+00 -0.53097035129E+03  0.53097035129E+03  0.00000000000E+00 0. -1.
         23    2    1    2    0    0 -0.55356644323E+02 -0.59771623035E+02 -0.39007768305E+03  0.41766686762E+03  0.12509200017E+03 0.  0.
          5    1    3    3  502    0  0.12605161143E+02  0.27882294559E+02 -0.40754794020E+02  0.51134509608E+02  0.41800000000E+01 0.  1.
         -5    1    3    3    0  502 -0.67961805466E+02 -0.87653917594E+02 -0.34932288903E+03  0.36653235801E+03  0.41800000000E+01 0.  1.
        -11    1    1    2    0    0  0.50143845025E+01  0.39623362885E+02 -0.94680654297E+02  0.10275982306E+03  0.00000000000E+00 0. -1.
         11    1    1    2    0    0  0.50342259821E+02  0.20148260150E+02 -0.24747400565E+01  0.54280934491E+02  0.00000000000E+00 0.  1.
</event>
<event>
 7    1  0.6833760E-006  0.9183405E+02  0.7561462E-02  0.1298470E+00
          2   -1    0    0  501    0  0.00000000000E+00  0.00000000000E+00  0.43839974074E+03  0.43839974074E+03  0.00000000000E+00 0.  1.
         -2   -1    0    0    0  501 -0.00000000000E+00 -0.00000000000E+00 -0.38494948232E+02  0.38494948232E+02  0.00000000000E+00 0. -1.
         23    2    1    2    0    0 -0.48911291788E+02 -0.48916733728E+02  0.18710542303E+03  0.23545920974E+03  0.12508972308E+03 0.  0.
          5    1    3    3  502    0 -0.31817041180E+02 -0.28526344029E+02 -0.33889702761E+01  0.43070104860E+02  0.41800000000E+01 0.  1.
         -5    1    3    3    0  502 -0.17094250608E+02 -0.20390389699E+02  0.19049439330E+03  0.19238910488E+03  0.41800000000E+01 0.  1.
        -11    1    1    2    0    0 -0.26639362221E+02  0.18082242549E+02  0.53165778508E+02  0.62154831827E+02  0.00000000000E+00 0. -1.
         11    1    1    2    0    0  0.75550654008E+02  0.30834491179E+02  0.15963359097E+03  0.17928064741E+03  0.00000000000E+00 0.  1.
</event>
<event>
 7    1  0.8328372E-006  0.1383232E+03  0.7561462E-02  0.1215603E+00
         -1   -1    0    0    0  501 -0.00000000000E+00  0.00000000000E+00  0.10567394557E+03  0.10567394557E+03  0.00000000000E+00 0.  1.
          1   -1    0    0  501    0  0.00000000000E+00 -0.00000000000E+00 -0.22652811052E+03  0.22652811052E+03  0.00000000000E+00 0. -1.
         23    2    1    2    0    0  0.97395739989E+02 -0.38645689355E+02 -0.28871171091E+02  0.16571258540E+03  0.12509075492E+03 0.  0.
          5    1    3    3  502    0 -0.56932994914E+01  0.27680639333E+02 -0.32158162153E+02  0.43014546912E+02  0.41800000000E+01 0.  1.
         -5    1    3    3    0  502  0.10308903948E+03 -0.66326328688E+02  0.32869910620E+01  0.12269803849E+03  0.41800000000E+01 0.  1.
        -11    1    1    2    0    0 -0.79884645427E+02  0.58453338739E+02 -0.37355718858E+02  0.10580075196E+03  0.00000000000E+00 0.  1.
         11    1    1    2    0    0 -0.17511094562E+02 -0.19807649384E+02 -0.54627275004E+02  0.60688718731E+02  0.00000000000E+00 0. -1.
</event>
<event>
 7    1  0.6833760E-006  0.4972445E+02  0.7561462E-02  0.1446833E+00
         -2   -1    0    0    0  501 -0.00000000000E+00  0.00000000000E+00  0.17258761778E+03  0.17258761778E+03  0.00000000000E+00 0.  1.
          2   -1    0    0  501    0  0.00000000000E+00 -0.00000000000E+00 -0.85206340959E+02  0.85206340959E+02  0.00000000000E+00 0. -1.
         23    2    1    2    0    0 -0.39072561890E+02 -0.17327661080E+02  0.86004257598E+02  0.15771008920E+03  0.12509527161E+03 0.  0.
          5    1    3    3  502    0 -0.23460473734E+02 -0.20816817414E+02  0.11774420313E+03  0.12192171048E+03  0.41800000000E+01 0. -1.
         -5    1    3    3    0  502 -0.15612088156E+02  0.34891563335E+01 -0.31739945536E+02  0.35788378717E+02  0.41800000000E+01 0. -1.
        -11    1    1    2    0    0  0.20440352067E+02 -0.61075590150E+01  0.43473932231E+02  0.48426160836E+02  0.00000000000E+00 0.  1.
         11    1    1    2    0    0  0.18632209823E+02  0.23435220095E+02 -0.42096913008E+02  0.51657708704E+02  0.00000000000E+00 0. -1.
</event>
<event>
 7    1  0.6833760E-006  0.1176790E+03  0.7561462E-02  0.1246976E+00
          2   -1    0    0  501    0  0.00000000000E+00  0.00000000000E+00  0.46114107838E+03  0.46114107838E+03  0.00000000000E+00 0. -1.
         -2   -1    0    0    0  501 -0.00000000000E+00 -0.00000000000E+00 -0.42398106215E+02  0.42398106215E+02  0.00000000000E+00 0.  1.
         23    2    1    2    0    0  0.14537184845E+02  0.83379750462E+02  0.18054648189E+03  0.23538927645E+03  0.12509023469E+03 0.  0.
          5    1    3    3  502    0 -0.17767975581E+02 -0.11645292221E+02 -0.68986744133E+01  0.22723949828E+02  0.41800000000E+01 0. -1.
         -5    1    3    3    0  502  0.32305160426E+02  0.95025042683E+02  0.18744515630E+03  0.21266532662E+03  0.41800000000E+01 0. -1.
        -11    1    1    2    0    0  0.21619592942E+02 -0.72260479619E+02  0.10238011066E+03  0.12716395234E+03  0.00000000000E+00 0. -1.
         11    1    1    2    0    0 -0.36156777787E+02 -0.11119270844E+02  0.13581637961E+03  0.14098595581E+03  0.00000000000E+00 0.  1.
</event>
<event>
 7    1  0.6833760E-006  0.1042377E+03  0.7561462E-02  0.1271629E+00
          1   -1    0    0  501    0  0.00000000000E+00  0.00000000000E+00  0.15438466402E+03  0.15438466402E+03  0.00000000000E+00 0. -1.
         -1   -1    0    0    0  501 -0.00000000000E+00 -0.00000000000E+00 -0.87287728162E+02  0.87287728162E+02  0.00000000000E+00 0.  1.
         23    2    1    2    0    0 -0.11594024976E+02 -0.24836545090E+02  0.82932858813E+01  0.12832681396E+03  0.12509083581E+03 0.  0.
          5    1    3    3  502    0 -0.31213851983E+01  0.43824656979E+02  0.32612191582E+02  0.54875960536E+02  0.41800000000E+01 0. -1.
         -5    1    3    3    0  502 -0.84726397774E+01 -0.68661202069E+02 -0.24318905701E+02  0.73450853425E+02  0.41800000000E+01 0. -1.
        -11    1    1    2    0    0  0.46532700541E+02 -0.78478481794E+01  0.40274155336E+02  0.62039411093E+02  0.00000000000E+00 0. -1.
         11    1    1    2    0    0 -0.34938675566E+02  0.32684393269E+02  0.18529494639E+02  0.51306167127E+02  0.00000000000E+00 0.  1.
</event>
<event>
 7    1  0.6833760E-006  0.7210011E+02  0.7561462E-02  0.1353094E+00
          2   -1    0    0  501    0  0.00000000000E+00  0.00000000000E+00  0.44679565842E+02  0.44679565842E+02  0.00000000000E+00 0. -1.
         -2   -1    0    0    0  501 -0.00000000000E+00 -0.00000000000E+00 -0.29010988210E+03  0.29010988210E+03  0.00000000000E+00 0.  1.
         23    2    1    2    0    0 -0.31807456876E+02  0.15090109417E+02 -0.18818281909E+03  0.22869092072E+03  0.12508932050E+03 0.  0.
          5    1    3    3  502    0 -0.39348019122E+01 -0.16484214234E+02 -0.18546012237E+03  0.18627973957E+03  0.41800000000E+01 0.  1.
         -5    1    3    3    0  502 -0.27872654964E+02  0.31574323651E+02 -0.27226967179E+01  0.42411181145E+02  0.41800000000E+01 0.  1.
        -11    1    1    2    0    0 -0.21253240988E+02 -0.22378301789E+02 -0.38522660887E+02  0.49360754099E+02  0.00000000000E+00 0. -1.
         11    1    1    2    0    0  0.53060697864E+02  0.72881923718E+01 -0.18724836288E+02  0.56737773131E+02  0.00000000000E+00 0.  1.
</event>
<event>
 7    1  0.6833760E-006  0.1220255E+03  0.7561462E-02  0.1239793E+00
         -2   -1    0    0    0  501 -0.00000000000E+00  0.00000000000E+00  0.23475140847E+02  0.23475140847E+02  0.00000000000E+00 0.  1.
          2   -1    0    0  501    0  0.00000000000E+00 -0.00000000000E+00 -0.85379151102E+03  0.85379151102E+03  0.00000000000E+00 0. -1.
         23    2    1    2    0    0  0.91350222561E+01 -0.83281212720E+02 -0.34505485643E+03  0.37647034761E+03  0.12509140520E+03 0.  0.
          5    1    3    3  502    0  0.21968231457E+02  0.12755840968E+02 -0.20204310202E+03  0.20367670987E+03  0.41800000000E+01 0. -1.
         -5    1    3    3    0  502 -0.12833209201E+02 -0.96037053687E+02 -0.14301175442E+03  0.17279363773E+03  0.41800000000E+01 0. -1.
        -11    1    1    2    0    0  0.29132232594E+02  0.77282351122E+02 -0.37318712761E+03  0.38221706004E+03  0.00000000000E+00 0.  1.
         11    1    1    2    0    0 -0.38267254850E+02  0.59988615977E+01 -0.11207438612E+03  0.11857924422E+03  0.00000000000E+00 0. -1.
</event>
<event>
 7    1  0.6833760E-006  0.8884141E+02  0.7561462E-02  0.1305682E+00
          2   -1    0    0  501    0  0.00000000000E+00  0.00000000000E+00  0.77683525042E+03  0.77683525042E+03  0.00000000000E+00 0. -1.
         -2   -1    0    0    0  501 -0.00000000000E+00 -0.00000000000E+00 -0.21924399781E+02  0.21924399781E+02  0.00000000000E+00 0.  1.
         23    2    1    2    0    0  0.43389857154E+02 -0.49023787826E+02  0.31098987103E+03  0.34153922753E+03  0.12509329550E+03 0.  0.
          5    1    3    3  502    0 -0.46000434312E+00 -0.98251706399E+01 -0.10324242116E+02  0.14859608251E+02  0.41800000000E+01 0. -1.
         -5    1    3    3    0  502  0.43849861498E+02 -0.39198617187E+02  0.32131411315E+03  0.32667961928E+03  0.41800000000E+01 0. -1.
        -11    1    1    2    0    0  0.13312733133E+02  0.49569234461E+02  0.24815542653E+03  0.25340768256E+03  0.00000000000E+00 0. -1.
         11    1    1    2    0    0 -0.56702590287E+02 -0.54544663405E+00  0.19576555308E+03  0.20381274010E+03  0.00000000000E+00 0.  1.
</event>
<event>
 6    1  0.6833760E-006  0.1527077E+03  0.7561462E-02  0.1197185E+00
          2   -1    0    0  501    0  0.00000000000E+00  0.00000000000E+00  0.64689942140E+02  0.64689942140E+02  0.00000000000E+00 0. -1.
         -2   -1    0    0    0  501 -0.00000000000E+00 -0.00000000000E+00 -0.49336574030E+03  0.49336574030E+03  0.00000000000E+00 0.  1.
          5    1    1    2  502    0 -0.39341369832E+01  0.74657740304E+02 -0.23280051132E+02  0.78413575367E+02  0.41800000000E+01 0. -1.
         -5    1    1    2    0  502 -0.48278458722E+02  0.48866599591E+02 -0.22259108139E+03  0.23298715855E+03  0.41800000000E+01 0.  1.
        -11    1    1    2    0    0  0.72371942335E+02 -0.56758189294E+02 -0.77098311142E+02  0.12001391449E+03  0.00000000000E+00 0.  1.
         11    1    1    2    0    0 -0.20159346630E+02 -0.66766150600E+02 -0.10570635449E+03  0.12664103404E+03  0.00000000000E+00 0. -1.
</event>
<event>
 7    1  0.6833760E-006  0.7316098E+02  0.7561462E-02  0.1349662E+00
         -1   -1    0    0    0  501 -0.00000000000E+00  0.00000000000E+00  0.27883543310E+02  0.27883543310E+02  0.00000000000E+00 0.  1.
          1   -1    0    0  501    0  0.00000000000E+00 -0.00000000000E+00 -0.48107072550E+03  0.48107072550E+03  0.00000000000E+00 0. -1.
         23    2    1    2    0    0 -0.42981914182E+02  0.13868898495E+02 -0.27488963186E+03  0.30537268853E+03  0.12509347666E+03 0.  0.
          5    1    3    3  502    0 -0.21592187952E+02  0.32471595299E+02 -0.12124735720E+02  0.41050075494E+02  0.41800000000E+01 0.  1.
         -5    1    3    3    0  502 -0.21389726229E+02 -0.18602696804E+02 -0.26276489614E+03  0.26432261303E+03  0.41800000000E+01 0.  1.
        -11    1    1    2    0    0  0.79864660997E+01 -0.36111104167E+02 -0.14713398203E+03  0.15171092298E+03  0.00000000000E+00 0. -1.
         11    1    1    2    0    0  0.34995448082E+02  0.22242205673E+02 -0.31163568306E+02  0.51870657305E+02  0.00000000000E+00 0.  1.
</event>
<event>
 6    1  0.6833760E-006  0.2917532E+03  0.7561462E-02  0.1089437E+00
          2   -1    0    0  501    0  0.00000000000E+00  0.00000000000E+00  0.25880627996E+04  0.25880627996E+04  0.00000000000E+00 0. -1.
         -2   -1    0    0    0  501 -0.00000000000E+00 -0.00000000000E+00 -0.40784294054E+02  0.40784294054E+02  0.00000000000E+00 0.  1.
          5    1    1    2  502    0 -0.34177923667E+02  0.26072013638E+03  0.16315335778E+04  0.16525926322E+04  0.41800000000E+01 0. -1.
         -5    1    1    2    0  502 -0.50245738516E+02 -0.13441848155E+03  0.26016576206E+03  0.29714753670E+03  0.41800000000E+01 0.  1.
        -11    1    1    2    0    0  0.80602077220E+02 -0.38942788209E+02  0.31368288619E+03  0.32620574595E+03  0.00000000000E+00 0. -1.
         11    1    1    2    0    0  0.38215849626E+01 -0.87358866627E+02  0.34189627944E+03  0.35290117878E+03  0.00000000000E+00 0.  1.
</event>
<event>
 7    1  0.6833760E-006  0.2509308E+03  0.7561462E-02  0.1112718E+00
          2   -1    0    0  501    0  0.00000000000E+00  0.00000000000E+00  0.20801669094E+04  0.20801669094E+04  0.00000000000E+00 0.  1.
         -2   -1    0    0    0  501 -0.00000000000E+00 -0.00000000000E+00 -0.32013321439E+02  0.32013321439E+02  0.00000000000E+00 0. -1.
         23    2    1    2    0    0 -0.22535778198E+03 -0.58917056447E+02  0.97691940865E+03  0.10120656266E+04  0.12509177497E+03 0.  0.
          5    1    3    3  502    0  0.60573343249E+01 -0.15807966520E+02  0.19656750258E+02  0.26276288462E+02  0.41800000000E+01 0.  1.
         -5    1    3    3    0  502 -0.23141511631E+03 -0.43109089926E+02  0.95726265839E+03  0.98578933816E+03  0.41800000000E+01 0.  1.
        -11    1    1    2    0    0  0.18182480286E+03  0.82291235331E+02  0.80804602329E+03  0.83232834993E+03  0.00000000000E+00 0.  1.
         11    1    1    2    0    0  0.43532979125E+02 -0.23374178885E+02  0.26318815600E+03  0.26778625425E+03  0.00000000000E+00 0. -1.
</event>
<event>
 7    1  0.6833760E-006  0.7196804E+02  0.7561462E-02  0.1353526E+00
          1   -1    0    0  501    0  0.00000000000E+00  0.00000000000E+00  0.24234400011E+03  0.24234400011E+03  0.00000000000E+00 0. -1.
         -1   -1    0    0    0  501 -0.00000000000E+00 -0.00000000000E+00 -0.57768734998E+02  0.57768734998E+02  0.00000000000E+00 0.  1.
         23    2    1    2    0    0  0.30377445970E+02 -0.18217378245E+02  0.73198161297E+02  0.14906828713E+03  0.12493486830E+03 0.  0.
          5    1    3    3  502    0  0.42322303525E+02 -0.38302324019E+02 -0.13812746031E+02  0.58877073245E+02  0.41800000000E+01 0.  1.
         -5    1    3    3    0  502 -0.11944857555E+02  0.20084945775E+02  0.87010907328E+02  0.90191213889E+02  0.41800000000E+01 0.  1.
        -11    1    1    2    0    0  0.12714184061E+02 -0.54116233280E+01 -0.11961073714E+02  0.18275760662E+02  0.00000000000E+00 0.  1.
         11    1    1    2    0    0 -0.43091630031E+02  0.23629001573E+02  0.12333817753E+03  0.13276868731E+03  0.00000000000E+00 0. -1.
</event>
<event>
 7    1  0.6833760E-006  0.1041574E+03  0.7561462E-02  0.1271789E+00
          1   -1    0    0  501    0  0.00000000000E+00  0.00000000000E+00  0.20993189629E+03  0.20993189629E+03  0.00000000000E+00 0. -1.
         -1   -1    0    0    0  501 -0.00000000000E+00 -0.00000000000E+00 -0.69859370960E+02  0.69859370960E+02  0.00000000000E+00 0.  1.
         23    2    1    2    0    0 -0.12941082693E+02  0.26809538072E+02  0.22433593495E+02  0.13052488690E+03  0.12508899644E+03 0.  0.
          5    1    3    3  502    0 -0.48708315843E+02 -0.31229603513E+02 -0.18312742743E+01  0.58039763381E+02  0.41800000000E+01 0. -1.
         -5    1    3    3    0  502  0.35767233150E+02  0.58039141585E+02  0.24264867769E+02  0.72485123515E+02  0.41800000000E+01 0. -1.
        -11    1    1    2    0    0  0.25773386799E+02  0.20531357873E+02  0.82764368873E+02  0.89082797880E+02  0.00000000000E+00 0. -1.
         11    1    1    2    0    0 -0.12832304106E+02 -0.47340895944E+02  0.34874562960E+02  0.60183582472E+02  0.00000000000E+00 0.  1.
</event>
<event>
 7    1  0.6833760E-006  0.9800990E+02  0.7561462E-02  0.1284537E+00
          2   -1    0    0  501    0  0.00000000000E+00  0.00000000000E+00  0.43707107540E+03  0.43707107540E+03  0.00000000000E+00 0. -1.
         -2   -1    0    0    0  501 -0.00000000000E+00 -0.00000000000E+00 -0.34923284636E+02  0.34923284636E+02  0.00000000000E+00 0.  1.
         23    2    1    2    0    0  0.65337342240E+02 -0.17767066857E+02  0.23257125555E+03  0.27261878507E+03  0.12508787355E+03 0.  0.
          5    1    3    3  502    0  0.35277289956E+02  0.39679848359E+02  0.18385166644E+03  0.19141025366E+03  0.41800000000E+01 0.  1.
         -5    1    3    3    0  502  0.30060052285E+02 -0.57446915216E+02  0.48719589110E+02  0.81208531413E+02  0.41800000000E+01 0.  1.
        -11    1    1    2    0    0 -0.47664615576E+02  0.29979347014E+02  0.16872936845E+03  0.17787713906E+03  0.00000000000E+00 0. -1.
         11    1    1    2    0    0 -0.17672726665E+02 -0.12212280157E+02  0.84716676081E+00  0.21498435895E+02  0.00000000000E+00 0.  1.
</event>
<event>
 7    1  0.6833760E-006  0.1238486E+03  0.7561462E-02  0.1236880E+00
         -1   -1    0    0    0  501 -0.00000000000E+00  0.00000000000E+00  0.50697809521E+03  0.50697809521E+03  0.00000000000E+00 0.  1.
          1   -1    0    0  501    0  0.00000000000E+00 -0.00000000000E+00 -0.49606616932E+02  0.49606616932E+02  0.00000000000E+00 0. -1.
         23    2    1    2    0    0 -0.16889856078E+02  0.58747465983E+02  0.41184873331E+03  0.43474519543E+03  0.12508986300E+03 0.  0.
          5    1    3    3  502    0 -0.16860364813E+02 -0.36157770152E+02  0.17535960307E+03  0.17988918542E+03  0.41800000000E+01 0.  1.
         -5    1    3    3    0  502 -0.29491264400E-01  0.94905236136E+02  0.23648913024E+03  0.25485601001E+03  0.41800000000E+01 0.  1.
        -11    1    1    2    0    0  0.51975324722E+02 -0.57456187518E+02  0.26341412170E+02  0.81832254394E+02  0.00000000000E+00 0. -1.
         11    1    1    2    0    0 -0.35085468644E+02 -0.12912784656E+01  0.19181332802E+02  0.40007262317E+02  0.00000000000E+00 0.  1.
</event>
<event>
 7    1  0.6833760E-006  0.1157303E+03  0.7561462E-02  0.1250312E+00
          1   -1    0    0  501    0  0.00000000000E+00  0.00000000000E+00  0.93290434731E+02  0.93290434731E+02  0.00000000000E+00 0. -1.
         -1   -1    0    0    0  501 -0.00000000000E+00 -0.00000000000E+00 -0.23881891782E+03  0.23881891782E+03  0.00000000000E+00 0.  1.
         23    2    1    2    0    0  0.29956625603E+02 -0.82558121243E+02 -0.13777364526E+03  0.20577090187E+03  0.12508734519E+03 0.  0.
          5    1    3    3  502    0 -0.36046622291E+02 -0.29612505633E+02 -0.34516577933E+01  0.46964303572E+02  0.41800000000E+01 0.  1.
         -5    1    3    3    0  502  0.66003247894E+02 -0.52945615610E+02 -0.13432198747E+03  0.15880659829E+03  0.41800000000E+01 0.  1.
        -11    1    1    2    0    0 -0.17986134804E+02  0.15890957370E+01  0.30924698677E+02  0.35810099954E+02  0.00000000000E+00 0. -1.
         11    1    1    2    0    0 -0.11970490799E+02  0.80969025506E+02 -0.38679536502E+02  0.90528350727E+02  0.00000000000E+00 0.  1.
</event>
<event>
 7    1  0.6833760E-006  0.1353147E+03  0.7561462E-02  0.1219776E+00
         -1   -1    0    0    0  501 -0.00000000000E+00  0.00000000000E+00  0.81331068524E+02  0.81331068524E+02  0.00000000000E+00 0.  1.
          1   -1    0    0  501    0  0.00000000000E+00 -0.00000000000E+00 -0.34605276032E+03  0.34605276032E+03  0.00000000000E+00 0. -1.
         23    2    1    2    0    0 -0.51087758168E+02 -0.10061071817E+03 -0.68096440327E+02  0.18170569164E+03  0.12508939821E+03 0.  0.
          5    1    3    3  502    0 -0.71766589663E+02 -0.67941986891E+02  0.48580795914E+01  0.99033480762E+02  0.41800000000E+01 0.  1.
         -5    1    3    3    0  502  0.20678831495E+02 -0.32668731275E+02 -0.72954519919E+02  0.82672210879E+02  0.41800000000E+01 0.  1.
        -11    1    1    2    0    0  0.50205943931E+00  0.77000522149E+02 -0.58515844540E+02  0.96713166307E+02  0.00000000000E+00 0.  1.
         11    1    1    2    0    0  0.50585698729E+02  0.23610196017E+02 -0.13810940693E+03  0.14896497089E+03  0.00000000000E+00 0. -1.
</event>
<event>
 7    1  0.6833760E-006  0.1033015E+03  0.7561462E-02  0.1273503E+00
         -2   -1    0    0    0  501 -0.00000000000E+00  0.00000000000E+00  0.15761890363E+03  0.15761890363E+03  0.00000000000E+00 0.  1.
          2   -1    0    0  501    0  0.00000000000E+00 -0.00000000000E+00 -0.11244951667E+03  0.11244951667E+03  0.00000000000E+00 0. -1.
         23    2    1    2    0    0 -0.32359371161E+02  0.65431635791E+02  0.36072599766E+02  0.14924661508E+03  0.12507954187E+03 0.  0.
          5    1    3    3  502    0 -0.52004838032E+02 -0.94799653936E+01  0.47081102701E+02  0.70911744825E+02  0.41800000000E+01 0. -1.
         -5    1    3    3    0  502  0.19645466870E+02  0.74911601185E+02 -0.11008502935E+02  0.78334870253E+02  0.41800000000E+01 0. -1.
        -11    1    1    2    0    0  0.88028784065E+01 -0.41556900597E+02  0.51499295718E+02  0.66758101493E+02  0.00000000000E+00 0.  1.
         11    1    1    2    0    0  0.23556492755E+02 -0.23874735194E+02 -0.42402508526E+02  0.54063703728E+02  0.00000000000E+00 0. -1.
</event>
<event>
 7    1  0.6833760E-006  0.1004167E+03  0.7561462E-02  0.1279422E+00
          1   -1    0    0  501    0  0.00000000000E+00  0.00000000000E+00  0.77328084828E+02  0.77328084828E+02  0.00000000000E+00 0. -1.
         -1   -1    0    0    0  501 -0.00000000000E+00 -0.00000000000E+00 -0.33501869236E+03  0.33501869236E+03  0.00000000000E+00 0.  1.
         23    2    1    2    0    0 -0.18471988707E+02 -0.49355968300E+02 -0.27440277869E+03  0.30613858134E+03  0.12508685006E+03 0.  0.
          5    1    3    3  502    0 -0.54085146520E+02  0.82896374680E+01 -0.19030408410E+03  0.19805816819E+03  0.41800000000E+01 0.  1.
         -5    1    3    3    0  502  0.35613157814E+02 -0.57645605768E+02 -0.84098694591E+02  0.10808041315E+03  0.41800000000E+01 0.  1.
        -11    1    1    2    0    0  0.38264634364E+02  0.42342252181E+02 -0.22805086705E+02  0.61458282944E+02  0.00000000000E+00 0.  1.
         11    1    1    2    0    0 -0.19792645657E+02  0.70137161189E+01  0.39517257864E+02  0.44749912905E+02  0.00000000000E+00 0. -1.
</event>
<event>
 7    1  0.6833760E-006  0.1061017E+03  0.7561462E-02  0.1267964E+00
         -2   -1    0    0    0  501 -0.00000000000E+00  0.00000000000E+00  0.61656848005E+02  0.61656848005E+02  0.00000000000E+00 0.  1.
          2   -1    0    0  501    0  0.00000000000E+00 -0.00000000000E+00 -0.31383537085E+03  0.31383537085E+03  0.00000000000E+00 0. -1.
         23    2    1    2    0    0 -0.58697223124E+02  0.56321575528E+02 -0.95791015155E+02  0.17731441094E+03  0.12508796054E+03 0.  0.
          5    1    3    3  502    0 -0.74452562740E+02  0.74346984127E+02 -0.33579834735E+02  0.11052482006E+03  0.41800000000E+01 0.  1.
         -5    1    3    3    0  502  0.15755339617E+02 -0.18025408600E+02 -0.62211180420E+02  0.66789590887E+02  0.41800000000E+01 0.  1.
        -11    1    1    2    0    0  0.24421799460E+02 -0.33363433804E+02 -0.15101821570E+03  0.15657600224E+03  0.00000000000E+00 0. -1.
         11    1    1    2    0    0  0.34275423664E+02 -0.22958141724E+02 -0.53692919893E+01  0.41601805672E+02  0.00000000000E+00 0.  1.
</event>
<event>
 7    1  0.6833760E-006  0.7930606E+02  0.7561462E-02  0.1331032E+00
          3   -1    0    0  501    0  0.00000000000E+00  0.00000000000E+00  0.61932808485E+02  0.61932808485E+02  0.00000000000E+00 0. -1.
         -3   -1    0    0    0  501 -0.00000000000E+00 -0.00000000000E+00 -0.19762173017E+03  0.19762173017E+03  0.00000000000E+00 0.  1.
         23    2    1    2    0    0 -0.10137034022E+02 -0.13026529324E+02 -0.81405662961E+02  0.15014586887E+03  0.12507777600E+03 0.  0.
          5    1    3    3  502    0  0.26963638045E+02  0.27569991984E+01 -0.10133252200E+03  0.10497805121E+03  0.41800000000E+01 0. -1.
         -5    1    3    3    0  502 -0.37100672067E+02 -0.15783528523E+02  0.19926859039E+02  0.45167817654E+02  0.41800000000E+01 0. -1.
        -11    1    1    2    0    0 -0.21224264705E+01 -0.38058397600E+02 -0.70540364365E+01  0.38764748833E+02  0.00000000000E+00 0.  1.
         11    1    1    2    0    0  0.12259460492E+02  0.51084926924E+02 -0.47229222289E+02  0.70643920959E+02  0.00000000000E+00 0. -1.
</event>
<event>
 7    1  0.6833760E-006  0.1352738E+03  0.7561462E-02  0.1219834E+00
         -2   -1    0    0    0  501 -0.00000000000E+00  0.00000000000E+00  0.96753730476E+02  0.96753730476E+02  0.00000000000E+00 0.  1.
          2   -1    0    0  501    0  0.00000000000E+00 -0.00000000000E+00 -0.26051984758E+03  0.26051984758E+03  0.00000000000E+00 0. -1.
         23    2    1    2    0    0 -0.10693741394E+03  0.40865328952E+02 -0.49066586527E+02  0.17652620310E+03  0.12509350445E+03 0.  0.
          5    1    3    3  502    0 -0.35678285959E+02  0.63313366219E+02  0.19149316845E+02  0.75270785611E+02  0.41800000000E+01 0. -1.
         -5    1    3    3    0  502 -0.71259127977E+02 -0.22448037267E+02 -0.68215903372E+02  0.10125541748E+03  0.41800000000E+01 0. -1.
        -11    1    1    2    0    0  0.57072206513E+02  0.20887045057E+01 -0.97050459481E+02  0.11260724279E+03  0.00000000000E+00 0. -1.
         11    1    1    2    0    0  0.49865207423E+02 -0.42954033458E+02 -0.17649071094E+02  0.68140132170E+02  0.00000000000E+00 0.  1.
</event>
<event>
 7    1  0.6833760E-006  0.1190862E+03  0.7561462E-02  0.1244612E+00
          2   -1    0    0  501    0  0.00000000000E+00  0.00000000000E+00  0.28973816906E+02  0.28973816906E+02  0.00000000000E+00 0. -1.
         -2   -1    0    0    0  501 -0.00000000000E+00 -0.00000000000E+00 -0.53680902101E+03  0.53680902101E+03  0.00000000000E+00 0.  1.
         23    2    1    2    0    0 -0.53634104300E+02 -0.60388546303E+01 -0.36098960474E+03  0.38584897660E+03  0.12511136280E+03 0.  0.
          5    1    3    3  502    0  0.39524844540E+02  0.81658762982E+01 -0.85075908058E+02  0.94256444891E+02  0.41800000000E+01 0.  1.
         -5    1    3    3    0  502 -0.93158948840E+02 -0.14204730928E+02 -0.27591369668E+03  0.29159253170E+03  0.41800000000E+01 0.  1.
        -11    1    1    2    0    0  0.17848992782E+02 -0.40677618045E+02 -0.73736025844E+02  0.86082847655E+02  0.00000000000E+00 0. -1.
         11    1    1    2    0    0  0.35785111518E+02  0.46716472676E+02 -0.73109573526E+02  0.93851013669E+02  0.00000000000E+00 0.  1.
</event>
<event>
 7    1  0.6833760E-006  0.9518667E+02  0.7561462E-02  0.1290756E+00
         -3   -1    0    0    0  501 -0.00000000000E+00  0.00000000000E+00  0.42800551544E+03  0.42800551544E+03  0.00000000000E+00 0.  1.
          3   -1    0    0  501    0  0.00000000000E+00 -0.00000000000E+00 -0.34316372386E+02  0.34316372386E+02  0.00000000000E+00 0. -1.
         23    2    1    2    0    0  0.52177552421E+01 -0.16413314348E+02  0.31969880398E+03  0.34373128637E+03  0.12508896877E+03 0.  0.
          5    1    3    3  502    0  0.14528937053E+02 -0.56684306040E+02  0.73452055489E+02  0.94004667005E+02  0.41800000000E+01 0.  1.
         -5    1    3    3    0  502 -0.93111818105E+01  0.40270991692E+02  0.24624674849E+03  0.24972661936E+03  0.41800000000E+01 0.  1.
        -11    1    1    2    0    0 -0.20183246363E+01  0.53199751382E+02  0.56834287518E+02  0.77874407986E+02  0.00000000000E+00 0. -1.
         11    1    1    2    0    0 -0.31994306057E+01 -0.36786437034E+02  0.17156051564E+02  0.40716193475E+02  0.00000000000E+00 0.  1.
</event>
<event>
 7    1  0.6833760E-006  0.2033254E+03  0.7561462E-02  0.1146963E+00
          1   -1    0    0  501    0  0.00000000000E+00  0.00000000000E+00  0.88963756967E+02  0.88963756967E+02  0.00000000000E+00 0. -1.
         -1   -1    0    0    0  501 -0.00000000000E+00 -0.00000000000E+00 -0.63324805392E+03  0.63324805392E+03  0.00000000000E+00 0.  1.
         23    2    1    2    0    0 -0.18683084763E+03 -0.45822584371E+02 -0.41625211139E+03  0.47530807130E+03  0.12508584069E+03 0.  0.
          5    1    3    3  502    0 -0.17792851924E+03 -0.19791520071E+02 -0.40910031270E+03  0.44657675765E+03  0.41800000000E+01 0. -1.
         -5    1    3    3    0  502 -0.89023283975E+01 -0.26031064300E+02 -0.71517986912E+01  0.28731313649E+02  0.41800000000E+01 0. -1.
        -11    1    1    2    0    0  0.61647322452E+02 -0.10402295796E+02 -0.52076966353E+01  0.62735318821E+02  0.00000000000E+00 0. -1.
         11    1    1    2    0    0  0.12518352518E+03  0.56224880167E+02 -0.12282448893E+03  0.18416842076E+03  0.00000000000E+00 0.  1.
</event>
<event>
 7    1  0.6833760E-006  0.1002194E+03  0.7561462E-02  0.1279835E+00
          1   -1    0    0  501    0  0.00000000000E+00  0.00000000000E+00  0.47981183774E+02  0.47981183774E+02  0.00000000000E+00 0. -1.
         -1   -1    0    0    0  501 -0.00000000000E+00 -0.00000000000E+00 -0.33072122388E+03  0.33072122388E+03  0.00000000000E+00 0.  1.
         23    2    1    2    0    0 -0.15553353908E+02 -0.99255636116E+01 -0.24909268032E+03  0.27935016146E+03  0.12509566614E+03 0.  0.
          5    1    3    3  502    0 -0.60388340971E+02 -0.25636251087E+02 -0.20158981636E+03  0.21203748620E+03  0.41800000000E+01 0. -1.
         -5    1    3    3    0  502  0.44834987063E+02  0.15710687476E+02 -0.47502863958E+02  0.67312675255E+02  0.41800000000E+01 0. -1.
        -11    1    1    2    0    0  0.36400075941E+02 -0.26510946517E+02  0.81685436498E+00  0.45038462060E+02  0.00000000000E+00 0.  1.
         11    1    1    2    0    0 -0.20846722032E+02  0.36436510129E+02 -0.34464214150E+02  0.54313784133E+02  0.00000000000E+00 0. -1.
</event>
<event>
 7    1  0.6833760E-006  0.2084875E+03  0.7561462E-02  0.1142769E+00
         -2   -1    0    0    0  501 -0.00000000000E+00  0.00000000000E+00  0.73685493871E+02  0.73685493871E+02  0.00000000000E+00 0.  1.
          2   -1    0    0  501    0  0.00000000000E+00 -0.00000000000E+00 -0.77669806755E+03  0.77669806755E+03  0.00000000000E+00 0. -1.
         23    2    1    2    0    0  0.10786363865E+03 -0.11568454313E+03 -0.23669264661E+03  0.30790195256E+03  0.11731464259E+03 0.  0.
          5    1    3    3  502    0  0.15001672692E+02  0.15560437398E+02 -0.81441625234E+02  0.84364614124E+02  0.41800000000E+01 0. -1.
         -5    1    3    3    0  502  0.92861965956E+02 -0.13124498053E+03 -0.15525102138E+03  0.22353733843E+03  0.41800000000E+01 0.  1.
        -11    1    1    2    0    0 -0.96391024712E+00 -0.42883539547E+02 -0.51119143981E+01  0.43197902216E+02  0.00000000000E+00 0.  1.
         11    1    1    2    0    0 -0.10689972840E+03  0.15856808267E+03 -0.46120801267E+03  0.49928370665E+03  0.00000000000E+00 0. -1.
</event>
<event>
 6    1  0.6833760E-006  0.1283143E+03  0.7561462E-02  0.1229979E+00
         -1   -1    0    0    0  501 -0.00000000000E+00  0.00000000000E+00  0.48750883918E+02  0.48750883918E+02  0.00000000000E+00 0.  1.
          1   -1    0    0  501    0  0.00000000000E+00 -0.00000000000E+00 -0.39943466749E+03  0.39943466749E+03  0.00000000000E+00 0. -1.
          5    1    1    2  502    0 -0.82613867323E+02 -0.55742818151E+02 -0.19145721766E+03  0.21588342095E+03  0.41800000000E+01 0. -1.
         -5    1    1    2    0  502  0.41827637408E+02 -0.19902841772E+01 -0.93676110864E+01  0.43113072492E+02  0.41800000000E+01 0.  1.
        -11    1    1    2    0    0  0.43881114807E+01  0.74565893920E+02 -0.87467346277E+02  0.11502114903E+03  0.00000000000E+00 0.  1.
         11    1    1    2    0    0  0.36398118434E+02 -0.16832791592E+02 -0.62391608551E+02  0.74167908936E+02  0.00000000000E+00 0. -1.
</event>
<event>
 7    1  0.6833760E-006  0.1593233E+03  0.7561462E-02  0.1189463E+00
         -2   -1    0    0    0  501 -0.00000000000E+00  0.00000000000E+00  0.39387687248E+02  0.39387687248E+02  0.00000000000E+00 0. -1.
          2   -1    0    0  501    0  0.00000000000E+00 -0.00000000000E+00 -0.79775180270E+03  0.79775180270E+03  0.00000000000E+00 0.  1.
         23    2    1    2    0    0  0.45300178392E+01  0.13087287543E+03 -0.28668610752E+03  0.33909697986E+03  0.12509838895E+03 0.  0.
          5    1    3    3  502    0  0.47531406459E+02  0.49225747631E+02 -0.20368083416E+03  0.21490873280E+03  0.41800000000E+01 0. -1.
         -5    1    3    3    0  502 -0.43001388620E+02  0.81647127804E+02 -0.83005273356E+02  0.12418824706E+03  0.41800000000E+01 0. -1.
        -11    1    1    2    0    0 -0.42751523706E+02 -0.37663101377E+02 -0.13277596274E+03  0.14448411078E+03  0.00000000000E+00 0. -1.
         11    1    1    2    0    0  0.38221505867E+02 -0.93209774058E+02 -0.33890204520E+03  0.35355839932E+03  0.00000000000E+00 0.  1.
</event>
<event>
 7    1  0.6833760E-006  0.9103636E+02  0.7561462E-02  0.1300361E+00
          2   -1    0    0  501    0  0.00000000000E+00  0.00000000000E+00  0.54149901089E+03  0.54149901089E+03  0.00000000000E+00 0. -1.
         -2   -1    0    0    0  501 -0.00000000000E+00 -0.00000000000E+00 -0.30971834038E+02  0.30971834038E+02  0.00000000000E+00 0.  1.
         23    2    1    2    0    0 -0.54241184282E+02 -0.40946993162E+02  0.23887873697E+03  0.27808396010E+03  0.12509546582E+03 0.  0.
          5    1    3    3  502    0 -0.24359482994E+02  0.27142590829E+02  0.17842134024E+03  0.18215858943E+03  0.41800000000E+01 0. -1.
         -5    1    3    3    0  502 -0.29881701288E+02 -0.68089583991E+02  0.60457396733E+02  0.95925370678E+02  0.41800000000E+01 0. -1.
        -11    1    1    2    0    0  0.51576158777E+02  0.30096811941E+02  0.27600788486E+03  0.28239382208E+03  0.00000000000E+00 0. -1.
         11    1    1    2    0    0  0.26650255045E+01  0.10850181221E+02 -0.43594449819E+01  0.11993062746E+02  0.00000000000E+00 0.  1.
</event>
<event>
 7    1  0.6833760E-006  0.3652909E+03  0.7561462E-02  0.1056508E+00
          2   -1    0    0  501    0  0.00000000000E+00  0.00000000000E+00  0.96069450887E+02  0.96069450887E+02  0.00000000000E+00 0. -1.
         -2   -1    0    0    0  501 -0.00000000000E+00 -0.00000000000E+00 -0.14899517753E+04  0.14899517753E+04  0.00000000000E+00 0.  1.
         23    2    1    2    0    0  0.35788672028E+03  0.37157894274E+02 -0.78946201822E+03  0.87656172617E+03  0.12508624188E+03 0.  0.
          5    1    3    3  502    0  0.11334123283E+03  0.48482458658E+02 -0.37959090428E+03  0.39912843906E+03  0.41800000000E+01 0.  1.
         -5    1    3    3    0  502  0.24454548745E+03 -0.11324564384E+02 -0.40987111394E+03  0.47743328710E+03  0.41800000000E+01 0.  1.
        -11    1    1    2    0    0 -0.12835460774E+03 -0.34235244093E+02 -0.30082033334E+03  0.32884621059E+03  0.00000000000E+00 0.  1.
         11    1    1    2    0    0 -0.22953211254E+03 -0.29226501809E+01 -0.30359997281E+03  0.38061328939E+03  0.00000000000E+00 0. -1.
</event>
<event>
 7    1  0.6833760E-006  0.1185611E+03  0.7561462E-02  0.1245490E+00
         -2   -1    0    0    0  501 -0.00000000000E+00  0.00000000000E+00  0.55004393839E+02  0.55004393839E+02  0.00000000000E+00 0.  1.
          2   -1    0    0  501    0  0.00000000000E+00 -0.00000000000E+00 -0.31023336825E+03  0.31023336825E+03  0.00000000000E+00 0. -1.
         23    2    1    2    0    0  0.52759560754E+02 -0.27609765437E+02 -0.87810439689E+02  0.16402447351E+03  0.12508990445E+03 0.  0.
          5    1    3    3  502    0  0.74539475578E+02 -0.62350846272E+02 -0.59549785030E+02  0.11405003616E+03  0.41800000000E+01 0.  1.
         -5    1    3    3    0  502 -0.21779914824E+02  0.34741080835E+02 -0.28260654659E+02  0.49974437357E+02  0.41800000000E+01 0.  1.
        -11    1    1    2    0    0 -0.26695999871E+01  0.45402497124E+02 -0.12559440190E+03  0.13357569875E+03  0.00000000000E+00 0. -1.
         11    1    1    2    0    0 -0.50089960766E+02 -0.17792731687E+02 -0.41824132824E+02  0.67637589822E+02  0.00000000000E+00 0.  1.
</event>
<event>
 7    1  0.6833760E-006  0.9207054E+02  0.7561462E-02  0.1297914E+00
          2   -1    0    0  501    0  0.00000000000E+00  0.00000000000E+00  0.15693489584E+03  0.15693489584E+03  0.00000000000E+00 0. -1.
         -2   -1    0    0    0  501 -0.00000000000E+00 -0.00000000000E+00 -0.93649844124E+02  0.93649844124E+02  0.00000000000E+00 0.  1.
         23    2    1    2    0    0 -0.15013232264E+02 -0.38741254430E+02  0.97526273651E+01  0.13216896077E+03  0.12508892242E+03 0.  0.
          5    1    3    3  502    0 -0.54485555462E+02 -0.55960008370E+02  0.30791311440E+02  0.84058167664E+02  0.41800000000E+01 0. -1.
         -5    1    3    3    0  502  0.39472323198E+02  0.17218753940E+02 -0.21038684075E+02  0.48110793108E+02  0.41800000000E+01 0. -1.
        -11    1    1    2    0    0 -0.10957392411E+02 -0.47982364923E+01 -0.23400664570E+02  0.26280765290E+02  0.00000000000E+00 0.  1.
         11    1    1    2    0    0  0.25970624675E+02  0.43539490923E+02  0.76933088920E+02  0.92135013901E+02  0.00000000000E+00 0. -1.
</event>
<event>
 7    1  0.6833760E-006  0.8138229E+02  0.7561462E-02  0.1325174E+00
         -3   -1    0    0    0  501 -0.00000000000E+00  0.00000000000E+00  0.18606475555E+03  0.18606475555E+03  0.00000000000E+00 0.  1.
          3   -1    0    0  501    0  0.00000000000E+00 -0.00000000000E+00 -0.77681471384E+02  0.77681471384E+02  0.00000000000E+00 0. -1.
         23    2    1    2    0    0 -0.45946873394E+02  0.13195630196E+02  0.61139775177E+02  0.14720862025E+03  0.12508823260E+03 0.  0.
          5    1    3    3  502    0 -0.62638986606E+02 -0.27956163412E+02  0.73800173512E+02  0.10084209303E+03  0.41800000000E+01 0. -1.
         -5    1    3    3    0  502  0.16692113212E+02  0.41151793608E+02 -0.12660398335E+02  0.46366527222E+02  0.41800000000E+01 0. -1.
        -11    1    1    2    0    0  0.37697480477E+02 -0.53889762975E+01  0.76335703260E+02  0.85306979152E+02  0.00000000000E+00 0.  1.
         11    1    1    2    0    0  0.82493929171E+01 -0.78066538985E+01 -0.29092194270E+02  0.31230627532E+02  0.00000000000E+00 0. -1.
</event>
<event>
 7    1  0.6833760E-006  0.1086770E+03  0.7561462E-02  0.1263040E+00
         -1   -1    0    0    0  501 -0.00000000000E+00  0.00000000000E+00  0.87303882320E+02  0.87303882320E+02  0.00000000000E+00 0.  1.
          1   -1    0    0  501    0  0.00000000000E+00 -0.00000000000E+00 -0.16726475955E+03  0.16726475955E+03  0.00000000000E+00 0. -1.
         23    2    1    2    0    0 -0.26169543449E+02 -0.39862489491E+02 -0.17230262735E+02  0.13497317856E+03  0.12508802462E+03 0.  0.
          5    1    3    3  502    0 -0.59872588160E+02  0.98859655504E+01  0.20155075411E+02  0.64079314858E+02  0.41800000000E+01 0.  1.
         -5    1    3    3    0  502  0.33703044711E+02 -0.49748455041E+02 -0.37385338146E+02  0.70893863698E+02  0.41800000000E+01 0.  1.
        -11    1    1    2    0    0 -0.96438546739E+01 -0.22442698147E+02 -0.34442056761E+00  0.24429434268E+02  0.00000000000E+00 0. -1.
         11    1    1    2    0    0  0.35813398123E+02  0.62305187639E+02 -0.62386193930E+02  0.95166029048E+02  0.00000000000E+00 0.  1.
</event>
<event>
 7    1  0.6833760E-006  0.1033280E+03  0.7561462E-02  0.1273449E+00
         -2   -1    0    0    0  501 -0.00000000000E+00  0.00000000000E+00  0.65693250914E+02  0.65693250914E+02  0.00000000000E+00 0.  1.
          2   -1    0    0  501    0  0.00000000000E+00 -0.00000000000E+00 -0.22623175059E+03  0.22623175059E+03  0.00000000000E+00 0. -1.
         23    2    1    2    0    0  0.43035555791E+02  0.22333349450E+02 -0.85352584230E+02  0.15900883037E+03  0.12509159421E+03 0.  0.
          5    1    3    3  502    0  0.35933086928E+01  0.69957569600E+02 -0.31568503762E+02  0.76948139948E+02  0.41800000000E+01 0.  1.
         -5    1    3    3    0  502  0.39442247098E+02 -0.47624220151E+02 -0.53784080468E+02  0.82060690424E+02  0.41800000000E+01 0.  1.
        -11    1    1    2    0    0  0.47946823881E+01  0.13767788937E+02  0.17355866275E+02  0.22666430808E+02  0.00000000000E+00 0.  1.
         11    1    1    2    0    0 -0.47830238179E+02 -0.36101138387E+02 -0.92541781716E+02  0.11024974032E+03  0.00000000000E+00 0. -1.
</event>
<event>
 7    1  0.6833760E-006  0.3201660E+03  0.7561462E-02  0.1075573E+00
         -2   -1    0    0    0  501 -0.00000000000E+00  0.00000000000E+00  0.96913292179E+02  0.96913292179E+02  0.00000000000E+00 0.  1.
          2   -1    0    0  501    0  0.00000000000E+00 -0.00000000000E+00 -0.14560757668E+04  0.14560757668E+04  0.00000000000E+00 0. -1.
         23    2    1    2    0    0 -0.18431023645E+03  0.25503464387E+03 -0.32986496581E+03  0.47272979721E+03  0.12509849188E+03 0.  0.
          5    1    3    3  502    0 -0.52564894510E+01  0.46356414064E+02 -0.11360694593E+03  0.12288432923E+03  0.41800000000E+01 0. -1.
         -5    1    3    3    0  502 -0.17905374699E+03  0.20867822981E+03 -0.21625801988E+03  0.34984546799E+03  0.41800000000E+01 0. -1.
        -11    1    1    2    0    0  0.14933982180E+03 -0.16847530608E+03 -0.59805628537E+03  0.63902866258E+03  0.00000000000E+00 0.  1.
         11    1    1    2    0    0  0.34970414645E+02 -0.86559337789E+02 -0.43124122346E+03  0.44123059920E+03  0.00000000000E+00 0. -1.
</event>
<event>
 7    1  0.6833760E-006  0.1435350E+03  0.7561462E-02  0.1208650E+00
         -1   -1    0    0    0  501 -0.00000000000E+00  0.00000000000E+00  0.24814708192E+03  0.24814708192E+03  0.00000000000E+00 0.  1.
          1   -1    0    0  501    0  0.00000000000E+00 -0.00000000000E+00 -0.10934180769E+03  0.10934180769E+03  0.00000000000E+00 0. -1.
         23    2    1    2    0    0 -0.11581682104E+03  0.17439471216E+02  0.12135000186E+02  0.16383374522E+03  0.11391473412E+03 0.  0.
          5    1    3    3  502    0 -0.13826367111E+03  0.16869225981E+02  0.17287625923E+02  0.14041989868E+03  0.41800000000E+01 0. -1.
         -5    1    3    3    0  502  0.22446850072E+02  0.57024523529E+00 -0.51526257372E+01  0.23413846540E+02  0.41800000000E+01 0.  1.
        -11    1    1    2    0    0  0.44155201246E+02  0.14425186169E+02  0.21578599455E+01  0.46501872571E+02  0.00000000000E+00 0. -1.
         11    1    1    2    0    0  0.71661619793E+02 -0.31864657385E+02  0.12451241411E+03  0.14715327182E+03  0.00000000000E+00 0.  1.
</event>
<event>
 7    1  0.6833760E-006  0.1252052E+03  0.7561462E-02  0.1234749E+00
         -1   -1    0    0    0  501 -0.00000000000E+00  0.00000000000E+00  0.18122345770E+02  0.18122345770E+02  0.00000000000E+00 0.  1.
          1   -1    0    0  501    0  0.00000000000E+00 -0.00000000000E+00 -0.10149886383E+04  0.10149886383E+04  0.00000000000E+00 0. -1.
         23    2    1    2    0    0  0.19863800371E+02 -0.74861273639E+02 -0.64280922696E+03  0.65943044406E+03  0.12508408144E+03 0.  0.
          5    1    3    3  502    0  0.25570801517E+02  0.28498791777E+02 -0.26051291081E+03  0.26334482360E+03  0.41800000000E+01 0. -1.
         -5    1    3    3    0  502 -0.57070011457E+01 -0.10336006542E+03 -0.38229631616E+03  0.39608562046E+03  0.41800000000E+01 0. -1.
        -11    1    1    2    0    0  0.29159623785E+02  0.25779841263E+02 -0.59753282600E+02  0.71311560467E+02  0.00000000000E+00 0. -1.
         11    1    1    2    0    0 -0.49023424155E+02  0.49081432377E+02 -0.29430378292E+03  0.30236897950E+03  0.00000000000E+00 0.  1.
</event>
<event>
 7    1  0.6833760E-006  0.1021846E+03  0.7561462E-02  0.1275768E+00
          1   -1    0    0  501    0  0.00000000000E+00  0.00000000000E+00  0.57753455037E+03  0.57753455037E+03  0.00000000000E+00 0. -1.
         -1   -1    0    0    0  501 -0.00000000000E+00 -0.00000000000E+00 -0.23832437377E+02  0.23832437377E+02  0.00000000000E+00 0.  1.
         23    2    1    2    0    0 -0.30427260120E+02  0.32052804859E+02  0.28391736440E+03  0.31338506418E+03  0.12509167914E+03 0.  0.
          5    1    3    3  502    0  0.29900655217E+02 -0.13990915417E+02  0.20185762012E+02  0.38919561722E+02  0.41800000000E+01 0.  1.
         -5    1    3    3    0  502 -0.60327915336E+02  0.46043720276E+02  0.26373160238E+03  0.27446550246E+03  0.41800000000E+01 0.  1.
        -11    1    1    2    0    0 -0.28760640331E+02 -0.19021439270E+02  0.14783081352E+03  0.15179900859E+03  0.00000000000E+00 0. -1.
         11    1    1    2    0    0  0.59187900450E+02 -0.13031365589E+02  0.12195393508E+03  0.13618291497E+03  0.00000000000E+00 0.  1.
</event>
<event>
 7    1  0.6833760E-006  0.1372852E+03  0.7561462E-02  0.1217029E+00
          1   -1    0    0  501    0  0.00000000000E+00  0.00000000000E+00  0.20234678774E+03  0.20234678774E+03  0.00000000000E+00 0. -1.
         -1   -1    0    0    0  501 -0.00000000000E+00 -0.00000000000E+00 -0.11123778688E+03  0.11123778688E+03  0.00000000000E+00 0.  1.
         23    2    1    2    0    0  0.20136855278E+02 -0.10044682647E+03  0.31941710095E+02  0.16481246109E+03  0.12509123310E+03 0.  0.
          5    1    3    3  502    0 -0.47914124282E+02 -0.63609249658E+02 -0.30055855732E+01  0.79802292526E+02  0.41800000000E+01 0. -1.
         -5    1    3    3    0  502  0.68050979560E+02 -0.36837576816E+02  0.34947295668E+02  0.85010168564E+02  0.41800000000E+01 0. -1.
        -11    1    1    2    0    0 -0.34341092563E+02  0.30418838900E+02 -0.12522002035E+02  0.47554357670E+02  0.00000000000E+00 0.  1.
         11    1    1    2    0    0  0.14204237284E+02  0.70027987574E+02  0.71689292793E+02  0.10121775586E+03  0.00000000000E+00 0. -1.
</event>
<event>
 7    1  0.6833760E-006  0.2050465E+03  0.7561462E-02  0.1145550E+00
          1   -1    0    0  501    0  0.00000000000E+00  0.00000000000E+00  0.48566564401E+03  0.48566564401E+03  0.00000000000E+00 0. -1.
         -1   -1    0    0    0  501 -0.00000000000E+00 -0.00000000000E+00 -0.12705782213E+03  0.12705782213E+03  0.00000000000E+00 0.  1.
         23    2    1    2    0    0 -0.15542556609E+03 -0.89277942360E+02  0.23335004134E+02  0.21981576613E+03  0.12508713377E+03 0.  0.
          5    1    3    3  502    0 -0.26438965953E+02 -0.82686601979E+02  0.25500633789E+02  0.90575094762E+02  0.41800000000E+01 0.  1.
         -5    1    3    3    0  502 -0.12898660014E+03 -0.65913403810E+01 -0.21656296550E+01  0.12924067137E+03  0.41800000000E+01 0.  1.
        -11    1    1    2    0    0  0.21967714536E+02 -0.13259337424E+02  0.10251656769E+03  0.10567893433E+03  0.00000000000E+00 0.  1.
         11    1    1    2    0    0  0.13345785156E+03  0.10253727978E+03  0.23275625006E+03  0.28722876567E+03  0.00000000000E+00 0. -1.
</event>
<event>
 7    1  0.6833760E-006  0.1555639E+03  0.7561462E-02  0.1193798E+00
         -2   -1    0    0    0  501 -0.00000000000E+00  0.00000000000E+00  0.40093069386E+02  0.40093069386E+02  0.00000000000E+00 0.  1.
          2   -1    0    0  501    0  0.00000000000E+00 -0.00000000000E+00 -0.64199024467E+03  0.64199024467E+03  0.00000000000E+00 0. -1.
         23    2    1    2    0    0  0.65954884259E+02  0.95126542057E+02 -0.27647884968E+03  0.32478933806E+03  0.12509378096E+03 0.  0.
          5    1    3    3  502    0 -0.33699773772E+02  0.48650467179E+02 -0.80061723412E+02  0.99648856816E+02  0.41800000000E+01 0. -1.
         -5    1    3    3    0  502  0.99654658032E+02  0.46476074878E+02 -0.19641712627E+03  0.22514048124E+03  0.41800000000E+01 0. -1.
        -11    1    1    2    0    0  0.19543948968E+02 -0.19598273784E+02 -0.31063331674E+02  0.41605154143E+02  0.00000000000E+00 0. -1.
         11    1    1    2    0    0 -0.85498833228E+02 -0.75528268273E+02 -0.29435499393E+03  0.31568882186E+03  0.00000000000E+00 0.  1.
</event>
<event>
 7    1  0.6833760E-006  0.1462805E+03  0.7561462E-02  0.1205119E+00
          1   -1    0    0  501    0  0.00000000000E+00  0.00000000000E+00  0.64117920449E+03  0.64117920449E+03  0.00000000000E+00 0. -1.
         -1   -1    0    0    0  501 -0.00000000000E+00 -0.00000000000E+00 -0.47802768100E+02  0.47802768100E+02  0.00000000000E+00 0.  1.
         23    2    1    2    0    0  0.30298199753E+02 -0.12811626924E+03  0.24409685993E+03  0.30424064086E+03  0.12508929280E+03 0.  0.
          5    1    3    3  502    0  0.13391253167E+02 -0.89428108816E+02  0.45786588409E+02  0.10144257679E+03  0.41800000000E+01 0.  1.
         -5    1    3    3    0  502  0.16906946586E+02 -0.38688160420E+02  0.19831027152E+03  0.20279806407E+03  0.41800000000E+01 0.  1.
        -11    1    1    2    0    0 -0.31961985768E+02  0.48094311133E+00  0.94769366147E+02  0.10001516185E+03  0.00000000000E+00 0.  1.
         11    1    1    2    0    0  0.16637860158E+01  0.12763532612E+03  0.25451021031E+03  0.28472616988E+03  0.00000000000E+00 0. -1.
</event>
<event>
 7    1  0.6833760E-006  0.1030805E+03  0.7561462E-02  0.1273948E+00
          1   -1    0    0  501    0  0.00000000000E+00  0.00000000000E+00  0.30759648144E+03  0.30759648144E+03  0.00000000000E+00 0. -1.
         -1   -1    0    0    0  501 -0.00000000000E+00 -0.00000000000E+00 -0.39947870494E+02  0.39947870494E+02  0.00000000000E+00 0.  1.
         23    2    1    2    0    0  0.20858587009E+02  0.15901780949E+02  0.13001063332E+03  0.18231536926E+03  0.12509269285E+03 0.  0.
          5    1    3    3  502    0  0.64134783858E+01  0.66983997359E+02  0.41947022261E+02  0.79404116290E+02  0.41800000000E+01 0. -1.
         -5    1    3    3    0  502  0.14445108623E+02 -0.51082216410E+02  0.88063611056E+02  0.10291125297E+03  0.41800000000E+01 0. -1.
        -11    1    1    2    0    0  0.18474986277E+02 -0.36633504999E+02  0.95632394713E+02  0.10406197060E+03  0.00000000000E+00 0. -1.
         11    1    1    2    0    0 -0.39333573287E+02  0.20731724050E+02  0.42005582915E+02  0.61167012070E+02  0.00000000000E+00 0.  1.
</event>
<event>
 6    1  0.6833760E-006  0.9063457E+02  0.7561462E-02  0.1301322E+00
         -2   -1    0    0    0  501 -0.00000000000E+00  0.00000000000E+00  0.54141172553E+02  0.54141172553E+02  0.00000000000E+00 0.  1.
          2   -1    0    0  501    0  0.00000000000E+00 -0.00000000000E+00 -0.64475622431E+03  0.64475622431E+03  0.00000000000E+00 0. -1.
          5    1    1    2  502    0 -0.65517367654E+02 -0.20378378508E+02 -0.16052861564E+03  0.17462735356E+03  0.41800000000E+01 0. -1.
         -5    1    1    2    0  502 -0.18739857026E+02  0.11341227325E+02  0.39760211135E+02  0.45586757595E+02  0.41800000000E+01 0.  1.
        -11    1    1    2    0    0  0.74919881843E+02 -0.30177018482E+01 -0.41671127257E+03  0.42340333006E+03  0.00000000000E+00 0. -1.
         11    1    1    2    0    0  0.93373428370E+01  0.12054853031E+02 -0.53135374684E+02  0.55279955641E+02  0.00000000000E+00 0.  1.
</event>
<event>
 7    1  0.6833760E-006  0.1316024E+03  0.7561462E-02  0.1225097E+00
         -2   -1    0    0    0  501 -0.00000000000E+00  0.00000000000E+00  0.36883069341E+02  0.36883069341E+02  0.00000000000E+00 0.  1.
          2   -1    0    0  501    0  0.00000000000E+00 -0.00000000000E+00 -0.68813369217E+03  0.68813369217E+03  0.00000000000E+00 0. -1.
         23    2    1    2    0    0 -0.87299891134E+02  0.45429336487E+02 -0.20792796410E+03  0.26185020726E+03  0.12508555945E+03 0.  0.
          5    1    3    3  502    0  0.19506066477E+00 -0.20804367596E+02  0.54161970090E+01  0.21901309316E+02  0.41800000000E+01 0. -1.
         -5    1    3    3    0  502 -0.87494951799E+02  0.66233704083E+02 -0.21334416111E+03  0.23994889794E+03  0.41800000000E+01 0. -1.
        -11    1    1    2    0    0  0.23865100138E+01 -0.47175219307E+02 -0.19806309766E+03  0.20361774825E+03  0.00000000000E+00 0.  1.
         11    1    1    2    0    0  0.84913381121E+02  0.17458828203E+01 -0.24525956107E+03  0.25954880600E+03  0.00000000000E+00 0. -1.
</event>
<event>
 6    1  0.6833760E-006  0.1145300E+03  0.7561462E-02  0.1252404E+00
          2   -1    0    0  501    0  0.00000000000E+00  0.00000000000E+00  0.73015039530E+03  0.73015039530E+03  0.00000000000E+00 0. -1.
         -2   -1    0    0    0  501 -0.00000000000E+00 -0.00000000000E+00 -0.43311704138E+02  0.43311704138E+02  0.00000000000E+00 0.  1.
          5    1    1    2  502    0  0.29010970102E+02  0.41140460092E+02  0.20441613505E+03  0.21056496031E+03  0.41800000000E+01 0. -1.
         -5    1    1    2    0  502 -0.19670915601E+02 -0.77523283993E+02  0.10549372160E+02  0.80780976317E+02  0.41800000000E+01 0.  1.
        -11    1    1    2    0    0 -0.42274868537E+02 -0.81653984752E+01  0.18523437886E+03  0.19017258834E+03  0.00000000000E+00 0.  1.
         11    1    1    2    0    0  0.32934814035E+02  0.44548222376E+02  0.28663880509E+03  0.29194357447E+03  0.00000000000E+00 0. -1.
</event>
<event>
 7    1  0.6833760E-006  0.8879836E+02  0.7561462E-02  0.1305788E+00
          1   -1    0    0  501    0  0.00000000000E+00  0.00000000000E+00  0.11416195610E+03  0.11416195610E+03  0.00000000000E+00 0. -1.
         -1   -1    0    0    0  501 -0.00000000000E+00 -0.00000000000E+00 -0.15949690696E+03  0.15949690696E+03  0.00000000000E+00 0.  1.
         23    2    1    2    0    0  0.12633450982E+02 -0.67523038667E+02 -0.68884175037E+02  0.15846284377E+03  0.12508588430E+03 0.  0.
          5    1    3    3  502    0  0.96520272610E+01 -0.46231549931E+02 -0.10557470242E+03  0.11573248477E+03  0.41800000000E+01 0. -1.
         -5    1    3    3    0  502  0.29814237215E+01 -0.21291488735E+02  0.36690527388E+02  0.42730358997E+02  0.41800000000E+01 0. -1.
        -11    1    1    2    0    0  0.36008139424E+02  0.28851659439E+02  0.26083918860E+02  0.53003539318E+02  0.00000000000E+00 0.  1.
         11    1    1    2    0    0 -0.48641590406E+02  0.38671379227E+02 -0.25346946863E+01  0.62192479977E+02  0.00000000000E+00 0. -1.
</event>
<event>
 7    1  0.6833760E-006  0.1582820E+03  0.7561462E-02  0.1190650E+00
         -2   -1    0    0    0  501 -0.00000000000E+00  0.00000000000E+00  0.14531067016E+03  0.14531067016E+03  0.00000000000E+00 0.  1.
          2   -1    0    0  501    0  0.00000000000E+00 -0.00000000000E+00 -0.25217123939E+03  0.25217123939E+03  0.00000000000E+00 0. -1.
         23    2    1    2    0    0 -0.11993537753E+03  0.90526077900E+02 -0.57772447841E+01  0.19560136405E+03  0.12508817488E+03 0.  0.
          5    1    3    3  502    0 -0.95042090818E+02  0.32231346291E+02  0.48963822803E+02  0.11174429316E+03  0.41800000000E+01 0. -1.
         -5    1    3    3    0  502 -0.24893286716E+02  0.58294731609E+02 -0.54741067587E+02  0.83857070885E+02  0.41800000000E+01 0. -1.
        -11    1    1    2    0    0  0.68250928962E+01 -0.15296019580E+02  0.15535954553E+02  0.22845480776E+02  0.00000000000E+00 0.  1.
         11    1    1    2    0    0  0.11311028464E+03 -0.75230058320E+02 -0.11661927900E+03  0.17903506472E+03  0.00000000000E+00 0. -1.
</event>
<event>
 7    1  0.6833760E-006  0.1218854E+03  0.7561462E-02  0.1240019E+00
          2   -1    0    0  501    0  0.00000000000E+00  0.00000000000E+00  0.39467315152E+03  0.39467315152E+03  0.00000000000E+00 0. -1.
         -2   -1    0    0    0  501 -0.00000000000E+00 -0.00000000000E+00 -0.45176216767E+02  0.45176216767E+02  0.00000000000E+00 0.  1.
         23    2    1    2    0    0  0.61534068404E+02 -0.57227711261E+01  0.11430007505E+03  0.18036428573E+03  0.12509027430E+03 0.  0.
          5    1    3    3  502    0 -0.24807256150E+02  0.35693490883E+02  0.35197260052E+02  0.56086939337E+02  0.41800000000E+01 0. -1.
         -5    1    3    3    0  502  0.86341324554E+02 -0.41416262009E+02  0.79102814999E+02  0.12427734639E+03  0.41800000000E+01 0. -1.
        -11    1    1    2    0    0 -0.82466409957E+02  0.93913740620E+01  0.14748754098E+03  0.16923794321E+03  0.00000000000E+00 0.  1.
         11    1    1    2    0    0  0.20932341552E+02 -0.36686029359E+01  0.87709318723E+02  0.90247139352E+02  0.00000000000E+00 0. -1.
</event>
<event>
 7    1  0.6833760E-006  0.6494914E+02  0.7561462E-02  0.1378163E+00
         -1   -1    0    0    0  501 -0.00000000000E+00  0.00000000000E+00  0.77895667421E+02  0.77895667421E+02  0.00000000000E+00 0.  1.
          1   -1    0    0  501    0  0.00000000000E+00 -0.00000000000E+00 -0.16507482905E+03  0.16507482905E+03  0.00000000000E+00 0. -1.
         23    2    1    2    0    0 -0.21193173878E+02 -0.21912251793E+02 -0.56914398799E+02  0.14076203035E+03  0.12508158538E+03 0.  0.
          5    1    3    3  502    0 -0.69330723651E+01  0.12140786834E+02 -0.89900968760E+02  0.91077564643E+02  0.41800000000E+01 0.  1.
         -5    1    3    3    0  502 -0.14260101513E+02 -0.34053038627E+02  0.32986569961E+02  0.49684465708E+02  0.41800000000E+01 0.  1.
        -11    1    1    2    0    0  0.11214995480E+02 -0.26471788593E+02  0.17363529941E+02  0.33586066857E+02  0.00000000000E+00 0.  1.
         11    1    1    2    0    0  0.99781783983E+01  0.48384040386E+02 -0.47628292769E+02  0.68622399261E+02  0.00000000000E+00 0. -1.
</event>
<event>
 7    1  0.6833760E-006  0.1476683E+03  0.7561462E-02  0.1203368E+00
         -2   -1    0    0    0  501 -0.00000000000E+00  0.00000000000E+00  0.17080801380E+02  0.17080801380E+02  0.00000000000E+00 0.  1.
          2   -1    0    0  501    0  0.00000000000E+00 -0.00000000000E+00 -0.16455632002E+04  0.16455632002E+04  0.00000000000E+00 0. -1.
         23    2    1    2    0    0  0.10190626707E+03  0.54937270441E+02 -0.11369576343E+04  0.11496622837E+04  0.12509082050E+03 0.  0.
          5    1    3    3  502    0  0.10400976934E+03 -0.62504106428E+01 -0.83861511130E+03  0.84507388852E+03  0.41800000000E+01 0.  1.
         -5    1    3    3    0  502 -0.21035022754E+01  0.61187681084E+02 -0.29834252298E+03  0.30458839514E+03  0.41800000000E+01 0.  1.
        -11    1    1    2    0    0 -0.35800634525E+02 -0.52491970284E+02 -0.12170661320E+03  0.13729381659E+03  0.00000000000E+00 0.  1.
         11    1    1    2    0    0 -0.66105632543E+02 -0.24453001569E+01 -0.36981815132E+03  0.37568790131E+03  0.00000000000E+00 0. -1.
</event>
<event>
 7    1  0.6833760E-006  0.1747238E+03  0.7561462E-02  0.1173009E+00
          2   -1    0    0  501    0  0.00000000000E+00  0.00000000000E+00  0.78630644724E+02  0.78630644724E+02  0.00000000000E+00 0. -1.
         -2   -1    0    0    0  501 -0.00000000000E+00 -0.00000000000E+00 -0.49040534034E+03  0.49040534034E+03  0.00000000000E+00 0.  1.
         23    2    1    2    0    0  0.14598207146E+03  0.52685890511E+02 -0.14206981354E+03  0.24477821259E+03  0.12508386463E+03 0.  0.
          5    1    3    3  502    0 -0.13125177763E+02  0.26930862566E+02 -0.51827522330E+02  0.60009216965E+02  0.41800000000E+01 0.  1.
         -5    1    3    3    0  502  0.15910724923E+03  0.25755027945E+02 -0.90242291211E+02  0.18476899562E+03  0.41800000000E+01 0.  1.
        -11    1    1    2    0    0 -0.10208861333E+03 -0.50806079871E+02 -0.25253687405E+03  0.27708882236E+03  0.00000000000E+00 0.  1.
         11    1    1    2    0    0 -0.43893458137E+02 -0.18798106397E+01 -0.17168008026E+02  0.47168950114E+02  0.00000000000E+00 0. -1.
</event>
<event>
 7    1  0.6833760E-006  0.6144383E+02  0.7561462E-02  0.1391871E+00
         -1   -1    0    0    0  501 -0.00000000000E+00  0.00000000000E+00  0.19170928954E+03  0.19170928954E+03  0.00000000000E+00 0.  1.
          1   -1    0    0  501    0  0.00000000000E+00 -0.00000000000E+00 -0.83318452801E+02  0.83318452801E+02  0.00000000000E+00 0. -1.
         23    2    1    2    0    0 -0.11601405086E+02 -0.52469104273E+02  0.81479792849E+02  0.15866430768E+03  0.12509119228E+03 0.  0.
          5    1    3    3  502    0 -0.25743345682E+02 -0.21794154816E+02  0.10945288265E+03  0.11460851169E+03  0.41800000000E+01 0.  1.
         -5    1    3    3    0  502  0.14141940596E+02 -0.30674949457E+02 -0.27973089798E+02  0.44055795996E+02  0.41800000000E+01 0.  1.
        -11    1    1    2    0    0 -0.81680647379E+00  0.21253143904E+02 -0.37844645749E+02  0.43411755441E+02  0.00000000000E+00 0. -1.
         11    1    1    2    0    0  0.12418211560E+02  0.31215960369E+02  0.64755689638E+02  0.72951679217E+02  0.00000000000E+00 0.  1.
</event>
<event>
 7    1  0.6833760E-006  0.1053688E+03  0.7561462E-02  0.1269395E+00
          1   -1    0    0  501    0  0.00000000000E+00  0.00000000000E+00  0.15549384233E+04  0.15549384233E+04  0.00000000000E+00 0. -1.
         -1   -1    0    0    0  501 -0.00000000000E+00 -0.00000000000E+00 -0.10975458634E+02  0.10975458634E+02  0.00000000000E+00 0.  1.
         23    2    1    2    0    0 -0.11155198281E+02  0.67742579365E+02  0.93574511998E+03  0.94655943216E+03  0.12506931493E+03 0.  0.
          5    1    3    3  502    0  0.22729622479E+02  0.52005505750E+02  0.86113252173E+03  0.86301095054E+03  0.41800000000E+01 0.  1.
         -5    1    3    3    0  502 -0.33884820760E+02  0.15737073614E+02  0.74612598248E+02  0.83548481621E+02  0.41800000000E+01 0.  1.
        -11    1    1    2    0    0  0.46015246715E+02 -0.67107424106E+02  0.45514224193E+03  0.46235837798E+03  0.00000000000E+00 0. -1.
         11    1    1    2    0    0 -0.34860048434E+02 -0.63515525877E+00  0.15307560273E+03  0.15699607177E+03  0.00000000000E+00 0.  1.
</event>
<event>
 7    1  0.6833760E-006  0.1027508E+03  0.7561462E-02  0.1274615E+00
         -2   -1    0    0    0  501 -0.00000000000E+00  0.00000000000E+00  0.84954815401E+02  0.84954815401E+02  0.00000000000E+00 0.  1.
          2   -1    0    0  501    0  0.00000000000E+00 -0.00000000000E+00 -0.17382371937E+03  0.17382371937E+03  0.00000000000E+00 0. -1.
         23    2    1    2    0    0  0.51102685526E+02  0.14894287749E+02 -0.36690379953E+02  0.14080815792E+03  0.12508968415E+03 0.  0.
          5    1    3    3  502    0 -0.40417081538E+01  0.50688131479E+02 -0.52346793931E+02  0.73097751762E+02  0.41800000000E+01 0. -1.
         -5    1    3    3    0  502  0.55144393679E+02 -0.35793843731E+02  0.15656413978E+02  0.67710406157E+02  0.41800000000E+01 0. -1.
        -11    1    1    2    0    0 -0.39414601279E+02 -0.42900890416E+02 -0.75874046812E+00  0.58262963189E+02  0.00000000000E+00 0.  1.
         11    1    1    2    0    0 -0.11688084246E+02  0.28006602667E+02 -0.51419783553E+02  0.59707413668E+02  0.00000000000E+00 0. -1.
</event>
<event>
 7    1  0.6833760E-006  0.1587505E+03  0.7561462E-02  0.1190115E+00
         -1   -1    0    0    0  501 -0.00000000000E+00  0.00000000000E+00  0.13853531083E+03  0.13853531083E+03  0.00000000000E+00 0.  1.
          1   -1    0    0  501    0  0.00000000000E+00 -0.00000000000E+00 -0.18996713676E+03  0.18996713676E+03  0.00000000000E+00 0. -1.
         23    2    1    2    0    0 -0.10940207843E+03  0.33379215902E+02  0.18482336586E+01  0.16951021897E+03  0.12508921435E+03 0.  0.
          5    1    3    3  502    0  0.19301828165E+02 -0.20194432605E+02 -0.89264614348E+01  0.29623129350E+02  0.41800000000E+01 0.  1.
         -5    1    3    3    0  502 -0.12870390660E+03  0.53573648507E+02  0.10774695093E+02  0.13988708962E+03  0.41800000000E+01 0.  1.
        -11    1    1    2    0    0  0.14546669588E+02  0.31612365040E+02 -0.11405254135E+02  0.36620036065E+02  0.00000000000E+00 0.  1.
         11    1    1    2    0    0  0.94855408844E+02 -0.64991580942E+02 -0.41874805454E+02  0.12237219256E+03  0.00000000000E+00 0. -1.
</event>
<event>
 7    1  0.6833760E-006  0.1130089E+03  0.7561462E-02  0.1255097E+00
         -1   -1    0    0    0  501 -0.00000000000E+00  0.00000000000E+00  0.21427413906E+02  0.21427413906E+02  0.00000000000E+00 0.  1.
          1   -1    0    0  501    0  0.00000000000E+00 -0.00000000000E+00 -0.82803059848E+03  0.82803059848E+03  0.00000000000E+00 0. -1.
         23    2    1    2    0    0  0.54147157018E+02  0.37497062326E+02 -0.57269935230E+03  0.58988983271E+03  0.12509005677E+03 0.  0.
          5    1    3    3  502    0  0.63699825445E+02 -0.26448707261E+02 -0.19998684184E+03  0.21158783326E+03  0.41800000000E+01 0.  1.
         -5    1    3    3    0  502 -0.95526684268E+01  0.63945769587E+02 -0.37271251047E+03  0.37830199944E+03  0.41800000000E+01 0.  1.
        -11    1    1    2    0    0 -0.42923940173E+02 -0.55957243295E+02 -0.22569510928E+03  0.23645709985E+03  0.00000000000E+00 0. -1.
         11    1    1    2    0    0 -0.11223216845E+02  0.18460180969E+02 -0.82087229896E+01  0.23111079829E+02  0.00000000000E+00 0.  1.
</event>
<event>
 7    1  0.6833760E-006  0.1938600E+03  0.7561462E-02  0.1155025E+00
         -1   -1    0    0    0  501 -0.00000000000E+00  0.00000000000E+00  0.29830851572E+03  0.29830851572E+03  0.00000000000E+00 0.  1.
          1   -1    0    0  501    0  0.00000000000E+00 -0.00000000000E+00 -0.24835643285E+03  0.24835643285E+03  0.00000000000E+00 0. -1.
         23    2    1    2    0    0  0.37539341166E+02  0.17754696527E+03  0.19746064793E+03  0.29592139738E+03  0.12508652578E+03 0.  0.
          5    1    3    3  502    0  0.35568084165E+02  0.70846444412E+02  0.97843176291E+01  0.79984452042E+02  0.41800000000E+01 0. -1.
         -5    1    3    3    0  502  0.19712570011E+01  0.10670052086E+03  0.18767633030E+03  0.21593694533E+03  0.41800000000E+01 0. -1.
        -11    1    1    2    0    0 -0.60288959966E+02 -0.73659611292E+02 -0.55956559039E+02  0.11041573044E+03  0.00000000000E+00 0.  1.
         11    1    1    2    0    0  0.22749618800E+02 -0.10388735398E+03 -0.91552006013E+02  0.14032782075E+03  0.00000000000E+00 0. -1.
</event>
<event>
 7    1  0.6833760E-006  0.1073347E+03  0.7561462E-02  0.1265587E+00
          1   -1    0    0  501    0  0.00000000000E+00  0.00000000000E+00  0.65420512185E+03  0.65420512185E+03  0.00000000000E+00 0. -1.
         -1   -1    0    0    0  501 -0.00000000000E+00 -0.00000000000E+00 -0.27635455383E+02  0.27635455383E+02  0.00000000000E+00 0.  1.
         23    2    1    2    0    0 -0.21800625841E+02  0.44837019040E+02  0.18980617359E+03  0.23272183842E+03  0.12508974771E+03 0.  0.
          5    1    3    3  502    0  0.71966939798E+01 -0.29303154645E+02  0.42387115907E+01  0.30755590587E+02  0.41800000000E+01 0. -1.
         -5    1    3    3    0  502 -0.28997319821E+02  0.74140173685E+02  0.18556746200E+03  0.20196624783E+03  0.41800000000E+01 0. -1.
        -11    1    1    2    0    0  0.46437314190E+02 -0.59762445371E+02  0.30605894514E+03  0.31527773776E+03  0.00000000000E+00 0. -1.
         11    1    1    2    0    0 -0.24636688349E+02  0.14925426331E+02  0.13070454774E+03  0.13384100106E+03  0.00000000000E+00 0.  1.
</event>
<event>
 7    1  0.6833760E-006  0.1409300E+03  0.7561462E-02  0.1212083E+00
          1   -1    0    0  501    0  0.00000000000E+00  0.00000000000E+00  0.24351431951E+02  0.24351431951E+02  0.00000000000E+00 0. -1.
         -1   -1    0    0    0  501 -0.00000000000E+00 -0.00000000000E+00 -0.17411983320E+04  0.17411983320E+04  0.00000000000E+00 0.  1.
         23    2    1    2    0    0 -0.46010781506E+02  0.12010982314E+03 -0.13910919295E+04  0.14026146458E+04  0.12509087369E+03 0.  0.
          5    1    3    3  502    0 -0.35919873249E+01 -0.22420301508E+01 -0.46826348872E+00  0.59683115564E+01  0.41800000000E+01 0.  1.
         -5    1    3    3    0  502 -0.42418794181E+02  0.12235185329E+03 -0.13906236660E+04  0.13966463343E+04  0.41800000000E+01 0.  1.
        -11    1    1    2    0    0  0.60633947630E+02 -0.63179433384E+02 -0.11748237410E+03  0.14652721465E+03  0.00000000000E+00 0. -1.
         11    1    1    2    0    0 -0.14623166125E+02 -0.56930389758E+02 -0.20827259648E+03  0.21640790353E+03  0.00000000000E+00 0.  1.
</event>
<event>
 7    1  0.6833760E-006  0.5506295E+02  0.7561462E-02  0.1419801E+00
         -2   -1    0    0    0  501 -0.00000000000E+00  0.00000000000E+00  0.21877592068E+03  0.21877592068E+03  0.00000000000E+00 0.  1.
          2   -1    0    0  501    0  0.00000000000E+00 -0.00000000000E+00 -0.79731876823E+02  0.79731876823E+02  0.00000000000E+00 0. -1.
         23    2    1    2    0    0  0.39347183765E+01  0.20197554147E+02  0.18563957188E+03  0.22225484765E+03  0.12046469797E+03 0.  0.
          5    1    3    3  502    0  0.23997899374E+02  0.15170328603E+02 -0.61162899064E+01  0.29341428842E+02  0.41800000000E+01 0. -1.
         -5    1    3    3    0  502 -0.20063180997E+02  0.50272255444E+01  0.19175586179E+03  0.19291341881E+03  0.41800000000E+01 0.  1.
        -11    1    1    2    0    0  0.34082329918E+01 -0.39514878996E+02 -0.29431506312E+02  0.49388817337E+02  0.00000000000E+00 0. -1.
         11    1    1    2    0    0 -0.73429513682E+01  0.19317324849E+02 -0.17164021714E+02  0.26864132510E+02  0.00000000000E+00 0.  1.
</event>
<event>
 7    1  0.6833760E-006  0.1265576E+03  0.7561462E-02  0.1232655E+00
          2   -1    0    0  501    0  0.00000000000E+00  0.00000000000E+00  0.75014868414E+03  0.75014868414E+03  0.00000000000E+00 0. -1.
         -2   -1    0    0    0  501 -0.00000000000E+00 -0.00000000000E+00 -0.29568141381E+02  0.29568141381E+02  0.00000000000E+00 0.  1.
         23    2    1    2    0    0  0.93172242486E+01 -0.84759698270E+02  0.24308023337E+03  0.28636740971E+03  0.12508907374E+03 0.  0.
          5    1    3    3  502    0  0.46544670089E+02 -0.79318259292E+02  0.22751994059E+03  0.24543958185E+03  0.41800000000E+01 0.  1.
         -5    1    3    3    0  502 -0.37227445840E+02 -0.54414389776E+01  0.15560292779E+02  0.40927827859E+02  0.41800000000E+01 0.  1.
        -11    1    1    2    0    0  0.32765210133E+02  0.51718500725E+01  0.15561070422E+03  0.15910687696E+03  0.00000000000E+00 0. -1.
         11    1    1    2    0    0 -0.42082434382E+02  0.79587848197E+02  0.32188960516E+03  0.33424253885E+03  0.00000000000E+00 0.  1.
</event>
<event>
 7    1  0.6833760E-006  0.1107074E+03  0.7561462E-02  0.1259265E+00
          1   -1    0    0  501    0  0.00000000000E+00  0.00000000000E+00  0.18697490839E+03  0.18697490839E+03  0.00000000000E+00 0. -1.
         -1   -1    0    0    0  501 -0.00000000000E+00 -0.00000000000E+00 -0.94391517268E+02  0.94391517268E+02  0.00000000000E+00 0.  1.
         23    2    1    2    0    0  0.42730746887E+02  0.59426959953E+02  0.16854436751E+02  0.13789327463E+03  0.11564170031E+03 0.  0.
          5    1    3    3  502    0 -0.29462363340E+02  0.45975393182E+02  0.31088644679E+02  0.62974152315E+02  0.41800000000E+01 0. -1.
         -5    1    3    3    0  502  0.72193110226E+02  0.13451566771E+02 -0.14234207928E+02  0.74919122312E+02  0.41800000000E+01 0.  1.
        -11    1    1    2    0    0  0.14167804505E+02 -0.73434723241E+01  0.63374747383E+02  0.65352979091E+02  0.00000000000E+00 0.  1.
         11    1    1    2    0    0 -0.56898551391E+02 -0.52083487629E+02  0.12354206991E+02  0.78120171943E+02  0.00000000000E+00 0. -1.
</event>
<event>
 7    1  0.6833760E-006  0.7309389E+02  0.7561462E-02  0.1349877E+00
          2   -1    0    0  501    0  0.00000000000E+00  0.00000000000E+00  0.12231184871E+03  0.12231184871E+03  0.00000000000E+00 0. -1.
         -2   -1    0    0    0  501 -0.00000000000E+00 -0.00000000000E+00 -0.96853334030E+02  0.96853334030E+02  0.00000000000E+00 0.  1.
         23    2    1    2    0    0 -0.12864580783E+02 -0.60888760752E+01  0.47135838843E+01  0.12598560607E+03  0.12509030024E+03 0.  0.
          5    1    3    3  502    0 -0.16541809005E+02  0.27592119084E+02 -0.51118626511E+02  0.60543726818E+02  0.41800000000E+01 0. -1.
         -5    1    3    3    0  502  0.36772282217E+01 -0.33680995159E+02  0.55832210395E+02  0.65441879251E+02  0.41800000000E+01 0. -1.
        -11    1    1    2    0    0  0.76838149468E+01  0.42318508970E+02  0.33399135715E+02  0.54455481635E+02  0.00000000000E+00 0. -1.
         11    1    1    2    0    0  0.51807658366E+01 -0.36229632895E+02 -0.12654204918E+02  0.38724095037E+02  0.00000000000E+00 0.  1.
</event>
<event>
 7    1  0.6833760E-006  0.8160025E+02  0.7561462E-02  0.1324571E+00
         -2   -1    0    0    0  501 -0.00000000000E+00  0.00000000000E+00  0.10573153147E+03  0.10573153147E+03  0.00000000000E+00 0.  1.
          2   -1    0    0  501    0  0.00000000000E+00 -0.00000000000E+00 -0.13226898999E+03  0.13226898999E+03  0.00000000000E+00 0. -1.
         23    2    1    2    0    0 -0.42559411085E+02 -0.28090026996E+01  0.37176578525E+01  0.13221688771E+03  0.12509312710E+03 0.  0.
          5    1    3    3  502    0  0.38571549701E+02  0.38544897020E+01  0.27024832560E+02  0.47438755381E+02  0.41800000000E+01 0. -1.
         -5    1    3    3    0  502 -0.81130960786E+02 -0.66634924017E+01 -0.23307174708E+02  0.84778132333E+02  0.41800000000E+01 0. -1.
        -11    1    1    2    0    0  0.20772100376E+02  0.23925459233E+01  0.32895809391E+02  0.38978695534E+02  0.00000000000E+00 0.  1.
         11    1    1    2    0    0  0.21787310709E+02  0.41645677631E+00 -0.63150925766E+02  0.66804938211E+02  0.00000000000E+00 0. -1.
</event>
<event>
 7    1  0.6833760E-006  0.1860668E+03  0.7561462E-02  0.1162057E+00
          2   -1    0    0  501    0  0.00000000000E+00  0.00000000000E+00  0.34654066412E+03  0.34654066412E+03  0.00000000000E+00 0. -1.
         -2   -1    0    0    0  501 -0.00000000000E+00 -0.00000000000E+00 -0.14405763113E+03  0.14405763113E+03  0.00000000000E+00 0.  1.
         23    2    1    2    0    0  0.13881949555E+03 -0.83030213991E+02 -0.12768112966E+02  0.20487885055E+03  0.12508976743E+03 0.  0.
          5    1    3    3  502    0  0.11575475217E+03 -0.19013000651E+02 -0.49556297836E+02  0.12741254215E+03  0.41800000000E+01 0. -1.
         -5    1    3    3    0  502  0.23064743384E+02 -0.64017213340E+02  0.36788184870E+02  0.77466308401E+02  0.41800000000E+01 0. -1.
        -11    1    1    2    0    0 -0.41684302927E+02  0.79044916446E+02  0.11998461750E+03  0.14960611071E+03  0.00000000000E+00 0.  1.
         11    1    1    2    0    0 -0.97135192624E+02  0.39852975451E+01  0.95266528460E+02  0.13611333398E+03  0.00000000000E+00 0. -1.
</event>
<event>
 7    1  0.6833760E-006  0.7868589E+02  0.7561462E-02  0.1332823E+00
          2   -1    0    0  501    0  0.00000000000E+00  0.00000000000E+00  0.29591515473E+03  0.29591515473E+03  0.00000000000E+00 0. -1.
         -2   -1    0    0    0  501 -0.00000000000E+00 -0.00000000000E+00 -0.51027493390E+02  0.51027493390E+02  0.00000000000E+00 0.  1.
         23    2    1    2    0    0  0.15627597576E+02  0.49312395845E+02  0.99235367108E+02  0.16768895051E+03  0.12488391349E+03 0.  0.
          5    1    3    3  502    0  0.27380798670E+02  0.41317109778E+02 -0.15422121622E+02  0.52078075344E+02  0.41800000000E+01 0. -1.
         -5    1    3    3    0  502 -0.11753201094E+02  0.79952860669E+01  0.11465748873E+03  0.11561087517E+03  0.41800000000E+01 0. -1.
        -11    1    1    2    0    0  0.28224516619E+02 -0.19877134317E+01  0.89011258296E+02  0.93400098750E+02  0.00000000000E+00 0. -1.
         11    1    1    2    0    0 -0.43852114195E+02 -0.47324682413E+02  0.56641035931E+02  0.85853598854E+02  0.00000000000E+00 0.  1.
</event>
<event>
 7    1  0.6833760E-006  0.1089237E+03  0.7561462E-02  0.1262576E+00
         -2   -1    0    0    0  501 -0.00000000000E+00  0.00000000000E+00  0.28915731517E+03  0.28915731517E+03  0.00000000000E+00 0. -1.
          2   -1    0    0  501    0  0.00000000000E+00 -0.00000000000E+00 -0.51991551428E+02  0.51991551428E+02  0.00000000000E+00 0.  1.
         23    2    1    2    0    0 -0.37543846981E+02  0.78544211036E+01  0.19042826880E+03  0.23104396161E+03  0.12508858565E+03 0.  0.
          5    1    3    3  502    0 -0.26368985278E+02 -0.51391073850E+02  0.44304972616E+02  0.72916176906E+02  0.41800000000E+01 0. -1.
         -5    1    3    3    0  502 -0.11174861703E+02  0.59245494954E+02  0.14612329618E+03  0.15812778470E+03  0.41800000000E+01 0. -1.
        -11    1    1    2    0    0  0.54836322402E+02  0.26601718136E+02  0.31944045698E+02  0.68812031781E+02  0.00000000000E+00 0.  1.
         11    1    1    2    0    0 -0.17292475421E+02 -0.34456139239E+02  0.14793449245E+02  0.41292873211E+02  0.00000000000E+00 0. -1.
</event>
<event>
 7    1  0.6833760E-006  0.1421354E+03  0.7561462E-02  0.1210484E+00
          2   -1    0    0  501    0  0.00000000000E+00  0.00000000000E+00  0.60553035251E+03  0.60553035251E+03  0.00000000000E+00 0. -1.
         -2   -1    0    0    0  501 -0.00000000000E+00 -0.00000000000E+00 -0.51890551970E+02  0.51890551970E+02  0.00000000000E+00 0.  1.
         23    2    1    2    0    0  0.51829793439E+02  0.10745329565E+03  0.15609963927E+03  0.23332134469E+03  0.12585394023E+03 0.  0.
          5    1    3    3  502    0  0.57396057126E+02  0.43112261412E+02  0.15238518544E+03  0.16849834301E+03  0.41800000000E+01 0. -1.
         -5    1    3    3    0  502 -0.55662636867E+01  0.64341034241E+02  0.37144538330E+01  0.64823001673E+02  0.41800000000E+01 0.  1.
        -11    1    1    2    0    0 -0.68956147983E+02 -0.43705422356E+02  0.21307127230E+03  0.22817642597E+03  0.00000000000E+00 0.  1.
         11    1    1    2    0    0  0.17126354545E+02 -0.63747873297E+02  0.18446888898E+03  0.19592313383E+03  0.00000000000E+00 0. -1.
</event>
<event>
 7    1  0.6833760E-006  0.1098073E+03  0.7561462E-02  0.1260927E+00
          2   -1    0    0  501    0  0.00000000000E+00  0.00000000000E+00  0.22847833004E+03  0.22847833004E+03  0.00000000000E+00 0.  1.
         -2   -1    0    0    0  501 -0.00000000000E+00 -0.00000000000E+00 -0.83249898358E+02  0.83249898358E+02  0.00000000000E+00 0. -1.
         23    2    1    2    0    0 -0.57723412747E+02  0.47217761058E+02  0.32193962498E+02  0.14914576962E+03  0.12508597058E+03 0.  0.
          5    1    3    3  502    0 -0.23240866784E+02  0.88186592574E+02  0.13568425510E+02  0.92296194773E+02  0.41800000000E+01 0. -1.
         -5    1    3    3    0  502 -0.34482545963E+02 -0.40968831516E+02  0.18625536989E+02  0.56849574844E+02  0.41800000000E+01 0. -1.
        -11    1    1    2    0    0  0.41771817177E+02 -0.32855730518E+02  0.12652320498E+03  0.13723157485E+03  0.00000000000E+00 0.  1.
         11    1    1    2    0    0  0.15951595571E+02 -0.14362030540E+02 -0.13488735797E+02  0.25350883927E+02  0.00000000000E+00 0. -1.
</event>
<event>
 7    1  0.6833760E-006  0.2547076E+03  0.7561462E-02  0.1110365E+00
          1   -1    0    0  501    0  0.00000000000E+00  0.00000000000E+00  0.19269921146E+03  0.19269921146E+03  0.00000000000E+00 0. -1.
         -1   -1    0    0    0  501 -0.00000000000E+00 -0.00000000000E+00 -0.39163971522E+03  0.39163971522E+03  0.00000000000E+00 0.  1.
         23    2    1    2    0    0 -0.20699483493E+03  0.12306591208E+03 -0.17956477800E+03  0.32539516295E+03  0.12508565932E+03 0.  0.
          5    1    3    3  502    0 -0.15499145208E+03  0.26563082083E+02 -0.76698949416E+02  0.17500899631E+03  0.41800000000E+01 0.  1.
         -5    1    3    3    0  502 -0.52003382851E+02  0.96502829998E+02 -0.10286582859E+03  0.15038616664E+03  0.41800000000E+01 0.  1.
        -11    1    1    2    0    0  0.32218504009E+02 -0.81439554905E+01 -0.36143086318E+02  0.49098662916E+02  0.00000000000E+00 0.  1.
         11    1    1    2    0    0  0.17477633092E+03 -0.11492195659E+03  0.16767360566E+02  0.20984510082E+03  0.00000000000E+00 0. -1.
</event>
<event>
 7    1  0.6833760E-006  0.8449125E+02  0.7561462E-02  0.1316768E+00
         -2   -1    0    0    0  501 -0.00000000000E+00  0.00000000000E+00  0.30378711074E+02  0.30378711074E+02  0.00000000000E+00 0.  1.
          2   -1    0    0  501    0  0.00000000000E+00 -0.00000000000E+00 -0.41167841591E+03  0.41167841591E+03  0.00000000000E+00 0. -1.
         23    2    1    2    0    0 -0.36692786876E+01 -0.16284156634E+02 -0.24658848015E+03  0.27700633404E+03  0.12509193895E+03 0.  0.
          5    1    3    3  502    0 -0.39511713563E+01  0.39351116196E+02 -0.20117246669E+03  0.20506573545E+03  0.41800000000E+01 0.  1.
         -5    1    3    3    0  502  0.28189266870E+00 -0.55635272830E+02 -0.45416013462E+02  0.71940598587E+02  0.41800000000E+01 0.  1.
        -11    1    1    2    0    0 -0.27788945403E+02 -0.12783985298E+02 -0.11292889535E+03  0.11699825285E+03  0.00000000000E+00 0. -1.
         11    1    1    2    0    0  0.31458224090E+02  0.29068141932E+02 -0.21782329339E+02  0.48052540096E+02  0.00000000000E+00 0.  1.
</event>
<event>
 7    1  0.6833760E-006  0.1211794E+03  0.7561462E-02  0.1241164E+00
          2   -1    0    0  501    0  0.00000000000E+00  0.00000000000E+00  0.20415264665E+03  0.20415264665E+03  0.00000000000E+00 0.  1.
         -2   -1    0    0    0  501 -0.00000000000E+00 -0.00000000000E+00 -0.96257334285E+02  0.96257334285E+02  0.00000000000E+00 0. -1.
         23    2    1    2    0    0  0.21429391591E+02  0.81683532877E+02  0.31313756160E+02  0.15414022838E+03  0.12508892962E+03 0.  0.
          5    1    3    3  502    0  0.19139512330E+02  0.11121850581E+03  0.44583025943E+02  0.12141250170E+03  0.41800000000E+01 0.  1.
         -5    1    3    3    0  502  0.22898792612E+01 -0.29534972935E+02 -0.13269269783E+02  0.32727726683E+02  0.41800000000E+01 0.  1.
        -11    1    1    2    0    0  0.73770933417E+01 -0.66575835473E+02  0.89053517777E+02  0.11143290539E+03  0.00000000000E+00 0.  1.
         11    1    1    2    0    0 -0.28806484933E+02 -0.15107697405E+02 -0.12471961568E+02  0.34836847165E+02  0.00000000000E+00 0. -1.
</event>
<event>
 6    1  0.6833760E-006  0.1675864E+03  0.7561462E-02  0.1180389E+00
          2   -1    0    0  501    0  0.00000000000E+00  0.00000000000E+00  0.25149402038E+03  0.25149402038E+03  0.00000000000E+00 0. -1.
         -2   -1    0    0    0  501 -0.00000000000E+00 -0.00000000000E+00 -0.18140014990E+03  0.18140014990E+03  0.00000000000E+00 0.  1.
          5    1    1    2  502    0  0.60259588105E+01  0.61526102525E+02 -0.31817758448E+02  0.69653539926E+02  0.41800000000E+01 0. -1.
         -5    1    1    2    0  502 -0.13160789621E+03 -0.95507480665E+01 -0.49691454345E+02  0.14106228471E+03  0.41800000000E+01 0.  1.
        -11    1    1    2    0    0  0.66613789792E+02 -0.69041990410E+01  0.18006090831E+02  0.69349003323E+02  0.00000000000E+00 0.  1.
         11    1    1    2    0    0  0.58968147605E+02 -0.45071155418E+02  0.13359699245E+03  0.15282934232E+03  0.00000000000E+00 0. -1.
</event>
<event>
 7    1  0.6833760E-006  0.2186697E+03  0.7561462E-02  0.1134879E+00
          1   -1    0    0  501    0  0.00000000000E+00  0.00000000000E+00  0.47848009592E+02  0.47848009592E+02  0.00000000000E+00 0. -1.
         -1   -1    0    0    0  501 -0.00000000000E+00 -0.00000000000E+00 -0.12094005112E+04  0.12094005112E+04  0.00000000000E+00 0.  1.
         23    2    1    2    0    0 -0.19388944340E+03  0.78908899858E+02 -0.71924416015E+03  0.75945967617E+03  0.12508839712E+03 0.  0.
          5    1    3    3  502    0 -0.30197420453E+01 -0.46176221100E+00  0.44394544886E+01  0.68200603015E+01  0.41800000000E+01 0.  1.
         -5    1    3    3    0  502 -0.19086970135E+03  0.79370662069E+02 -0.72368361463E+03  0.75263961587E+03  0.41800000000E+01 0.  1.
        -11    1    1    2    0    0  0.16972379082E+03 -0.96753667227E+02 -0.35154214215E+03  0.40218069944E+03  0.00000000000E+00 0.  1.
         11    1    1    2    0    0  0.24165652578E+02  0.17844767369E+02 -0.90766199270E+02  0.95608145139E+02  0.00000000000E+00 0. -1.
</event>
<event>
 7    1  0.6833760E-006  0.1008693E+03  0.7561462E-02  0.1278479E+00
         -1   -1    0    0    0  501 -0.00000000000E+00  0.00000000000E+00  0.29910453593E+03  0.29910453593E+03  0.00000000000E+00 0.  1.
          1   -1    0    0  501    0  0.00000000000E+00 -0.00000000000E+00 -0.51062088612E+02  0.51062088612E+02  0.00000000000E+00 0. -1.
         23    2    1    2    0    0  0.73372774788E+01  0.12781385641E+02  0.22250888860E+03  0.25568607020E+03  0.12509181240E+03 0.  0.
          5    1    3    3  502    0  0.32469438252E+02 -0.46096015185E+02  0.68299326336E+02  0.88664408949E+02  0.41800000000E+01 0.  1.
         -5    1    3    3    0  502 -0.25132160774E+02  0.58877400826E+02  0.15420956226E+03  0.16702166125E+03  0.41800000000E+01 0.  1.
        -11    1    1    2    0    0  0.33246074319E+02 -0.21427292763E+02  0.33969192442E+02  0.52137667458E+02  0.00000000000E+00 0.  1.
         11    1    1    2    0    0 -0.40583351797E+02  0.86459071219E+01 -0.84356337275E+01  0.42342886881E+02  0.00000000000E+00 0. -1.
</event>
<event>
 7    1  0.6833760E-006  0.1214213E+03  0.7561462E-02  0.1240771E+00
         -2   -1    0    0    0  501 -0.00000000000E+00  0.00000000000E+00  0.85562445653E+02  0.85562445653E+02  0.00000000000E+00 0.  1.
          2   -1    0    0  501    0  0.00000000000E+00 -0.00000000000E+00 -0.19906683874E+03  0.19906683874E+03  0.00000000000E+00 0. -1.
         23    2    1    2    0    0 -0.59177413327E+02  0.38387067095E+02 -0.44734501009E+02  0.15041096118E+03  0.12508696373E+03 0.  0.
          5    1    3    3  502    0 -0.88658702810E+02  0.41235107744E+02 -0.15520359476E+01  0.97880441919E+02  0.41800000000E+01 0.  1.
         -5    1    3    3    0  502  0.29481289483E+02 -0.28480406491E+01 -0.43182465061E+02  0.52530519262E+02  0.41800000000E+01 0.  1.
        -11    1    1    2    0    0  0.61492455221E+02  0.13637402376E+02 -0.41560595838E+02  0.75462466956E+02  0.00000000000E+00 0. -1.
         11    1    1    2    0    0 -0.23150418938E+01 -0.52024469471E+02 -0.27209296244E+02  0.58755856260E+02  0.00000000000E+00 0.  1.
</event>
<event>
 7    1  0.6833760E-006  0.1710828E+03  0.7561462E-02  0.1176723E+00
         -2   -1    0    0    0  501 -0.00000000000E+00  0.00000000000E+00  0.17146836973E+03  0.17146836973E+03  0.00000000000E+00 0.  1.
          2   -1    0    0  501    0  0.00000000000E+00 -0.00000000000E+00 -0.21625310905E+03  0.21625310905E+03  0.00000000000E+00 0. -1.
         23    2    1    2    0    0 -0.10042358323E+03 -0.90616703570E+02  0.60302871778E+02  0.19385602933E+03  0.12508973070E+03 0.  0.
          5    1    3    3  502    0  0.21829049597E+02 -0.51014507666E+02  0.16992216304E+02  0.58182430455E+02  0.41800000000E+01 0.  1.
         -5    1    3    3    0  502 -0.12225263283E+03 -0.39602195904E+02  0.43310655474E+02  0.13567359887E+03  0.41800000000E+01 0.  1.
        -11    1    1    2    0    0 -0.55505457504E+01  0.40213715096E+02 -0.75904543947E+01  0.41298504064E+02  0.00000000000E+00 0. -1.
         11    1    1    2    0    0  0.10597412898E+03  0.50402988473E+02 -0.97497156708E+02  0.15256694539E+03  0.00000000000E+00 0.  1.
</event>
<event>
 7    1  0.6833760E-006  0.9912508E+02  0.7561462E-02  0.1282147E+00
          2   -1    0    0  501    0  0.00000000000E+00  0.00000000000E+00  0.22467827032E+03  0.22467827032E+03  0.00000000000E+00 0. -1.
         -2   -1    0    0    0  501 -0.00000000000E+00 -0.00000000000E+00 -0.67478954116E+02  0.67478954116E+02  0.00000000000E+00 0.  1.
         23    2    1    2    0    0  0.53041758466E+02  0.22372280177E+02  0.74782143044E+02  0.15669394078E+03  0.12508667034E+03 0.  0.
          5    1    3    3  502    0  0.10377199926E+02  0.60004295494E+02 -0.19645205476E+01  0.61069906640E+02  0.41800000000E+01 0.  1.
         -5    1    3    3    0  502  0.42664558540E+02 -0.37632015317E+02  0.76746663591E+02  0.95624034137E+02  0.41800000000E+01 0.  1.
        -11    1    1    2    0    0 -0.54953445393E+02 -0.36462231696E+02  0.16435523366E+02  0.67966917902E+02  0.00000000000E+00 0.  1.
         11    1    1    2    0    0  0.19116869276E+01  0.14089951519E+02  0.65981649796E+02  0.67496365758E+02  0.00000000000E+00 0. -1.
</event>
<event>
 7    1  0.6833760E-006  0.1212467E+03  0.7561462E-02  0.1241054E+00
          1   -1    0    0  501    0  0.00000000000E+00  0.00000000000E+00  0.49711618092E+03  0.49711618092E+03  0.00000000000E+00 0. -1.
         -1   -1    0    0    0  501 -0.00000000000E+00 -0.00000000000E+00 -0.31847499361E+02  0.31847499361E+02  0.00000000000E+00 0.  1.
         23    2    1    2    0    0 -0.56150620135E+02  0.15034987340E+02  0.20553841062E+03  0.24754480499E+03  0.12511374526E+03 0.  0.
          5    1    3    3  502    0  0.38843443282E+02  0.12583523061E+02  0.81327144340E+02  0.91097392636E+02  0.41800000000E+01 0.  1.
         -5    1    3    3    0  502 -0.94994063418E+02  0.24514642797E+01  0.12421126628E+03  0.15644741236E+03  0.41800000000E+01 0.  1.
        -11    1    1    2    0    0  0.56358769308E+02  0.28252360720E+02  0.12661582753E+03  0.14144283137E+03  0.00000000000E+00 0.  1.
         11    1    1    2    0    0 -0.20814917270E+00 -0.43287348061E+02  0.13311444341E+03  0.13997604392E+03  0.00000000000E+00 0. -1.
</event>
<event>
 7    1  0.6833760E-006  0.2195411E+03  0.7561462E-02  0.1134226E+00
         -2   -1    0    0    0  501 -0.00000000000E+00  0.00000000000E+00  0.44397209459E+02  0.44397209459E+02  0.00000000000E+00 0. -1.
          2   -1    0    0  501    0  0.00000000000E+00 -0.00000000000E+00 -0.11549133441E+04  0.11549133441E+04  0.00000000000E+00 0.  1.
         23    2    1    2    0    0 -0.82160934167E+02  0.17944895073E+03 -0.51241392012E+03  0.56317650427E+03  0.12508958555E+03 0.  0.
          5    1    3    3  502    0  0.24076849426E+02  0.44164884589E+02 -0.20256145856E+03  0.20875547563E+03  0.41800000000E+01 0.  1.
         -5    1    3    3    0  502 -0.10623778359E+03  0.13528406614E+03 -0.30985246156E+03  0.35442102865E+03  0.41800000000E+01 0.  1.
        -11    1    1    2    0    0  0.88648478626E+02 -0.88152887648E+02 -0.35539529994E+03  0.37674302062E+03  0.00000000000E+00 0. -1.
         11    1    1    2    0    0 -0.64875444590E+01 -0.91296063081E+02 -0.24270691455E+03  0.25939102864E+03  0.00000000000E+00 0.  1.
</event>
<event>
 7    1  0.6833760E-006  0.1195449E+03  0.7561462E-02  0.1243850E+00
         -1   -1    0    0    0  501 -0.00000000000E+00  0.00000000000E+00  0.42607393881E+03  0.42607393881E+03  0.00000000000E+00 0.  1.
          1   -1    0    0  501    0  0.00000000000E+00 -0.00000000000E+00 -0.53314917758E+02  0.53314917758E+02  0.00000000000E+00 0. -1.
         23    2    1    2    0    0  0.41868598630E+02 -0.58489744308E+02  0.31900900952E+03  0.35012571850E+03  0.12508893181E+03 0.  0.
          5    1    3    3  502    0  0.79886400710E+02 -0.43896935543E+02  0.14465240461E+03  0.17102797587E+03  0.41800000000E+01 0.  1.
         -5    1    3    3    0  502 -0.38017802080E+02 -0.14592808765E+02  0.17435660491E+03  0.17909774264E+03  0.41800000000E+01 0.  1.
        -11    1    1    2    0    0  0.38481063400E+01 -0.17666509161E+02  0.33639205316E+02  0.38190438628E+02  0.00000000000E+00 0.  1.
         11    1    1    2    0    0 -0.45716704970E+02  0.76156253469E+02  0.20110806212E+02  0.91072699434E+02  0.00000000000E+00 0. -1.
</event>
<event>
 6    1  0.6833760E-006  0.1666681E+03  0.7561462E-02  0.1181368E+00
         -2   -1    0    0    0  501 -0.00000000000E+00  0.00000000000E+00  0.37857317567E+02  0.37857317567E+02  0.00000000000E+00 0.  1.
          2   -1    0    0  501    0  0.00000000000E+00 -0.00000000000E+00 -0.98428846517E+03  0.98428846517E+03  0.00000000000E+00 0. -1.
          5    1    1    2  502    0  0.70439716038E+02 -0.48346202757E+02 -0.33970274566E+03  0.35030634696E+03  0.41800000000E+01 0. -1.
         -5    1    1    2    0  502 -0.13171882894E+03  0.14422888591E+02 -0.14875789543E+03  0.19925926193E+03  0.41800000000E+01 0.  1.
        -11    1    1    2    0    0  0.84823403193E+02  0.34756604574E+02 -0.33185086903E+03  0.34427900106E+03  0.00000000000E+00 0.  1.
         11    1    1    2    0    0 -0.23544290287E+02 -0.83329040779E+00 -0.12611963749E+03  0.12830117279E+03  0.00000000000E+00 0. -1.
</event>
<event>
 7    1  0.6833760E-006  0.1432198E+03  0.7561462E-02  0.1209061E+00
         -1   -1    0    0    0  501 -0.00000000000E+00  0.00000000000E+00  0.16875965498E+02  0.16875965498E+02  0.00000000000E+00 0.  1.
          1   -1    0    0  501    0  0.00000000000E+00 -0.00000000000E+00 -0.15676773551E+04  0.15676773551E+04  0.00000000000E+00 0. -1.
         23    2    1    2    0    0  0.11909436382E+03 -0.93144513199E+01 -0.93883323500E+03  0.95463407399E+03  0.12509254805E+03 0.  0.
          5    1    3    3  502    0  0.12354532062E+03  0.11589012595E+02 -0.49731799720E+03  0.51258210484E+03  0.41800000000E+01 0.  1.
         -5    1    3    3    0  502 -0.44509567920E+01 -0.20903463915E+02 -0.44151523780E+03  0.44205196915E+03  0.41800000000E+01 0.  1.
        -11    1    1    2    0    0 -0.12414492829E+03 -0.60890599081E+01 -0.58793732368E+03  0.60093205643E+03  0.00000000000E+00 0.  1.
         11    1    1    2    0    0  0.50505644618E+01  0.15403511228E+02 -0.24030830889E+02  0.28987190149E+02  0.00000000000E+00 0. -1.
</event>
<event>
 7    1  0.6833760E-006  0.8331408E+02  0.7561462E-02  0.1319901E+00
          1   -1    0    0  501    0  0.00000000000E+00  0.00000000000E+00  0.42856318564E+02  0.42856318564E+02  0.00000000000E+00 0. -1.
         -1   -1    0    0    0  501 -0.00000000000E+00 -0.00000000000E+00 -0.27752992440E+03  0.27752992440E+03  0.00000000000E+00 0.  1.
         23    2    1    2    0    0  0.65072251705E+01  0.15995452361E+02 -0.13336582246E+03  0.18366607019E+03  0.12509430148E+03 0.  0.
          5    1    3    3  502    0 -0.44286033056E+02  0.24636845455E+02 -0.11991710924E+03  0.13025287853E+03  0.41800000000E+01 0. -1.
         -5    1    3    3    0  502  0.50793258226E+02 -0.86413930942E+01 -0.13448713224E+02  0.53413191659E+02  0.41800000000E+01 0. -1.
        -11    1    1    2    0    0  0.26541851031E+02  0.17028085491E+01 -0.95063732690E+02  0.98714146332E+02  0.00000000000E+00 0.  1.
         11    1    1    2    0    0 -0.33049076201E+02 -0.17698260910E+02 -0.62440506847E+01  0.38006026442E+02  0.00000000000E+00 0. -1.
</event>
<event>
 7    1  0.6833760E-006  0.1101496E+03  0.7561462E-02  0.1260293E+00
         -1   -1    0    0    0  501 -0.00000000000E+00  0.00000000000E+00  0.60247551712E+02  0.60247551712E+02  0.00000000000E+00 0. -1.
          1   -1    0    0  501    0  0.00000000000E+00 -0.00000000000E+00 -0.25149873856E+03  0.25149873856E+03  0.00000000000E+00 0.  1.
         23    2    1    2    0    0 -0.18628017158E+01 -0.57294331961E+02 -0.90430225264E+02  0.16465469648E+03  0.12508969952E+03 0.  0.
          5    1    3    3  502    0 -0.12741587033E+02  0.33307565926E+02 -0.57029997337E+02  0.67391653669E+02  0.41800000000E+01 0. -1.
         -5    1    3    3    0  502  0.10878785317E+02 -0.90601897886E+02 -0.33400227927E+02  0.97263042807E+02  0.41800000000E+01 0. -1.
        -11    1    1    2    0    0  0.30761764067E+02  0.22107258060E+01 -0.27586853484E+01  0.30964233915E+02  0.00000000000E+00 0. -1.
         11    1    1    2    0    0 -0.28898962351E+02  0.55083606155E+02 -0.98062276232E+02  0.11612735988E+03  0.00000000000E+00 0.  1.
</event>
<event>
 7    1  0.6833760E-006  0.9831277E+02  0.7561462E-02  0.1283884E+00
          2   -1    0    0  501    0  0.00000000000E+00  0.00000000000E+00  0.11012949595E+03  0.11012949595E+03  0.00000000000E+00 0. -1.
         -2   -1    0    0    0  501 -0.00000000000E+00 -0.00000000000E+00 -0.16438591028E+03  0.16438591028E+03  0.00000000000E+00 0.  1.
         23    2    1    2    0    0  0.14565930974E+02 -0.73375510412E+02 -0.79352036708E+02  0.16595316372E+03  0.12509026719E+03 0.  0.
          5    1    3    3  502    0 -0.13444900796E+02  0.15540124034E+01 -0.84505434307E+02  0.85684427636E+02  0.41800000000E+01 0. -1.
         -5    1    3    3    0  502  0.28010831770E+02 -0.74929522815E+02  0.51533975991E+01  0.80268736085E+02  0.41800000000E+01 0. -1.
        -11    1    1    2    0    0  0.28054938917E+02  0.22323570977E+02  0.21833936412E+02  0.41977877484E+02  0.00000000000E+00 0. -1.
         11    1    1    2    0    0 -0.42620869890E+02  0.51051939435E+02  0.32616859651E+01  0.66584365024E+02  0.00000000000E+00 0.  1.
</event>
<event>
 7    1  0.6833760E-006  0.2018521E+03  0.7561462E-02  0.1148186E+00
         -2   -1    0    0    0  501 -0.00000000000E+00  0.00000000000E+00  0.40056094006E+02  0.40056094006E+02  0.00000000000E+00 0.  1.
          2   -1    0    0  501    0  0.00000000000E+00 -0.00000000000E+00 -0.11807492500E+04  0.11807492500E+04  0.00000000000E+00 0. -1.
         23    2    1    2    0    0  0.49123982751E+00 -0.16769504449E+03 -0.42944052121E+03  0.47769055990E+03  0.12508893037E+03 0.  0.
          5    1    3    3  502    0  0.39435854701E+02 -0.14361515361E+03 -0.38863881266E+03  0.41621881035E+03  0.41800000000E+01 0. -1.
         -5    1    3    3    0  502 -0.38944614873E+02 -0.24079890882E+02 -0.40801708543E+02  0.61471749549E+02  0.41800000000E+01 0. -1.
        -11    1    1    2    0    0  0.30149123750E+02 -0.73480440797E+01 -0.54193073421E+02  0.62448800001E+02  0.00000000000E+00 0.  1.
         11    1    1    2    0    0 -0.30640363578E+02  0.17504308857E+03 -0.65705956138E+03  0.68066598412E+03  0.00000000000E+00 0. -1.
</event>
<event>
 7    1  0.6833760E-006  0.1061564E+03  0.7561462E-02  0.1267858E+00
          1   -1    0    0  501    0  0.00000000000E+00  0.00000000000E+00  0.20354090162E+03  0.20354090162E+03  0.00000000000E+00 0. -1.
         -1   -1    0    0    0  501 -0.00000000000E+00 -0.00000000000E+00 -0.68239091095E+02  0.68239091095E+02  0.00000000000E+00 0.  1.
         23    2    1    2    0    0  0.18322221601E+02 -0.37259502292E+02  0.82703246664E+02  0.15560016091E+03  0.12509040231E+03 0.  0.
          5    1    3    3  502    0  0.65483904732E+02  0.69655661739E+01  0.32031818505E+02  0.73349646814E+02  0.41800000000E+01 0.  1.
         -5    1    3    3    0  502 -0.47161683130E+02 -0.44225068466E+02  0.50671428159E+02  0.82250514091E+02  0.41800000000E+01 0.  1.
        -11    1    1    2    0    0 -0.47411524259E+01 -0.21096645028E+02 -0.14644953509E+02  0.26115543668E+02  0.00000000000E+00 0.  1.
         11    1    1    2    0    0 -0.13581069175E+02  0.58356147321E+02  0.67243517367E+02  0.90064288139E+02  0.00000000000E+00 0. -1.
</event>
<event>
 7    1  0.6833760E-006  0.1214998E+03  0.7561462E-02  0.1240643E+00
          2   -1    0    0  501    0  0.00000000000E+00  0.00000000000E+00  0.52694221866E+03  0.52694221866E+03  0.00000000000E+00 0.  1.
         -2   -1    0    0    0  501 -0.00000000000E+00 -0.00000000000E+00 -0.34391616629E+02  0.34391616629E+02  0.00000000000E+00 0. -1.
         23    2    1    2    0    0 -0.76187607133E+02  0.17728368998E+02  0.24764378024E+03  0.28825990785E+03  0.12508991179E+03 0.  0.
          5    1    3    3  502    0  0.76118116212E+01 -0.39485023500E+02  0.11009768639E+03  0.11728588877E+03  0.41800000000E+01 0.  1.
         -5    1    3    3    0  502 -0.83799418755E+02  0.57213392498E+02  0.13754609385E+03  0.17097401908E+03  0.41800000000E+01 0.  1.
        -11    1    1    2    0    0  0.11662363246E+02  0.22242565382E+02  0.14731268204E+03  0.14943817692E+03  0.00000000000E+00 0.  1.
         11    1    1    2    0    0  0.64525243888E+02 -0.39970934380E+02  0.97594139751E+02  0.12363575052E+03  0.00000000000E+00 0. -1.
</event>
<event>
 7    1  0.6833760E-006  0.1835581E+03  0.7561462E-02  0.1164403E+00
         -1   -1    0    0    0  501 -0.00000000000E+00  0.00000000000E+00  0.48592259168E+02  0.48592259168E+02  0.00000000000E+00 0.  1.
          1   -1    0    0  501    0  0.00000000000E+00 -0.00000000000E+00 -0.91513832150E+03  0.91513832150E+03  0.00000000000E+00 0. -1.
         23    2    1    2    0    0 -0.13926746611E+03 -0.11478767076E+03 -0.51053487216E+03  0.55575666343E+03  0.12509187338E+03 0.  0.
          5    1    3    3  502    0 -0.17019018826E+02 -0.36214626633E+02 -0.21596796496E+02  0.45662240450E+02  0.41800000000E+01 0. -1.
         -5    1    3    3    0  502 -0.12224844728E+03 -0.78573044124E+02 -0.48893807566E+03  0.51009442298E+03  0.41800000000E+01 0. -1.
        -11    1    1    2    0    0  0.78889702321E+02  0.52547697685E+02 -0.10049723281E+03  0.13814680404E+03  0.00000000000E+00 0.  1.
         11    1    1    2    0    0  0.60377763785E+02  0.62239973073E+02 -0.25551395736E+03  0.26982711320E+03  0.00000000000E+00 0. -1.
</event>
<event>
 7    1  0.6833760E-006  0.1081004E+03  0.7561462E-02  0.1264129E+00
         -2   -1    0    0    0  501 -0.00000000000E+00  0.00000000000E+00  0.41964322257E+03  0.41964322257E+03  0.00000000000E+00 0.  1.
          2   -1    0    0  501    0  0.00000000000E+00 -0.00000000000E+00 -0.47818690024E+02  0.47818690024E+02  0.00000000000E+00 0. -1.
         23    2    1    2    0    0 -0.38849583973E+02 -0.87501401738E+01  0.33719961057E+03  0.36185289755E+03  0.12509231377E+03 0.  0.
          5    1    3    3  502    0 -0.64268082465E+02  0.40204179084E+02  0.19078946778E+03  0.20534082852E+03  0.41800000000E+01 0.  1.
         -5    1    3    3    0  502  0.25418498491E+02 -0.48954319258E+02  0.14641014279E+03  0.15651206903E+03  0.41800000000E+01 0.  1.
        -11    1    1    2    0    0  0.58449973507E+02  0.20696497317E+02 -0.23927693677E+01  0.62052153463E+02  0.00000000000E+00 0. -1.
         11    1    1    2    0    0 -0.19600389534E+02 -0.11946357144E+02  0.37017691340E+02  0.43556861584E+02  0.00000000000E+00 0.  1.
</event>
<event>
 7    1  0.6833760E-006  0.1130616E+03  0.7561462E-02  0.1255003E+00
          1   -1    0    0  501    0  0.00000000000E+00  0.00000000000E+00  0.35750982970E+03  0.35750982970E+03  0.00000000000E+00 0. -1.
         -1   -1    0    0    0  501 -0.00000000000E+00 -0.00000000000E+00 -0.48156500907E+02  0.48156500907E+02  0.00000000000E+00 0.  1.
         23    2    1    2    0    0 -0.25684975010E+01 -0.42829218480E+02  0.79444101228E+02  0.15427019651E+03  0.12508792578E+03 0.  0.
          5    1    3    3  502    0  0.56321976439E+02 -0.93001231343E+01  0.11823636440E+02  0.58445941681E+02  0.41800000000E+01 0. -1.
         -5    1    3    3    0  502 -0.58890473940E+02 -0.33529095346E+02  0.67620464788E+02  0.95824254830E+02  0.41800000000E+01 0. -1.
        -11    1    1    2    0    0  0.46746933285E+02  0.16567886532E+02  0.98174173321E+02  0.10999063116E+03  0.00000000000E+00 0. -1.
         11    1    1    2    0    0 -0.44178435784E+02  0.26261331948E+02  0.13173505425E+03  0.14140550294E+03  0.00000000000E+00 0.  1.
</event>
<event>
 7    1  0.6833760E-006  0.1212908E+03  0.7561462E-02  0.1240983E+00
         -4   -1    0    0    0  501 -0.00000000000E+00  0.00000000000E+00  0.53594779338E+03  0.53594779338E+03  0.00000000000E+00 0.  1.
          4   -1    0    0  501    0  0.00000000000E+00 -0.00000000000E+00 -0.32820465327E+02  0.32820465327E+02  0.00000000000E+00 0. -1.
         23    2    1    2    0    0 -0.58699818125E+02  0.33039073809E+02  0.35763677905E+03  0.38482297861E+03  0.12508960824E+03 0.  0.
          5    1    3    3  502    0  0.24344934239E+02 -0.26428505206E+02  0.59354935981E+02  0.69509873657E+02  0.41800000000E+01 0.  1.
         -5    1    3    3    0  502 -0.83044752365E+02  0.59467579015E+02  0.29828184307E+03  0.31531310496E+03  0.41800000000E+01 0.  1.
        -11    1    1    2    0    0  0.62772637459E+02 -0.54014596960E+02  0.13867007327E+03  0.16151585037E+03  0.00000000000E+00 0.  1.
         11    1    1    2    0    0 -0.40728193338E+01  0.20975523151E+02  0.68204757263E+01  0.22429429728E+02  0.00000000000E+00 0. -1.
</event>
<event>
 7    1  0.6833760E-006  0.1227168E+03  0.7561462E-02  0.1238681E+00
         -1   -1    0    0    0  501 -0.00000000000E+00  0.00000000000E+00  0.60503510180E+03  0.60503510180E+03  0.00000000000E+00 0.  1.
          1   -1    0    0  501    0  0.00000000000E+00 -0.00000000000E+00 -0.26691316544E+02  0.26691316544E+02  0.00000000000E+00 0. -1.
         23    2    1    2    0    0 -0.28238225658E+01 -0.60222660751E+02  0.37692581907E+03  0.40169116755E+03  0.12509187890E+03 0.  0.
          5    1    3    3  502    0 -0.56184976767E+02  0.56252079440E+00  0.18460958604E+03  0.19301616435E+03  0.41800000000E+01 0. -1.
         -5    1    3    3    0  502  0.53361154202E+02 -0.60785181545E+02  0.19231623303E+03  0.20867500320E+03  0.41800000000E+01 0. -1.
        -11    1    1    2    0    0  0.21118904916E+02  0.79064091652E+02  0.17276702908E+03  0.19116899610E+03  0.00000000000E+00 0.  1.
         11    1    1    2    0    0 -0.18295082351E+02 -0.18841430901E+02  0.28650937107E+02  0.38866254691E+02  0.00000000000E+00 0. -1.
</event>
<event>
 7    1  0.6833760E-006  0.8714985E+02  0.7561462E-02  0.1309904E+00
          1   -1    0    0  501    0  0.00000000000E+00  0.00000000000E+00  0.31448752889E+03  0.31448752889E+03  0.00000000000E+00 0. -1.
         -1   -1    0    0    0  501 -0.00000000000E+00 -0.00000000000E+00 -0.41958590487E+02  0.41958590487E+02  0.00000000000E+00 0.  1.
         23    2    1    2    0    0  0.26172938769E+02  0.11427969605E+02  0.10977898577E+03  0.16886247884E+03  0.12508992698E+03 0.  0.
          5    1    3    3  502    0  0.13245722315E+02 -0.36410168010E+02  0.11249982388E+03  0.11905810458E+03  0.41800000000E+01 0.  1.
         -5    1    3    3    0  502  0.12927216454E+02  0.47838137615E+02 -0.27208381085E+01  0.49804374263E+02  0.41800000000E+01 0.  1.
        -11    1    1    2    0    0  0.17628433542E+02 -0.32515681573E+02  0.10903109380E+03  0.11513388134E+03  0.00000000000E+00 0. -1.
         11    1    1    2    0    0 -0.43801372311E+02  0.21087711968E+02  0.53718858831E+02  0.72449759189E+02  0.00000000000E+00 0.  1.
</event>
<event>
 7    1  0.6833760E-006  0.1313395E+03  0.7561462E-02  0.1225482E+00
          1   -1    0    0  501    0  0.00000000000E+00  0.00000000000E+00  0.70186876585E+03  0.70186876585E+03  0.00000000000E+00 0. -1.
         -1   -1    0    0    0  501 -0.00000000000E+00 -0.00000000000E+00 -0.42658793507E+02  0.42658793507E+02  0.00000000000E+00 0.  1.
         23    2    1    2    0    0 -0.63998249729E+02 -0.41184502413E+02  0.10653175840E+03  0.17644009768E+03  0.11827997851E+03 0.  0.
          5    1    3    3  502    0 -0.95433830146E+02 -0.38127253381E+02  0.10090948800E+03  0.14408851639E+03  0.41800000000E+01 0. -1.
         -5    1    3    3    0  502  0.31435580417E+02 -0.30572490321E+01  0.56222703961E+01  0.32351581294E+02  0.41800000000E+01 0.  1.
        -11    1    1    2    0    0  0.44639011485E+02 -0.30271068850E+02  0.17129821041E+03  0.17958857382E+03  0.00000000000E+00 0.  1.
         11    1    1    2    0    0  0.19359238244E+02  0.71455571263E+02  0.38138000353E+03  0.38849888785E+03  0.00000000000E+00 0. -1.
</event>
<event>
 7    1  0.6833760E-006  0.9169004E+02  0.7561462E-02  0.1298810E+00
         -2   -1    0    0    0  501 -0.00000000000E+00  0.00000000000E+00  0.29947723749E+02  0.29947723749E+02  0.00000000000E+00 0.  1.
          2   -1    0    0  501    0  0.00000000000E+00 -0.00000000000E+00 -0.40086925447E+03  0.40086925447E+03  0.00000000000E+00 0. -1.
         23    2    1    2    0    0 -0.35715793379E+01  0.32989803042E+01 -0.18039254470E+03  0.21957246819E+03  0.12508780577E+03 0.  0.
          5    1    3    3  502    0  0.19352515635E+02  0.52986252473E+02 -0.14127527499E+03  0.15217831165E+03  0.41800000000E+01 0. -1.
         -5    1    3    3    0  502 -0.22924094973E+02 -0.49687272169E+02 -0.39117269708E+02  0.67394156537E+02  0.41800000000E+01 0. -1.
        -11    1    1    2    0    0 -0.27614557654E+02 -0.22232507570E+02 -0.29458902140E+02  0.46094198144E+02  0.00000000000E+00 0.  1.
         11    1    1    2    0    0  0.31186136992E+02  0.18933527265E+02 -0.16107008388E+03  0.16515031188E+03  0.00000000000E+00 0. -1.
</event>
<event>
 7    1  0.6833760E-006  0.1721097E+03  0.7561462E-02  0.1175666E+00
         -2   -1    0    0    0  501 -0.00000000000E+00  0.00000000000E+00  0.27054709271E+02  0.27054709271E+02  0.00000000000E+00 0.  1.
          2   -1    0    0  501    0  0.00000000000E+00 -0.00000000000E+00 -0.13427600056E+04  0.13427600056E+04  0.00000000000E+00 0. -1.
         23    2    1    2    0    0  0.80842824663E+02  0.13420591138E+03 -0.69097975495E+03  0.71947716962E+03  0.12509031502E+03 0.  0.
          5    1    3    3  502    0  0.83903669909E+02  0.69700271506E+02 -0.23726537409E+03  0.26117098578E+03  0.41800000000E+01 0.  1.
         -5    1    3    3    0  502 -0.30608452463E+01  0.64505639872E+02 -0.45371438086E+03  0.45830618384E+03  0.41800000000E+01 0.  1.
        -11    1    1    2    0    0 -0.51366916668E+02 -0.24798512729E+02 -0.32382121485E+03  0.32880648648E+03  0.00000000000E+00 0.  1.
         11    1    1    2    0    0 -0.29475907994E+02 -0.10940739865E+03 -0.30090432656E+03  0.32153105880E+03  0.00000000000E+00 0. -1.
</event>
<event>
 7    1  0.6833760E-006  0.7135902E+02  0.7561462E-02  0.1355532E+00
          2   -1    0    0  501    0  0.00000000000E+00  0.00000000000E+00  0.24981036901E+03  0.24981036901E+03  0.00000000000E+00 0.  1.
         -2   -1    0    0    0  501 -0.00000000000E+00 -0.00000000000E+00 -0.55224064970E+02  0.55224064970E+02  0.00000000000E+00 0. -1.
         23    2    1    2    0    0  0.31138990659E+02  0.34593782484E+02  0.59998678820E+02  0.14634122557E+03  0.12509814673E+03 0.  0.
          5    1    3    3  502    0  0.62867361456E+01 -0.98386908313E+01 -0.35738341313E+02  0.37828882199E+02  0.41800000000E+01 0. -1.
         -5    1    3    3    0  502  0.24852254513E+02  0.44432473315E+02  0.95737020133E+02  0.10851234337E+03  0.41800000000E+01 0. -1.
        -11    1    1    2    0    0 -0.51097245177E+02 -0.21976638498E+02  0.11598738834E+03  0.12863504716E+03  0.00000000000E+00 0. -1.
         11    1    1    2    0    0  0.19958254519E+02 -0.12617143986E+02  0.18600236881E+02  0.30058161251E+02  0.00000000000E+00 0.  1.
</event>
<event>
 7    1  0.6833760E-006  0.7166958E+02  0.7561462E-02  0.1354506E+00
         -2   -1    0    0    0  501 -0.00000000000E+00  0.00000000000E+00  0.11469681269E+03  0.11469681269E+03  0.00000000000E+00 0.  1.
          2   -1    0    0  501    0  0.00000000000E+00 -0.00000000000E+00 -0.12691241621E+03  0.12691241621E+03  0.00000000000E+00 0. -1.
         23    2    1    2    0    0  0.15109445736E+02 -0.10850802398E+02  0.22145282951E+02  0.12839651556E+03  0.12509682805E+03 0.  0.
          5    1    3    3  502    0 -0.21350268595E+02  0.17257623282E+02  0.61633373929E+02  0.67600330711E+02  0.41800000000E+01 0. -1.
         -5    1    3    3    0  502  0.36459714332E+02 -0.28108425680E+02 -0.39488090978E+02  0.60796184851E+02  0.41800000000E+01 0. -1.
        -11    1    1    2    0    0 -0.10882952939E+02 -0.28115754728E+02 -0.59462447473E+02  0.66668710712E+02  0.00000000000E+00 0. -1.
         11    1    1    2    0    0 -0.42264927976E+01  0.38966557126E+02  0.25101560998E+02  0.46544002623E+02  0.00000000000E+00 0.  1.
</event>
<event>
 7    1  0.6833760E-006  0.9883481E+02  0.7561462E-02  0.1282765E+00
         -2   -1    0    0    0  501 -0.00000000000E+00  0.00000000000E+00  0.24681645211E+02  0.24681645211E+02  0.00000000000E+00 0.  1.
          2   -1    0    0  501    0  0.00000000000E+00 -0.00000000000E+00 -0.57675794226E+03  0.57675794226E+03  0.00000000000E+00 0. -1.
         23    2    1    2    0    0 -0.14608621300E+02 -0.49147441990E+02 -0.31139779847E+03  0.33947729683E+03  0.12508942121E+03 0.  0.
          5    1    3    3  502    0 -0.44412505304E+02 -0.49497401271E+02 -0.71639982455E+02  0.97837737331E+02  0.41800000000E+01 0. -1.
         -5    1    3    3    0  502  0.29803884003E+02  0.34995928133E+00 -0.23975781602E+03  0.24163955950E+03  0.41800000000E+01 0. -1.
        -11    1    1    2    0    0  0.48419708850E+02  0.46324137710E+02 -0.18498095052E+03  0.19674436712E+03  0.00000000000E+00 0. -1.
         11    1    1    2    0    0 -0.33811087550E+02  0.28233042800E+01 -0.55697548059E+02  0.65217923519E+02  0.00000000000E+00 0.  1.
</event>
<event>
 7    1  0.6833760E-006  0.9671044E+02  0.7561462E-02  0.1287370E+00
         -1   -1    0    0    0  501 -0.00000000000E+00  0.00000000000E+00  0.40203613488E+02  0.40203613488E+02  0.00000000000E+00 0.  1.
          1   -1    0    0  501    0  0.00000000000E+00 -0.00000000000E+00 -0.41124058092E+03  0.41124058092E+03  0.00000000000E+00 0. -1.
         23    2    1    2    0    0  0.64947406738E+02 -0.12311080429E+02 -0.18059562174E+03  0.22941649306E+03  0.12508964927E+03 0.  0.
          5    1    3    3  502    0 -0.30095691236E+01 -0.35131490049E+02 -0.14497340233E+03  0.14925829585E+03  0.41800000000E+01 0. -1.
         -5    1    3    3    0  502  0.67956975861E+02  0.22820409619E+02 -0.35622219414E+02  0.80158197206E+02  0.41800000000E+01 0. -1.
        -11    1    1    2    0    0 -0.15708763773E+02 -0.21316788428E+02 -0.46268464760E+01  0.26880819118E+02  0.00000000000E+00 0.  1.
         11    1    1    2    0    0 -0.49238642964E+02  0.33627868857E+02 -0.18581449922E+03  0.19514688223E+03  0.00000000000E+00 0. -1.
</event>
<event>
 7    1  0.6833760E-006  0.1124380E+03  0.7561462E-02  0.1256121E+00
          1   -1    0    0  501    0  0.00000000000E+00  0.00000000000E+00  0.51126555958E+03  0.51126555958E+03  0.00000000000E+00 0. -1.
         -1   -1    0    0    0  501 -0.00000000000E+00 -0.00000000000E+00 -0.28878271541E+02  0.28878271541E+02  0.00000000000E+00 0.  1.
         23    2    1    2    0    0 -0.10465939636E+02  0.45672416384E+02  0.24691190866E+03  0.28073021997E+03  0.12509380583E+03 0.  0.
          5    1    3    3  502    0 -0.58132611710E+02  0.58538706817E+02  0.17350369160E+03  0.19216447159E+03  0.41800000000E+01 0.  1.
         -5    1    3    3    0  502  0.47666672074E+02 -0.12866290433E+02  0.73408217056E+02  0.88565748388E+02  0.41800000000E+01 0.  1.
        -11    1    1    2    0    0 -0.24732855161E+02  0.10144863479E+02  0.14492239426E+03  0.14736733945E+03  0.00000000000E+00 0. -1.
         11    1    1    2    0    0  0.35198794796E+02 -0.55817279863E+02  0.90552985122E+02  0.11204627170E+03  0.00000000000E+00 0.  1.
</event>
<event>
 7    1  0.6833760E-006  0.2450468E+03  0.7561462E-02  0.1116476E+00
          2   -1    0    0  501    0  0.00000000000E+00  0.00000000000E+00  0.53990678245E+03  0.53990678245E+03  0.00000000000E+00 0. -1.
         -2   -1    0    0    0  501 -0.00000000000E+00 -0.00000000000E+00 -0.15557550229E+03  0.15557550229E+03  0.00000000000E+00 0.  1.
         23    2    1    2    0    0 -0.13249409022E+03  0.19090629051E+03  0.35229548403E+02  0.26624437009E+03  0.12508016558E+03 0.  0.
          5    1    3    3  502    0 -0.92879984697E+02  0.69644240141E+02  0.67817466420E+02  0.13451279825E+03  0.41800000000E+01 0.  1.
         -5    1    3    3    0  502 -0.39614105523E+02  0.12126205037E+03 -0.32587918018E+02  0.13173157183E+03  0.41800000000E+01 0.  1.
        -11    1    1    2    0    0  0.14306915699E+03 -0.16547348786E+03  0.32922443491E+03  0.39527077733E+03  0.00000000000E+00 0. -1.
         11    1    1    2    0    0 -0.10575066770E+02 -0.25432802656E+02  0.19877296854E+02  0.33967137329E+02  0.00000000000E+00 0.  1.
</event>
<event>
 7    1  0.6833760E-006  0.1501603E+03  0.7561462E-02  0.1200276E+00
          2   -1    0    0  501    0  0.00000000000E+00  0.00000000000E+00  0.19895275097E+03  0.19895275097E+03  0.00000000000E+00 0. -1.
         -2   -1    0    0    0  501 -0.00000000000E+00 -0.00000000000E+00 -0.13874040758E+03  0.13874040758E+03  0.00000000000E+00 0.  1.
         23    2    1    2    0    0  0.78433011489E+02 -0.96919906002E+02  0.10696662757E+02  0.17691960428E+03  0.12506367303E+03 0.  0.
          5    1    3    3  502    0  0.56306058563E+02  0.17381096815E+02 -0.53679575827E+01  0.59319154799E+02  0.41800000000E+01 0.  1.
         -5    1    3    3    0  502  0.22126952926E+02 -0.11430100282E+03  0.16064620340E+02  0.11760044948E+03  0.41800000000E+01 0.  1.
        -11    1    1    2    0    0 -0.49538060652E+02  0.58062224745E+02  0.74178122689E+02  0.10643136418E+03  0.00000000000E+00 0.  1.
         11    1    1    2    0    0 -0.28894950837E+02  0.38857681257E+02 -0.24662442051E+02  0.54342190096E+02  0.00000000000E+00 0. -1.
</event>
<event>
 7    1  0.6833760E-006  0.1192078E+03  0.7561462E-02  0.1244410E+00
         -4   -1    0    0    0  501 -0.00000000000E+00  0.00000000000E+00  0.36137217638E+03  0.36137217638E+03  0.00000000000E+00 0.  1.
          4   -1    0    0  501    0  0.00000000000E+00 -0.00000000000E+00 -0.67414020941E+02  0.67414020941E+02  0.00000000000E+00 0. -1.
         23    2    1    2    0    0  0.95517281074E+01 -0.69026438885E+02  0.27893421502E+03  0.31354799420E+03  0.12510860716E+03 0.  0.
          5    1    3    3  502    0  0.60309457242E+02 -0.69672671966E+02  0.17669609140E+03  0.19932509367E+03  0.41800000000E+01 0. -1.
         -5    1    3    3    0  502 -0.50757729134E+02  0.64623308087E+00  0.10223812362E+03  0.11422290053E+03  0.41800000000E+01 0. -1.
        -11    1    1    2    0    0 -0.32054024538E+02  0.12514286102E+02 -0.24904043168E+02  0.42476807929E+02  0.00000000000E+00 0. -1.
         11    1    1    2    0    0  0.22502296430E+02  0.56512152783E+02  0.39927983592E+02  0.72761395194E+02  0.00000000000E+00 0.  1.
</event>
<event>
 7    1  0.6833760E-006  0.1083246E+03  0.7561462E-02  0.1263704E+00
         -1   -1    0    0    0  501 -0.00000000000E+00  0.00000000000E+00  0.16503057036E+03  0.16503057036E+03  0.00000000000E+00 0.  1.
          1   -1    0    0  501    0  0.00000000000E+00 -0.00000000000E+00 -0.14283795983E+03  0.14283795983E+03  0.00000000000E+00 0. -1.
         23    2    1    2    0    0 -0.17926285783E+02  0.62964387290E+02  0.10417803490E+03  0.17545990084E+03  0.12508896058E+03 0.  0.
          5    1    3    3  502    0 -0.30829813419E+02  0.87442337986E+02  0.11289543671E+03  0.14614886896E+03  0.41800000000E+01 0. -1.
         -5    1    3    3    0  502  0.12903527636E+02 -0.24477950696E+02 -0.87174018071E+01  0.29311031882E+02  0.41800000000E+01 0. -1.
        -11    1    1    2    0    0  0.44468830248E+02 -0.47786087726E+02 -0.29425273455E+02  0.71601911718E+02  0.00000000000E+00 0. -1.
         11    1    1    2    0    0 -0.26542544465E+02 -0.15178299564E+02 -0.52560150915E+02  0.60806717627E+02  0.00000000000E+00 0.  1.
</event>
<event>
 7    1  0.6833760E-006  0.8796749E+02  0.7561462E-02  0.1307850E+00
          3   -1    0    0  501    0  0.00000000000E+00  0.00000000000E+00  0.22818245973E+02  0.22818245973E+02  0.00000000000E+00 0. -1.
         -3   -1    0    0    0  501 -0.00000000000E+00 -0.00000000000E+00 -0.57957387309E+03  0.57957387309E+03  0.00000000000E+00 0.  1.
         23    2    1    2    0    0  0.27233570997E+02 -0.17075137768E+02 -0.39544240358E+03  0.41599871917E+03  0.12508801733E+03 0.  0.
          5    1    3    3  502    0 -0.38254352956E+02 -0.93948385859E+01 -0.47549349538E+02  0.61887571884E+02  0.41800000000E+01 0.  1.
         -5    1    3    3    0  502  0.65487923953E+02 -0.76802991821E+01 -0.34789305404E+03  0.35411114728E+03  0.41800000000E+01 0.  1.
        -11    1    1    2    0    0 -0.30512301346E+02 -0.17733209787E+02 -0.14226870029E+03  0.14658052512E+03  0.00000000000E+00 0.  1.
         11    1    1    2    0    0  0.32787303489E+01  0.34808347555E+02 -0.19044523248E+02  0.39812874777E+02  0.00000000000E+00 0. -1.
</event>
