<event>
 8    1  0.6862919E-009  0.7689213E+02  0.7561462E-02  0.1338110E+00
         -2   -1    0    0    0  501 -0.00000000000E+00  0.00000000000E+00  0.10616307565E+03  0.10616307565E+03  0.00000000000E+00 0.  1.
          2   -1    0    0  501    0  0.00000000000E+00 -0.00000000000E+00 -0.13508634965E+03  0.13508634965E+03  0.00000000000E+00 0. -1.
         25    2    1    2    0    0  0.38470427019E+01 -0.41461031874E+02  0.10098376343E+02  0.13222333180E+03  0.12508882990E+03 0.  0.
         23    2    1    2    0    0 -0.38470427019E+01  0.41461031874E+02 -0.39021650334E+02  0.10902609350E+03  0.92898778073E+02 0.  0.
          5    1    3    3  502    0  0.28721437803E+02  0.52104175960E+01 -0.46237438285E+02  0.54840154451E+02  0.41800000000E+01 0.  1.
         -5    1    3    3    0  502 -0.24874395101E+02 -0.46671449470E+02  0.56335814628E+02  0.77383177352E+02  0.41800000000E+01 0.  1.
        -11    1    4    4    0    0  0.20079668546E+02  0.42804942089E+02  0.15266227853E+02  0.49684141021E+02  0.00000000000E+00 0.  1.
         11    1    4    4    0    0 -0.23926711248E+02 -0.13439102154E+01 -0.54287878188E+02  0.59341952478E+02  0.00000000000E+00 0. -1.
</event>
<event>
 8    1  0.6862919E-009  0.9632792E+02  0.7561462E-02  0.1288213E+00
         -1   -1    0    0    0  501 -0.00000000000E+00  0.00000000000E+00  0.67155822064E+03  0.67155822064E+03  0.00000000000E+00 0.  1.
          1   -1    0    0  501    0  0.00000000000E+00 -0.00000000000E+00 -0.17849418174E+02  0.17849418174E+02  0.00000000000E+00 0. -1.
         25    2    1    2    0    0 -0.39113872441E+01  0.11275268110E+02  0.37518843208E+03  0.39567512033E+03  0.12510000264E+03 0.  0.
         23    2    1    2    0    0  0.39113872441E+01 -0.11275268110E+02  0.27852037039E+03  0.29373251848E+03  0.92535209915E+02 0.  0.
          5    1    3    3  502    0 -0.54482538313E+02 -0.11851699674E+02  0.27850476393E+03  0.28406193990E+03  0.41800000000E+01 0. -1.
         -5    1    3    3    0  502  0.50571151069E+02  0.23126967784E+02  0.96683668147E+02  0.11161318043E+03  0.41800000000E+01 0. -1.
        -11    1    4    4    0    0  0.10035868927E+02 -0.45303797167E+02  0.22694425408E+03  0.23163947669E+03  0.00000000000E+00 0.  1.
         11    1    4    4    0    0 -0.61244816830E+01  0.34028529057E+02  0.51576116308E+02  0.62093041793E+02  0.00000000000E+00 0. -1.
</event>
<event>
 8    1  0.6862919E-009  0.1373421E+03  0.7561462E-02  0.1216951E+00
          2   -1    0    0  501    0  0.00000000000E+00  0.00000000000E+00  0.81065703117E+03  0.81065703117E+03  0.00000000000E+00 0.  1.
         -2   -1    0    0    0  501 -0.00000000000E+00 -0.00000000000E+00 -0.29846529477E+02  0.29846529477E+02  0.00000000000E+00 0. -1.
         25    2    1    2    0    0  0.84765403835E+02 -0.68878090742E+02  0.47039510971E+03  0.49884719092E+03  0.12509034965E+03 0.  0.
         23    2    1    2    0    0 -0.84765403835E+02  0.68878090742E+02  0.31041539197E+03  0.34165636972E+03  0.91880326104E+02 0.  0.
          5    1    3    3  502    0  0.25343388613E+02  0.22334703428E+02  0.25707992791E+03  0.25932352006E+03  0.41800000000E+01 0.  1.
         -5    1    3    3    0  502  0.59422015222E+02 -0.91212794170E+02  0.21331518181E+03  0.23952367086E+03  0.41800000000E+01 0.  1.
        -11    1    4    4    0    0 -0.34960360928E+02  0.73795058490E+02  0.25112313894E+03  0.26406584105E+03  0.00000000000E+00 0.  1.
         11    1    4    4    0    0 -0.49805042907E+02 -0.49169677478E+01  0.59292253029E+02  0.77590528675E+02  0.00000000000E+00 0. -1.
</event>
<event>
 8    1  0.6862919E-009  0.1248278E+03  0.7561462E-02  0.1235339E+00
         -2   -1    0    0    0  501 -0.00000000000E+00  0.00000000000E+00  0.27852138744E+02  0.27852138744E+02  0.00000000000E+00 0. -1.
          2   -1    0    0  501    0  0.00000000000E+00 -0.00000000000E+00 -0.74877563169E+03  0.74877563169E+03  0.00000000000E+00 0.  1.
         25    2    1    2    0    0  0.23388594809E+02  0.89596369945E+02 -0.45640600581E+03  0.48221210825E+03  0.12509012481E+03 0.  0.
         23    2    1    2    0    0 -0.23388594809E+02 -0.89596369945E+02 -0.26451748713E+03  0.29441566219E+03  0.90202800774E+02 0.  0.
          5    1    3    3  502    0 -0.43228893435E+02  0.33203413665E+01 -0.17667193749E+03  0.18196210537E+03  0.41800000000E+01 0. -1.
         -5    1    3    3    0  502  0.66617488244E+02  0.86276028578E+02 -0.27973406832E+03  0.30025000288E+03  0.41800000000E+01 0. -1.
        -11    1    4    4    0    0 -0.20744486867E+01 -0.62532715025E+02 -0.24880721559E+03  0.25655345313E+03  0.00000000000E+00 0.  1.
         11    1    4    4    0    0 -0.21314146122E+02 -0.27063654920E+02 -0.15710271547E+02  0.37862209057E+02  0.00000000000E+00 0. -1.
</event>
<event>
 8    1  0.6862919E-009  0.8787393E+02  0.7561462E-02  0.1308083E+00
          3   -1    0    0  501    0  0.00000000000E+00  0.00000000000E+00  0.13048854285E+03  0.13048854285E+03  0.00000000000E+00 0. -1.
         -3   -1    0    0    0  501 -0.00000000000E+00 -0.00000000000E+00 -0.11359163329E+03  0.11359163329E+03  0.00000000000E+00 0.  1.
         25    2    1    2    0    0  0.25564469294E+02 -0.17128035714E+02 -0.37956109733E+02  0.13429356031E+03  0.12508869804E+03 0.  0.
         23    2    1    2    0    0 -0.25564469294E+02  0.17128035714E+02  0.54853019293E+02  0.10978661584E+03  0.89985196529E+02 0.  0.
          5    1    3    3  502    0  0.24842166484E+02 -0.58696431502E+02  0.16195640268E+02  0.65895185487E+02  0.41800000000E+01 0.  1.
         -5    1    3    3    0  502  0.72230281017E+00  0.41568395789E+02 -0.54151750002E+02  0.68398374820E+02  0.41800000000E+01 0.  1.
        -11    1    4    4    0    0  0.67848617584E+01 -0.19838906610E+02 -0.13996496650E+02  0.25209491924E+02  0.00000000000E+00 0.  1.
         11    1    4    4    0    0 -0.32349331052E+02  0.36966942324E+02  0.68849515944E+02  0.84577123916E+02  0.00000000000E+00 0. -1.
</event>
<event>
 8    1  0.6862919E-009  0.1331735E+03  0.7561462E-02  0.1222821E+00
         -2   -1    0    0    0  501 -0.00000000000E+00  0.00000000000E+00  0.19521998063E+03  0.19521998063E+03  0.00000000000E+00 0.  1.
          2   -1    0    0  501    0  0.00000000000E+00 -0.00000000000E+00 -0.98342903855E+02  0.98342903855E+02  0.00000000000E+00 0. -1.
         25    2    1    2    0    0  0.81903154996E+02  0.20151339603E+02  0.59483716574E+02  0.16217171655E+03  0.12508856792E+03 0.  0.
         23    2    1    2    0    0 -0.81903154996E+02 -0.20151339603E+02  0.37393360201E+02  0.13139116794E+03  0.93547700876E+02 0.  0.
          5    1    3    3  502    0 -0.24140327140E+02  0.34296952539E+02  0.62710443049E+01  0.42612612506E+02  0.41800000000E+01 0. -1.
         -5    1    3    3    0  502  0.10604348214E+03 -0.14145612936E+02  0.53212672269E+02  0.11955910404E+03  0.41800000000E+01 0. -1.
        -11    1    4    4    0    0 -0.12480673387E+02  0.29334625972E+02  0.33209025241E+02  0.46033974916E+02  0.00000000000E+00 0. -1.
         11    1    4    4    0    0 -0.69422481609E+02 -0.49485965575E+02  0.41843349593E+01  0.85357193023E+02  0.00000000000E+00 0.  1.
</event>
<event>
 8    1  0.6862919E-009  0.1165890E+03  0.7561462E-02  0.1248833E+00
          1   -1    0    0  501    0  0.00000000000E+00  0.00000000000E+00  0.18864427215E+03  0.18864427215E+03  0.00000000000E+00 0. -1.
         -1   -1    0    0    0  501 -0.00000000000E+00 -0.00000000000E+00 -0.11687079911E+03  0.11687079911E+03  0.00000000000E+00 0.  1.
         25    2    1    2    0    0  0.83600627906E+02 -0.21390789501E+02 -0.18648544637E+02  0.15310943740E+03  0.12509236884E+03 0.  0.
         23    2    1    2    0    0 -0.83600627906E+02  0.21390789501E+02  0.90422017677E+02  0.15240563386E+03  0.87204960241E+02 0.  0.
          5    1    3    3  502    0  0.10300075628E+03  0.62357603552E+01 -0.42382267801E+02  0.11163229607E+03  0.41800000000E+01 0.  1.
         -5    1    3    3    0  502 -0.19400128372E+02 -0.27626549857E+02  0.23733723164E+02  0.41477141332E+02  0.41800000000E+01 0.  1.
        -11    1    4    4    0    0 -0.46325975156E+01  0.16088927296E+02  0.68163310550E+02  0.70189396965E+02  0.00000000000E+00 0. -1.
         11    1    4    4    0    0 -0.78968030390E+02  0.53018622057E+01  0.22258707127E+02  0.82216236897E+02  0.00000000000E+00 0.  1.
</event>
<event>
 8    1  0.6862919E-009  0.9579796E+02  0.7561462E-02  0.1289389E+00
         -1   -1    0    0    0  501 -0.00000000000E+00  0.00000000000E+00  0.29957159343E+02  0.29957159343E+02  0.00000000000E+00 0.  1.
          1   -1    0    0  501    0  0.00000000000E+00 -0.00000000000E+00 -0.39972576908E+03  0.39972576908E+03  0.00000000000E+00 0. -1.
         25    2    1    2    0    0  0.17333896268E+01 -0.75668121878E+01 -0.18039308789E+03  0.21964783365E+03  0.12507295225E+03 0.  0.
         23    2    1    2    0    0 -0.17333896268E+01  0.75668121878E+01 -0.18937552185E+03  0.21003509477E+03  0.90506306264E+02 0.  0.
          5    1    3    3  502    0 -0.59359323278E+02 -0.72334181602E+01 -0.11726787300E+03  0.13170071388E+03  0.41800000000E+01 0.  1.
         -5    1    3    3    0  502  0.61092712905E+02 -0.33339402760E+00 -0.63125214882E+02  0.87947119768E+02  0.41800000000E+01 0.  1.
        -11    1    4    4    0    0 -0.73442705042E+01  0.38389601009E+02 -0.34851945535E+02  0.52367526984E+02  0.00000000000E+00 0.  1.
         11    1    4    4    0    0  0.56108808774E+01 -0.30822788821E+02 -0.15452357632E+03  0.15766756779E+03  0.00000000000E+00 0. -1.
</event>
<event>
 8    1  0.6862919E-009  0.1169813E+03  0.7561462E-02  0.1248162E+00
         -4   -1    0    0    0  501 -0.00000000000E+00  0.00000000000E+00  0.22447106958E+03  0.22447106958E+03  0.00000000000E+00 0.  1.
          4   -1    0    0  501    0  0.00000000000E+00 -0.00000000000E+00 -0.83844475766E+02  0.83844475766E+02  0.00000000000E+00 0. -1.
         25    2    1    2    0    0  0.20084082144E+02 -0.79683661235E+02  0.75253339045E+02  0.16751621740E+03  0.12508301976E+03 0.  0.
         23    2    1    2    0    0 -0.20084082144E+02  0.79683661235E+02  0.65373254764E+02  0.14079932794E+03  0.93797292535E+02 0.  0.
          5    1    3    3  502    0  0.42765609262E+02 -0.75785068515E+02 -0.16495523395E+01  0.87134765555E+02  0.41800000000E+01 0. -1.
         -5    1    3    3    0  502 -0.22681527118E+02 -0.38985927200E+01  0.76902891385E+02  0.80381451846E+02  0.41800000000E+01 0. -1.
        -11    1    4    4    0    0 -0.53950471591E+02  0.69710002791E+02  0.37393270076E+02  0.95751733775E+02  0.00000000000E+00 0.  1.
         11    1    4    4    0    0  0.33866389447E+02  0.99736584441E+01  0.27979984689E+02  0.45047594166E+02  0.00000000000E+00 0. -1.
</event>
<event>
 8    1  0.6862919E-009  0.4682877E+03  0.7561462E-02  0.1022405E+00
         -2   -1    0    0    0  501 -0.00000000000E+00  0.00000000000E+00  0.35907069822E+03  0.35907069822E+03  0.00000000000E+00 0.  1.
          2   -1    0    0  501    0  0.00000000000E+00 -0.00000000000E+00 -0.63467291110E+03  0.63467291110E+03  0.00000000000E+00 0. -1.
         25    2    1    2    0    0  0.40995164198E+03  0.20326440710E+03 -0.22187250205E+03  0.52369040373E+03  0.12508982307E+03 0.  0.
         23    2    1    2    0    0 -0.40995164198E+03 -0.20326440710E+03 -0.53729710830E+02  0.47005320558E+03  0.93200677511E+02 0.  0.
          5    1    3    3  502    0  0.24168390180E+03  0.53304836947E+02 -0.95951359323E+02  0.26547438631E+03  0.41800000000E+01 0. -1.
         -5    1    3    3    0  502  0.16826774019E+03  0.14995957016E+03 -0.12592114273E+03  0.25821601743E+03  0.41800000000E+01 0. -1.
        -11    1    4    4    0    0 -0.25580694393E+03 -0.85788188947E+02 -0.34533831180E+01  0.26983093185E+03  0.00000000000E+00 0.  1.
         11    1    4    4    0    0 -0.15414469805E+03 -0.11747621816E+03 -0.50276327712E+02  0.20022227373E+03  0.00000000000E+00 0. -1.
</event>
<event>
 8    1  0.6862919E-009  0.9856121E+02  0.7561462E-02  0.1283351E+00
          3   -1    0    0  501    0  0.00000000000E+00  0.00000000000E+00  0.28128184937E+03  0.28128184937E+03  0.00000000000E+00 0. -1.
         -3   -1    0    0    0  501 -0.00000000000E+00 -0.00000000000E+00 -0.10935025178E+03  0.10935025178E+03  0.00000000000E+00 0.  1.
         25    2    1    2    0    0 -0.13726867776E+02 -0.38959880101E+02 -0.54681022432E+02  0.14263492406E+03  0.12509359772E+03 0.  0.
         23    2    1    2    0    0  0.13726867776E+02  0.38959880101E+02  0.22661262002E+03  0.24799717709E+03  0.91885913682E+02 0.  0.
          5    1    3    3  502    0 -0.41936312444E+02  0.20301903893E+02 -0.60654338106E+02  0.76597929046E+02  0.41800000000E+01 0.  1.
         -5    1    3    3    0  502  0.28209444668E+02 -0.59261783995E+02  0.59733156735E+01  0.66036995017E+02  0.41800000000E+01 0.  1.
        -11    1    4    4    0    0 -0.29578849944E+02  0.25978527285E+02  0.17504787765E+03  0.17942004268E+03  0.00000000000E+00 0. -1.
         11    1    4    4    0    0  0.43305717720E+02  0.12981352816E+02  0.51564742374E+02  0.68577134412E+02  0.00000000000E+00 0.  1.
</event>
<event>
 8    1  0.6862919E-009  0.3283972E+03  0.7561462E-02  0.1071848E+00
         -2   -1    0    0    0  501 -0.00000000000E+00  0.00000000000E+00  0.94723348611E+02  0.94723348611E+02  0.00000000000E+00 0.  1.
          2   -1    0    0  501    0  0.00000000000E+00 -0.00000000000E+00 -0.12400468642E+04  0.12400468642E+04  0.00000000000E+00 0. -1.
         25    2    1    2    0    0 -0.24813719393E+03  0.20466249610E+03 -0.49455293625E+03  0.60306601127E+03  0.12508877998E+03 0.  0.
         23    2    1    2    0    0  0.24813719393E+03 -0.20466249610E+03 -0.65077057932E+03  0.73170420153E+03  0.91814417723E+02 0.  0.
          5    1    3    3  502    0 -0.65726980014E+02  0.69193909045E+02 -0.60359779374E+02  0.11299826687E+03  0.41800000000E+01 0.  1.
         -5    1    3    3    0  502 -0.18241021391E+03  0.13546858705E+03 -0.43419315688E+03  0.49006774439E+03  0.41800000000E+01 0.  1.
        -11    1    4    4    0    0  0.21604386853E+03 -0.12850253808E+03 -0.50619630697E+03  0.56517480182E+03  0.00000000000E+00 0.  1.
         11    1    4    4    0    0  0.32093325394E+02 -0.76159958017E+02 -0.14457427235E+03  0.16652939970E+03  0.00000000000E+00 0. -1.
</event>
<event>
 8    1  0.6862919E-009  0.1267934E+03  0.7561462E-02  0.1232293E+00
          2   -1    0    0  501    0  0.00000000000E+00  0.00000000000E+00  0.54538201199E+03  0.54538201199E+03  0.00000000000E+00 0. -1.
         -2   -1    0    0    0  501 -0.00000000000E+00 -0.00000000000E+00 -0.46194508004E+02  0.46194508004E+02  0.00000000000E+00 0.  1.
         25    2    1    2    0    0 -0.20842039719E+02  0.75223513368E+02  0.10911574976E+03  0.18343010404E+03  0.12508952250E+03 0.  0.
         23    2    1    2    0    0  0.20842039719E+02 -0.75223513368E+02  0.39007175423E+03  0.40814641596E+03  0.91293788568E+02 0.  0.
          5    1    3    3  502    0 -0.67044531486E+02  0.57935315465E+02  0.98946793452E+02  0.13288871402E+03  0.41800000000E+01 0.  1.
         -5    1    3    3    0  502  0.46202491767E+02  0.17288197903E+02  0.10168956309E+02  0.50541390015E+02  0.41800000000E+01 0.  1.
        -11    1    4    4    0    0 -0.29359386875E+02 -0.61733151149E+01  0.58293564020E+02  0.65560834523E+02  0.00000000000E+00 0.  1.
         11    1    4    4    0    0  0.50201426593E+02 -0.69050198253E+02  0.33177819021E+03  0.34258558143E+03  0.00000000000E+00 0. -1.
</event>
<event>
 8    1  0.6862919E-009  0.1235440E+03  0.7561462E-02  0.1237362E+00
          2   -1    0    0  501    0  0.00000000000E+00  0.00000000000E+00  0.12168958104E+03  0.12168958104E+03  0.00000000000E+00 0. -1.
         -2   -1    0    0    0  501 -0.00000000000E+00 -0.00000000000E+00 -0.17674710011E+03  0.17674710011E+03  0.00000000000E+00 0.  1.
         25    2    1    2    0    0  0.35437030472E+02 -0.85243733805E+02 -0.55387828336E+02  0.16499587832E+03  0.12503419953E+03 0.  0.
         23    2    1    2    0    0 -0.35437030472E+02  0.85243733805E+02  0.33030925858E+00  0.13344080283E+03  0.96353834768E+02 0.  0.
          5    1    3    3  502    0 -0.19221035180E+02 -0.15763223442E+02 -0.70808048435E+02  0.75161024007E+02  0.41800000000E+01 0.  1.
         -5    1    3    3    0  502  0.54658065652E+02 -0.69480510363E+02  0.15420220099E+02  0.89834854310E+02  0.41800000000E+01 0.  1.
        -11    1    4    4    0    0  0.23600737834E+02 -0.63203680423E+01  0.16219790617E+01  0.24486173538E+02  0.00000000000E+00 0. -1.
         11    1    4    4    0    0 -0.59037768306E+02  0.91564101847E+02 -0.12916698031E+01  0.10895462929E+03  0.00000000000E+00 0.  1.
</event>
<event>
 8    1  0.6862919E-009  0.7302914E+02  0.7561462E-02  0.1350085E+00
          1   -1    0    0  501    0  0.00000000000E+00  0.00000000000E+00  0.18833498003E+03  0.18833498003E+03  0.00000000000E+00 0. -1.
         -1   -1    0    0    0  501 -0.00000000000E+00 -0.00000000000E+00 -0.85387482105E+02  0.85387482105E+02  0.00000000000E+00 0.  1.
         25    2    1    2    0    0  0.12995429604E+02 -0.41267464653E+01  0.11572778431E+03  0.17096239256E+03  0.12509719574E+03 0.  0.
         23    2    1    2    0    0 -0.12995429604E+02  0.41267464653E+01 -0.12780286393E+02  0.10276006957E+03  0.10104644947E+03 0.  0.
          5    1    3    3  502    0  0.21627440788E+02 -0.39207453252E+02 -0.46495335855E+01  0.45211294475E+02  0.41800000000E+01 0.  1.
         -5    1    3    3    0  502 -0.86320111839E+01  0.35080706787E+02  0.12037731790E+03  0.12575109809E+03  0.41800000000E+01 0.  1.
        -11    1    4    4    0    0  0.10769097772E+02 -0.24944628990E+02 -0.45474126302E+02  0.52972673570E+02  0.00000000000E+00 0.  1.
         11    1    4    4    0    0 -0.23764527376E+02  0.29071375455E+02  0.32693839909E+02  0.49787395998E+02  0.00000000000E+00 0. -1.
</event>
<event>
 8    1  0.6862919E-009  0.1162224E+03  0.7561462E-02  0.1249462E+00
          1   -1    0    0  501    0  0.00000000000E+00  0.00000000000E+00  0.12633271504E+03  0.12633271504E+03  0.00000000000E+00 0. -1.
         -1   -1    0    0    0  501 -0.00000000000E+00 -0.00000000000E+00 -0.13152061224E+03  0.13152061224E+03  0.00000000000E+00 0.  1.
         25    2    1    2    0    0  0.51039882221E+02 -0.25996797720E+02 -0.41533622479E+02  0.14371681092E+03  0.12509427196E+03 0.  0.
         23    2    1    2    0    0 -0.51039882221E+02  0.25996797720E+02  0.36345725283E+02  0.11413651636E+03  0.91789049193E+02 0.  0.
          5    1    3    3  502    0 -0.22905185626E+02  0.30786080338E+02 -0.31561456095E+02  0.49860086060E+02  0.41800000000E+01 0. -1.
         -5    1    3    3    0  502  0.73945067847E+02 -0.56782878058E+02 -0.99721663839E+01  0.93856724862E+02  0.41800000000E+01 0. -1.
        -11    1    4    4    0    0 -0.36075982917E+02 -0.27249759512E+02  0.37615243096E+02  0.58812689533E+02  0.00000000000E+00 0. -1.
         11    1    4    4    0    0 -0.14963899304E+02  0.53246557232E+02 -0.12695178136E+01  0.55323826828E+02  0.00000000000E+00 0.  1.
</event>
<event>
 8    1  0.6862919E-009  0.2186907E+03  0.7561462E-02  0.1134863E+00
          2   -1    0    0  501    0  0.00000000000E+00  0.00000000000E+00  0.69611489527E+03  0.69611489527E+03  0.00000000000E+00 0. -1.
         -2   -1    0    0    0  501 -0.00000000000E+00 -0.00000000000E+00 -0.75222882647E+02  0.75222882647E+02  0.00000000000E+00 0.  1.
         25    2    1    2    0    0 -0.50866007017E+02  0.19483757756E+03  0.29920667311E+03  0.38173553997E+03  0.12509339291E+03 0.  0.
         23    2    1    2    0    0  0.50866007017E+02 -0.19483757756E+03  0.32168533952E+03  0.38960223794E+03  0.88087535169E+02 0.  0.
          5    1    3    3  502    0 -0.25805218989E+02  0.20433903499E+03  0.28333032703E+03  0.35030543411E+03  0.41800000000E+01 0. -1.
         -5    1    3    3    0  502 -0.25060788028E+02 -0.95014574363E+01  0.15876346072E+02  0.31430105864E+02  0.41800000000E+01 0. -1.
        -11    1    4    4    0    0  0.15799395854E+01 -0.70275368328E+02  0.18640963518E+03  0.19922267865E+03  0.00000000000E+00 0. -1.
         11    1    4    4    0    0  0.49286067432E+02 -0.12456220923E+03  0.13527570434E+03  0.19037955929E+03  0.00000000000E+00 0.  1.
</event>
<event>
 8    1  0.6862919E-009  0.1010970E+03  0.7561462E-02  0.1278006E+00
          2   -1    0    0  501    0  0.00000000000E+00  0.00000000000E+00  0.91699916603E+02  0.91699916603E+02  0.00000000000E+00 0. -1.
         -2   -1    0    0    0  501 -0.00000000000E+00 -0.00000000000E+00 -0.13840050631E+03  0.13840050631E+03  0.00000000000E+00 0.  1.
         25    2    1    2    0    0  0.74220888326E+01  0.31204709833E+02 -0.48037705067E+02  0.13778016023E+03  0.12508768975E+03 0.  0.
         23    2    1    2    0    0 -0.74220888326E+01 -0.31204709833E+02  0.13371153548E+01  0.92320262688E+02  0.86558776025E+02 0.  0.
          5    1    3    3  502    0  0.19666529316E+02 -0.43554262520E+02 -0.38102962542E+02  0.61262176858E+02  0.41800000000E+01 0.  1.
         -5    1    3    3    0  502 -0.12244440484E+02  0.74758972353E+02 -0.99347425251E+01  0.76517983370E+02  0.41800000000E+01 0.  1.
        -11    1    4    4    0    0 -0.19874332733E+02 -0.51129811617E+02  0.23815675245E+02  0.59803286907E+02  0.00000000000E+00 0. -1.
         11    1    4    4    0    0  0.12452243900E+02  0.19925101784E+02 -0.22478559890E+02  0.32516975781E+02  0.00000000000E+00 0.  1.
</event>
<event>
 8    1  0.6862919E-009  0.7761975E+02  0.7561462E-02  0.1335945E+00
         -2   -1    0    0    0  501 -0.00000000000E+00  0.00000000000E+00  0.20048097424E+02  0.20048097424E+02  0.00000000000E+00 0.  1.
          2   -1    0    0  501    0  0.00000000000E+00 -0.00000000000E+00 -0.69363293666E+03  0.69363293666E+03  0.00000000000E+00 0. -1.
         25    2    1    2    0    0 -0.18999968280E+02  0.27649887907E+02 -0.47907040996E+03  0.49626867612E+03  0.12509446874E+03 0.  0.
         23    2    1    2    0    0  0.18999968280E+02 -0.27649887907E+02 -0.19451442927E+03  0.21741235795E+03  0.91141401676E+02 0.  0.
          5    1    3    3  502    0  0.12067902579E+02  0.39589839335E+02 -0.44988698586E+03  0.45180611117E+03  0.41800000000E+01 0. -1.
         -5    1    3    3    0  502 -0.31067870859E+02 -0.11939951428E+02 -0.29183424102E+02  0.44462564952E+02  0.41800000000E+01 0. -1.
        -11    1    4    4    0    0  0.26958623397E+02  0.18865898664E+02 -0.24647365012E+02  0.41111824454E+02  0.00000000000E+00 0.  1.
         11    1    4    4    0    0 -0.79586551170E+01 -0.46515786572E+02 -0.16986706426E+03  0.17630053350E+03  0.00000000000E+00 0. -1.
</event>
<event>
 8    1  0.6862919E-009  0.1007818E+03  0.7561462E-02  0.1278660E+00
         -1   -1    0    0    0  501 -0.00000000000E+00  0.00000000000E+00  0.28394847490E+02  0.28394847490E+02  0.00000000000E+00 0.  1.
          1   -1    0    0  501    0  0.00000000000E+00 -0.00000000000E+00 -0.42885137909E+03  0.42885137909E+03  0.00000000000E+00 0. -1.
         25    2    1    2    0    0  0.28679924945E+01 -0.45668696840E+01 -0.27651907249E+03  0.30354562100E+03  0.12509222557E+03 0.  0.
         23    2    1    2    0    0 -0.28679924945E+01  0.45668696840E+01 -0.12393745911E+03  0.15370060558E+03  0.90743047697E+02 0.  0.
          5    1    3    3  502    0  0.59537639563E+02 -0.24960365512E+02 -0.15026782245E+03  0.16360208200E+03  0.41800000000E+01 0. -1.
         -5    1    3    3    0  502 -0.56669647069E+02  0.20393495828E+02 -0.12625125004E+03  0.13994353900E+03  0.41800000000E+01 0. -1.
        -11    1    4    4    0    0  0.23996072319E+02  0.30736652827E+02 -0.21314485658E+02  0.44439403828E+02  0.00000000000E+00 0.  1.
         11    1    4    4    0    0 -0.26864064814E+02 -0.26169783143E+02 -0.10262297345E+03  0.10926120175E+03  0.00000000000E+00 0. -1.
</event>
<event>
 8    1  0.6862919E-009  0.7853409E+02  0.7561462E-02  0.1333264E+00
         -2   -1    0    0    0  501 -0.00000000000E+00  0.00000000000E+00  0.86752831724E+02  0.86752831724E+02  0.00000000000E+00 0.  1.
          2   -1    0    0  501    0  0.00000000000E+00 -0.00000000000E+00 -0.15763919214E+03  0.15763919214E+03  0.00000000000E+00 0. -1.
         25    2    1    2    0    0  0.39360475878E+02  0.63347215112E+01 -0.59429975052E+02  0.14413893733E+03  0.12511888571E+03 0.  0.
         23    2    1    2    0    0 -0.39360475878E+02 -0.63347215112E+01 -0.11456385363E+02  0.10025308653E+03  0.91269145035E+02 0.  0.
          5    1    3    3  502    0 -0.32518532578E+01 -0.30687915998E+02 -0.78466284600E+02  0.84420098062E+02  0.41800000000E+01 0.  1.
         -5    1    3    3    0  502  0.42612329135E+02  0.37022637509E+02  0.19036309548E+02  0.59718839269E+02  0.41800000000E+01 0.  1.
        -11    1    4    4    0    0  0.22423448687E+00 -0.25389842546E+02  0.30375843198E+02  0.39590229042E+02  0.00000000000E+00 0.  1.
         11    1    4    4    0    0 -0.39584710364E+02  0.19055121035E+02 -0.41832228561E+02  0.60662857489E+02  0.00000000000E+00 0. -1.
</event>
<event>
 8    1  0.6862919E-009  0.7517107E+02  0.7561462E-02  0.1343342E+00
         -4   -1    0    0    0  501 -0.00000000000E+00  0.00000000000E+00  0.50471722389E+02  0.50471722389E+02  0.00000000000E+00 0.  1.
          4   -1    0    0  501    0  0.00000000000E+00 -0.00000000000E+00 -0.42363610750E+03  0.42363610750E+03  0.00000000000E+00 0. -1.
         25    2    1    2    0    0  0.20106703864E+02  0.19631844952E+02 -0.35439570375E+03  0.37687255686E+03  0.12508765089E+03 0.  0.
         23    2    1    2    0    0 -0.20106703864E+02 -0.19631844952E+02 -0.18768681360E+02  0.97235273023E+02  0.91174261957E+02 0.  0.
          5    1    3    3  502    0  0.30858802398E+02  0.27273272084E+02 -0.27529530196E+02  0.49713624776E+02  0.41800000000E+01 0.  1.
         -5    1    3    3    0  502 -0.10752098533E+02 -0.76414271320E+01 -0.32686617355E+03  0.32715893209E+03  0.41800000000E+01 0.  1.
        -11    1    4    4    0    0  0.25507693130E+02 -0.38139757099E+02 -0.52248233687E+01  0.46179890208E+02  0.00000000000E+00 0.  1.
         11    1    4    4    0    0 -0.45614396994E+02  0.18507912147E+02 -0.13543857992E+02  0.51055382816E+02  0.00000000000E+00 0. -1.
</event>
<event>
 8    1  0.6862919E-009  0.1622716E+03  0.7561462E-02  0.1186156E+00
          2   -1    0    0  501    0  0.00000000000E+00  0.00000000000E+00  0.17179308935E+04  0.17179308935E+04  0.00000000000E+00 0. -1.
         -2   -1    0    0    0  501 -0.00000000000E+00 -0.00000000000E+00 -0.15830160825E+02  0.15830160825E+02  0.00000000000E+00 0.  1.
         25    2    1    2    0    0  0.46945917009E+02 -0.11601680243E+03  0.92460420958E+03  0.94138396212E+03  0.12508797779E+03 0.  0.
         23    2    1    2    0    0 -0.46945917009E+02  0.11601680243E+03  0.77749652308E+03  0.79237709219E+03  0.87731381297E+02 0.  0.
          5    1    3    3  502    0  0.50426757475E+02 -0.14182020630E+03  0.78820918096E+03  0.80246309207E+03  0.41800000000E+01 0. -1.
         -5    1    3    3    0  502 -0.34808404655E+01  0.25803403877E+02  0.13639502862E+03  0.13892087005E+03  0.41800000000E+01 0. -1.
        -11    1    4    4    0    0 -0.58573504433E+02  0.12139324395E+03  0.75035078823E+03  0.76236046625E+03  0.00000000000E+00 0.  1.
         11    1    4    4    0    0  0.11627587424E+02 -0.53764415235E+01  0.27145734847E+02  0.30016625946E+02  0.00000000000E+00 0. -1.
</event>
<event>
 8    1  0.6862919E-009  0.1182995E+03  0.7561462E-02  0.1245929E+00
          2   -1    0    0  501    0  0.00000000000E+00  0.00000000000E+00  0.34280315019E+03  0.34280315019E+03  0.00000000000E+00 0.  1.
         -2   -1    0    0    0  501 -0.00000000000E+00 -0.00000000000E+00 -0.67109053483E+02  0.67109053483E+02  0.00000000000E+00 0. -1.
         25    2    1    2    0    0 -0.61562671363E+01 -0.61238451175E+02  0.23637560397E+03  0.27442224085E+03  0.12508434191E+03 0.  0.
         23    2    1    2    0    0  0.61562671363E+01  0.61238451175E+02  0.39318492731E+02  0.13548996282E+03  0.11412071954E+03 0.  0.
          5    1    3    3  502    0 -0.15276783362E+02 -0.98867902842E+02  0.17846386005E+03  0.20463397584E+03  0.41800000000E+01 0.  1.
         -5    1    3    3    0  502  0.91205162262E+01  0.37629451668E+02  0.57911743922E+02  0.69788265010E+02  0.41800000000E+01 0.  1.
        -11    1    4    4    0    0 -0.29521321346E+02  0.53371444206E+02  0.66288624813E+02  0.90078861284E+02  0.00000000000E+00 0.  1.
         11    1    4    4    0    0  0.35677588482E+02  0.78670069691E+01 -0.26970132082E+02  0.45411101540E+02  0.00000000000E+00 0. -1.
</event>
<event>
 8    1  0.6862919E-009  0.1784696E+03  0.7561462E-02  0.1169292E+00
         -1   -1    0    0    0  501 -0.00000000000E+00  0.00000000000E+00  0.66589761252E+02  0.66589761252E+02  0.00000000000E+00 0.  1.
          1   -1    0    0  501    0  0.00000000000E+00 -0.00000000000E+00 -0.55294514592E+03  0.55294514592E+03  0.00000000000E+00 0. -1.
         25    2    1    2    0    0  0.13206578797E+03 -0.83088270723E+02 -0.21339210006E+03  0.29245102399E+03  0.12508549069E+03 0.  0.
         23    2    1    2    0    0 -0.13206578797E+03  0.83088270723E+02 -0.27296328461E+03  0.32708388318E+03  0.90165840614E+02 0.  0.
          5    1    3    3  502    0  0.10945102062E+03  0.24344575659E+01 -0.13758034865E+03  0.17587290079E+03  0.41800000000E+01 0. -1.
         -5    1    3    3    0  502  0.22614767348E+02 -0.85522728289E+02 -0.75811751416E+02  0.11657812320E+03  0.41800000000E+01 0. -1.
        -11    1    4    4    0    0 -0.22286100691E+02  0.20706182342E+01 -0.12018215662E+03  0.12224855220E+03  0.00000000000E+00 0. -1.
         11    1    4    4    0    0 -0.10977968727E+03  0.81017652489E+02 -0.15278112798E+03  0.20483533099E+03  0.00000000000E+00 0.  1.
</event>
<event>
 8    1  0.6862919E-009  0.1029248E+03  0.7561462E-02  0.1274263E+00
          1   -1    0    0  501    0  0.00000000000E+00  0.00000000000E+00  0.33173837039E+03  0.33173837039E+03  0.00000000000E+00 0. -1.
         -1   -1    0    0    0  501 -0.00000000000E+00 -0.00000000000E+00 -0.33746713537E+02  0.33746713537E+02  0.00000000000E+00 0.  1.
         25    2    1    2    0    0 -0.55915002704E+00 -0.48678302574E+01  0.15527943170E+03  0.19945707906E+03  0.12508963209E+03 0.  0.
         23    2    1    2    0    0  0.55915002704E+00  0.48678302574E+01  0.14271222515E+03  0.16602800487E+03  0.84702483869E+02 0.  0.
          5    1    3    3  502    0 -0.54150611291E+02  0.25965237132E+02  0.54808043345E+02  0.81411769774E+02  0.41800000000E+01 0.  1.
         -5    1    3    3    0  502  0.53591461264E+02 -0.30833067389E+02  0.10047138836E+03  0.11804530928E+03  0.41800000000E+01 0.  1.
        -11    1    4    4    0    0 -0.38428253544E+02 -0.13304877203E+02  0.83101029766E+02  0.92517736548E+02  0.00000000000E+00 0. -1.
         11    1    4    4    0    0  0.38987403571E+02  0.18172707461E+02  0.59611195388E+02  0.73510268325E+02  0.00000000000E+00 0.  1.
</event>
<event>
 8    1  0.6862919E-009  0.1404937E+03  0.7561462E-02  0.1212666E+00
          1   -1    0    0  501    0  0.00000000000E+00  0.00000000000E+00  0.92920722183E+02  0.92920722183E+02  0.00000000000E+00 0. -1.
         -1   -1    0    0    0  501 -0.00000000000E+00 -0.00000000000E+00 -0.27499863851E+03  0.27499863851E+03  0.00000000000E+00 0.  1.
         25    2    1    2    0    0  0.25270318363E+02  0.11355903097E+03 -0.83521643371E+02  0.19015146306E+03  0.12508985366E+03 0.  0.
         23    2    1    2    0    0 -0.25270318363E+02 -0.11355903097E+03 -0.98556272957E+02  0.17776789764E+03  0.91399365351E+02 0.  0.
          5    1    3    3  502    0  0.20377027088E+01 -0.20401774633E+02  0.11827620588E+02  0.24036423388E+02  0.41800000000E+01 0. -1.
         -5    1    3    3    0  502  0.23232615654E+02  0.13396080560E+03 -0.95349263960E+02  0.16611503967E+03  0.41800000000E+01 0. -1.
        -11    1    4    4    0    0 -0.29710426664E+02 -0.37471567232E+02 -0.88894716295E+02  0.10094106394E+03  0.00000000000E+00 0. -1.
         11    1    4    4    0    0  0.44401083004E+01 -0.76087463734E+02 -0.96615566621E+01  0.76826833700E+02  0.00000000000E+00 0.  1.
</event>
<event>
 7    1  0.6862919E-009  0.1885589E+03  0.7561462E-02  0.1159768E+00
         -2   -1    0    0    0  501 -0.00000000000E+00  0.00000000000E+00  0.11386117169E+03  0.11386117169E+03  0.00000000000E+00 0.  1.
          2   -1    0    0  501    0  0.00000000000E+00 -0.00000000000E+00 -0.52880789763E+03  0.52880789763E+03  0.00000000000E+00 0. -1.
         23    2    1    2    0    0  0.30840995118E+02 -0.17727139670E+03 -0.36935158399E+02  0.20563781231E+03  0.92446681173E+02 0.  0.
          5    1    1    2  502    0  0.24863081034E+01  0.91558029738E+02 -0.69426328490E+02  0.11500670426E+03  0.41800000000E+01 0.  1.
         -5    1    1    2    0  502 -0.33327303221E+02  0.85713366958E+02 -0.30858523904E+03  0.32202455275E+03  0.41800000000E+01 0.  1.
        -11    1    3    3    0    0 -0.21882540965E+02 -0.31473893002E+02  0.16383720599E+02  0.41687862028E+02  0.00000000000E+00 0.  1.
         11    1    3    3    0    0  0.52723536083E+02 -0.14579750369E+03 -0.53318878998E+02  0.16394995028E+03  0.00000000000E+00 0. -1.
</event>
<event>
 8    1  0.6862919E-009  0.9937403E+02  0.7561462E-02  0.1281618E+00
         -2   -1    0    0    0  501 -0.00000000000E+00  0.00000000000E+00  0.13484392865E+03  0.13484392865E+03  0.00000000000E+00 0.  1.
          2   -1    0    0  501    0  0.00000000000E+00 -0.00000000000E+00 -0.11390070840E+03  0.11390070840E+03  0.00000000000E+00 0. -1.
         25    2    1    2    0    0  0.53302570531E+01 -0.60884171755E+02  0.14949965417E+02  0.14002107298E+03  0.12508839036E+03 0.  0.
         23    2    1    2    0    0 -0.53302570531E+01  0.60884171755E+02  0.59932548352E+01  0.10872356406E+03  0.89719564582E+02 0.  0.
          5    1    3    3  502    0 -0.17862467790E+02 -0.67638849615E+02  0.57674380046E+02  0.90762813125E+02  0.41800000000E+01 0.  1.
         -5    1    3    3    0  502  0.23192724843E+02  0.67546778601E+01 -0.42724414629E+02  0.49258259856E+02  0.41800000000E+01 0.  1.
        -11    1    4    4    0    0 -0.20775042270E+02 -0.15689911316E+02  0.15071003510E+02  0.30081736074E+02  0.00000000000E+00 0. -1.
         11    1    4    4    0    0  0.15444785217E+02  0.76574083071E+02 -0.90777486749E+01  0.78641827990E+02  0.00000000000E+00 0.  1.
</event>
<event>
 8    1  0.6862919E-009  0.1092445E+03  0.7561462E-02  0.1261975E+00
          1   -1    0    0  501    0  0.00000000000E+00  0.00000000000E+00  0.19838336528E+03  0.19838336528E+03  0.00000000000E+00 0. -1.
         -1   -1    0    0    0  501 -0.00000000000E+00 -0.00000000000E+00 -0.74642051556E+02  0.74642051556E+02  0.00000000000E+00 0.  1.
         25    2    1    2    0    0  0.52973406539E+02  0.13485970588E+02  0.80506628626E+02  0.15848712117E+03  0.12509515227E+03 0.  0.
         23    2    1    2    0    0 -0.52973406539E+02 -0.13485970588E+02  0.43234685102E+02  0.11453829567E+03  0.90894059076E+02 0.  0.
          5    1    3    3  502    0 -0.30245238524E+02  0.17388733098E+01 -0.12522763591E+02  0.33046787162E+02  0.41800000000E+01 0.  1.
         -5    1    3    3    0  502  0.83218645062E+02  0.11747097279E+02  0.93029392217E+02  0.12544033401E+03  0.41800000000E+01 0.  1.
        -11    1    4    4    0    0 -0.18182952336E+02 -0.50072794617E+02  0.10300509121E+02  0.54258685982E+02  0.00000000000E+00 0.  1.
         11    1    4    4    0    0 -0.34790454203E+02  0.36586824029E+02  0.32934175981E+02  0.60279609685E+02  0.00000000000E+00 0. -1.
</event>
<event>
 8    1  0.6862919E-009  0.4079917E+03  0.7561462E-02  0.1041047E+00
         -4   -1    0    0    0  501 -0.00000000000E+00  0.00000000000E+00  0.52173236531E+03  0.52173236531E+03  0.00000000000E+00 0.  1.
          4   -1    0    0  501    0  0.00000000000E+00 -0.00000000000E+00 -0.35314059233E+03  0.35314059233E+03  0.00000000000E+00 0. -1.
         25    2    1    2    0    0  0.35704593110E+03  0.17350319080E+03  0.20219126636E+03  0.46272534419E+03  0.12509309268E+03 0.  0.
         23    2    1    2    0    0 -0.35704593110E+03 -0.17350319080E+03 -0.33599493370E+02  0.41214761345E+03  0.10560101884E+03 0.  0.
          5    1    3    3  502    0  0.66721471441E+02  0.92613941114E+02  0.44784261514E+02  0.12268740489E+03  0.41800000000E+01 0. -1.
         -5    1    3    3    0  502  0.29032445966E+03  0.80889249689E+02  0.15740700484E+03  0.34003793930E+03  0.41800000000E+01 0. -1.
        -11    1    4    4    0    0 -0.21703952522E+03 -0.76941329781E+02  0.26435260477E+02  0.23178642483E+03  0.00000000000E+00 0.  1.
         11    1    4    4    0    0 -0.14000640588E+03 -0.96561861022E+02 -0.60034753847E+02  0.18036118862E+03  0.00000000000E+00 0. -1.
</event>
<event>
 8    1  0.6862919E-009  0.1247515E+03  0.7561462E-02  0.1235458E+00
          1   -1    0    0  501    0  0.00000000000E+00  0.00000000000E+00  0.22933221327E+03  0.22933221327E+03  0.00000000000E+00 0. -1.
         -1   -1    0    0    0  501 -0.00000000000E+00 -0.00000000000E+00 -0.11185863913E+03  0.11185863913E+03  0.00000000000E+00 0.  1.
         25    2    1    2    0    0 -0.36793370686E+02 -0.82991231366E+02  0.14268493325E+03  0.21035769117E+03  0.12510024559E+03 0.  0.
         23    2    1    2    0    0  0.36793370686E+02  0.82991231366E+02 -0.25211359115E+02  0.13083316123E+03  0.90776686649E+02 0.  0.
          5    1    3    3  502    0  0.38655570943E+02 -0.78550844997E+01  0.72856890782E+02  0.82955135175E+02  0.41800000000E+01 0.  1.
         -5    1    3    3    0  502 -0.75448941629E+02 -0.75136146866E+02  0.69828042471E+02  0.12740255600E+03  0.41800000000E+01 0.  1.
        -11    1    4    4    0    0  0.44436845420E+02  0.40572631736E+02  0.24560701530E+02  0.64992305210E+02  0.00000000000E+00 0. -1.
         11    1    4    4    0    0 -0.76434747343E+01  0.42418599630E+02 -0.49772060645E+02  0.65840856020E+02  0.00000000000E+00 0.  1.
</event>
<event>
 8    1  0.6862919E-009  0.2134724E+03  0.7561462E-02  0.1138845E+00
          1   -1    0    0  501    0  0.00000000000E+00  0.00000000000E+00  0.51649203816E+03  0.51649203816E+03  0.00000000000E+00 0. -1.
         -1   -1    0    0    0  501 -0.00000000000E+00 -0.00000000000E+00 -0.15604600528E+03  0.15604600528E+03  0.00000000000E+00 0.  1.
         25    2    1    2    0    0  0.14840825046E+03 -0.13584985934E+03 -0.14579997461E+02  0.23736126656E+03  0.12509037311E+03 0.  0.
         23    2    1    2    0    0 -0.14840825046E+03  0.13584985934E+03  0.37502603034E+03  0.43517677688E+03  0.90852135968E+02 0.  0.
          5    1    3    3  502    0  0.16289043235E+03 -0.12275995761E+03 -0.37001499997E+02  0.20734001916E+03  0.41800000000E+01 0. -1.
         -5    1    3    3    0  502 -0.14482181881E+02 -0.13089901731E+02  0.22421502536E+02  0.30021247398E+02  0.41800000000E+01 0. -1.
        -11    1    4    4    0    0 -0.97441771046E+02  0.71390991642E+02  0.30192868168E+03  0.32519609662E+03  0.00000000000E+00 0. -1.
         11    1    4    4    0    0 -0.50966479419E+02  0.64458867701E+02  0.73097348661E+02  0.10998068026E+03  0.00000000000E+00 0.  1.
</event>
<event>
 8    1  0.6862919E-009  0.1067804E+03  0.7561462E-02  0.1266651E+00
         -1   -1    0    0    0  501 -0.00000000000E+00  0.00000000000E+00  0.19439748677E+03  0.19439748677E+03  0.00000000000E+00 0.  1.
          1   -1    0    0  501    0  0.00000000000E+00 -0.00000000000E+00 -0.11510306969E+03  0.11510306969E+03  0.00000000000E+00 0. -1.
         25    2    1    2    0    0 -0.22985249029E+01 -0.41757604272E+01  0.14453559915E+03  0.19120458309E+03  0.12508370391E+03 0.  0.
         23    2    1    2    0    0  0.22985249029E+01  0.41757604272E+01 -0.65241182073E+02  0.11829597337E+03  0.98563711802E+02 0.  0.
          5    1    3    3  502    0  0.61063642461E+02 -0.30114001118E+01  0.63509181597E+02  0.88253756341E+02  0.41800000000E+01 0. -1.
         -5    1    3    3    0  502 -0.63362167364E+02 -0.11643603154E+01  0.81026417551E+02  0.10295082675E+03  0.41800000000E+01 0. -1.
        -11    1    4    4    0    0 -0.39987118237E+02  0.18586927724E+02 -0.66161151978E+01  0.44589421250E+02  0.00000000000E+00 0.  1.
         11    1    4    4    0    0  0.42285643140E+02 -0.14411167297E+02 -0.58625066875E+02  0.73706552115E+02  0.00000000000E+00 0. -1.
</event>
<event>
 8    1  0.6862919E-009  0.9637602E+02  0.7561462E-02  0.1288107E+00
          1   -1    0    0  501    0  0.00000000000E+00  0.00000000000E+00  0.58319417910E+02  0.58319417910E+02  0.00000000000E+00 0. -1.
         -1   -1    0    0    0  501 -0.00000000000E+00 -0.00000000000E+00 -0.22822692088E+03  0.22822692088E+03  0.00000000000E+00 0.  1.
         25    2    1    2    0    0  0.19774749556E+02 -0.33913625369E+02 -0.93471630910E+02  0.16101535437E+03  0.12509126209E+03 0.  0.
         23    2    1    2    0    0 -0.19774749556E+02  0.33913625369E+02 -0.76435872058E+02  0.12553098442E+03  0.91511806926E+02 0.  0.
          5    1    3    3  502    0  0.59976627737E+02 -0.56056500925E+02 -0.75296214200E+02  0.11147429948E+03  0.41800000000E+01 0. -1.
         -5    1    3    3    0  502 -0.40201878181E+02  0.22142875557E+02 -0.18175416709E+02  0.49541054891E+02  0.41800000000E+01 0. -1.
        -11    1    4    4    0    0 -0.36417748194E+02  0.30437107049E+02 -0.91330825631E+02  0.10292710809E+03  0.00000000000E+00 0.  1.
         11    1    4    4    0    0  0.16642998638E+02  0.34765183199E+01  0.14894953573E+02  0.22603876332E+02  0.00000000000E+00 0. -1.
</event>
<event>
 8    1  0.6862919E-009  0.1077592E+03  0.7561462E-02  0.1264777E+00
          2   -1    0    0  501    0  0.00000000000E+00  0.00000000000E+00  0.99708270670E+03  0.99708270670E+03  0.00000000000E+00 0. -1.
         -2   -1    0    0    0  501 -0.00000000000E+00 -0.00000000000E+00 -0.30519042923E+02  0.30519042923E+02  0.00000000000E+00 0.  1.
         25    2    1    2    0    0  0.42628276664E+02 -0.91708393001E+02  0.78196520734E+03  0.79833556065E+03  0.12506991082E+03 0.  0.
         23    2    1    2    0    0 -0.42628276664E+02  0.91708393001E+02  0.18459845643E+03  0.22926618897E+03  0.90877917936E+02 0.  0.
          5    1    3    3  502    0  0.17367718899E+02 -0.49419717881E+02  0.70439011725E+03  0.70634754609E+03  0.41800000000E+01 0.  1.
         -5    1    3    3    0  502  0.25260557764E+02 -0.42288675121E+02  0.77575090087E+02  0.91988014568E+02  0.41800000000E+01 0.  1.
        -11    1    4    4    0    0 -0.28931645395E+01  0.66313297652E+02  0.16563349202E+03  0.17843844183E+03  0.00000000000E+00 0.  1.
         11    1    4    4    0    0 -0.39735112124E+02  0.25395095349E+02  0.18964964415E+02  0.50827747132E+02  0.00000000000E+00 0. -1.
</event>
<event>
 8    1  0.6862919E-009  0.1424401E+03  0.7561462E-02  0.1210083E+00
          2   -1    0    0  501    0  0.00000000000E+00  0.00000000000E+00  0.23276932618E+03  0.23276932618E+03  0.00000000000E+00 0. -1.
         -2   -1    0    0    0  501 -0.00000000000E+00 -0.00000000000E+00 -0.13135901605E+03  0.13135901605E+03  0.00000000000E+00 0.  1.
         25    2    1    2    0    0 -0.90932193637E+02 -0.88664693832E+02  0.10837054631E+03  0.20861935762E+03  0.12509104403E+03 0.  0.
         23    2    1    2    0    0  0.90932193637E+02  0.88664693832E+02 -0.69602361697E+01  0.15550898461E+03  0.89467913995E+02 0.  0.
          5    1    3    3  502    0 -0.10399496869E+03 -0.65259050486E+02  0.31095079905E+02  0.12672045446E+03  0.41800000000E+01 0.  1.
         -5    1    3    3    0  502  0.13062775054E+02 -0.23405643346E+02  0.77275466401E+02  0.81898903168E+02  0.41800000000E+01 0.  1.
        -11    1    4    4    0    0  0.23548749851E+02  0.54470739966E+02  0.35182666252E+02  0.68988587003E+02  0.00000000000E+00 0. -1.
         11    1    4    4    0    0  0.67383443786E+02  0.34193953866E+02 -0.42142902422E+02  0.86520397607E+02  0.00000000000E+00 0.  1.
</event>
<event>
 8    1  0.6862919E-009  0.1813710E+03  0.7561462E-02  0.1166483E+00
         -1   -1    0    0    0  501 -0.00000000000E+00  0.00000000000E+00  0.84196933307E+02  0.84196933307E+02  0.00000000000E+00 0.  1.
          1   -1    0    0  501    0  0.00000000000E+00 -0.00000000000E+00 -0.50497577716E+03  0.50497577716E+03  0.00000000000E+00 0. -1.
         25    2    1    2    0    0  0.14248980586E+03 -0.58480863671E+02 -0.34064332797E+03  0.39421886363E+03  0.12508908569E+03 0.  0.
         23    2    1    2    0    0 -0.14248980586E+03  0.58480863671E+02 -0.80135515879E+02  0.19495384684E+03  0.88667611344E+02 0.  0.
          5    1    3    3  502    0  0.83687966053E+02  0.24424924566E+02 -0.21833965153E+03  0.23513810502E+03  0.41800000000E+01 0.  1.
         -5    1    3    3    0  502  0.58801839808E+02 -0.82905788238E+02 -0.12230367645E+03  0.15908075861E+03  0.41800000000E+01 0.  1.
        -11    1    4    4    0    0 -0.12978987076E+03  0.17662157783E+02 -0.41690955893E+02  0.13746089688E+03  0.00000000000E+00 0.  1.
         11    1    4    4    0    0 -0.12699935105E+02  0.40818705888E+02 -0.38444559985E+02  0.57492949955E+02  0.00000000000E+00 0. -1.
</event>
<event>
 8    1  0.6862919E-009  0.1089890E+03  0.7561462E-02  0.1262454E+00
         -2   -1    0    0    0  501 -0.00000000000E+00  0.00000000000E+00  0.83411124019E+02  0.83411124019E+02  0.00000000000E+00 0.  1.
          2   -1    0    0  501    0  0.00000000000E+00 -0.00000000000E+00 -0.22977638538E+03  0.22977638538E+03  0.00000000000E+00 0. -1.
         25    2    1    2    0    0  0.41699079907E+02  0.74515220086E+02 -0.77241104960E+02  0.17002353851E+03  0.12510189472E+03 0.  0.
         23    2    1    2    0    0 -0.41699079907E+02 -0.74515220086E+02 -0.69124156401E+02  0.14316397089E+03  0.91795654977E+02 0.  0.
          5    1    3    3  502    0 -0.21340337475E+02  0.34392047070E+02 -0.85538161542E+02  0.94723135427E+02  0.41800000000E+01 0.  1.
         -5    1    3    3    0  502  0.63039417382E+02  0.40123173016E+02  0.82970565822E+01  0.75300403084E+02  0.41800000000E+01 0.  1.
        -11    1    4    4    0    0  0.64442714551E+01 -0.46087719046E+02  0.86962374473E+01  0.47341641577E+02  0.00000000000E+00 0.  1.
         11    1    4    4    0    0 -0.48143351362E+02 -0.28427501039E+02 -0.77820393848E+02  0.95822329310E+02  0.00000000000E+00 0. -1.
</event>
<event>
 8    1  0.6862919E-009  0.3758108E+03  0.7561462E-02  0.1052493E+00
          1   -1    0    0  501    0  0.00000000000E+00  0.00000000000E+00  0.11031553964E+04  0.11031553964E+04  0.00000000000E+00 0. -1.
         -1   -1    0    0    0  501 -0.00000000000E+00 -0.00000000000E+00 -0.15023937801E+03  0.15023937801E+03  0.00000000000E+00 0.  1.
         25    2    1    2    0    0  0.20718273282E+03  0.30316297713E+03  0.26926325326E+03  0.47221260338E+03  0.12509823240E+03 0.  0.
         23    2    1    2    0    0 -0.20718273282E+03 -0.30316297713E+03  0.68365276518E+03  0.78118217107E+03  0.89621457144E+02 0.  0.
          5    1    3    3  502    0  0.13341878195E+03  0.25056915900E+03  0.25258254331E+03  0.38000116895E+03  0.41800000000E+01 0. -1.
         -5    1    3    3    0  502  0.73763950877E+02  0.52593818137E+02  0.16680709946E+02  0.92211434429E+02  0.41800000000E+01 0. -1.
        -11    1    4    4    0    0 -0.67890975140E+02 -0.17513520766E+03  0.36826591642E+03  0.41340211740E+03  0.00000000000E+00 0.  1.
         11    1    4    4    0    0 -0.13929175768E+03 -0.12802776947E+03  0.31538684876E+03  0.36778005368E+03  0.00000000000E+00 0. -1.
</event>
<event>
 8    1  0.6862919E-009  0.2049050E+03  0.7561462E-02  0.1145665E+00
          2   -1    0    0  501    0  0.00000000000E+00  0.00000000000E+00  0.93857519576E+03  0.93857519576E+03  0.00000000000E+00 0. -1.
         -2   -1    0    0    0  501 -0.00000000000E+00 -0.00000000000E+00 -0.52205385653E+02  0.52205385653E+02  0.00000000000E+00 0.  1.
         25    2    1    2    0    0 -0.32940360877E+02 -0.18644614956E+03  0.37974421147E+03  0.44238197448E+03  0.12509560799E+03 0.  0.
         23    2    1    2    0    0  0.32940360877E+02  0.18644614956E+03  0.50662559864E+03  0.54839860693E+03  0.90687930998E+02 0.  0.
          5    1    3    3  502    0 -0.34123410430E+02 -0.20094984820E+03  0.31011259772E+03  0.37112335455E+03  0.41800000000E+01 0. -1.
         -5    1    3    3    0  502  0.11830495531E+01  0.14503698637E+02  0.69631613753E+02  0.71258619930E+02  0.41800000000E+01 0. -1.
        -11    1    4    4    0    0  0.30226170453E+01  0.84522307749E+02  0.11581695606E+03  0.14341103177E+03  0.00000000000E+00 0.  1.
         11    1    4    4    0    0  0.29917743831E+02  0.10192384181E+03  0.39080864258E+03  0.40498757517E+03  0.00000000000E+00 0. -1.
</event>
<event>
 8    1  0.6862919E-009  0.1097858E+03  0.7561462E-02  0.1260967E+00
         -2   -1    0    0    0  501 -0.00000000000E+00  0.00000000000E+00  0.19824739314E+02  0.19824739314E+02  0.00000000000E+00 0.  1.
          2   -1    0    0  501    0  0.00000000000E+00 -0.00000000000E+00 -0.76022695455E+03  0.76022695455E+03  0.00000000000E+00 0. -1.
         25    2    1    2    0    0  0.34417536269E+02  0.53389955432E+02 -0.44275789426E+03  0.46445275979E+03  0.12508700576E+03 0.  0.
         23    2    1    2    0    0 -0.34417536269E+02 -0.53389955432E+02 -0.29764432098E+03  0.31559893407E+03  0.83519406314E+02 0.  0.
          5    1    3    3  502    0  0.65878216659E+02  0.13648819806E+02 -0.11934550626E+03  0.13706586729E+03  0.41800000000E+01 0.  1.
         -5    1    3    3    0  502 -0.31460680390E+02  0.39741135626E+02 -0.32341238800E+03  0.32738689250E+03  0.41800000000E+01 0.  1.
        -11    1    4    4    0    0 -0.38237940333E+02 -0.72420616992E+02 -0.20134797811E+03  0.21736580719E+03  0.00000000000E+00 0. -1.
         11    1    4    4    0    0  0.38204040646E+01  0.19030661560E+02 -0.96296342863E+02  0.98233126874E+02  0.00000000000E+00 0.  1.
</event>
<event>
 8    1  0.6862919E-009  0.1397757E+03  0.7561462E-02  0.1213631E+00
          2   -1    0    0  501    0  0.00000000000E+00  0.00000000000E+00  0.15781013592E+04  0.15781013592E+04  0.00000000000E+00 0. -1.
         -2   -1    0    0    0  501 -0.00000000000E+00 -0.00000000000E+00 -0.15942271029E+02  0.15942271029E+02  0.00000000000E+00 0.  1.
         25    2    1    2    0    0  0.94473318981E+02  0.37215160246E+02  0.11115411879E+04  0.11231569430E+04  0.12509008772E+03 0.  0.
         23    2    1    2    0    0 -0.94473318981E+02 -0.37215160246E+02  0.45061790021E+03  0.47088668717E+03  0.91474608591E+02 0.  0.
          5    1    3    3  502    0  0.61304677482E+02  0.76810602690E+02  0.90006790017E+03  0.90542687694E+03  0.41800000000E+01 0. -1.
         -5    1    3    3    0  502  0.33168641499E+02 -0.39595442444E+02  0.21147328778E+03  0.21773006610E+03  0.41800000000E+01 0. -1.
        -11    1    4    4    0    0 -0.64429774914E+02  0.17658399676E+02  0.15604650669E+03  0.16974547777E+03  0.00000000000E+00 0.  1.
         11    1    4    4    0    0 -0.30043544067E+02 -0.54873559922E+02  0.29457139352E+03  0.30114120940E+03  0.00000000000E+00 0. -1.
</event>
<event>
 8    1  0.6862919E-009  0.6139799E+02  0.7561462E-02  0.1392057E+00
          2   -1    0    0  501    0  0.00000000000E+00  0.00000000000E+00  0.29068629385E+03  0.29068629385E+03  0.00000000000E+00 0. -1.
         -2   -1    0    0    0  501 -0.00000000000E+00 -0.00000000000E+00 -0.47035006948E+02  0.47035006948E+02  0.00000000000E+00 0.  1.
         25    2    1    2    0    0  0.15238204651E+02 -0.27630568709E+02  0.20551250402E+03  0.24264869537E+03  0.12508936343E+03 0.  0.
         23    2    1    2    0    0 -0.15238204651E+02  0.27630568709E+02  0.38138782879E+02  0.95072605434E+02  0.81170082766E+02 0.  0.
          5    1    3    3  502    0  0.66913788949E+01 -0.87484073844E+00  0.21310612971E+03  0.21325392099E+03  0.41800000000E+01 0. -1.
         -5    1    3    3    0  502  0.85468257564E+01 -0.26755727970E+02 -0.75936256825E+01  0.29394774378E+02  0.41800000000E+01 0. -1.
        -11    1    4    4    0    0  0.33122711567E+02  0.68460697209E+01  0.94215835418E+01  0.35110524471E+02  0.00000000000E+00 0.  1.
         11    1    4    4    0    0 -0.48360916218E+02  0.20784498988E+02  0.28717199338E+02  0.59962080963E+02  0.00000000000E+00 0. -1.
</event>
<event>
 8    1  0.6862919E-009  0.1052069E+03  0.7561462E-02  0.1269713E+00
         -3   -1    0    0    0  501 -0.00000000000E+00  0.00000000000E+00  0.44807309650E+03  0.44807309650E+03  0.00000000000E+00 0.  1.
          3   -1    0    0  501    0  0.00000000000E+00 -0.00000000000E+00 -0.36973675602E+02  0.36973675602E+02  0.00000000000E+00 0. -1.
         25    2    1    2    0    0  0.40311265823E+02 -0.48533863158E+02  0.17100115019E+03  0.22109332924E+03  0.12514125156E+03 0.  0.
         23    2    1    2    0    0 -0.40311265823E+02  0.48533863158E+02  0.24009827071E+03  0.26395344287E+03  0.89686712382E+02 0.  0.
          5    1    3    3  502    0  0.68499748355E+02  0.12839529124E+02  0.65349064168E+02  0.95629710971E+02  0.41800000000E+01 0.  1.
         -5    1    3    3    0  502 -0.28188482532E+02 -0.61373392282E+02  0.10565208603E+03  0.12546361827E+03  0.41800000000E+01 0.  1.
        -11    1    4    4    0    0  0.69565904546E+01  0.85184205490E+01 -0.43162363232E+01  0.11814716899E+02  0.00000000000E+00 0. -1.
         11    1    4    4    0    0 -0.47267856278E+02  0.40015442609E+02  0.24441450703E+03  0.25213872597E+03  0.00000000000E+00 0.  1.
</event>
<event>
 8    1  0.6862919E-009  0.1397980E+03  0.7561462E-02  0.1213601E+00
          3   -1    0    0  501    0  0.00000000000E+00  0.00000000000E+00  0.99406049840E+02  0.99406049840E+02  0.00000000000E+00 0. -1.
         -3   -1    0    0    0  501 -0.00000000000E+00 -0.00000000000E+00 -0.24590746116E+03  0.24590746116E+03  0.00000000000E+00 0.  1.
         25    2    1    2    0    0  0.10144223554E+03 -0.31267630067E+01 -0.13169102018E+03  0.20807037292E+03  0.12510176455E+03 0.  0.
         23    2    1    2    0    0 -0.10144223554E+03  0.31267630067E+01 -0.14810391138E+02  0.13724313808E+03  0.91192255520E+02 0.  0.
          5    1    3    3  502    0  0.30766966647E+02 -0.60416082775E+02 -0.39975557623E+02  0.78817681404E+02  0.41800000000E+01 0. -1.
         -5    1    3    3    0  502  0.70675268889E+02  0.57289319768E+02 -0.91715462557E+02  0.12925269152E+03  0.41800000000E+01 0. -1.
        -11    1    4    4    0    0  0.81298456862E+01  0.73226695680E+01  0.19489980725E+02  0.22351179592E+02  0.00000000000E+00 0. -1.
         11    1    4    4    0    0 -0.10957208122E+03 -0.41959065613E+01 -0.34300371862E+02  0.11489195849E+03  0.00000000000E+00 0.  1.
</event>
<event>
 8    1  0.6862919E-009  0.8345163E+02  0.7561462E-02  0.1319532E+00
          2   -1    0    0  501    0  0.00000000000E+00  0.00000000000E+00  0.48167624338E+03  0.48167624338E+03  0.00000000000E+00 0. -1.
         -2   -1    0    0    0  501 -0.00000000000E+00 -0.00000000000E+00 -0.35952606190E+02  0.35952606190E+02  0.00000000000E+00 0.  1.
         25    2    1    2    0    0 -0.97045288303E+01  0.32671853929E+02  0.37329258121E+03  0.39516634303E+03  0.12508980596E+03 0.  0.
         23    2    1    2    0    0  0.97045288303E+01 -0.32671853929E+02  0.72431055977E+02  0.12246250654E+03  0.92677827551E+02 0.  0.
          5    1    3    3  502    0 -0.44594456103E+02 -0.18141189888E+01  0.31794404587E+03  0.32108853179E+03  0.41800000000E+01 0. -1.
         -5    1    3    3    0  502  0.34889927273E+02  0.34485972917E+02  0.55348535341E+02  0.74077811236E+02  0.41800000000E+01 0. -1.
        -11    1    4    4    0    0  0.35212546983E+02 -0.56161886653E+01 -0.55336947083E+01  0.36084440099E+02  0.00000000000E+00 0.  1.
         11    1    4    4    0    0 -0.25508018152E+02 -0.27055665263E+02  0.77964750685E+02  0.86378066442E+02  0.00000000000E+00 0. -1.
</event>
<event>
 8    1  0.6862919E-009  0.3142144E+03  0.7561462E-02  0.1078343E+00
          1   -1    0    0  501    0  0.00000000000E+00  0.00000000000E+00  0.19877942737E+04  0.19877942737E+04  0.00000000000E+00 0. -1.
         -1   -1    0    0    0  501 -0.00000000000E+00 -0.00000000000E+00 -0.10083894456E+03  0.10083894456E+03  0.00000000000E+00 0.  1.
         25    2    1    2    0    0 -0.14042764793E+03  0.26637647982E+03  0.16828346679E+04  0.17141346499E+04  0.12509486430E+03 0.  0.
         23    2    1    2    0    0  0.14042764793E+03 -0.26637647982E+03  0.20412066127E+03  0.37449856842E+03  0.88924575275E+02 0.  0.
          5    1    3    3  502    0 -0.94426452062E+02  0.25417368210E+03  0.15350655662E+04  0.15588343018E+04  0.41800000000E+01 0.  1.
         -5    1    3    3    0  502 -0.46001195864E+02  0.12202797717E+02  0.14776910172E+03  0.15530034809E+03  0.41800000000E+01 0.  1.
        -11    1    4    4    0    0  0.10821021636E+03 -0.12902529715E+03  0.14230294293E+03  0.22047019253E+03  0.00000000000E+00 0. -1.
         11    1    4    4    0    0  0.32217431568E+02 -0.13735118267E+03  0.61817718349E+02  0.15402837589E+03  0.00000000000E+00 0.  1.
</event>
<event>
 8    1  0.6862919E-009  0.1241426E+03  0.7561462E-02  0.1236415E+00
         -2   -1    0    0    0  501 -0.00000000000E+00  0.00000000000E+00  0.29179749493E+02  0.29179749493E+02  0.00000000000E+00 0.  1.
          2   -1    0    0  501    0  0.00000000000E+00 -0.00000000000E+00 -0.58285679032E+03  0.58285679032E+03  0.00000000000E+00 0. -1.
         25    2    1    2    0    0  0.93921272191E+01 -0.62079088764E+02 -0.38955540604E+03  0.41393588003E+03  0.12508986003E+03 0.  0.
         23    2    1    2    0    0 -0.93921272191E+01  0.62079088764E+02 -0.16412163479E+03  0.19810065978E+03  0.91465485768E+02 0.  0.
          5    1    3    3  502    0  0.44598592882E+02  0.20086043877E+02 -0.16690727560E+03  0.17397699473E+03  0.41800000000E+01 0. -1.
         -5    1    3    3    0  502 -0.35206465663E+02 -0.82165132641E+02 -0.22264813044E+03  0.23995888530E+03  0.41800000000E+01 0. -1.
        -11    1    4    4    0    0  0.35803099831E+02  0.52436511325E+02 -0.80141991362E+02  0.10224572586E+03  0.00000000000E+00 0.  1.
         11    1    4    4    0    0 -0.45195227050E+02  0.96425774393E+01 -0.83979643424E+02  0.95854933924E+02  0.00000000000E+00 0. -1.
</event>
<event>
 8    1  0.6862919E-009  0.7832771E+02  0.7561462E-02  0.1333865E+00
          2   -1    0    0  501    0  0.00000000000E+00  0.00000000000E+00  0.44131690033E+03  0.44131690033E+03  0.00000000000E+00 0. -1.
         -2   -1    0    0    0  501 -0.00000000000E+00 -0.00000000000E+00 -0.38832871789E+02  0.38832871789E+02  0.00000000000E+00 0.  1.
         25    2    1    2    0    0  0.34814322369E+01 -0.55847180294E+02  0.13762848335E+03  0.19421650560E+03  0.12508966264E+03 0.  0.
         23    2    1    2    0    0 -0.34814322369E+01  0.55847180294E+02  0.26485554519E+03  0.28593326652E+03  0.92077929866E+02 0.  0.
          5    1    3    3  502    0 -0.12183975533E+01 -0.54589198438E+02  0.16095925474E+03  0.17002005519E+03  0.41800000000E+01 0. -1.
         -5    1    3    3    0  502  0.46998297902E+01 -0.12579818561E+01 -0.23330771395E+02  0.24196450407E+02  0.41800000000E+01 0. -1.
        -11    1    4    4    0    0  0.36598596088E+02  0.33359989607E+02  0.70091676619E+02  0.85820680919E+02  0.00000000000E+00 0.  1.
         11    1    4    4    0    0 -0.40080028325E+02  0.22487190687E+02  0.19476386857E+03  0.20011258560E+03  0.00000000000E+00 0. -1.
</event>
<event>
 8    1  0.6862919E-009  0.1268128E+03  0.7561462E-02  0.1232263E+00
         -1   -1    0    0    0  501 -0.00000000000E+00  0.00000000000E+00  0.10663206769E+03  0.10663206769E+03  0.00000000000E+00 0.  1.
          1   -1    0    0  501    0  0.00000000000E+00 -0.00000000000E+00 -0.20169121951E+03  0.20169121951E+03  0.00000000000E+00 0. -1.
         25    2    1    2    0    0  0.53294627188E+02 -0.67910708004E+02  0.24703463083E+00  0.15198502798E+03  0.12508879308E+03 0.  0.
         23    2    1    2    0    0 -0.53294627188E+02  0.67910708004E+02 -0.95306186442E+02  0.15633825922E+03  0.88916818288E+02 0.  0.
          5    1    3    3  502    0  0.94451842554E+02 -0.48632603667E+02  0.14477949515E+01  0.10632896694E+03  0.41800000000E+01 0. -1.
         -5    1    3    3    0  502 -0.41157215366E+02 -0.19278104337E+02 -0.12007603207E+01  0.45656061031E+02  0.41800000000E+01 0. -1.
        -11    1    4    4    0    0 -0.14302960214E+02  0.60256043665E+02 -0.98632391539E+02  0.11646335960E+03  0.00000000000E+00 0. -1.
         11    1    4    4    0    0 -0.38991666974E+02  0.76546643390E+01  0.33262050969E+01  0.39874899622E+02  0.00000000000E+00 0.  1.
</event>
<event>
 8    1  0.6862919E-009  0.8451398E+02  0.7561462E-02  0.1316708E+00
          2   -1    0    0  501    0  0.00000000000E+00  0.00000000000E+00  0.33320260057E+03  0.33320260057E+03  0.00000000000E+00 0. -1.
         -2   -1    0    0    0  501 -0.00000000000E+00 -0.00000000000E+00 -0.55177685616E+02  0.55177685616E+02  0.00000000000E+00 0.  1.
         25    2    1    2    0    0 -0.47502019258E+02  0.59975706776E+02  0.11355683357E+03  0.18546066202E+03  0.12508787100E+03 0.  0.
         23    2    1    2    0    0  0.47502019258E+02 -0.59975706776E+02  0.16446808139E+03  0.20291962417E+03  0.90956565675E+02 0.  0.
          5    1    3    3  502    0 -0.34423454423E+02  0.41446351051E+01  0.12240475268E+03  0.12728923008E+03  0.41800000000E+01 0. -1.
         -5    1    3    3    0  502 -0.13078564836E+02  0.55831071671E+02 -0.88479191124E+01  0.58171431946E+02  0.41800000000E+01 0. -1.
        -11    1    4    4    0    0  0.40727396261E+02 -0.49047238541E+02  0.17503058082E+03  0.18627951212E+03  0.00000000000E+00 0. -1.
         11    1    4    4    0    0  0.67746229968E+01 -0.10928468235E+02 -0.10562499429E+02  0.16640112046E+02  0.00000000000E+00 0.  1.
</event>
<event>
 8    1  0.6862919E-009  0.1048403E+03  0.7561462E-02  0.1270435E+00
          2   -1    0    0  501    0  0.00000000000E+00  0.00000000000E+00  0.86738659005E+02  0.86738659005E+02  0.00000000000E+00 0. -1.
         -2   -1    0    0    0  501 -0.00000000000E+00 -0.00000000000E+00 -0.19426732010E+03  0.19426732010E+03  0.00000000000E+00 0.  1.
         25    2    1    2    0    0  0.66633601953E+02 -0.81669745561E+01 -0.84750229811E+02  0.16534044909E+03  0.12509247088E+03 0.  0.
         23    2    1    2    0    0 -0.66633601953E+02  0.81669745561E+01 -0.22778431282E+02  0.11566553001E+03  0.91394318851E+02 0.  0.
          5    1    3    3  502    0 -0.24077525988E+02 -0.34498086986E+02 -0.47839638113E+02  0.63843156550E+02  0.41800000000E+01 0.  1.
         -5    1    3    3    0  502  0.90711127941E+02  0.26331112430E+02 -0.36910591698E+02  0.10149729254E+03  0.41800000000E+01 0.  1.
        -11    1    4    4    0    0 -0.42288423924E+02 -0.87837472831E+01 -0.56263607239E+02  0.70929954983E+02  0.00000000000E+00 0.  1.
         11    1    4    4    0    0 -0.24345178029E+02  0.16950721839E+02  0.33485175957E+02  0.44735575027E+02  0.00000000000E+00 0. -1.
</event>
<event>
 8    1  0.6862919E-009  0.8711483E+02  0.7561462E-02  0.1309993E+00
         -1   -1    0    0    0  501 -0.00000000000E+00  0.00000000000E+00  0.17938602399E+02  0.17938602399E+02  0.00000000000E+00 0.  1.
          1   -1    0    0  501    0  0.00000000000E+00 -0.00000000000E+00 -0.75215770946E+03  0.75215770946E+03  0.00000000000E+00 0. -1.
         25    2    1    2    0    0  0.57120215286E+01 -0.28624900008E+02 -0.51719079192E+03  0.53290347032E+03  0.12509109218E+03 0.  0.
         23    2    1    2    0    0 -0.57120215286E+01  0.28624900008E+02 -0.21702831515E+03  0.23719284154E+03  0.91143526452E+02 0.  0.
          5    1    3    3  502    0  0.32436194636E+02  0.14489043457E+02 -0.42752929728E+02  0.55743380801E+02  0.41800000000E+01 0. -1.
         -5    1    3    3    0  502 -0.26724173108E+02 -0.43113943465E+02 -0.47443786219E+03  0.47716008952E+03  0.41800000000E+01 0. -1.
        -11    1    4    4    0    0 -0.44014741953E+02  0.19764128516E+02 -0.70126882220E+02  0.85121665251E+02  0.00000000000E+00 0. -1.
         11    1    4    4    0    0  0.38302720424E+02  0.88607714921E+01 -0.14690143293E+03  0.15207117629E+03  0.00000000000E+00 0.  1.
</event>
<event>
 8    1  0.6862919E-009  0.1061076E+03  0.7561462E-02  0.1267953E+00
         -2   -1    0    0    0  501 -0.00000000000E+00  0.00000000000E+00  0.88208279544E+02  0.88208279544E+02  0.00000000000E+00 0.  1.
          2   -1    0    0  501    0  0.00000000000E+00 -0.00000000000E+00 -0.21833414490E+03  0.21833414490E+03  0.00000000000E+00 0. -1.
         25    2    1    2    0    0 -0.80057040539E+01 -0.83398903512E+02 -0.77580998740E+02  0.16937180770E+03  0.12509408249E+03 0.  0.
         23    2    1    2    0    0  0.80057040539E+01  0.83398903512E+02 -0.52544866618E+02  0.13717061674E+03  0.95054440639E+02 0.  0.
          5    1    3    3  502    0  0.39690044682E+02 -0.56015125966E+02  0.62082051509E+01  0.69058006017E+02  0.41800000000E+01 0.  1.
         -5    1    3    3    0  502 -0.47695748736E+02 -0.27383777547E+02 -0.83789203891E+02  0.10031380169E+03  0.41800000000E+01 0.  1.
        -11    1    4    4    0    0 -0.10121562910E+02  0.39722192436E+02  0.23775338768E+02  0.47387396438E+02  0.00000000000E+00 0.  1.
         11    1    4    4    0    0  0.18127266964E+02  0.43676711076E+02 -0.76320205386E+02  0.89783220304E+02  0.00000000000E+00 0. -1.
</event>
<event>
 8    1  0.6862919E-009  0.9776735E+02  0.7561462E-02  0.1285062E+00
         -4   -1    0    0    0  501 -0.00000000000E+00  0.00000000000E+00  0.54235584376E+03  0.54235584376E+03  0.00000000000E+00 0.  1.
          4   -1    0    0  501    0  0.00000000000E+00 -0.00000000000E+00 -0.26328374895E+02  0.26328374895E+02  0.00000000000E+00 0. -1.
         25    2    1    2    0    0  0.24833160967E+02 -0.28902794416E+02  0.23270235791E+03  0.26692670192E+03  0.12508964550E+03 0.  0.
         23    2    1    2    0    0 -0.24833160967E+02  0.28902794416E+02  0.28332511095E+03  0.30175751674E+03  0.96604466774E+02 0.  0.
          5    1    3    3  502    0  0.74540193281E+02 -0.90724699884E+01  0.11299489084E+03  0.13573454933E+03  0.41800000000E+01 0.  1.
         -5    1    3    3    0  502 -0.49707032314E+02 -0.19830324428E+02  0.11970746707E+03  0.13119215258E+03  0.41800000000E+01 0.  1.
        -11    1    4    4    0    0 -0.14299482663E+02  0.45108213542E+02  0.27759296216E+03  0.28159736997E+03  0.00000000000E+00 0.  1.
         11    1    4    4    0    0 -0.10533678304E+02 -0.16205419126E+02  0.57321487887E+01  0.20160146760E+02  0.00000000000E+00 0. -1.
</event>
<event>
 8    1  0.6862919E-009  0.1200226E+03  0.7561462E-02  0.1243060E+00
         -2   -1    0    0    0  501 -0.00000000000E+00  0.00000000000E+00  0.23575393022E+03  0.23575393022E+03  0.00000000000E+00 0. -1.
          2   -1    0    0  501    0  0.00000000000E+00 -0.00000000000E+00 -0.68430427713E+02  0.68430427713E+02  0.00000000000E+00 0.  1.
         25    2    1    2    0    0 -0.18864771132E+02 -0.62729860365E+02  0.67206139227E+02  0.15637521886E+03  0.12508248859E+03 0.  0.
         23    2    1    2    0    0  0.18864771132E+02  0.62729860365E+02  0.10011736328E+03  0.14780913908E+03  0.86793664480E+02 0.  0.
          5    1    3    3  502    0  0.26828756706E+02  0.22067029872E+02  0.45759938747E+02  0.57603649085E+02  0.41800000000E+01 0.  1.
         -5    1    3    3    0  502 -0.45693527837E+02 -0.84796890237E+02  0.21446200480E+02  0.98771569771E+02  0.41800000000E+01 0.  1.
        -11    1    4    4    0    0  0.54709650341E+01  0.83634936985E+02  0.74566584163E+02  0.11218248356E+03  0.00000000000E+00 0. -1.
         11    1    4    4    0    0  0.13393806097E+02 -0.20905076621E+02  0.25550779122E+02  0.35626655527E+02  0.00000000000E+00 0.  1.
</event>
<event>
 8    1  0.6862919E-009  0.9510367E+02  0.7561462E-02  0.1290943E+00
         -1   -1    0    0    0  501 -0.00000000000E+00  0.00000000000E+00  0.47255818029E+02  0.47255818029E+02  0.00000000000E+00 0.  1.
          1   -1    0    0  501    0  0.00000000000E+00 -0.00000000000E+00 -0.37354359629E+03  0.37354359629E+03  0.00000000000E+00 0. -1.
         25    2    1    2    0    0 -0.13937090062E+02  0.62599654735E+02 -0.11523266960E+03  0.18176250960E+03  0.12508430158E+03 0.  0.
         23    2    1    2    0    0  0.13937090062E+02 -0.62599654735E+02 -0.21105510867E+03  0.23903690472E+03  0.92094645188E+02 0.  0.
          5    1    3    3  502    0 -0.55690155437E+02  0.62673370943E+02 -0.11159493089E+03  0.13964328067E+03  0.41800000000E+01 0.  1.
         -5    1    3    3    0  502  0.41753065375E+02 -0.73716207957E-01 -0.36377387099E+01  0.42119228925E+02  0.41800000000E+01 0.  1.
        -11    1    4    4    0    0  0.62151196796E+01 -0.18146620042E+02  0.37499051230E+01  0.19544547066E+02  0.00000000000E+00 0.  1.
         11    1    4    4    0    0  0.77219703821E+01 -0.44453034693E+02 -0.21480501379E+03  0.21949235765E+03  0.00000000000E+00 0. -1.
</event>
<event>
 8    1  0.6862919E-009  0.1015640E+03  0.7561462E-02  0.1277041E+00
          1   -1    0    0  501    0  0.00000000000E+00  0.00000000000E+00  0.20067744580E+03  0.20067744580E+03  0.00000000000E+00 0. -1.
         -1   -1    0    0    0  501 -0.00000000000E+00 -0.00000000000E+00 -0.73878269107E+02  0.73878269107E+02  0.00000000000E+00 0.  1.
         25    2    1    2    0    0  0.24597693519E+02 -0.82638728358E+01  0.11985501572E+03  0.17517526693E+03  0.12509121165E+03 0.  0.
         23    2    1    2    0    0 -0.24597693519E+02  0.82638728358E+01  0.69441609759E+01  0.99380447975E+02  0.95681314515E+02 0.  0.
          5    1    3    3  502    0  0.72170679733E+02  0.16105033563E+02  0.72496265579E+02  0.10363956794E+03  0.41800000000E+01 0.  1.
         -5    1    3    3    0  502 -0.47572986213E+02 -0.24368906399E+02  0.47358750140E+02  0.71535698998E+02  0.41800000000E+01 0.  1.
        -11    1    4    4    0    0  0.14311232774E+01  0.36798867639E+02 -0.28803529206E+02  0.46753054104E+02  0.00000000000E+00 0.  1.
         11    1    4    4    0    0 -0.26028816797E+02 -0.28534994804E+02  0.35747690181E+02  0.52627393870E+02  0.00000000000E+00 0. -1.
</event>
<event>
 8    1  0.6862919E-009  0.2120263E+03  0.7561462E-02  0.1139971E+00
          2   -1    0    0  501    0  0.00000000000E+00  0.00000000000E+00  0.15658215895E+04  0.15658215895E+04  0.00000000000E+00 0.  1.
         -2   -1    0    0    0  501 -0.00000000000E+00 -0.00000000000E+00 -0.36293086669E+02  0.36293086669E+02  0.00000000000E+00 0. -1.
         25    2    1    2    0    0  0.18977675994E+03 -0.78792223870E+02  0.61620175323E+03  0.66149525494E+03  0.12509172023E+03 0.  0.
         23    2    1    2    0    0 -0.18977675994E+03  0.78792223870E+02  0.91332674960E+03  0.94061942123E+03  0.91518910076E+02 0.  0.
          5    1    3    3  502    0  0.80674995090E+02 -0.57180851831E+02  0.13384032513E+03  0.16645963378E+03  0.41800000000E+01 0.  1.
         -5    1    3    3    0  502  0.10910176485E+03 -0.21611372039E+02  0.48236142810E+03  0.49503562116E+03  0.41800000000E+01 0.  1.
        -11    1    4    4    0    0 -0.12543025367E+03  0.20773216813E+02  0.67872410998E+03  0.69052928435E+03  0.00000000000E+00 0.  1.
         11    1    4    4    0    0 -0.64346506262E+02  0.58019007057E+02  0.23460263962E+03  0.25009013688E+03  0.00000000000E+00 0. -1.
</event>
<event>
 8    1  0.6862919E-009  0.1047028E+03  0.7561462E-02  0.1270706E+00
          2   -1    0    0  501    0  0.00000000000E+00  0.00000000000E+00  0.36124872814E+03  0.36124872814E+03  0.00000000000E+00 0. -1.
         -2   -1    0    0    0  501 -0.00000000000E+00 -0.00000000000E+00 -0.51446386340E+02  0.51446386340E+02  0.00000000000E+00 0.  1.
         25    2    1    2    0    0 -0.15065577991E+02  0.33896719201E+02  0.28082904788E+03  0.30965775837E+03  0.12508802489E+03 0.  0.
         23    2    1    2    0    0  0.15065577991E+02 -0.33896719201E+02  0.28973293917E+02  0.10303735611E+03  0.91658528138E+02 0.  0.
          5    1    3    3  502    0 -0.59497171961E+02  0.32975885131E+02  0.23884610513E+03  0.24837926002E+03  0.41800000000E+01 0. -1.
         -5    1    3    3    0  502  0.44431593970E+02  0.92083406987E+00  0.41982942749E+02  0.61278498349E+02  0.41800000000E+01 0. -1.
        -11    1    4    4    0    0  0.52242149005E+02 -0.26992613319E+02  0.67793938224E+01  0.59192934435E+02  0.00000000000E+00 0.  1.
         11    1    4    4    0    0 -0.37176571014E+02 -0.69041058822E+01  0.22193900094E+02  0.43844421672E+02  0.00000000000E+00 0. -1.
</event>
<event>
 8    1  0.6862919E-009  0.9527310E+02  0.7561462E-02  0.1290562E+00
          1   -1    0    0  501    0  0.00000000000E+00  0.00000000000E+00  0.23973735232E+03  0.23973735232E+03  0.00000000000E+00 0. -1.
         -1   -1    0    0    0  501 -0.00000000000E+00 -0.00000000000E+00 -0.79748982502E+02  0.79748982502E+02  0.00000000000E+00 0.  1.
         25    2    1    2    0    0  0.70522481653E+02 -0.45687032189E+02  0.81102135918E+02  0.17113214030E+03  0.12509167705E+03 0.  0.
         23    2    1    2    0    0 -0.70522481653E+02  0.45687032189E+02  0.78886233896E+02  0.14835419451E+03  0.93408799385E+02 0.  0.
          5    1    3    3  502    0  0.30274576540E+02 -0.54124003447E+02  0.10599881162E+03  0.12287871337E+03  0.41800000000E+01 0.  1.
         -5    1    3    3    0  502  0.40247905113E+02  0.84369712574E+01 -0.24896675704E+02  0.48253426936E+02  0.41800000000E+01 0.  1.
        -11    1    4    4    0    0 -0.38213360922E+02  0.37900222283E+02 -0.88415338972E+01  0.54542281981E+02  0.00000000000E+00 0.  1.
         11    1    4    4    0    0 -0.32309120731E+02  0.77868099067E+01  0.87727767794E+02  0.93811912532E+02  0.00000000000E+00 0. -1.
</event>
<event>
 8    1  0.6862919E-009  0.1116247E+03  0.7561462E-02  0.1257590E+00
          2   -1    0    0  501    0  0.00000000000E+00  0.00000000000E+00  0.65388311884E+03  0.65388311884E+03  0.00000000000E+00 0. -1.
         -2   -1    0    0    0  501 -0.00000000000E+00 -0.00000000000E+00 -0.51406347336E+02  0.51406347336E+02  0.00000000000E+00 0.  1.
         25    2    1    2    0    0  0.71377638549E+02 -0.19847857475E+02  0.55994978987E+03  0.57851556223E+03  0.12509110215E+03 0.  0.
         23    2    1    2    0    0 -0.71377638549E+02  0.19847857475E+02  0.42526981642E+02  0.12677390395E+03  0.93671627638E+02 0.  0.
          5    1    3    3  502    0  0.42065603825E+02  0.33150562503E+02  0.91162625180E+02  0.10581385282E+03  0.41800000000E+01 0.  1.
         -5    1    3    3    0  502  0.29312034724E+02 -0.52998419978E+02  0.46878716469E+03  0.47270170941E+03  0.41800000000E+01 0.  1.
        -11    1    4    4    0    0 -0.13598844606E+02 -0.29726056650E+02  0.38543165929E+02  0.50538526476E+02  0.00000000000E+00 0. -1.
         11    1    4    4    0    0 -0.57778793943E+02  0.49573914125E+02  0.39838157132E+01  0.76235377476E+02  0.00000000000E+00 0.  1.
</event>
<event>
 8    1  0.6862919E-009  0.1946962E+03  0.7561462E-02  0.1154293E+00
          3   -1    0    0  501    0  0.00000000000E+00  0.00000000000E+00  0.21806462040E+03  0.21806462040E+03  0.00000000000E+00 0. -1.
         -3   -1    0    0    0  501 -0.00000000000E+00 -0.00000000000E+00 -0.20176569947E+03  0.20176569947E+03  0.00000000000E+00 0.  1.
         25    2    1    2    0    0 -0.16606487336E+03 -0.31788571231E+01  0.75412011678E+02  0.22118144054E+03  0.12508641349E+03 0.  0.
         23    2    1    2    0    0  0.16606487336E+03  0.31788571231E+01 -0.59113090743E+02  0.19864887933E+03  0.91538912308E+02 0.  0.
          5    1    3    3  502    0  0.12985901400E+02  0.17204738098E+02 -0.69080399180E+01  0.23018037790E+02  0.41800000000E+01 0. -1.
         -5    1    3    3    0  502 -0.17905077476E+03 -0.20383595221E+02  0.82320051596E+02  0.19816340275E+03  0.41800000000E+01 0. -1.
        -11    1    4    4    0    0  0.45043428347E+02  0.40459166484E+02 -0.44144011711E+01  0.60707013825E+02  0.00000000000E+00 0. -1.
         11    1    4    4    0    0  0.12102144501E+03 -0.37280309361E+02 -0.54698689572E+02  0.13794186551E+03  0.00000000000E+00 0.  1.
</event>
<event>
 8    1  0.6862919E-009  0.1011790E+03  0.7561462E-02  0.1277836E+00
          2   -1    0    0  501    0  0.00000000000E+00  0.00000000000E+00  0.29026127162E+03  0.29026127162E+03  0.00000000000E+00 0. -1.
         -2   -1    0    0    0  501 -0.00000000000E+00 -0.00000000000E+00 -0.54571279949E+02  0.54571279949E+02  0.00000000000E+00 0.  1.
         25    2    1    2    0    0 -0.24742405038E+02 -0.55793142839E+02  0.10073593432E+03  0.17184596730E+03  0.12513291581E+03 0.  0.
         23    2    1    2    0    0  0.24742405038E+02  0.55793142839E+02  0.13495405735E+03  0.17298658427E+03  0.89368335258E+02 0.  0.
          5    1    3    3  502    0  0.23844994440E+02 -0.49901461554E+01 -0.20186001641E+02  0.31912887377E+02  0.41800000000E+01 0.  1.
         -5    1    3    3    0  502 -0.48587399478E+02 -0.50802996683E+02  0.12092193596E+03  0.13993307992E+03  0.41800000000E+01 0.  1.
        -11    1    4    4    0    0 -0.28555070640E+02  0.44285610502E+02  0.54605775708E+02  0.75884109650E+02  0.00000000000E+00 0.  1.
         11    1    4    4    0    0  0.53297475678E+02  0.11507532337E+02  0.80348281647E+02  0.97102474622E+02  0.00000000000E+00 0. -1.
</event>
<event>
 8    1  0.6862919E-009  0.1061646E+03  0.7561462E-02  0.1267842E+00
         -2   -1    0    0    0  501 -0.00000000000E+00  0.00000000000E+00  0.92292072420E+02  0.92292072420E+02  0.00000000000E+00 0.  1.
          2   -1    0    0  501    0  0.00000000000E+00 -0.00000000000E+00 -0.15789643355E+03  0.15789643355E+03  0.00000000000E+00 0. -1.
         25    2    1    2    0    0 -0.52819624502E+01 -0.13708433959E+02 -0.90580125659E+02  0.15513867262E+03  0.12508968098E+03 0.  0.
         23    2    1    2    0    0  0.52819624502E+01  0.13708433959E+02  0.24975764534E+02  0.95049833349E+02  0.90525475512E+02 0.  0.
          5    1    3    3  502    0  0.27206664923E+02  0.46416104938E+02 -0.22139105082E+02  0.58328978970E+02  0.41800000000E+01 0. -1.
         -5    1    3    3    0  502 -0.32488627373E+02 -0.60124538897E+02 -0.68441020577E+02  0.96809693646E+02  0.41800000000E+01 0. -1.
        -11    1    4    4    0    0  0.40257564936E+02 -0.16667688878E+02  0.27209523795E+01  0.43656465374E+02  0.00000000000E+00 0.  1.
         11    1    4    4    0    0 -0.34975602486E+02  0.30376122836E+02  0.22254812155E+02  0.51393367975E+02  0.00000000000E+00 0. -1.
</event>
<event>
 8    1  0.6862919E-009  0.1086558E+03  0.7561462E-02  0.1263080E+00
          1   -1    0    0  501    0  0.00000000000E+00  0.00000000000E+00  0.54197725625E+03  0.54197725625E+03  0.00000000000E+00 0. -1.
         -1   -1    0    0    0  501 -0.00000000000E+00 -0.00000000000E+00 -0.22543955305E+02  0.22543955305E+02  0.00000000000E+00 0.  1.
         25    2    1    2    0    0  0.23985893530E+02 -0.84585322265E+01  0.30229312167E+03  0.32813900709E+03  0.12508879529E+03 0.  0.
         23    2    1    2    0    0 -0.23985893530E+02  0.84585322265E+01  0.21714017928E+03  0.23638220447E+03  0.89887814958E+02 0.  0.
          5    1    3    3  502    0  0.13594323934E+02 -0.66283630439E+02  0.18159112468E+03  0.19383274818E+03  0.41800000000E+01 0. -1.
         -5    1    3    3    0  502  0.10391569596E+02  0.57825098213E+02  0.12070199699E+03  0.13430625890E+03  0.41800000000E+01 0. -1.
        -11    1    4    4    0    0  0.33111256933E+02  0.22979516520E+01  0.10896785098E+03  0.11391061612E+03  0.00000000000E+00 0.  1.
         11    1    4    4    0    0 -0.57097150463E+02  0.61605805746E+01  0.10817232830E+03  0.12247158836E+03  0.00000000000E+00 0. -1.
</event>
<event>
 8    1  0.6862919E-009  0.6102363E+02  0.7561462E-02  0.1393586E+00
          2   -1    0    0  501    0  0.00000000000E+00  0.00000000000E+00  0.54565215728E+03  0.54565215728E+03  0.00000000000E+00 0.  1.
         -2   -1    0    0    0  501 -0.00000000000E+00 -0.00000000000E+00 -0.22506413533E+02  0.22506413533E+02  0.00000000000E+00 0. -1.
         25    2    1    2    0    0  0.14269157277E+01  0.22644584986E+02  0.31655616971E+03  0.34113009659E+03  0.12508845230E+03 0.  0.
         23    2    1    2    0    0 -0.14269157277E+01 -0.22644584986E+02  0.20658957404E+03  0.22702847422E+03  0.91366638822E+02 0.  0.
          5    1    3    3  502    0  0.43921832506E+01 -0.30906307596E-01 -0.11101143256E+02  0.12649111056E+02  0.41800000000E+01 0. -1.
         -5    1    3    3    0  502 -0.29652675229E+01  0.22675491294E+02  0.32765731296E+03  0.32848098553E+03  0.41800000000E+01 0. -1.
        -11    1    4    4    0    0 -0.42040375159E+02  0.67806801389E+01  0.11459109866E+03  0.12224766116E+03  0.00000000000E+00 0. -1.
         11    1    4    4    0    0  0.40613459432E+02 -0.29425265125E+02  0.91998475374E+02  0.10478081306E+03  0.00000000000E+00 0.  1.
</event>
<event>
 8    1  0.6862919E-009  0.1223415E+03  0.7561462E-02  0.1239284E+00
          1   -1    0    0  501    0  0.00000000000E+00  0.00000000000E+00  0.10241813686E+03  0.10241813686E+03  0.00000000000E+00 0. -1.
         -1   -1    0    0    0  501 -0.00000000000E+00 -0.00000000000E+00 -0.16054752617E+03  0.16054752617E+03  0.00000000000E+00 0.  1.
         25    2    1    2    0    0  0.35329461146E+02 -0.49930838801E+02 -0.53744998714E+01  0.13934466532E+03  0.12508713370E+03 0.  0.
         23    2    1    2    0    0 -0.35329461146E+02  0.49930838801E+02 -0.52754889438E+02  0.12362099771E+03  0.93583188802E+02 0.  0.
          5    1    3    3  502    0  0.80059046371E+02 -0.34407346745E+02 -0.20214078755E+02  0.89551090422E+02  0.41800000000E+01 0.  1.
         -5    1    3    3    0  502 -0.44729585225E+02 -0.15523492056E+02  0.14839578884E+02  0.49793574901E+02  0.41800000000E+01 0.  1.
        -11    1    4    4    0    0  0.30546924083E+02  0.25011081766E+02 -0.30064661237E+02  0.49624113466E+02  0.00000000000E+00 0.  1.
         11    1    4    4    0    0 -0.65876385229E+02  0.24919757035E+02 -0.22690228201E+02  0.73996884241E+02  0.00000000000E+00 0. -1.
</event>
<event>
 8    1  0.6862919E-009  0.9759455E+02  0.7561462E-02  0.1285437E+00
         -2   -1    0    0    0  501 -0.00000000000E+00  0.00000000000E+00  0.73601163381E+02  0.73601163381E+02  0.00000000000E+00 0.  1.
          2   -1    0    0  501    0  0.00000000000E+00 -0.00000000000E+00 -0.34712855782E+03  0.34712855782E+03  0.00000000000E+00 0. -1.
         25    2    1    2    0    0  0.46516134220E+01  0.80908247882E+01  0.36075126339E+01  0.12548374065E+03  0.12508419591E+03 0.  0.
         23    2    1    2    0    0 -0.46516134220E+01 -0.80908247882E+01 -0.27713490707E+03  0.29524598055E+03  0.10138704731E+03 0.  0.
          5    1    3    3  502    0  0.44421656699E+01  0.50734585546E+02 -0.39588144308E+02  0.64640734650E+02  0.41800000000E+01 0. -1.
         -5    1    3    3    0  502  0.20944775206E+00 -0.42643760758E+02  0.43195656942E+02  0.60843005995E+02  0.41800000000E+01 0. -1.
        -11    1    4    4    0    0  0.80482832943E+01 -0.53493263095E+02 -0.13234035134E+03  0.14296948155E+03  0.00000000000E+00 0.  1.
         11    1    4    4    0    0 -0.12699896716E+02  0.45402438307E+02 -0.14479455572E+03  0.15227649900E+03  0.00000000000E+00 0. -1.
</event>
<event>
 8    1  0.6862919E-009  0.1459516E+03  0.7561462E-02  0.1205538E+00
          1   -1    0    0  501    0  0.00000000000E+00  0.00000000000E+00  0.29505940990E+04  0.29505940990E+04  0.00000000000E+00 0. -1.
         -1   -1    0    0    0  501 -0.00000000000E+00 -0.00000000000E+00 -0.14297053328E+02  0.14297053328E+02  0.00000000000E+00 0.  1.
         25    2    1    2    0    0 -0.21539133020E+02  0.12218073205E+03  0.24160806804E+04  0.24224956782E+04  0.12508953195E+03 0.  0.
         23    2    1    2    0    0  0.21539133020E+02 -0.12218073205E+03  0.52021636530E+03  0.54239547419E+03  0.90419677939E+02 0.  0.
          5    1    3    3  502    0  0.19833606022E+01 -0.21595190422E+02  0.13787011105E+03  0.13962781202E+03  0.41800000000E+01 0. -1.
         -5    1    3    3    0  502 -0.23522493623E+02  0.14377592248E+03  0.22782105694E+04  0.22828678662E+04  0.41800000000E+01 0. -1.
        -11    1    4    4    0    0  0.61300068492E+01 -0.37975795725E+02  0.43561960151E+02  0.58115251158E+02  0.00000000000E+00 0.  1.
         11    1    4    4    0    0  0.15409126171E+02 -0.84204936328E+02  0.47665440515E+03  0.48428022303E+03  0.00000000000E+00 0. -1.
</event>
<event>
 8    1  0.6862919E-009  0.1729909E+03  0.7561462E-02  0.1174764E+00
          2   -1    0    0  501    0  0.00000000000E+00  0.00000000000E+00  0.13033465594E+04  0.13033465594E+04  0.00000000000E+00 0.  1.
         -2   -1    0    0    0  501 -0.00000000000E+00 -0.00000000000E+00 -0.29814512306E+02  0.29814512306E+02  0.00000000000E+00 0. -1.
         25    2    1    2    0    0 -0.11879799791E+03 -0.11124433692E+03  0.64394789756E+03  0.67587317132E+03  0.12508949651E+03 0.  0.
         23    2    1    2    0    0  0.11879799791E+03  0.11124433692E+03  0.62958414956E+03  0.65728790041E+03  0.95723120736E+02 0.  0.
          5    1    3    3  502    0 -0.12743819987E+03 -0.96850951181E+02  0.39351812471E+03  0.42484654689E+03  0.41800000000E+01 0. -1.
         -5    1    3    3    0  502  0.86402019660E+01 -0.14393385743E+02  0.25042977285E+03  0.25102662443E+03  0.41800000000E+01 0. -1.
        -11    1    4    4    0    0  0.52728833816E+02  0.21087989367E+02  0.91294867114E+02  0.10751644513E+03  0.00000000000E+00 0. -1.
         11    1    4    4    0    0  0.66069164091E+02  0.90156347558E+02  0.53828928245E+03  0.54977145529E+03  0.00000000000E+00 0.  1.
</event>
<event>
 8    1  0.6862919E-009  0.1521241E+03  0.7561462E-02  0.1197887E+00
         -1   -1    0    0    0  501 -0.00000000000E+00  0.00000000000E+00  0.75798764758E+02  0.75798764758E+02  0.00000000000E+00 0. -1.
          1   -1    0    0  501    0  0.00000000000E+00 -0.00000000000E+00 -0.36145801657E+03  0.36145801657E+03  0.00000000000E+00 0.  1.
         25    2    1    2    0    0  0.11761468074E+03  0.40595246470E+02 -0.16439019704E+03  0.24114805151E+03  0.12508820369E+03 0.  0.
         23    2    1    2    0    0 -0.11761468074E+03 -0.40595246470E+02 -0.12126905477E+03  0.19610872982E+03  0.90946484831E+02 0.  0.
          5    1    3    3  502    0  0.44833496869E+00 -0.34806974565E+02 -0.48648717282E+02  0.59965795048E+02  0.41800000000E+01 0.  1.
         -5    1    3    3    0  502  0.11716634578E+03  0.75402221035E+02 -0.11574147976E+03  0.18118225646E+03  0.41800000000E+01 0.  1.
        -11    1    4    4    0    0 -0.69582725012E+02 -0.42832839106E+02 -0.12337447637E+03  0.14797861043E+03  0.00000000000E+00 0.  1.
         11    1    4    4    0    0 -0.48031955732E+02  0.22375926359E+01  0.21054215944E+01  0.48130119388E+02  0.00000000000E+00 0. -1.
</event>
<event>
 8    1  0.6862919E-009  0.1001357E+03  0.7561462E-02  0.1280011E+00
         -2   -1    0    0    0  501 -0.00000000000E+00  0.00000000000E+00  0.52835409167E+02  0.52835409167E+02  0.00000000000E+00 0. -1.
          2   -1    0    0  501    0  0.00000000000E+00 -0.00000000000E+00 -0.28853706781E+03  0.28853706781E+03  0.00000000000E+00 0.  1.
         25    2    1    2    0    0  0.70086615708E+01  0.97192609163E+01 -0.20706629539E+03  0.24221668890E+03  0.12509551681E+03 0.  0.
         23    2    1    2    0    0 -0.70086615708E+01 -0.97192609163E+01 -0.28635363256E+02  0.99155788079E+02  0.94171656622E+02 0.  0.
          5    1    3    3  502    0  0.57634615858E+02  0.45008520332E+01 -0.48324646848E+02  0.75463570728E+02  0.41800000000E+01 0. -1.
         -5    1    3    3    0  502 -0.50625954287E+02  0.52184088832E+01 -0.15874164854E+03  0.16675311817E+03  0.41800000000E+01 0. -1.
        -11    1    4    4    0    0  0.27184780414E+02 -0.38102554099E+02 -0.28337747008E+02  0.54716038056E+02  0.00000000000E+00 0. -1.
         11    1    4    4    0    0 -0.34193441985E+02  0.28383293182E+02 -0.29761624812E+00  0.44439750023E+02  0.00000000000E+00 0.  1.
</event>
<event>
 8    1  0.6862919E-009  0.1088307E+03  0.7561462E-02  0.1262751E+00
         -2   -1    0    0    0  501 -0.00000000000E+00  0.00000000000E+00  0.23726742459E+02  0.23726742459E+02  0.00000000000E+00 0. -1.
          2   -1    0    0  501    0  0.00000000000E+00 -0.00000000000E+00 -0.76992472019E+03  0.76992472019E+03  0.00000000000E+00 0.  1.
         25    2    1    2    0    0 -0.61095263750E+01 -0.77397414131E+02 -0.42890782079E+03  0.45347223611E+03  0.12508982436E+03 0.  0.
         23    2    1    2    0    0  0.61095263750E+01  0.77397414131E+02 -0.31729015694E+03  0.34017922654E+03  0.94979873926E+02 0.  0.
          5    1    3    3  502    0 -0.85029638055E+01  0.27215894840E+02 -0.32371998549E+02  0.43340789280E+02  0.41800000000E+01 0.  1.
         -5    1    3    3    0  502  0.23934374305E+01 -0.10461330897E+03 -0.39653582224E+03  0.41013144683E+03  0.41800000000E+01 0.  1.
        -11    1    4    4    0    0  0.19111925908E+02  0.54939446341E+02 -0.30667304094E+03  0.31214093374E+03  0.00000000000E+00 0.  1.
         11    1    4    4    0    0 -0.13002399533E+02  0.22457967791E+02 -0.10617115997E+02  0.28038292797E+02  0.00000000000E+00 0. -1.
</event>
<event>
 8    1  0.6862919E-009  0.9708593E+02  0.7561462E-02  0.1286546E+00
         -1   -1    0    0    0  501 -0.00000000000E+00  0.00000000000E+00  0.75125979943E+02  0.75125979943E+02  0.00000000000E+00 0.  1.
          1   -1    0    0  501    0  0.00000000000E+00 -0.00000000000E+00 -0.22157181080E+03  0.22157181080E+03  0.00000000000E+00 0. -1.
         25    2    1    2    0    0  0.41470256580E+02  0.58776644254E+02 -0.69941493848E+02  0.16035438555E+03  0.12508892961E+03 0.  0.
         23    2    1    2    0    0 -0.41470256580E+02 -0.58776644254E+02 -0.76504337013E+02  0.13634340520E+03  0.86960533975E+02 0.  0.
          5    1    3    3  502    0 -0.10292110923E+00  0.60978768940E+02  0.17364080216E+02  0.63540573935E+02  0.41800000000E+01 0. -1.
         -5    1    3    3    0  502  0.41573177689E+02 -0.22021246864E+01 -0.87305574064E+02  0.96813811613E+02  0.41800000000E+01 0. -1.
        -11    1    4    4    0    0 -0.49748847138E+02 -0.23584053500E+02 -0.83011212895E+02  0.99609321037E+02  0.00000000000E+00 0. -1.
         11    1    4    4    0    0  0.82785905581E+01 -0.35192590754E+02  0.65068758817E+01  0.36734084164E+02  0.00000000000E+00 0.  1.
</event>
<event>
 8    1  0.6862919E-009  0.1206272E+03  0.7561462E-02  0.1242066E+00
         -3   -1    0    0    0  501 -0.00000000000E+00  0.00000000000E+00  0.89354945627E+03  0.89354945627E+03  0.00000000000E+00 0.  1.
          3   -1    0    0  501    0  0.00000000000E+00 -0.00000000000E+00 -0.21828469276E+02  0.21828469276E+02  0.00000000000E+00 0. -1.
         25    2    1    2    0    0 -0.37368438500E+02 -0.33530951353E+02  0.68518375125E+03  0.69831579593E+03  0.12508977963E+03 0.  0.
         23    2    1    2    0    0  0.37368438500E+02  0.33530951353E+02  0.18653723575E+03  0.21706212962E+03  0.98990418231E+02 0.  0.
          5    1    3    3  502    0 -0.58491197457E+02  0.30496998385E+02  0.29358955600E+03  0.30093784555E+03  0.41800000000E+01 0. -1.
         -5    1    3    3    0  502  0.21122758957E+02 -0.64027949739E+02  0.39159419525E+03  0.39737795038E+03  0.41800000000E+01 0. -1.
        -11    1    4    4    0    0  0.63608527526E+02 -0.17553475344E+01  0.13547550093E+03  0.14967544011E+03  0.00000000000E+00 0.  1.
         11    1    4    4    0    0 -0.26240089026E+02  0.35286298888E+02  0.51061734815E+02  0.67386689513E+02  0.00000000000E+00 0. -1.
</event>
<event>
 8    1  0.6862919E-009  0.8440538E+02  0.7561462E-02  0.1316995E+00
         -1   -1    0    0    0  501 -0.00000000000E+00  0.00000000000E+00  0.75234753683E+02  0.75234753683E+02  0.00000000000E+00 0.  1.
          1   -1    0    0  501    0  0.00000000000E+00 -0.00000000000E+00 -0.18626857951E+03  0.18626857951E+03  0.00000000000E+00 0. -1.
         25    2    1    2    0    0  0.43535798294E+02  0.17888318690E+02 -0.69805657821E+02  0.15077732636E+03  0.12508243122E+03 0.  0.
         23    2    1    2    0    0 -0.43535798294E+02 -0.17888318690E+02 -0.41228168005E+02  0.11072600683E+03  0.91351678002E+02 0.  0.
          5    1    3    3  502    0 -0.88573397429E+01 -0.39113119692E+02 -0.60473245033E+02  0.72682696456E+02  0.41800000000E+01 0.  1.
         -5    1    3    3    0  502  0.52393138037E+02  0.57001438382E+02 -0.93324127883E+01  0.78094629901E+02  0.41800000000E+01 0.  1.
        -11    1    4    4    0    0 -0.30396042148E+02 -0.21777770028E+01 -0.69458046168E+02  0.75849075594E+02  0.00000000000E+00 0. -1.
         11    1    4    4    0    0 -0.13139756146E+02 -0.15710541688E+02  0.28229878163E+02  0.34876931241E+02  0.00000000000E+00 0.  1.
</event>
<event>
 8    1  0.6862919E-009  0.9173505E+02  0.7561462E-02  0.1298704E+00
          1   -1    0    0  501    0  0.00000000000E+00  0.00000000000E+00  0.30260521653E+02  0.30260521653E+02  0.00000000000E+00 0. -1.
         -1   -1    0    0    0  501 -0.00000000000E+00 -0.00000000000E+00 -0.77380440219E+03  0.77380440219E+03  0.00000000000E+00 0.  1.
         25    2    1    2    0    0 -0.80309784159E+02  0.10552708224E+02 -0.59455354329E+03  0.61294585695E+03  0.12509071362E+03 0.  0.
         23    2    1    2    0    0  0.80309784159E+02 -0.10552708224E+02 -0.14899033725E+03  0.19111906689E+03  0.88132604941E+02 0.  0.
          5    1    3    3  502    0 -0.10896227711E+01 -0.15637291810E+02 -0.41049315035E+03  0.41081359648E+03  0.41800000000E+01 0. -1.
         -5    1    3    3    0  502 -0.79220161388E+02  0.26190000035E+02 -0.18406039294E+03  0.20213226047E+03  0.41800000000E+01 0. -1.
        -11    1    4    4    0    0  0.46685143315E+02 -0.16585732598E+02 -0.14893302877E+03  0.15695743433E+03  0.00000000000E+00 0.  1.
         11    1    4    4    0    0  0.33624640844E+02  0.60330243732E+01 -0.57308474512E-01  0.34161632561E+02  0.00000000000E+00 0. -1.
</event>
<event>
 8    1  0.6862919E-009  0.5607207E+02  0.7561462E-02  0.1415096E+00
         -1   -1    0    0    0  501 -0.00000000000E+00  0.00000000000E+00  0.71483397733E+02  0.71483397733E+02  0.00000000000E+00 0.  1.
          1   -1    0    0  501    0  0.00000000000E+00 -0.00000000000E+00 -0.17520561901E+03  0.17520561901E+03  0.00000000000E+00 0. -1.
         25    2    1    2    0    0  0.26554086172E+02 -0.11091121718E+02 -0.64851481673E+02  0.14381078044E+03  0.12509074075E+03 0.  0.
         23    2    1    2    0    0 -0.26554086172E+02  0.11091121718E+02 -0.38870739608E+02  0.10287823631E+03  0.90801236968E+02 0.  0.
          5    1    3    3  502    0  0.50875622025E+01  0.55196225090E+01  0.37173888111E+02  0.38153897299E+02  0.41800000000E+01 0.  1.
         -5    1    3    3    0  502  0.21466523970E+02 -0.16610744227E+02 -0.10202536978E+03  0.10565688314E+03  0.41800000000E+01 0.  1.
        -11    1    4    4    0    0 -0.11769669840E+02  0.41037732682E+02  0.98461827610E+01  0.43812874212E+02  0.00000000000E+00 0.  1.
         11    1    4    4    0    0 -0.14784416333E+02 -0.29946610964E+02 -0.48716922369E+02  0.59065362097E+02  0.00000000000E+00 0. -1.
</event>
<event>
 8    1  0.6862919E-009  0.1431706E+03  0.7561462E-02  0.1209125E+00
          1   -1    0    0  501    0  0.00000000000E+00  0.00000000000E+00  0.41988118295E+02  0.41988118295E+02  0.00000000000E+00 0. -1.
         -1   -1    0    0    0  501 -0.00000000000E+00 -0.00000000000E+00 -0.64283575856E+03  0.64283575856E+03  0.00000000000E+00 0.  1.
         25    2    1    2    0    0 -0.18899254798E+02 -0.12233905612E+03 -0.29549223793E+03  0.34392983462E+03  0.12509213397E+03 0.  0.
         23    2    1    2    0    0  0.18899254798E+02  0.12233905612E+03 -0.30535540234E+03  0.34089404224E+03  0.87423107992E+02 0.  0.
          5    1    3    3  502    0 -0.48697637160E+02 -0.53980785991E+02 -0.24021830765E+03  0.25101333202E+03  0.41800000000E+01 0.  1.
         -5    1    3    3    0  502  0.29798382362E+02 -0.68358270131E+02 -0.55273930275E+02  0.92916502596E+02  0.41800000000E+01 0.  1.
        -11    1    4    4    0    0  0.41680492943E+02  0.65967331382E+02 -0.23647928708E+03  0.24902089374E+03  0.00000000000E+00 0.  1.
         11    1    4    4    0    0 -0.22781238145E+02  0.56371724740E+02 -0.68876115259E+02  0.91873148497E+02  0.00000000000E+00 0. -1.
</event>
<event>
 8    1  0.6862919E-009  0.2277346E+03  0.7561462E-02  0.1128244E+00
         -2   -1    0    0    0  501 -0.00000000000E+00  0.00000000000E+00  0.86588217911E+02  0.86588217911E+02  0.00000000000E+00 0.  1.
          2   -1    0    0  501    0  0.00000000000E+00 -0.00000000000E+00 -0.12107641800E+04  0.12107641800E+04  0.00000000000E+00 0. -1.
         25    2    1    2    0    0  0.20142154418E+03  0.61813178656E+02 -0.10096609609E+04  0.10389676022E+04  0.12508762906E+03 0.  0.
         23    2    1    2    0    0 -0.20142154418E+03 -0.61813178656E+02 -0.11451500118E+03  0.25838479570E+03  0.96215953126E+02 0.  0.
          5    1    3    3  502    0  0.66871582253E+01 -0.28771984155E+02 -0.10531253364E+03  0.10945660007E+03  0.41800000000E+01 0.  1.
         -5    1    3    3    0  502  0.19473438596E+03  0.90585162811E+02 -0.90434842724E+03  0.92951100211E+03  0.41800000000E+01 0.  1.
        -11    1    4    4    0    0 -0.16240222186E+03 -0.46749618789E+02 -0.41150448849E+02  0.17393495325E+03  0.00000000000E+00 0. -1.
         11    1    4    4    0    0 -0.39019322319E+02 -0.15063559867E+02 -0.73364552328E+02  0.84449842442E+02  0.00000000000E+00 0.  1.
</event>
<event>
 8    1  0.6862919E-009  0.1147309E+03  0.7561462E-02  0.1252052E+00
          1   -1    0    0  501    0  0.00000000000E+00  0.00000000000E+00  0.15553670827E+03  0.15553670827E+03  0.00000000000E+00 0. -1.
         -1   -1    0    0    0  501 -0.00000000000E+00 -0.00000000000E+00 -0.14494451279E+03  0.14494451279E+03  0.00000000000E+00 0.  1.
         25    2    1    2    0    0 -0.51546093591E+01 -0.81195873292E+02 -0.56794178751E+02  0.15966563320E+03  0.12509274899E+03 0.  0.
         23    2    1    2    0    0  0.51546093591E+01  0.81195873292E+02  0.67386374227E+02  0.14081558785E+03  0.93106210925E+02 0.  0.
          5    1    3    3  502    0  0.30016004782E+02 -0.65277296415E+02 -0.85218798465E+02  0.11154282578E+03  0.41800000000E+01 0.  1.
         -5    1    3    3    0  502 -0.35170614141E+02 -0.15918576878E+02  0.28424619714E+02  0.48122807428E+02  0.41800000000E+01 0.  1.
        -11    1    4    4    0    0  0.39230187086E+02  0.11176951742E+02  0.42873133964E+02  0.59178014879E+02  0.00000000000E+00 0.  1.
         11    1    4    4    0    0 -0.34075577727E+02  0.70018921550E+02  0.24513240263E+02  0.81637572972E+02  0.00000000000E+00 0. -1.
</event>
<event>
 8    1  0.6862919E-009  0.1004299E+03  0.7561462E-02  0.1279394E+00
          2   -1    0    0  501    0  0.00000000000E+00  0.00000000000E+00  0.75933920458E+02  0.75933920458E+02  0.00000000000E+00 0. -1.
         -2   -1    0    0    0  501 -0.00000000000E+00 -0.00000000000E+00 -0.18410644350E+03  0.18410644350E+03  0.00000000000E+00 0.  1.
         25    2    1    2    0    0  0.18102648123E+02 -0.29394187875E+02 -0.89265522830E+02  0.15750125669E+03  0.12508632276E+03 0.  0.
         23    2    1    2    0    0 -0.18102648123E+02  0.29394187875E+02 -0.18907000218E+02  0.10253910728E+03  0.94684052056E+02 0.  0.
          5    1    3    3  502    0 -0.34550526377E+02 -0.50571152148E+02 -0.78386757650E+02  0.99564735109E+02  0.41800000000E+01 0.  1.
         -5    1    3    3    0  502  0.52653174500E+02  0.21176964272E+02 -0.10878765180E+02  0.57936521578E+02  0.41800000000E+01 0.  1.
        -11    1    4    4    0    0  0.25184779452E+02  0.30131774420E+02 -0.38520928991E+02  0.55009625667E+02  0.00000000000E+00 0.  1.
         11    1    4    4    0    0 -0.43287427576E+02 -0.73758654476E+00  0.19613928773E+02  0.47529481608E+02  0.00000000000E+00 0. -1.
</event>
<event>
 8    1  0.6862919E-009  0.6765086E+02  0.7561462E-02  0.1368269E+00
          2   -1    0    0  501    0  0.00000000000E+00  0.00000000000E+00  0.56024398005E+03  0.56024398005E+03  0.00000000000E+00 0. -1.
         -2   -1    0    0    0  501 -0.00000000000E+00 -0.00000000000E+00 -0.31390446079E+02  0.31390446079E+02  0.00000000000E+00 0.  1.
         25    2    1    2    0    0 -0.25830150699E+02 -0.25194232691E+02  0.44772154731E+03  0.46626761463E+03  0.12509579723E+03 0.  0.
         23    2    1    2    0    0  0.25830150699E+02  0.25194232691E+02  0.81131986661E+02  0.12536681149E+03  0.88501367891E+02 0.  0.
          5    1    3    3  502    0 -0.89259079242E+01  0.17636877606E+02  0.45749366444E+01  0.20715543180E+02  0.41800000000E+01 0.  1.
         -5    1    3    3    0  502 -0.16904242774E+02 -0.42831110297E+02  0.44314661066E+03  0.44555207145E+03  0.41800000000E+01 0.  1.
        -11    1    4    4    0    0  0.40619193688E+02  0.32821252086E+02  0.91790399483E+02  0.10560601745E+03  0.00000000000E+00 0. -1.
         11    1    4    4    0    0 -0.14789042989E+02 -0.76270193949E+01 -0.10658412822E+02  0.19760794044E+02  0.00000000000E+00 0.  1.
</event>
<event>
 8    1  0.6862919E-009  0.8150844E+02  0.7561462E-02  0.1324824E+00
          2   -1    0    0  501    0  0.00000000000E+00  0.00000000000E+00  0.30957116924E+03  0.30957116924E+03  0.00000000000E+00 0. -1.
         -2   -1    0    0    0  501 -0.00000000000E+00 -0.00000000000E+00 -0.40825146256E+02  0.40825146256E+02  0.00000000000E+00 0.  1.
         25    2    1    2    0    0 -0.18107181163E+02 -0.18286571369E+02  0.18380728372E+03  0.22381756953E+03  0.12508764198E+03 0.  0.
         23    2    1    2    0    0  0.18107181163E+02  0.18286571369E+02  0.84938739258E+02  0.12657874597E+03  0.90251431021E+02 0.  0.
          5    1    3    3  502    0  0.29828121313E+02 -0.46229541964E+02  0.14723064479E+03  0.15722983984E+03  0.41800000000E+01 0. -1.
         -5    1    3    3    0  502 -0.47935302475E+02  0.27942970595E+02  0.36576638934E+02  0.66587729686E+02  0.41800000000E+01 0. -1.
        -11    1    4    4    0    0  0.28912462911E+02 -0.22429303687E+01 -0.85667676232E+01  0.30238233343E+02  0.00000000000E+00 0.  1.
         11    1    4    4    0    0 -0.10805281748E+02  0.20529501738E+02  0.93505506882E+02  0.96340512623E+02  0.00000000000E+00 0. -1.
</event>
<event>
 8    1  0.6862919E-009  0.2157611E+03  0.7561462E-02  0.1137083E+00
          1   -1    0    0  501    0  0.00000000000E+00  0.00000000000E+00  0.17266838308E+04  0.17266838308E+04  0.00000000000E+00 0. -1.
         -1   -1    0    0    0  501 -0.00000000000E+00 -0.00000000000E+00 -0.30354907083E+02  0.30354907083E+02  0.00000000000E+00 0.  1.
         25    2    1    2    0    0 -0.21983605346E+02  0.19988580139E+03  0.83742108005E+03  0.87026704860E+03  0.12511218196E+03 0.  0.
         23    2    1    2    0    0  0.21983605346E+02 -0.19988580139E+03  0.85890784370E+03  0.88677168931E+03  0.90574458295E+02 0.  0.
          5    1    3    3  502    0  0.37412904036E+02  0.24591277816E+02  0.94889240353E+02  0.10500426976E+03  0.41800000000E+01 0.  1.
         -5    1    3    3    0  502 -0.59396509382E+02  0.17529452357E+03  0.74253183969E+03  0.76526277884E+03  0.41800000000E+01 0.  1.
        -11    1    4    4    0    0 -0.14306643843E+01 -0.12786902782E+02  0.78422604379E+01  0.15068269048E+02  0.00000000000E+00 0.  1.
         11    1    4    4    0    0  0.23414269730E+02 -0.18709889861E+03  0.85106558326E+03  0.87170342026E+03  0.00000000000E+00 0. -1.
</event>
<event>
 8    1  0.6862919E-009  0.1300709E+03  0.7561462E-02  0.1227351E+00
          3   -1    0    0  501    0  0.00000000000E+00  0.00000000000E+00  0.50041492876E+02  0.50041492876E+02  0.00000000000E+00 0. -1.
         -3   -1    0    0    0  501 -0.00000000000E+00 -0.00000000000E+00 -0.40429683238E+03  0.40429683238E+03  0.00000000000E+00 0.  1.
         25    2    1    2    0    0 -0.29223559363E+02 -0.88755796992E+02 -0.18053438035E+03  0.23869501160E+03  0.12510410927E+03 0.  0.
         23    2    1    2    0    0  0.29223559363E+02  0.88755796992E+02 -0.17372095915E+03  0.21564331365E+03  0.87128979972E+02 0.  0.
          5    1    3    3  502    0  0.46577663519E+02 -0.14949489080E+02 -0.71288044025E+02  0.86558786865E+02  0.41800000000E+01 0.  1.
         -5    1    3    3    0  502 -0.75801222882E+02 -0.73806307912E+02 -0.10924633632E+03  0.15213622474E+03  0.41800000000E+01 0.  1.
        -11    1    4    4    0    0  0.42151779779E+02  0.57116950027E+02 -0.16608938305E+03  0.18062336970E+03  0.00000000000E+00 0.  1.
         11    1    4    4    0    0 -0.12928220416E+02  0.31638846965E+02 -0.76315761002E+01  0.35019943949E+02  0.00000000000E+00 0. -1.
</event>
<event>
 8    1  0.6862919E-009  0.1094630E+03  0.7561462E-02  0.1261568E+00
         -2   -1    0    0    0  501 -0.00000000000E+00  0.00000000000E+00  0.39397509835E+03  0.39397509835E+03  0.00000000000E+00 0.  1.
          2   -1    0    0  501    0  0.00000000000E+00 -0.00000000000E+00 -0.61949831366E+02  0.61949831366E+02  0.00000000000E+00 0. -1.
         25    2    1    2    0    0  0.48339212941E+02 -0.81590832179E+02  0.87662396427E+02  0.17979351458E+03  0.12508904322E+03 0.  0.
         23    2    1    2    0    0 -0.48339212941E+02  0.81590832179E+02  0.24436287056E+03  0.27613141514E+03  0.86842400449E+02 0.  0.
          5    1    3    3  502    0  0.64386326139E+02 -0.71371050652E+02  0.11262784088E+03  0.14812808243E+03  0.41800000000E+01 0.  1.
         -5    1    3    3    0  502 -0.16047113198E+02 -0.10219781526E+02 -0.24965444448E+02  0.31665432145E+02  0.41800000000E+01 0.  1.
        -11    1    4    4    0    0 -0.34479270227E+02  0.19491916859E+02  0.22990119117E+02  0.45796293248E+02  0.00000000000E+00 0. -1.
         11    1    4    4    0    0 -0.13859942714E+02  0.62098915320E+02  0.22137275144E+03  0.23033512189E+03  0.00000000000E+00 0.  1.
</event>
<event>
 8    1  0.6862919E-009  0.1475307E+03  0.7561462E-02  0.1203541E+00
         -1   -1    0    0    0  501 -0.00000000000E+00  0.00000000000E+00  0.31787720285E+03  0.31787720285E+03  0.00000000000E+00 0.  1.
          1   -1    0    0  501    0  0.00000000000E+00 -0.00000000000E+00 -0.74794305312E+02  0.74794305312E+02  0.00000000000E+00 0. -1.
         25    2    1    2    0    0  0.32893488472E+02  0.95796566115E+02  0.18711953543E+03  0.24681962453E+03  0.12508893976E+03 0.  0.
         23    2    1    2    0    0 -0.32893488472E+02 -0.95796566115E+02  0.55963362108E+02  0.14585188363E+03  0.88780123886E+02 0.  0.
          5    1    3    3  502    0  0.78032427392E+02  0.81863540234E+02  0.12420662840E+03  0.16803409738E+03  0.41800000000E+01 0.  1.
         -5    1    3    3    0  502 -0.45138938920E+02  0.13933025881E+02  0.62912907035E+02  0.78785527152E+02  0.41800000000E+01 0.  1.
        -11    1    4    4    0    0  0.25372585520E+02 -0.62268191408E+02  0.23773053863E+02  0.71317977027E+02  0.00000000000E+00 0. -1.
         11    1    4    4    0    0 -0.58266073992E+02 -0.33528374707E+02  0.32190308245E+02  0.74533906605E+02  0.00000000000E+00 0.  1.
</event>
<event>
 8    1  0.6862919E-009  0.9938779E+02  0.7561462E-02  0.1281589E+00
          1   -1    0    0  501    0  0.00000000000E+00  0.00000000000E+00  0.27576639304E+03  0.27576639304E+03  0.00000000000E+00 0. -1.
         -1   -1    0    0    0  501 -0.00000000000E+00 -0.00000000000E+00 -0.61211477005E+02  0.61211477005E+02  0.00000000000E+00 0.  1.
         25    2    1    2    0    0 -0.61409329137E+02  0.14389110157E+01  0.16610295275E+03  0.21682020943E+03  0.12509051177E+03 0.  0.
         23    2    1    2    0    0  0.61409329137E+02 -0.14389110157E+01  0.48451963286E+02  0.12015766061E+03  0.91198105726E+02 0.  0.
          5    1    3    3  502    0  0.26307054868E+02 -0.14049790373E+02  0.10369500396E+03  0.10797955358E+03  0.41800000000E+01 0.  1.
         -5    1    3    3    0  502 -0.87716384005E+02  0.15488701388E+02  0.62407948787E+02  0.10884065585E+03  0.41800000000E+01 0.  1.
        -11    1    4    4    0    0  0.65643727186E+02 -0.13227260195E+02  0.68962815620E+02  0.96124550815E+02  0.00000000000E+00 0. -1.
         11    1    4    4    0    0 -0.42343980482E+01  0.11788349179E+02 -0.20510852334E+02  0.24033109800E+02  0.00000000000E+00 0.  1.
</event>
<event>
 8    1  0.6862919E-009  0.1751395E+03  0.7561462E-02  0.1172592E+00
          1   -1    0    0  501    0  0.00000000000E+00  0.00000000000E+00  0.59059913376E+03  0.59059913376E+03  0.00000000000E+00 0. -1.
         -1   -1    0    0    0  501 -0.00000000000E+00 -0.00000000000E+00 -0.57111122295E+02  0.57111122295E+02  0.00000000000E+00 0.  1.
         25    2    1    2    0    0 -0.69227074336E+02 -0.13304677407E+03  0.33074451837E+03  0.38410010096E+03  0.12508844557E+03 0.  0.
         23    2    1    2    0    0  0.69227074336E+02  0.13304677407E+03  0.20274349309E+03  0.26361015509E+03  0.76756484830E+02 0.  0.
          5    1    3    3  502    0  0.31335676884E+02 -0.68931292898E+02  0.12183489783E+03  0.14350840573E+03  0.41800000000E+01 0. -1.
         -5    1    3    3    0  502 -0.10056275122E+03 -0.64115481175E+02  0.20890962055E+03  0.24059169524E+03  0.41800000000E+01 0. -1.
        -11    1    4    4    0    0  0.72149562405E+02  0.10794819564E+03  0.11894889549E+03  0.17608864823E+03  0.00000000000E+00 0.  1.
         11    1    4    4    0    0 -0.29224880691E+01  0.25098578436E+02  0.83794597606E+02  0.87521506865E+02  0.00000000000E+00 0. -1.
</event>
<event>
 8    1  0.6862919E-009  0.3258834E+03  0.7561462E-02  0.1072973E+00
          1   -1    0    0  501    0  0.00000000000E+00  0.00000000000E+00  0.61192288054E+03  0.61192288054E+03  0.00000000000E+00 0. -1.
         -1   -1    0    0    0  501 -0.00000000000E+00 -0.00000000000E+00 -0.19003711136E+03  0.19003711136E+03  0.00000000000E+00 0.  1.
         25    2    1    2    0    0  0.24286120557E+03  0.18672094823E+03  0.10698327459E+03  0.34776062621E+03  0.12508299014E+03 0.  0.
         23    2    1    2    0    0 -0.24286120557E+03 -0.18672094823E+03  0.31490249459E+03  0.45419936569E+03  0.11527013929E+03 0.  0.
          5    1    3    3  502    0  0.15177460432E+02 -0.16310448818E+02 -0.41806158786E+01  0.23050726560E+02  0.41800000000E+01 0.  1.
         -5    1    3    3    0  502  0.22768374514E+03  0.20303139705E+03  0.11116389046E+03  0.32470989965E+03  0.41800000000E+01 0.  1.
        -11    1    4    4    0    0 -0.20022034016E+03 -0.92430684417E+02  0.24323866804E+03  0.32832402542E+03  0.00000000000E+00 0. -1.
         11    1    4    4    0    0 -0.42640865411E+02 -0.94290263811E+02  0.71663826553E+02  0.12587534027E+03  0.00000000000E+00 0.  1.
</event>
<event>
 8    1  0.6862919E-009  0.1284896E+03  0.7561462E-02  0.1229714E+00
          1   -1    0    0  501    0  0.00000000000E+00  0.00000000000E+00  0.35167878354E+03  0.35167878354E+03  0.00000000000E+00 0. -1.
         -1   -1    0    0    0  501 -0.00000000000E+00 -0.00000000000E+00 -0.82075079891E+02  0.82075079891E+02  0.00000000000E+00 0.  1.
         25    2    1    2    0    0  0.96624647357E+02  0.29409319559E+02  0.36347567703E+02  0.16480505725E+03  0.12505331128E+03 0.  0.
         23    2    1    2    0    0 -0.96624647357E+02 -0.29409319559E+02  0.23325613595E+03  0.26894880618E+03  0.87885179842E+02 0.  0.
          5    1    3    3  502    0  0.10844427338E+03 -0.12913519048E+02  0.27369265368E+01  0.10932466588E+03  0.41800000000E+01 0.  1.
         -5    1    3    3    0  502 -0.11819626020E+02  0.42322838607E+02  0.33610641166E+02  0.55480391371E+02  0.41800000000E+01 0.  1.
        -11    1    4    4    0    0 -0.53094597154E+02 -0.27930444659E+02  0.21230124511E+03  0.22061496926E+03  0.00000000000E+00 0. -1.
         11    1    4    4    0    0 -0.43530050203E+02 -0.14788749001E+01  0.20954890836E+02  0.48333836922E+02  0.00000000000E+00 0.  1.
</event>
<event>
 8    1  0.6862919E-009  0.1097673E+03  0.7561462E-02  0.1261001E+00
         -2   -1    0    0    0  501 -0.00000000000E+00  0.00000000000E+00  0.28935397736E+02  0.28935397736E+02  0.00000000000E+00 0.  1.
          2   -1    0    0  501    0  0.00000000000E+00 -0.00000000000E+00 -0.47998680252E+03  0.47998680252E+03  0.00000000000E+00 0. -1.
         25    2    1    2    0    0  0.26520952744E+02  0.37453880964E+02 -0.24835218061E+03  0.28183839571E+03  0.12509165258E+03 0.  0.
         23    2    1    2    0    0 -0.26520952744E+02 -0.37453880964E+02 -0.20269922417E+03  0.22708380455E+03  0.91509150771E+02 0.  0.
          5    1    3    3  502    0  0.55763524047E+01  0.81333258796E+02 -0.12621577297E+03  0.15031330094E+03  0.41800000000E+01 0. -1.
         -5    1    3    3    0  502  0.20944600339E+02 -0.43879377832E+02 -0.12213640764E+03  0.13152509477E+03  0.41800000000E+01 0. -1.
        -11    1    4    4    0    0 -0.30872130382E+02  0.16478388923E+02 -0.13980445724E+03  0.14411770189E+03  0.00000000000E+00 0. -1.
         11    1    4    4    0    0  0.43511776377E+01 -0.53932269887E+02 -0.62894766937E+02  0.82966102657E+02  0.00000000000E+00 0.  1.
</event>
<event>
 8    1  0.6862919E-009  0.1465338E+03  0.7561462E-02  0.1204798E+00
         -1   -1    0    0    0  501 -0.00000000000E+00  0.00000000000E+00  0.95761125924E+03  0.95761125924E+03  0.00000000000E+00 0.  1.
          1   -1    0    0  501    0  0.00000000000E+00 -0.00000000000E+00 -0.27956217494E+02  0.27956217494E+02  0.00000000000E+00 0. -1.
         25    2    1    2    0    0  0.88526220467E+01 -0.11968353018E+03  0.55381458951E+03  0.58031137739E+03  0.12509268111E+03 0.  0.
         23    2    1    2    0    0 -0.88526220467E+01  0.11968353018E+03  0.37584045225E+03  0.40525609935E+03  0.92595594934E+02 0.  0.
          5    1    3    3  502    0 -0.18226410701E+02  0.19518389013E+01  0.79924054255E+01  0.20429455857E+02  0.41800000000E+01 0.  1.
         -5    1    3    3    0  502  0.27079032748E+02 -0.12163536908E+03  0.54582218408E+03  0.55988192153E+03  0.41800000000E+01 0.  1.
        -11    1    4    4    0    0  0.40424636596E+02  0.52170830961E+02  0.13384846707E+03  0.14923591721E+03  0.00000000000E+00 0. -1.
         11    1    4    4    0    0 -0.49277258643E+02  0.67512699217E+02  0.24199198517E+03  0.25602018214E+03  0.00000000000E+00 0.  1.
</event>
<event>
 8    1  0.6862919E-009  0.1396075E+03  0.7561462E-02  0.1213858E+00
          1   -1    0    0  501    0  0.00000000000E+00  0.00000000000E+00  0.62961326760E+03  0.62961326760E+03  0.00000000000E+00 0. -1.
         -1   -1    0    0    0  501 -0.00000000000E+00 -0.00000000000E+00 -0.39431889838E+02  0.39431889838E+02  0.00000000000E+00 0.  1.
         25    2    1    2    0    0 -0.10751902936E+03  0.35852422649E+02  0.28058154131E+03  0.32744209772E+03  0.12508632279E+03 0.  0.
         23    2    1    2    0    0  0.10751902936E+03 -0.35852422649E+02  0.30959983646E+03  0.34160305972E+03  0.89413946306E+02 0.  0.
          5    1    3    3  502    0 -0.88406150663E+02 -0.29763674725E+02  0.20612542779E+03  0.22628894845E+03  0.41800000000E+01 0. -1.
         -5    1    3    3    0  502 -0.19112878697E+02  0.65616097375E+02  0.74456113517E+02  0.10115314927E+03  0.41800000000E+01 0. -1.
        -11    1    4    4    0    0  0.12614575475E+02 -0.16060688431E+02  0.37598156985E+01  0.20765583097E+02  0.00000000000E+00 0.  1.
         11    1    4    4    0    0  0.94904453885E+02 -0.19791734219E+02  0.30584002076E+03  0.32083747663E+03  0.00000000000E+00 0. -1.
</event>
<event>
 8    1  0.6862919E-009  0.1371701E+03  0.7561462E-02  0.1217188E+00
         -2   -1    0    0    0  501 -0.00000000000E+00  0.00000000000E+00  0.37680201413E+02  0.37680201413E+02  0.00000000000E+00 0. -1.
          2   -1    0    0  501    0  0.00000000000E+00 -0.00000000000E+00 -0.59967959680E+03  0.59967959680E+03  0.00000000000E+00 0.  1.
         25    2    1    2    0    0  0.44568893659E+02  0.85384391639E+02 -0.37867119118E+03  0.41026855006E+03  0.12510608106E+03 0.  0.
         23    2    1    2    0    0 -0.44568893659E+02 -0.85384391639E+02 -0.18332820420E+03  0.22709124815E+03  0.93189720001E+02 0.  0.
          5    1    3    3  502    0 -0.40899139132E+02  0.47730622343E+02 -0.17987228805E+03  0.19058453321E+03  0.41800000000E+01 0.  1.
         -5    1    3    3    0  502  0.85468032792E+02  0.37653769296E+02 -0.19879890314E+03  0.21968401685E+03  0.41800000000E+01 0.  1.
        -11    1    4    4    0    0 -0.36966202202E+02 -0.52207000446E+01 -0.14512702264E+02  0.40054641943E+02  0.00000000000E+00 0. -1.
         11    1    4    4    0    0 -0.76026914574E+01 -0.80163691595E+02 -0.16881550194E+03  0.18703660621E+03  0.00000000000E+00 0.  1.
</event>
<event>
 8    1  0.6862919E-009  0.1174591E+03  0.7561462E-02  0.1247348E+00
         -1   -1    0    0    0  501 -0.00000000000E+00  0.00000000000E+00  0.28810730781E+02  0.28810730781E+02  0.00000000000E+00 0.  1.
          1   -1    0    0  501    0  0.00000000000E+00 -0.00000000000E+00 -0.11281397178E+04  0.11281397178E+04  0.00000000000E+00 0. -1.
         25    2    1    2    0    0 -0.55743448470E+02 -0.41184021023E+02 -0.98491566676E+03  0.99524359980E+03  0.12508995433E+03 0.  0.
         23    2    1    2    0    0  0.55743448470E+02  0.41184021023E+02 -0.11441332029E+03  0.16170684882E+03  0.90858359322E+02 0.  0.
          5    1    3    3  502    0 -0.70447764467E+02  0.19745502207E+02 -0.37437966071E+03  0.38148443628E+03  0.41800000000E+01 0.  1.
         -5    1    3    3    0  502  0.14704315997E+02 -0.60929523230E+02 -0.61053600605E+03  0.61375916351E+03  0.41800000000E+01 0.  1.
        -11    1    4    4    0    0  0.72404681297E+02  0.28228343008E+02 -0.46438203515E+02  0.90530569248E+02  0.00000000000E+00 0.  1.
         11    1    4    4    0    0 -0.16661232827E+02  0.12955678015E+02 -0.67975116779E+02  0.71176279569E+02  0.00000000000E+00 0. -1.
</event>
<event>
 8    1  0.6862919E-009  0.1099320E+03  0.7561462E-02  0.1260696E+00
         -1   -1    0    0    0  501 -0.00000000000E+00  0.00000000000E+00  0.39700763491E+02  0.39700763491E+02  0.00000000000E+00 0.  1.
          1   -1    0    0  501    0  0.00000000000E+00 -0.00000000000E+00 -0.36145015286E+03  0.36145015286E+03  0.00000000000E+00 0. -1.
         25    2    1    2    0    0  0.39632707261E+02 -0.30973330518E+02 -0.18401616603E+03  0.22809188588E+03  0.12503543641E+03 0.  0.
         23    2    1    2    0    0 -0.39632707261E+02  0.30973330518E+02 -0.13773322334E+03  0.17305903047E+03  0.91917835738E+02 0.  0.
          5    1    3    3  502    0  0.56913111718E+02 -0.62739063004E+02 -0.16826035509E+03  0.18842587881E+03  0.41800000000E+01 0.  1.
         -5    1    3    3    0  502 -0.17280404457E+02  0.31765732486E+02 -0.15755810943E+02  0.39666007072E+02  0.41800000000E+01 0.  1.
        -11    1    4    4    0    0 -0.52992823425E+01  0.55946026290E+02 -0.48460979131E+02  0.74205840399E+02  0.00000000000E+00 0.  1.
         11    1    4    4    0    0 -0.34333424919E+02 -0.24972695772E+02 -0.89272244210E+02  0.98853190070E+02  0.00000000000E+00 0. -1.
</event>
<event>
 8    1  0.6862919E-009  0.1551763E+03  0.7561462E-02  0.1194253E+00
          2   -1    0    0  501    0  0.00000000000E+00  0.00000000000E+00  0.50702674697E+03  0.50702674697E+03  0.00000000000E+00 0.  1.
         -2   -1    0    0    0  501 -0.00000000000E+00 -0.00000000000E+00 -0.11870252073E+03  0.11870252073E+03  0.00000000000E+00 0. -1.
         25    2    1    2    0    0  0.12425934891E+03 -0.19811494078E+02  0.42865727214E+03  0.46392623453E+03  0.12509041944E+03 0.  0.
         23    2    1    2    0    0 -0.12425934891E+03  0.19811494078E+02 -0.40333045899E+02  0.16180303318E+03  0.93384077138E+02 0.  0.
          5    1    3    3  502    0 -0.20597064540E+02 -0.24677468797E+02  0.76031418743E+02  0.82652680356E+02  0.41800000000E+01 0. -1.
         -5    1    3    3    0  502  0.14485641345E+03  0.48659747190E+01  0.35262585339E+03  0.38127355417E+03  0.41800000000E+01 0. -1.
        -11    1    4    4    0    0 -0.95351725541E+02 -0.40773016719E+01  0.13298522230E+02  0.96360918665E+02  0.00000000000E+00 0.  1.
         11    1    4    4    0    0 -0.28907623374E+02  0.23888795750E+02 -0.53631568129E+02  0.65442114510E+02  0.00000000000E+00 0. -1.
</event>
<event>
 8    1  0.6862919E-009  0.1538982E+03  0.7561462E-02  0.1195763E+00
         -1   -1    0    0    0  501 -0.00000000000E+00  0.00000000000E+00  0.18939438014E+03  0.18939438014E+03  0.00000000000E+00 0.  1.
          1   -1    0    0  501    0  0.00000000000E+00 -0.00000000000E+00 -0.16877987085E+03  0.16877987085E+03  0.00000000000E+00 0. -1.
         25    2    1    2    0    0 -0.29152444329E+02  0.13465579106E+03  0.43956470203E+02  0.19120950783E+03  0.12508739959E+03 0.  0.
         23    2    1    2    0    0  0.29152444329E+02 -0.13465579106E+03 -0.23341960917E+02  0.16696474316E+03  0.91380146869E+02 0.  0.
          5    1    3    3  502    0 -0.26361423845E+02 -0.69185827048E+01 -0.21683504420E+02  0.35077602793E+02  0.41800000000E+01 0. -1.
         -5    1    3    3    0  502 -0.27910204838E+01  0.14157437376E+03  0.65639974622E+02  0.15613190504E+03  0.41800000000E+01 0. -1.
        -11    1    4    4    0    0  0.21716719748E+02 -0.12169576491E+03 -0.52419316412E+02  0.13427307938E+03  0.00000000000E+00 0. -1.
         11    1    4    4    0    0  0.74357245812E+01 -0.12960026152E+02  0.29077355495E+02  0.32691663777E+02  0.00000000000E+00 0.  1.
</event>
<event>
 8    1  0.6862919E-009  0.8178477E+02  0.7561462E-02  0.1324061E+00
         -2   -1    0    0    0  501 -0.00000000000E+00  0.00000000000E+00  0.42183860123E+03  0.42183860123E+03  0.00000000000E+00 0.  1.
          2   -1    0    0  501    0  0.00000000000E+00 -0.00000000000E+00 -0.44643224483E+02  0.44643224483E+02  0.00000000000E+00 0. -1.
         25    2    1    2    0    0  0.65441888777E+02  0.35466534665E+02  0.28282591224E+03  0.31808481205E+03  0.12508770975E+03 0.  0.
         23    2    1    2    0    0 -0.65441888777E+02 -0.35466534665E+02  0.94369464504E+02  0.14839701367E+03  0.87037704169E+02 0.  0.
          5    1    3    3  502    0  0.60338283936E+02  0.25730078063E+02  0.44287273618E+02  0.79256422011E+02  0.41800000000E+01 0.  1.
         -5    1    3    3    0  502  0.51036048404E+01  0.97364566016E+01  0.23853863863E+03  0.23882839004E+03  0.41800000000E+01 0.  1.
        -11    1    4    4    0    0 -0.38122585626E+02  0.37277623639E+01 -0.45212158689E+01  0.38570314232E+02  0.00000000000E+00 0. -1.
         11    1    4    4    0    0 -0.27319303151E+02 -0.39194297029E+02  0.98890680373E+02  0.10982669944E+03  0.00000000000E+00 0.  1.
</event>
<event>
 8    1  0.6862919E-009  0.9594340E+02  0.7561462E-02  0.1289065E+00
         -1   -1    0    0    0  501 -0.00000000000E+00  0.00000000000E+00  0.15310709430E+03  0.15310709430E+03  0.00000000000E+00 0.  1.
          1   -1    0    0  501    0  0.00000000000E+00 -0.00000000000E+00 -0.79279810461E+02  0.79279810461E+02  0.00000000000E+00 0. -1.
         25    2    1    2    0    0  0.18327634502E+02  0.99115760431E+01  0.40669336555E+02  0.13317759400E+03  0.12509250609E+03 0.  0.
         23    2    1    2    0    0 -0.18327634502E+02 -0.99115760431E+01  0.33157947288E+02  0.99209310768E+02  0.91153147771E+02 0.  0.
          5    1    3    3  502    0 -0.47694531726E+02  0.28350460712E+02  0.31368496341E+02  0.63874658057E+02  0.41800000000E+01 0. -1.
         -5    1    3    3    0  502  0.66022166228E+02 -0.18438884669E+02  0.93008402145E+01  0.69302935941E+02  0.41800000000E+01 0. -1.
        -11    1    4    4    0    0 -0.41736164065E+02  0.98717902283E+00 -0.15167694405E+02  0.44417798986E+02  0.00000000000E+00 0. -1.
         11    1    4    4    0    0  0.23408529562E+02 -0.10898755066E+02  0.48325641693E+02  0.54791511781E+02  0.00000000000E+00 0.  1.
</event>
<event>
 8    1  0.6862919E-009  0.1241874E+03  0.7561462E-02  0.1236345E+00
          4   -1    0    0  501    0  0.00000000000E+00  0.00000000000E+00  0.23840373244E+03  0.23840373244E+03  0.00000000000E+00 0.  1.
         -4   -1    0    0    0  501 -0.00000000000E+00 -0.00000000000E+00 -0.99093127920E+02  0.99093127920E+02  0.00000000000E+00 0. -1.
         25    2    1    2    0    0  0.27918892796E+02  0.95601439463E+02  0.12413712015E+03  0.20243128740E+03  0.12509716910E+03 0.  0.
         23    2    1    2    0    0 -0.27918892796E+02 -0.95601439463E+02  0.15173484369E+02  0.13506557296E+03  0.89963184516E+02 0.  0.
          5    1    3    3  502    0 -0.35812226816E+02  0.52622015729E+02  0.97180564880E+01  0.64525228793E+02  0.41800000000E+01 0. -1.
         -5    1    3    3    0  502  0.63731119612E+02  0.42979423735E+02  0.11441906366E+03  0.13790605861E+03  0.41800000000E+01 0. -1.
        -11    1    4    4    0    0  0.84003275956E+01 -0.42154576281E+02  0.46440276634E+02  0.63279326000E+02  0.00000000000E+00 0.  1.
         11    1    4    4    0    0 -0.36319220392E+02 -0.53446863182E+02 -0.31266792265E+02  0.71786246959E+02  0.00000000000E+00 0. -1.
</event>
<event>
 8    1  0.6862919E-009  0.7700152E+02  0.7561462E-02  0.1337783E+00
         -2   -1    0    0    0  501 -0.00000000000E+00  0.00000000000E+00  0.86953202743E+02  0.86953202743E+02  0.00000000000E+00 0. -1.
          2   -1    0    0  501    0  0.00000000000E+00 -0.00000000000E+00 -0.16517189981E+03  0.16517189981E+03  0.00000000000E+00 0.  1.
         25    2    1    2    0    0  0.46193806179E+02  0.12128341248E+02 -0.46576485167E+02  0.14176811899E+03  0.12509143137E+03 0.  0.
         23    2    1    2    0    0 -0.46193806179E+02 -0.12128341248E+02 -0.31642211896E+02  0.11035698356E+03  0.94321099734E+02 0.  0.
          5    1    3    3  502    0 -0.19182096467E+02  0.29467557108E+01  0.32862498180E+02  0.38393389805E+02  0.41800000000E+01 0. -1.
         -5    1    3    3    0  502  0.65375902646E+02  0.91815855376E+01 -0.79438983347E+02  0.10337472919E+03  0.41800000000E+01 0. -1.
        -11    1    4    4    0    0 -0.34522161824E+01 -0.23516432821E+02  0.27599692858E+02  0.36423666140E+02  0.00000000000E+00 0.  1.
         11    1    4    4    0    0 -0.42741589996E+02  0.11388091573E+02 -0.59241904754E+02  0.73933317415E+02  0.00000000000E+00 0. -1.
</event>
<event>
 7    1  0.6862919E-009  0.1143951E+03  0.7561462E-02  0.1252641E+00
          2   -1    0    0  501    0  0.00000000000E+00  0.00000000000E+00  0.68732894440E+03  0.68732894440E+03  0.00000000000E+00 0. -1.
         -2   -1    0    0    0  501 -0.00000000000E+00 -0.00000000000E+00 -0.45660088079E+02  0.45660088079E+02  0.00000000000E+00 0.  1.
         25    2    1    2    0    0 -0.84429348995E+01  0.56234166391E+02  0.13923554994E+03  0.19562240863E+03  0.12509206118E+03 0.  0.
          5    1    3    3  502    0 -0.32975245314E+01 -0.65877752784E+01 -0.21398262235E+02  0.23013701959E+02  0.41800000000E+01 0. -1.
         -5    1    3    3    0  502 -0.51454103681E+01  0.62821941669E+02  0.16063381218E+03  0.17260870667E+03  0.41800000000E+01 0. -1.
        -11    1    1    2    0    0 -0.63362966284E+02  0.39089996239E+01  0.36851211762E+03  0.37394027144E+03  0.00000000000E+00 0. -1.
         11    1    1    2    0    0  0.71805901183E+02 -0.60143166015E+02  0.13392118876E+03  0.16342635241E+03  0.00000000000E+00 0.  1.
</event>
<event>
 8    1  0.6862919E-009  0.1837012E+03  0.7561462E-02  0.1164268E+00
          2   -1    0    0  501    0  0.00000000000E+00  0.00000000000E+00  0.32821258807E+03  0.32821258807E+03  0.00000000000E+00 0. -1.
         -2   -1    0    0    0  501 -0.00000000000E+00 -0.00000000000E+00 -0.12173768936E+03  0.12173768936E+03  0.00000000000E+00 0.  1.
         25    2    1    2    0    0 -0.12081637357E+03 -0.99950774131E+02  0.17303318595E+03  0.26490698758E+03  0.12509386578E+03 0.  0.
         23    2    1    2    0    0  0.12081637357E+03  0.99950774131E+02  0.33441712758E+02  0.18504328985E+03  0.92390029730E+02 0.  0.
          5    1    3    3  502    0 -0.13486225870E+03 -0.43404040843E+02  0.13031585192E+03  0.19253943296E+03  0.41800000000E+01 0. -1.
         -5    1    3    3    0  502  0.14045885132E+02 -0.56546733288E+02  0.42717334034E+02  0.72367554620E+02  0.41800000000E+01 0. -1.
        -11    1    4    4    0    0  0.11148112909E+03  0.60760094598E+02 -0.80394601522E+01  0.12721817543E+03  0.00000000000E+00 0.  1.
         11    1    4    4    0    0  0.93352444755E+01  0.39190679533E+02  0.41481172910E+02  0.57825114420E+02  0.00000000000E+00 0. -1.
</event>
<event>
 8    1  0.6862919E-009  0.7523968E+02  0.7561462E-02  0.1343130E+00
         -3   -1    0    0    0  501 -0.00000000000E+00  0.00000000000E+00  0.34868942372E+03  0.34868942372E+03  0.00000000000E+00 0.  1.
          3   -1    0    0  501    0  0.00000000000E+00 -0.00000000000E+00 -0.34796899516E+02  0.34796899516E+02  0.00000000000E+00 0. -1.
         25    2    1    2    0    0  0.81031449878E+01  0.36281896685E+01  0.19874749833E+03  0.23498913227E+03  0.12506198252E+03 0.  0.
         23    2    1    2    0    0 -0.81031449878E+01 -0.36281896685E+01  0.11514502587E+03  0.14849719097E+03  0.93349954599E+02 0.  0.
          5    1    3    3  502    0 -0.32499719713E+02  0.20208701717E+02  0.81306540525E+01  0.39347215172E+02  0.41800000000E+01 0. -1.
         -5    1    3    3    0  502  0.40602864701E+02 -0.16580512049E+02  0.19061684428E+03  0.19564191710E+03  0.41800000000E+01 0. -1.
        -11    1    4    4    0    0  0.36888063526E+01  0.31064567343E+02  0.10629340818E+03  0.11080118798E+03  0.00000000000E+00 0.  1.
         11    1    4    4    0    0 -0.11791951340E+02 -0.34692757011E+02  0.88516176985E+01  0.37696002989E+02  0.00000000000E+00 0. -1.
</event>
<event>
 8    1  0.6862919E-009  0.1075566E+03  0.7561462E-02  0.1265163E+00
         -1   -1    0    0    0  501 -0.00000000000E+00  0.00000000000E+00  0.86440656321E+03  0.86440656321E+03  0.00000000000E+00 0.  1.
          1   -1    0    0  501    0  0.00000000000E+00 -0.00000000000E+00 -0.30455875415E+02  0.30455875415E+02  0.00000000000E+00 0. -1.
         25    2    1    2    0    0 -0.64284322477E+02  0.29443835068E+02  0.72229157363E+03  0.73644572916E+03  0.12509109128E+03 0.  0.
         23    2    1    2    0    0  0.64284322477E+02 -0.29443835068E+02  0.11165911416E+03  0.15841670946E+03  0.87342329497E+02 0.  0.
          5    1    3    3  502    0 -0.43908637753E+02 -0.40576301003E+02  0.19170546933E+03  0.20085533113E+03  0.41800000000E+01 0. -1.
         -5    1    3    3    0  502 -0.20375684724E+02  0.70020136071E+02  0.53058610430E+03  0.53559039803E+03  0.41800000000E+01 0. -1.
        -11    1    4    4    0    0 -0.30091979199E+01 -0.12342681725E+02 -0.11433808360E+02  0.17091782759E+02  0.00000000000E+00 0. -1.
         11    1    4    4    0    0  0.67293520397E+02 -0.17101153343E+02  0.12309292252E+03  0.14132492670E+03  0.00000000000E+00 0.  1.
</event>
<event>
 8    1  0.6862919E-009  0.1611456E+03  0.7561462E-02  0.1187409E+00
         -1   -1    0    0    0  501 -0.00000000000E+00  0.00000000000E+00  0.65861530178E+02  0.65861530178E+02  0.00000000000E+00 0. -1.
          1   -1    0    0  501    0  0.00000000000E+00 -0.00000000000E+00 -0.61416498578E+03  0.61416498578E+03  0.00000000000E+00 0.  1.
         25    2    1    2    0    0  0.19790323189E+02 -0.12952376951E+03 -0.10446709821E+03  0.20911427746E+03  0.12508933875E+03 0.  0.
         23    2    1    2    0    0 -0.19790323189E+02  0.12952376951E+03 -0.44383635739E+03  0.47091223850E+03  0.87175457960E+02 0.  0.
          5    1    3    3  502    0  0.30595542342E+02  0.16256477135E+02 -0.19147353620E+02  0.39805198287E+02  0.41800000000E+01 0. -1.
         -5    1    3    3    0  502 -0.10805219154E+02 -0.14578024664E+03 -0.85319744591E+02  0.16930907917E+03  0.41800000000E+01 0. -1.
        -11    1    4    4    0    0  0.17139929168E+02  0.25115852055E+02 -0.30777928223E+02  0.43265044344E+02  0.00000000000E+00 0. -1.
         11    1    4    4    0    0 -0.36930252357E+02  0.10440791745E+03 -0.41305842916E+03  0.42764719416E+03  0.00000000000E+00 0.  1.
</event>
<event>
 8    1  0.6862919E-009  0.9528800E+02  0.7561462E-02  0.1290529E+00
         -1   -1    0    0    0  501 -0.00000000000E+00  0.00000000000E+00  0.30880148905E+02  0.30880148905E+02  0.00000000000E+00 0.  1.
          1   -1    0    0  501    0  0.00000000000E+00 -0.00000000000E+00 -0.44565683919E+03  0.44565683919E+03  0.00000000000E+00 0. -1.
         25    2    1    2    0    0 -0.34466927376E+02  0.24654364910E+02 -0.26850531894E+03  0.29922850214E+03  0.12508710325E+03 0.  0.
         23    2    1    2    0    0  0.34466927376E+02 -0.24654364910E+02 -0.14627137134E+03  0.17730848595E+03  0.90813976489E+02 0.  0.
          5    1    3    3  502    0  0.27894312200E+02  0.12784713447E+01 -0.66538167165E+01  0.29008150906E+02  0.41800000000E+01 0.  1.
         -5    1    3    3    0  502 -0.62361239576E+02  0.23375893566E+02 -0.26185150223E+03  0.27022035123E+03  0.41800000000E+01 0.  1.
        -11    1    4    4    0    0  0.48926812602E+02  0.16781928040E+02 -0.10507135611E+03  0.11711300515E+03  0.00000000000E+00 0. -1.
         11    1    4    4    0    0 -0.14459885226E+02 -0.41436292951E+02 -0.41200015223E+02  0.60195480799E+02  0.00000000000E+00 0.  1.
</event>
<event>
 8    1  0.6862919E-009  0.1447660E+03  0.7561462E-02  0.1207056E+00
         -2   -1    0    0    0  501 -0.00000000000E+00  0.00000000000E+00  0.24710405648E+02  0.24710405648E+02  0.00000000000E+00 0.  1.
          2   -1    0    0  501    0  0.00000000000E+00 -0.00000000000E+00 -0.97896197478E+03  0.97896197478E+03  0.00000000000E+00 0. -1.
         25    2    1    2    0    0  0.11026976009E+03  0.32959225364E+01 -0.54408251732E+03  0.56908195280E+03  0.12513273056E+03 0.  0.
         23    2    1    2    0    0 -0.11026976009E+03 -0.32959225364E+01 -0.41016905181E+03  0.43459042763E+03  0.91977745264E+02 0.  0.
          5    1    3    3  502    0  0.13210639267E+03  0.26329445041E+02 -0.44422570134E+03  0.46421900520E+03  0.41800000000E+01 0. -1.
         -5    1    3    3    0  502 -0.21836632584E+02 -0.23033522505E+02 -0.99856815979E+02  0.10486294760E+03  0.41800000000E+01 0. -1.
        -11    1    4    4    0    0 -0.44939005055E+02 -0.27949439729E+02 -0.72403484449E+02  0.89682495041E+02  0.00000000000E+00 0.  1.
         11    1    4    4    0    0 -0.65330755034E+02  0.24653517193E+02 -0.33776556737E+03  0.34490793259E+03  0.00000000000E+00 0. -1.
</event>
<event>
 8    1  0.6862919E-009  0.1337716E+03  0.7561462E-02  0.1221964E+00
         -1   -1    0    0    0  501 -0.00000000000E+00  0.00000000000E+00  0.28546350780E+02  0.28546350780E+02  0.00000000000E+00 0.  1.
          1   -1    0    0  501    0  0.00000000000E+00 -0.00000000000E+00 -0.65368969954E+03  0.65368969954E+03  0.00000000000E+00 0. -1.
         25    2    1    2    0    0 -0.64402690414E+02  0.54577421446E+02 -0.31064320079E+03  0.34535979736E+03  0.12509112666E+03 0.  0.
         23    2    1    2    0    0  0.64402690414E+02 -0.54577421446E+02 -0.31450014797E+03  0.33687625296E+03  0.86306808954E+02 0.  0.
          5    1    3    3  502    0  0.33356632962E+02 -0.63294772881E+01 -0.52583174899E+02  0.62731092193E+02  0.41800000000E+01 0. -1.
         -5    1    3    3    0  502 -0.97759323377E+02  0.60906898734E+02 -0.25806002589E+03  0.28262870516E+03  0.41800000000E+01 0. -1.
        -11    1    4    4    0    0  0.39674494077E+02 -0.75759000175E+02 -0.19318011799E+03  0.21126298676E+03  0.00000000000E+00 0.  1.
         11    1    4    4    0    0  0.24728196338E+02  0.21181578729E+02 -0.12132002998E+03  0.12561326620E+03  0.00000000000E+00 0. -1.
</event>
<event>
 8    1  0.6862919E-009  0.1930294E+03  0.7561462E-02  0.1155757E+00
          2   -1    0    0  501    0  0.00000000000E+00  0.00000000000E+00  0.33563717345E+04  0.33563717345E+04  0.00000000000E+00 0. -1.
         -2   -1    0    0    0  501 -0.00000000000E+00 -0.00000000000E+00 -0.16564112653E+02  0.16564112653E+02  0.00000000000E+00 0.  1.
         25    2    1    2    0    0  0.13738607813E+03  0.83729692580E+02  0.26793753011E+04  0.26871146962E+04  0.12509112868E+03 0.  0.
         23    2    1    2    0    0 -0.13738607813E+03 -0.83729692580E+02  0.66043232067E+03  0.68582115088E+03  0.91072525639E+02 0.  0.
          5    1    3    3  502    0  0.15936257091E+03  0.83967509293E+02  0.24646023959E+04  0.24711797616E+04  0.41800000000E+01 0. -1.
         -5    1    3    3    0  502 -0.21976492774E+02 -0.23781671292E+00  0.21477290521E+03  0.21593493465E+03  0.41800000000E+01 0. -1.
        -11    1    4    4    0    0 -0.66583189606E+02  0.86214643300E+01  0.28309396348E+03  0.29094646061E+03  0.00000000000E+00 0.  1.
         11    1    4    4    0    0 -0.70802888528E+02 -0.92351156910E+02  0.37733835719E+03  0.39487469026E+03  0.00000000000E+00 0. -1.
</event>
<event>
 8    1  0.6862919E-009  0.1033354E+03  0.7561462E-02  0.1273434E+00
         -1   -1    0    0    0  501 -0.00000000000E+00  0.00000000000E+00  0.11847293464E+03  0.11847293464E+03  0.00000000000E+00 0.  1.
          1   -1    0    0  501    0  0.00000000000E+00 -0.00000000000E+00 -0.10477853779E+03  0.10477853779E+03  0.00000000000E+00 0. -1.
         25    2    1    2    0    0 -0.12633269059E+02  0.40228125365E+01  0.28841493558E+02  0.12905686632E+03  0.12509220793E+03 0.  0.
         23    2    1    2    0    0  0.12633269059E+02 -0.40228125365E+01 -0.15147096713E+02  0.94194606114E+02  0.92018513215E+02 0.  0.
          5    1    3    3  502    0 -0.57772712264E+02 -0.22452968563E+02  0.41933404815E+02  0.74951350349E+02  0.41800000000E+01 0.  1.
         -5    1    3    3    0  502  0.45139443205E+02  0.26475781100E+02 -0.13091911257E+02  0.54105515967E+02  0.41800000000E+01 0.  1.
        -11    1    4    4    0    0  0.33000569329E+02  0.34954833074E+02 -0.13045370461E+01  0.48089289329E+02  0.00000000000E+00 0.  1.
         11    1    4    4    0    0 -0.20367300270E+02 -0.38977645611E+02 -0.13842559667E+02  0.46105316784E+02  0.00000000000E+00 0. -1.
</event>
<event>
 8    1  0.6862919E-009  0.9312651E+02  0.7561462E-02  0.1295452E+00
         -1   -1    0    0    0  501 -0.00000000000E+00  0.00000000000E+00  0.69272934906E+02  0.69272934906E+02  0.00000000000E+00 0.  1.
          1   -1    0    0  501    0  0.00000000000E+00 -0.00000000000E+00 -0.31407022719E+03  0.31407022719E+03  0.00000000000E+00 0. -1.
         25    2    1    2    0    0 -0.74040401962E+02  0.21805417820E+02 -0.50801669358E+02  0.15552970798E+03  0.12510484837E+03 0.  0.
         23    2    1    2    0    0  0.74040401962E+02 -0.21805417820E+02 -0.19399562292E+03  0.22781345411E+03  0.91143901565E+02 0.  0.
          5    1    3    3  502    0 -0.55329593054E+02 -0.23151593343E+02 -0.78866797954E+02  0.99170582137E+02  0.41800000000E+01 0.  1.
         -5    1    3    3    0  502 -0.18710808909E+02  0.44957011163E+02  0.28065128596E+02  0.56359125844E+02  0.41800000000E+01 0.  1.
        -11    1    4    4    0    0  0.20652893290E+02 -0.45474136136E+01  0.44309706741E+01  0.21606815428E+02  0.00000000000E+00 0.  1.
         11    1    4    4    0    0  0.53387508673E+02 -0.17258004206E+02 -0.19842659360E+03  0.20620663868E+03  0.00000000000E+00 0. -1.
</event>
<event>
 8    1  0.6862919E-009  0.1270598E+03  0.7561462E-02  0.1231885E+00
          1   -1    0    0  501    0  0.00000000000E+00  0.00000000000E+00  0.40543477459E+03  0.40543477459E+03  0.00000000000E+00 0. -1.
         -1   -1    0    0    0  501 -0.00000000000E+00 -0.00000000000E+00 -0.66555658471E+02  0.66555658471E+02  0.00000000000E+00 0.  1.
         25    2    1    2    0    0  0.14810846976E+02  0.94230951517E+02  0.29387771822E+03  0.33333352833E+03  0.12509314302E+03 0.  0.
         23    2    1    2    0    0 -0.14810846976E+02 -0.94230951517E+02  0.45001397900E+02  0.13865690473E+03  0.90009877266E+02 0.  0.
          5    1    3    3  502    0  0.27451159381E+02  0.12207240607E+03  0.21749102751E+03  0.25094831723E+03  0.41800000000E+01 0.  1.
         -5    1    3    3    0  502 -0.12640312405E+02 -0.27841454553E+02  0.76386690717E+02  0.82385211100E+02  0.41800000000E+01 0.  1.
        -11    1    4    4    0    0 -0.12445332836E+02 -0.18479460314E+02 -0.26391077314E+02  0.34537888249E+02  0.00000000000E+00 0.  1.
         11    1    4    4    0    0 -0.23655141408E+01 -0.75751491202E+02  0.71392475214E+02  0.10411901648E+03  0.00000000000E+00 0. -1.
</event>
<event>
 8    1  0.6862919E-009  0.1855680E+03  0.7561462E-02  0.1162521E+00
         -2   -1    0    0    0  501 -0.00000000000E+00  0.00000000000E+00  0.36087307293E+02  0.36087307293E+02  0.00000000000E+00 0.  1.
          2   -1    0    0  501    0  0.00000000000E+00 -0.00000000000E+00 -0.11601114146E+04  0.11601114146E+04  0.00000000000E+00 0. -1.
         25    2    1    2    0    0  0.15492044510E+03  0.30536433581E+02 -0.81796078235E+03  0.84239522053E+03  0.12504818278E+03 0.  0.
         23    2    1    2    0    0 -0.15492044510E+03 -0.30536433581E+02 -0.30606332491E+03  0.35380350132E+03  0.81051468870E+02 0.  0.
          5    1    3    3  502    0  0.15166355621E+03  0.63396361149E+02 -0.60937850990E+03  0.63117396462E+03  0.41800000000E+01 0.  1.
         -5    1    3    3    0  502  0.32568888884E+01 -0.32859927569E+02 -0.20858227245E+03  0.21122125590E+03  0.41800000000E+01 0.  1.
        -11    1    4    4    0    0 -0.31735462189E+02  0.22907303719E+02 -0.10468289698E+03  0.11176042700E+03  0.00000000000E+00 0. -1.
         11    1    4    4    0    0 -0.12318498291E+03 -0.53443737300E+02 -0.20138042793E+03  0.24204307432E+03  0.00000000000E+00 0.  1.
</event>
<event>
 8    1  0.6862919E-009  0.1050802E+03  0.7561462E-02  0.1269962E+00
         -2   -1    0    0    0  501 -0.00000000000E+00  0.00000000000E+00  0.23114756181E+02  0.23114756181E+02  0.00000000000E+00 0.  1.
          2   -1    0    0  501    0  0.00000000000E+00 -0.00000000000E+00 -0.75642393709E+03  0.75642393709E+03  0.00000000000E+00 0. -1.
         25    2    1    2    0    0  0.93550494562E+01 -0.73614388177E+02 -0.36373261550E+03  0.39173357405E+03  0.12508869798E+03 0.  0.
         23    2    1    2    0    0 -0.93550494562E+01  0.73614388177E+02 -0.36957656541E+03  0.38780511923E+03  0.91100920402E+02 0.  0.
          5    1    3    3  502    0 -0.49525918809E+02 -0.21683841929E+02 -0.23260834868E+03  0.23884539332E+03  0.41800000000E+01 0. -1.
         -5    1    3    3    0  502  0.58880968265E+02 -0.51930546247E+02 -0.13112426682E+03  0.15288818073E+03  0.41800000000E+01 0. -1.
        -11    1    4    4    0    0  0.63089412438E+01  0.10203048953E+02  0.50209153390E+00  0.12006541694E+02  0.00000000000E+00 0.  1.
         11    1    4    4    0    0 -0.15663990700E+02  0.63411339224E+02 -0.37007865695E+03  0.37579857753E+03  0.00000000000E+00 0. -1.
</event>
<event>
 8    1  0.6862919E-009  0.1570462E+03  0.7561462E-02  0.1192072E+00
          2   -1    0    0  501    0  0.00000000000E+00  0.00000000000E+00  0.12366495005E+04  0.12366495005E+04  0.00000000000E+00 0. -1.
         -2   -1    0    0    0  501 -0.00000000000E+00 -0.00000000000E+00 -0.27872452302E+02  0.27872452302E+02  0.00000000000E+00 0.  1.
         25    2    1    2    0    0  0.13935869510E+03 -0.43304903415E+02  0.53172403742E+03  0.56539758409E+03  0.12509122896E+03 0.  0.
         23    2    1    2    0    0 -0.13935869510E+03  0.43304903415E+02  0.67705301082E+03  0.69912436876E+03  0.95278239746E+02 0.  0.
          5    1    3    3  502    0  0.68884701690E+02 -0.10928175496E+02  0.43862430611E+03  0.44415456933E+03  0.41800000000E+01 0. -1.
         -5    1    3    3    0  502  0.70473993407E+02 -0.32376727919E+02  0.93099731308E+02  0.12124301476E+03  0.41800000000E+01 0. -1.
        -11    1    4    4    0    0 -0.13320870154E+03  0.10993328959E+02  0.60957271845E+03  0.62405473359E+03  0.00000000000E+00 0. -1.
         11    1    4    4    0    0 -0.61499935599E+01  0.32311574455E+02  0.67480292377E+02  0.75069635165E+02  0.00000000000E+00 0.  1.
</event>
<event>
 8    1  0.6862919E-009  0.9597890E+02  0.7561462E-02  0.1288986E+00
          4   -1    0    0  501    0  0.00000000000E+00  0.00000000000E+00  0.26196207456E+02  0.26196207456E+02  0.00000000000E+00 0. -1.
         -4   -1    0    0    0  501 -0.00000000000E+00 -0.00000000000E+00 -0.77236988423E+03  0.77236988423E+03  0.00000000000E+00 0.  1.
         25    2    1    2    0    0  0.59276066751E+02  0.28764697818E+02 -0.58220166770E+03  0.59912224444E+03  0.12509045519E+03 0.  0.
         23    2    1    2    0    0 -0.59276066751E+02 -0.28764697818E+02 -0.16397200908E+03  0.19944384725E+03  0.92466039790E+02 0.  0.
          5    1    3    3  502    0  0.46705891862E+02  0.53823518201E+02 -0.55586681612E+03  0.56043179880E+03  0.41800000000E+01 0.  1.
         -5    1    3    3    0  502  0.12570174889E+02 -0.25058820383E+02 -0.26334851576E+02  0.38690445633E+02  0.41800000000E+01 0.  1.
        -11    1    4    4    0    0 -0.56831186210E+01  0.19373247258E+02 -0.10331690190E+03  0.10527109178E+03  0.00000000000E+00 0. -1.
         11    1    4    4    0    0 -0.53592948130E+02 -0.48137945076E+02 -0.60655107173E+02  0.94172755464E+02  0.00000000000E+00 0.  1.
</event>
<event>
 8    1  0.6862919E-009  0.1485605E+03  0.7561462E-02  0.1202253E+00
         -3   -1    0    0    0  501 -0.00000000000E+00  0.00000000000E+00  0.17764258495E+03  0.17764258495E+03  0.00000000000E+00 0.  1.
          3   -1    0    0  501    0  0.00000000000E+00 -0.00000000000E+00 -0.18687765406E+03  0.18687765406E+03  0.00000000000E+00 0. -1.
         25    2    1    2    0    0 -0.11354962401E+03  0.45925644621E+02 -0.82010051732E+02  0.19332794630E+03  0.12508942517E+03 0.  0.
         23    2    1    2    0    0  0.11354962401E+03 -0.45925644621E+02  0.72774982622E+02  0.17119229272E+03  0.94910068191E+02 0.  0.
          5    1    3    3  502    0 -0.13465886194E+03  0.21493388333E+02 -0.44148509646E+02  0.14339295012E+03  0.41800000000E+01 0.  1.
         -5    1    3    3    0  502  0.21109237936E+02  0.24432256288E+02 -0.37861542086E+02  0.49934996172E+02  0.41800000000E+01 0.  1.
        -11    1    4    4    0    0  0.38434521753E+02  0.29045903219E+01  0.71918998713E+02  0.81596516367E+02  0.00000000000E+00 0.  1.
         11    1    4    4    0    0  0.75115102253E+02 -0.48830234943E+02  0.85598390843E+00  0.89595776349E+02  0.00000000000E+00 0. -1.
</event>
<event>
 8    1  0.6862919E-009  0.1175959E+03  0.7561462E-02  0.1247117E+00
         -2   -1    0    0    0  501 -0.00000000000E+00  0.00000000000E+00  0.25748611132E+02  0.25748611132E+02  0.00000000000E+00 0. -1.
          2   -1    0    0  501    0  0.00000000000E+00 -0.00000000000E+00 -0.89583968843E+03  0.89583968843E+03  0.00000000000E+00 0.  1.
         25    2    1    2    0    0 -0.14271648327E+02 -0.77719387845E+02 -0.68127968678E+03  0.69716092549E+03  0.12508941286E+03 0.  0.
         23    2    1    2    0    0  0.14271648327E+02  0.77719387845E+02 -0.18881139052E+03  0.22442737408E+03  0.92053907325E+02 0.  0.
          5    1    3    3  502    0  0.39830545658E+02 -0.82760117086E+02 -0.47416093143E+03  0.48299251613E+03  0.41800000000E+01 0.  1.
         -5    1    3    3    0  502 -0.54102193985E+02  0.50407292404E+01 -0.20711875535E+03  0.21416840935E+03  0.41800000000E+01 0.  1.
        -11    1    4    4    0    0  0.28485744292E+02  0.55355873240E+02 -0.18786557203E+03  0.19791205997E+03  0.00000000000E+00 0.  1.
         11    1    4    4    0    0 -0.14214095965E+02  0.22363514605E+02 -0.94581849305E+00  0.26515314108E+02  0.00000000000E+00 0. -1.
</event>
<event>
 8    1  0.6862919E-009  0.1819857E+03  0.7561462E-02  0.1165895E+00
          1   -1    0    0  501    0  0.00000000000E+00  0.00000000000E+00  0.59752400805E+02  0.59752400805E+02  0.00000000000E+00 0. -1.
         -1   -1    0    0    0  501 -0.00000000000E+00 -0.00000000000E+00 -0.74183642626E+03  0.74183642626E+03  0.00000000000E+00 0.  1.
         25    2    1    2    0    0 -0.16970695522E+03  0.26679007979E+02 -0.25014435140E+03  0.32822676782E+03  0.12509354283E+03 0.  0.
         23    2    1    2    0    0  0.16970695522E+03 -0.26679007979E+02 -0.43193967406E+03  0.47336205925E+03  0.89373021614E+02 0.  0.
          5    1    3    3  502    0 -0.32423731834E+02  0.42782674311E+02 -0.14449252592E+03  0.15419863182E+03  0.41800000000E+01 0. -1.
         -5    1    3    3    0  502 -0.13728322339E+03 -0.16103666332E+02 -0.10565182548E+03  0.17402813600E+03  0.41800000000E+01 0. -1.
        -11    1    4    4    0    0  0.14345703213E+03 -0.24047774410E+02 -0.41986683683E+03  0.44434938527E+03  0.00000000000E+00 0.  1.
         11    1    4    4    0    0  0.26249923096E+02 -0.26312335689E+01 -0.12072837230E+02  0.29012673980E+02  0.00000000000E+00 0. -1.
</event>
<event>
 8    1  0.6862919E-009  0.1952931E+03  0.7561462E-02  0.1153772E+00
         -1   -1    0    0    0  501 -0.00000000000E+00  0.00000000000E+00  0.70815471073E+02  0.70815471073E+02  0.00000000000E+00 0.  1.
          1   -1    0    0  501    0  0.00000000000E+00 -0.00000000000E+00 -0.65640005499E+03  0.65640005499E+03  0.00000000000E+00 0. -1.
         25    2    1    2    0    0  0.17219371710E+03  0.67194040704E+02 -0.32918593545E+03  0.39771554480E+03  0.12509420113E+03 0.  0.
         23    2    1    2    0    0 -0.17219371710E+03 -0.67194040704E+02 -0.25639864846E+03  0.32949998127E+03  0.93081982166E+02 0.  0.
          5    1    3    3  502    0  0.16167863464E+03  0.57936033396E+02 -0.18376810659E+03  0.25156461251E+03  0.41800000000E+01 0. -1.
         -5    1    3    3    0  502  0.10515082464E+02  0.92580073084E+01 -0.14541782886E+03  0.14615093229E+03  0.41800000000E+01 0. -1.
        -11    1    4    4    0    0 -0.13761080051E+03 -0.10822867741E+02 -0.19739671941E+03  0.24087202352E+03  0.00000000000E+00 0.  1.
         11    1    4    4    0    0 -0.34582916598E+02 -0.56371172963E+02 -0.59001929052E+02  0.88627957741E+02  0.00000000000E+00 0. -1.
</event>
<event>
 8    1  0.6862919E-009  0.1488061E+03  0.7561462E-02  0.1201948E+00
         -2   -1    0    0    0  501 -0.00000000000E+00  0.00000000000E+00  0.24384440986E+03  0.24384440986E+03  0.00000000000E+00 0.  1.
          2   -1    0    0  501    0  0.00000000000E+00 -0.00000000000E+00 -0.13300710413E+03  0.13300710413E+03  0.00000000000E+00 0. -1.
         25    2    1    2    0    0 -0.12720537242E+03  0.43973677184E+02  0.61590430452E+01  0.18385723339E+03  0.12510258751E+03 0.  0.
         23    2    1    2    0    0  0.12720537242E+03 -0.43973677184E+02  0.10467826268E+03  0.19299428060E+03  0.90412181742E+02 0.  0.
          5    1    3    3  502    0 -0.54116018037E+02  0.61118837427E+02  0.50967322197E+02  0.96328583653E+02  0.41800000000E+01 0.  1.
         -5    1    3    3    0  502 -0.73089354387E+02 -0.17145160244E+02 -0.44808279152E+02  0.87528649739E+02  0.41800000000E+01 0.  1.
        -11    1    4    4    0    0  0.41711594601E+02  0.52333832490E+01  0.81440968013E+02  0.91650841214E+02  0.00000000000E+00 0.  1.
         11    1    4    4    0    0  0.85493777823E+02 -0.49207060433E+02  0.23237294669E+02  0.10134343939E+03  0.00000000000E+00 0. -1.
</event>
<event>
 8    1  0.6862919E-009  0.1435225E+03  0.7561462E-02  0.1208666E+00
         -2   -1    0    0    0  501 -0.00000000000E+00  0.00000000000E+00  0.95453209769E+02  0.95453209769E+02  0.00000000000E+00 0.  1.
          2   -1    0    0  501    0  0.00000000000E+00 -0.00000000000E+00 -0.28684692709E+03  0.28684692709E+03  0.00000000000E+00 0. -1.
         25    2    1    2    0    0  0.96470679478E+02 -0.19794631703E+02 -0.20649627893E+02  0.16053276655E+03  0.12508374219E+03 0.  0.
         23    2    1    2    0    0 -0.96470679478E+02  0.19794631703E+02 -0.17074408943E+03  0.22176737031E+03  0.10163071887E+03 0.  0.
          5    1    3    3  502    0  0.49129180605E+02  0.52832953748E+02 -0.12698529464E+02  0.73373853921E+02  0.41800000000E+01 0.  1.
         -5    1    3    3    0  502  0.47341498873E+02 -0.72627585451E+02 -0.79510984294E+01  0.87158912626E+02  0.41800000000E+01 0.  1.
        -11    1    4    4    0    0 -0.43757377220E+02  0.50625612082E+02 -0.13584384355E+03  0.15143054675E+03  0.00000000000E+00 0. -1.
         11    1    4    4    0    0 -0.52713302258E+02 -0.30830980379E+02 -0.34900245880E+02  0.70336823560E+02  0.00000000000E+00 0.  1.
</event>
<event>
 8    1  0.6862919E-009  0.2320671E+03  0.7561462E-02  0.1125193E+00
          1   -1    0    0  501    0  0.00000000000E+00  0.00000000000E+00  0.18974449938E+04  0.18974449938E+04  0.00000000000E+00 0. -1.
         -1   -1    0    0    0  501 -0.00000000000E+00 -0.00000000000E+00 -0.33028938046E+02  0.33028938046E+02  0.00000000000E+00 0.  1.
         25    2    1    2    0    0  0.22267172975E+03  0.54325875548E+01  0.11020485079E+04  0.11312694869E+04  0.12509007131E+03 0.  0.
         23    2    1    2    0    0 -0.22267172975E+03 -0.54325875548E+01  0.76236754788E+03  0.79920444499E+03  0.88945233703E+02 0.  0.
          5    1    3    3  502    0  0.10691922182E+03  0.24533695735E+02  0.27780877489E+03  0.29871191812E+03  0.41800000000E+01 0. -1.
         -5    1    3    3    0  502  0.11575250793E+03 -0.19101108180E+02  0.82423973303E+03  0.83255756878E+03  0.41800000000E+01 0. -1.
        -11    1    4    4    0    0 -0.52708520691E+02 -0.36596511775E+02  0.15559948576E+03  0.16831129729E+03  0.00000000000E+00 0.  1.
         11    1    4    4    0    0 -0.16996320906E+03  0.31163924220E+02  0.60676806212E+03  0.63089314770E+03  0.00000000000E+00 0. -1.
</event>
<event>
 8    1  0.6862919E-009  0.1248962E+03  0.7561462E-02  0.1235232E+00
         -2   -1    0    0    0  501 -0.00000000000E+00  0.00000000000E+00  0.74286702752E+02  0.74286702752E+02  0.00000000000E+00 0. -1.
          2   -1    0    0  501    0  0.00000000000E+00 -0.00000000000E+00 -0.22769550348E+03  0.22769550348E+03  0.00000000000E+00 0.  1.
         25    2    1    2    0    0 -0.16576553291E+02  0.65738282069E+02 -0.85627283492E+02  0.16606053378E+03  0.12509102826E+03 0.  0.
         23    2    1    2    0    0  0.16576553291E+02 -0.65738282069E+02 -0.67781517232E+02  0.13592167245E+03  0.96353843284E+02 0.  0.
          5    1    3    3  502    0 -0.68348152418E+02  0.16163239393E+02 -0.45824716262E+02  0.83964857334E+02  0.41800000000E+01 0. -1.
         -5    1    3    3    0  502  0.51771599127E+02  0.49575042676E+02 -0.39802567230E+02  0.82095676443E+02  0.41800000000E+01 0. -1.
        -11    1    4    4    0    0 -0.34235700786E+02 -0.29894894447E+02 -0.56850791070E+02  0.72785990187E+02  0.00000000000E+00 0.  1.
         11    1    4    4    0    0  0.50812254077E+02 -0.35843387622E+02 -0.10930726162E+02  0.63135682265E+02  0.00000000000E+00 0. -1.
</event>
<event>
 8    1  0.6862919E-009  0.2370909E+03  0.7561462E-02  0.1121746E+00
         -1   -1    0    0    0  501 -0.00000000000E+00  0.00000000000E+00  0.24225599785E+03  0.24225599785E+03  0.00000000000E+00 0.  1.
          1   -1    0    0  501    0  0.00000000000E+00 -0.00000000000E+00 -0.25018242176E+03  0.25018242176E+03  0.00000000000E+00 0. -1.
         25    2    1    2    0    0  0.61927090671E+02 -0.20575384164E+03 -0.54292871248E+02  0.25448986234E+03  0.12509103188E+03 0.  0.
         23    2    1    2    0    0 -0.61927090671E+02  0.20575384164E+03  0.46366447341E+02  0.23794855727E+03  0.91104668136E+02 0.  0.
          5    1    3    3  502    0 -0.20058001994E+02 -0.13593567180E+01 -0.24898316967E+02  0.32273361809E+02  0.41800000000E+01 0.  1.
         -5    1    3    3    0  502  0.81985092664E+02 -0.20439448493E+03 -0.29394554281E+02  0.22221650053E+03  0.41800000000E+01 0.  1.
        -11    1    4    4    0    0 -0.66268731618E+02  0.65882646438E+02  0.17946627461E+02  0.95153293843E+02  0.00000000000E+00 0. -1.
         11    1    4    4    0    0  0.43416409469E+01  0.13987119521E+03  0.28419819880E+02  0.14279526342E+03  0.00000000000E+00 0.  1.
</event>
<event>
 8    1  0.6862919E-009  0.1862677E+03  0.7561462E-02  0.1161871E+00
         -2   -1    0    0    0  501 -0.00000000000E+00  0.00000000000E+00  0.37035987702E+02  0.37035987702E+02  0.00000000000E+00 0.  1.
          2   -1    0    0  501    0  0.00000000000E+00 -0.00000000000E+00 -0.16045759083E+04  0.16045759083E+04  0.00000000000E+00 0. -1.
         25    2    1    2    0    0 -0.15330684997E+03  0.59163546444E+02 -0.12850884176E+04  0.13015775567E+04  0.12509428241E+03 0.  0.
         23    2    1    2    0    0  0.15330684997E+03 -0.59163546444E+02 -0.28245150293E+03  0.34003433927E+03  0.94027575196E+02 0.  0.
          5    1    3    3  502    0 -0.13627823651E+03  0.95239590095E+02 -0.10509884570E+04  0.10640660442E+04  0.41800000000E+01 0. -1.
         -5    1    3    3    0  502 -0.17028613458E+02 -0.36076043651E+02 -0.23409996063E+03  0.23751151249E+03  0.41800000000E+01 0. -1.
        -11    1    4    4    0    0  0.38776539797E+02 -0.26664175302E+02 -0.16955388330E+03  0.17596339854E+03  0.00000000000E+00 0. -1.
         11    1    4    4    0    0  0.11453031018E+03 -0.32499371142E+02 -0.11289761963E+03  0.16407094073E+03  0.00000000000E+00 0.  1.
</event>
<event>
 8    1  0.6862919E-009  0.2366581E+03  0.7561462E-02  0.1122039E+00
          1   -1    0    0  501    0  0.00000000000E+00  0.00000000000E+00  0.43270781209E+03  0.43270781209E+03  0.00000000000E+00 0. -1.
         -1   -1    0    0    0  501 -0.00000000000E+00 -0.00000000000E+00 -0.13096398551E+03  0.13096398551E+03  0.00000000000E+00 0.  1.
         25    2    1    2    0    0 -0.46107145199E+02 -0.20510757819E+03  0.13160648267E+03  0.27778185184E+03  0.12508998145E+03 0.  0.
         23    2    1    2    0    0  0.46107145199E+02  0.20510757819E+03  0.17013734390E+03  0.28588994576E+03  0.92689577774E+02 0.  0.
          5    1    3    3  502    0 -0.88606149580E+02 -0.15371094842E+03  0.10200431928E+03  0.20469601599E+03  0.41800000000E+01 0.  1.
         -5    1    3    3    0  502  0.42499004381E+02 -0.51396629764E+02  0.29602163390E+02  0.73085835850E+02  0.41800000000E+01 0.  1.
        -11    1    4    4    0    0 -0.25034690009E+02  0.25022900107E+02  0.34917835546E+02  0.49720583996E+02  0.00000000000E+00 0.  1.
         11    1    4    4    0    0  0.71141835208E+02  0.18008467808E+03  0.13521950836E+03  0.23616936176E+03  0.00000000000E+00 0. -1.
</event>
<event>
 8    1  0.6862919E-009  0.1008156E+03  0.7561462E-02  0.1278590E+00
          2   -1    0    0  501    0  0.00000000000E+00  0.00000000000E+00  0.13793821605E+03  0.13793821605E+03  0.00000000000E+00 0. -1.
         -2   -1    0    0    0  501 -0.00000000000E+00 -0.00000000000E+00 -0.10897943938E+03  0.10897943938E+03  0.00000000000E+00 0.  1.
         25    2    1    2    0    0  0.52528487798E+02 -0.12406372026E+02  0.34761138190E+02  0.14059936806E+03  0.12508671181E+03 0.  0.
         23    2    1    2    0    0 -0.52528487798E+02  0.12406372026E+02 -0.58023615260E+01  0.10631828737E+03  0.91415265321E+02 0.  0.
          5    1    3    3  502    0  0.40524053136E+02 -0.49449341648E+02 -0.25311574340E+02  0.68888202673E+02  0.41800000000E+01 0.  1.
         -5    1    3    3    0  502  0.12004434662E+02  0.37042969622E+02  0.60072712530E+02  0.71711165384E+02  0.41800000000E+01 0.  1.
        -11    1    4    4    0    0 -0.68256356856E+02 -0.12059234646E+02  0.14544293837E+02  0.70822961493E+02  0.00000000000E+00 0. -1.
         11    1    4    4    0    0  0.15727869058E+02  0.24465606672E+02 -0.20346655363E+02  0.35495325881E+02  0.00000000000E+00 0.  1.
</event>
<event>
 8    1  0.6862919E-009  0.1325904E+03  0.7561462E-02  0.1223662E+00
         -1   -1    0    0    0  501 -0.00000000000E+00  0.00000000000E+00  0.47157575349E+02  0.47157575349E+02  0.00000000000E+00 0.  1.
          1   -1    0    0  501    0  0.00000000000E+00 -0.00000000000E+00 -0.37387633529E+03  0.37387633529E+03  0.00000000000E+00 0. -1.
         25    2    1    2    0    0  0.20114857408E+02  0.73781223107E+02 -0.18595351148E+03  0.23679861473E+03  0.12508636672E+03 0.  0.
         23    2    1    2    0    0 -0.20114857408E+02 -0.73781223107E+02 -0.14076524847E+03  0.18423529591E+03  0.90991827709E+02 0.  0.
          5    1    3    3  502    0  0.60180848765E+02  0.85309136120E+02 -0.12664684542E+03  0.16418367495E+03  0.41800000000E+01 0.  1.
         -5    1    3    3    0  502 -0.40065991357E+02 -0.11527913013E+02 -0.59306666055E+02  0.72614939788E+02  0.41800000000E+01 0.  1.
        -11    1    4    4    0    0 -0.54842361004E+02 -0.28723632651E+02 -0.76370394986E+02  0.98311590687E+02  0.00000000000E+00 0.  1.
         11    1    4    4    0    0  0.34727503596E+02 -0.45057590457E+02 -0.64394853481E+02  0.85923705219E+02  0.00000000000E+00 0. -1.
</event>
<event>
 8    1  0.6862919E-009  0.7085792E+02  0.7561462E-02  0.1357200E+00
         -2   -1    0    0    0  501 -0.00000000000E+00  0.00000000000E+00  0.33268321914E+02  0.33268321914E+02  0.00000000000E+00 0.  1.
          2   -1    0    0  501    0  0.00000000000E+00 -0.00000000000E+00 -0.37634280698E+03  0.37634280698E+03  0.00000000000E+00 0. -1.
         25    2    1    2    0    0 -0.84249497059E+01 -0.13429534077E+02 -0.24210985943E+03  0.27297702268E+03  0.12509172121E+03 0.  0.
         23    2    1    2    0    0  0.84249497059E+01  0.13429534077E+02 -0.10096462564E+03  0.13663410622E+03  0.90684569733E+02 0.  0.
          5    1    3    3  502    0 -0.47888423142E+02  0.12123065560E+02 -0.35324395773E+02  0.60873271034E+02  0.41800000000E+01 0.  1.
         -5    1    3    3    0  502  0.39463473436E+02 -0.25552599637E+02 -0.20678546365E+03  0.21210375164E+03  0.41800000000E+01 0.  1.
        -11    1    4    4    0    0 -0.16919280235E+02  0.91594755113E+01  0.10724042632E+02  0.22026418812E+02  0.00000000000E+00 0.  1.
         11    1    4    4    0    0  0.25344229941E+02  0.42700585657E+01 -0.11168866828E+03  0.11460768741E+03  0.00000000000E+00 0. -1.
</event>
<event>
 8    1  0.6862919E-009  0.1185139E+03  0.7561462E-02  0.1245569E+00
         -1   -1    0    0    0  501 -0.00000000000E+00  0.00000000000E+00  0.16946279066E+02  0.16946279066E+02  0.00000000000E+00 0.  1.
          1   -1    0    0  501    0  0.00000000000E+00 -0.00000000000E+00 -0.10449646559E+04  0.10449646559E+04  0.00000000000E+00 0. -1.
         25    2    1    2    0    0 -0.37961179632E+02 -0.64880537116E+02 -0.56539762960E+03  0.58392756693E+03  0.12508552521E+03 0.  0.
         23    2    1    2    0    0  0.37961179632E+02  0.64880537116E+02 -0.46262074722E+03  0.47798336801E+03  0.93806231589E+02 0.  0.
          5    1    3    3  502    0 -0.67290434780E+02 -0.42267937661E+02 -0.51572476822E+03  0.52182764407E+03  0.41800000000E+01 0. -1.
         -5    1    3    3    0  502  0.29329255148E+02 -0.22612599456E+02 -0.49672861380E+02  0.62099922861E+02  0.41800000000E+01 0. -1.
        -11    1    4    4    0    0  0.62470473067E+02  0.71352047603E+02 -0.36105402742E+03  0.37330106539E+03  0.00000000000E+00 0.  1.
         11    1    4    4    0    0 -0.24509293435E+02 -0.64715104870E+01 -0.10156671980E+03  0.10468230262E+03  0.00000000000E+00 0. -1.
</event>
<event>
 8    1  0.6862919E-009  0.6795242E+02  0.7561462E-02  0.1367198E+00
          2   -1    0    0  501    0  0.00000000000E+00  0.00000000000E+00  0.17667537708E+03  0.17667537708E+03  0.00000000000E+00 0. -1.
         -2   -1    0    0    0  501 -0.00000000000E+00 -0.00000000000E+00 -0.10121900971E+03  0.10121900971E+03  0.00000000000E+00 0.  1.
         25    2    1    2    0    0 -0.20670325778E+02 -0.24356454791E+02  0.11544001985E+03  0.17318907036E+03  0.12509019407E+03 0.  0.
         23    2    1    2    0    0  0.20670325778E+02  0.24356454791E+02 -0.39983652476E+02  0.10470531644E+03  0.91345561288E+02 0.  0.
          5    1    3    3  502    0 -0.99816283781E+01  0.34197038051E+02 -0.74005665333E+01  0.36623914340E+02  0.41800000000E+01 0. -1.
         -5    1    3    3    0  502 -0.10688697400E+02 -0.58553492843E+02  0.12284058638E+03  0.13656515602E+03  0.41800000000E+01 0. -1.
        -11    1    4    4    0    0  0.21574536841E+02  0.65606615957E+01 -0.67922493067E+02  0.71567925672E+02  0.00000000000E+00 0.  1.
         11    1    4    4    0    0 -0.90421106330E+00  0.17795793195E+02  0.27938840592E+02  0.33137390765E+02  0.00000000000E+00 0. -1.
</event>
<event>
 8    1  0.6862919E-009  0.1591134E+03  0.7561462E-02  0.1189701E+00
          2   -1    0    0  501    0  0.00000000000E+00  0.00000000000E+00  0.44782785480E+03  0.44782785480E+03  0.00000000000E+00 0. -1.
         -2   -1    0    0    0  501 -0.00000000000E+00 -0.00000000000E+00 -0.91136579347E+02  0.91136579347E+02  0.00000000000E+00 0.  1.
         25    2    1    2    0    0  0.25893324066E+01  0.14632851035E+03  0.30110769306E+03  0.35739756606E+03  0.12509372416E+03 0.  0.
         23    2    1    2    0    0 -0.25893324066E+01 -0.14632851035E+03  0.55583582392E+02  0.18156686808E+03  0.91968773880E+02 0.  0.
          5    1    3    3  502    0  0.14575518287E+02  0.27348153927E+02 -0.21930677218E+01  0.31347235964E+02  0.41800000000E+01 0.  1.
         -5    1    3    3    0  502 -0.11986185880E+02  0.11898035643E+03  0.30330076078E+03  0.32605033010E+03  0.41800000000E+01 0.  1.
        -11    1    4    4    0    0 -0.29722624363E+02 -0.13442392579E+03  0.62416874602E+02  0.15115916267E+03  0.00000000000E+00 0. -1.
         11    1    4    4    0    0  0.27133291956E+02 -0.11904584562E+02 -0.68332922097E+01  0.30407705412E+02  0.00000000000E+00 0.  1.
</event>
<event>
 7    1  0.6862919E-009  0.2257555E+03  0.7561462E-02  0.1129663E+00
          2   -1    0    0  501    0  0.00000000000E+00  0.00000000000E+00  0.44351978901E+03  0.44351978901E+03  0.00000000000E+00 0.  1.
         -2   -1    0    0    0  501 -0.00000000000E+00 -0.00000000000E+00 -0.12054972378E+03  0.12054972378E+03  0.00000000000E+00 0. -1.
         25    2    1    2    0    0 -0.14141660203E+03  0.11619915514E+03  0.18373205473E+03  0.28791862911E+03  0.12505506813E+03 0.  0.
          5    1    3    3  502    0  0.21705943140E+02  0.16221078119E+01  0.21374855072E+02  0.30791817593E+02  0.41800000000E+01 0. -1.
         -5    1    3    3    0  502 -0.16312254517E+03  0.11457704733E+03  0.16235719966E+03  0.25712681151E+03  0.41800000000E+01 0. -1.
        -11    1    1    2    0    0  0.16072998226E+03 -0.61741001995E+02  0.69734420951E+02  0.18576589566E+03  0.00000000000E+00 0. -1.
         11    1    1    2    0    0 -0.19313380227E+02 -0.54458153150E+02  0.69503589544E+02  0.90384988022E+02  0.00000000000E+00 0.  1.
</event>
<event>
 8    1  0.6862919E-009  0.1597531E+03  0.7561462E-02  0.1188976E+00
         -2   -1    0    0    0  501 -0.00000000000E+00  0.00000000000E+00  0.10519197275E+03  0.10519197275E+03  0.00000000000E+00 0.  1.
          2   -1    0    0  501    0  0.00000000000E+00 -0.00000000000E+00 -0.39316813084E+03  0.39316813084E+03  0.00000000000E+00 0. -1.
         25    2    1    2    0    0 -0.10251145500E+03  0.77176998603E+02 -0.10729234364E+02  0.17952063667E+03  0.12509058718E+03 0.  0.
         23    2    1    2    0    0  0.10251145500E+03 -0.77176998603E+02 -0.27724692372E+03  0.31883946692E+03  0.91257117166E+02 0.  0.
          5    1    3    3  502    0  0.51300654082E+01 -0.26592460195E+02 -0.12063096559E+02  0.29941062254E+02  0.41800000000E+01 0.  1.
         -5    1    3    3    0  502 -0.10764152041E+03  0.10376945880E+03  0.13338621943E+01  0.14957957442E+03  0.41800000000E+01 0.  1.
        -11    1    4    4    0    0  0.12749947531E+02 -0.45641765937E+02 -0.36006974130E+02  0.59516671159E+02  0.00000000000E+00 0. -1.
         11    1    4    4    0    0  0.89761507470E+02 -0.31535232666E+02 -0.24123994959E+03  0.25932279576E+03  0.00000000000E+00 0.  1.
</event>
<event>
 8    1  0.6862919E-009  0.1136681E+03  0.7561462E-02  0.1253924E+00
         -2   -1    0    0    0  501 -0.00000000000E+00  0.00000000000E+00  0.17314049812E+02  0.17314049812E+02  0.00000000000E+00 0.  1.
          2   -1    0    0  501    0  0.00000000000E+00 -0.00000000000E+00 -0.13951366980E+04  0.13951366980E+04  0.00000000000E+00 0. -1.
         25    2    1    2    0    0 -0.33318686708E+02  0.37556010398E+02 -0.12021768478E+04  0.12097094113E+04  0.12508835922E+03 0.  0.
         23    2    1    2    0    0  0.33318686708E+02 -0.37556010398E+02 -0.17564580043E+03  0.20274133655E+03  0.87931868715E+02 0.  0.
          5    1    3    3  502    0  0.26460899082E+02  0.60325095117E+02 -0.45134436145E+03  0.45614526337E+03  0.41800000000E+01 0.  1.
         -5    1    3    3    0  502 -0.59779585790E+02 -0.22769084719E+02 -0.75083248633E+03  0.75356414791E+03  0.41800000000E+01 0.  1.
        -11    1    4    4    0    0 -0.27491336877E+02 -0.40294440533E+01 -0.27323786730E+02  0.38969210204E+02  0.00000000000E+00 0.  1.
         11    1    4    4    0    0  0.60810023585E+02 -0.33526566345E+02 -0.14832201370E+03  0.16377212634E+03  0.00000000000E+00 0. -1.
</event>
<event>
 8    1  0.6862919E-009  0.8252862E+02  0.7561462E-02  0.1322025E+00
         -1   -1    0    0    0  501 -0.00000000000E+00  0.00000000000E+00  0.68197454573E+02  0.68197454573E+02  0.00000000000E+00 0.  1.
          1   -1    0    0  501    0  0.00000000000E+00 -0.00000000000E+00 -0.24351574990E+03  0.24351574990E+03  0.00000000000E+00 0. -1.
         25    2    1    2    0    0  0.54528314196E+02 -0.40918578558E+01 -0.59819349849E+02  0.14905254888E+03  0.12509287495E+03 0.  0.
         23    2    1    2    0    0 -0.54528314196E+02  0.40918578558E+01 -0.11549894548E+03  0.16266065559E+03  0.10063996284E+03 0.  0.
          5    1    3    3  502    0  0.75847506189E+02 -0.12463712640E+02  0.79572592505E+01  0.77388492056E+02  0.41800000000E+01 0.  1.
         -5    1    3    3    0  502 -0.21319191994E+02  0.83718547837E+01 -0.67776609100E+02  0.71664056827E+02  0.41800000000E+01 0.  1.
        -11    1    4    4    0    0 -0.10633466078E+02  0.16094776455E+02  0.15012269240E+02  0.24443417471E+02  0.00000000000E+00 0.  1.
         11    1    4    4    0    0 -0.43894848118E+02 -0.12002918599E+02 -0.13051121472E+03  0.13821723812E+03  0.00000000000E+00 0. -1.
</event>
<event>
 8    1  0.6862919E-009  0.1011515E+03  0.7561462E-02  0.1277893E+00
          3   -1    0    0  501    0  0.00000000000E+00  0.00000000000E+00  0.38794627732E+02  0.38794627732E+02  0.00000000000E+00 0. -1.
         -3   -1    0    0    0  501 -0.00000000000E+00 -0.00000000000E+00 -0.45285473255E+03  0.45285473255E+03  0.00000000000E+00 0.  1.
         25    2    1    2    0    0  0.68479151280E+02  0.26997735327E+02 -0.19179294978E+03  0.24052795029E+03  0.12510350680E+03 0.  0.
         23    2    1    2    0    0 -0.68479151280E+02 -0.26997735327E+02 -0.22226715504E+03  0.25112140999E+03  0.90779967365E+02 0.  0.
          5    1    3    3  502    0  0.70281693129E+02  0.97854589738E+01 -0.20589226084E+03  0.21781727909E+03  0.41800000000E+01 0.  1.
         -5    1    3    3    0  502 -0.18025418482E+01  0.17212276354E+02  0.14099311054E+02  0.22710671205E+02  0.41800000000E+01 0.  1.
        -11    1    4    4    0    0 -0.47406701257E+02 -0.58636059667E+02 -0.17435303959E+03  0.18995937785E+03  0.00000000000E+00 0.  1.
         11    1    4    4    0    0 -0.21072450024E+02  0.31638324339E+02 -0.47914115443E+02  0.61162032142E+02  0.00000000000E+00 0. -1.
</event>
<event>
 8    1  0.6862919E-009  0.1528194E+03  0.7561462E-02  0.1197051E+00
          2   -1    0    0  501    0  0.00000000000E+00  0.00000000000E+00  0.20511210695E+03  0.20511210695E+03  0.00000000000E+00 0. -1.
         -2   -1    0    0    0  501 -0.00000000000E+00 -0.00000000000E+00 -0.18272755067E+03  0.18272755067E+03  0.00000000000E+00 0.  1.
         25    2    1    2    0    0  0.41212617538E+02  0.12900187882E+03 -0.72080399850E+02  0.19794389674E+03  0.12508492168E+03 0.  0.
         23    2    1    2    0    0 -0.41212617538E+02 -0.12900187882E+03  0.94464956138E+02  0.18989576088E+03  0.93791297463E+02 0.  0.
          5    1    3    3  502    0  0.22754661231E+02  0.18046798443E+02 -0.79897848914E+02  0.85115217223E+02  0.41800000000E+01 0.  1.
         -5    1    3    3    0  502  0.18457956307E+02  0.11095508037E+03  0.78174490638E+01  0.11282867952E+03  0.41800000000E+01 0.  1.
        -11    1    4    4    0    0 -0.37519441746E+02 -0.14373468197E+03  0.79129664976E+02  0.16831182724E+03  0.00000000000E+00 0.  1.
         11    1    4    4    0    0 -0.36931757918E+01  0.14732803156E+02  0.15335291162E+02  0.21583933638E+02  0.00000000000E+00 0. -1.
</event>
<event>
 8    1  0.6862919E-009  0.1422804E+03  0.7561462E-02  0.1210293E+00
          1   -1    0    0  501    0  0.00000000000E+00  0.00000000000E+00  0.24732620333E+03  0.24732620333E+03  0.00000000000E+00 0. -1.
         -1   -1    0    0    0  501 -0.00000000000E+00 -0.00000000000E+00 -0.12089145607E+03  0.12089145607E+03  0.00000000000E+00 0.  1.
         25    2    1    2    0    0  0.27984793859E+02  0.97130704052E+02  0.16137306228E+03  0.22782829045E+03  0.12508773859E+03 0.  0.
         23    2    1    2    0    0 -0.27984793859E+02 -0.97130704052E+02 -0.34938315018E+02  0.14038936894E+03  0.90944855262E+02 0.  0.
          5    1    3    3  502    0 -0.45428883689E+02  0.41714235555E+02  0.98650630723E+02  0.11641855635E+03  0.41800000000E+01 0. -1.
         -5    1    3    3    0  502  0.73413677549E+02  0.55416468497E+02  0.62722431553E+02  0.11140973410E+03  0.41800000000E+01 0. -1.
        -11    1    4    4    0    0 -0.45553320151E+02 -0.10260782574E+03 -0.43105154613E+02  0.12025608190E+03  0.00000000000E+00 0.  1.
         11    1    4    4    0    0  0.17568526292E+02  0.54771216895E+01  0.81668395945E+01  0.20133287040E+02  0.00000000000E+00 0. -1.
</event>
<event>
 8    1  0.6862919E-009  0.5091344E+03  0.7561462E-02  0.1011422E+00
         -1   -1    0    0    0  501 -0.00000000000E+00  0.00000000000E+00  0.96574503657E+03  0.96574503657E+03  0.00000000000E+00 0.  1.
          1   -1    0    0  501    0  0.00000000000E+00 -0.00000000000E+00 -0.27233368097E+03  0.27233368097E+03  0.00000000000E+00 0. -1.
         25    2    1    2    0    0 -0.49306215259E+03  0.72668931360E+02  0.28600920346E+03  0.58808135708E+03  0.12508940078E+03 0.  0.
         23    2    1    2    0    0  0.49306215259E+03 -0.72668931360E+02  0.40740215214E+03  0.64999736046E+03  0.90160940172E+02 0.  0.
          5    1    3    3  502    0 -0.11349949555E+03  0.68146454997E+02  0.53006933455E+02  0.14266492986E+03  0.41800000000E+01 0. -1.
         -5    1    3    3    0  502 -0.37956265704E+03  0.45224763626E+01  0.23300227000E+03  0.44541642722E+03  0.41800000000E+01 0. -1.
        -11    1    4    4    0    0  0.11720983034E+03 -0.56210891098E+02  0.95385412560E+02  0.16123332638E+03  0.00000000000E+00 0. -1.
         11    1    4    4    0    0  0.37585232225E+03 -0.16458040262E+02  0.31201673958E+03  0.48876403408E+03  0.00000000000E+00 0.  1.
</event>
<event>
 8    1  0.6862919E-009  0.1687797E+03  0.7561462E-02  0.1179126E+00
         -4   -1    0    0    0  501 -0.00000000000E+00  0.00000000000E+00  0.36106674568E+03  0.36106674568E+03  0.00000000000E+00 0.  1.
          4   -1    0    0  501    0  0.00000000000E+00 -0.00000000000E+00 -0.81544146618E+02  0.81544146618E+02  0.00000000000E+00 0. -1.
         25    2    1    2    0    0 -0.52761876993E+02  0.12071056329E+03  0.12888365607E+03  0.22274679822E+03  0.12510109336E+03 0.  0.
         23    2    1    2    0    0  0.52761876993E+02 -0.12071056329E+03  0.15063894299E+03  0.21986409408E+03  0.91067408914E+02 0.  0.
          5    1    3    3  502    0 -0.91824734721E+02  0.10241601325E+03  0.10621893460E+03  0.17384118080E+03  0.41800000000E+01 0. -1.
         -5    1    3    3    0  502  0.39062857729E+02  0.18294550045E+02  0.22664721473E+02  0.48905617415E+02  0.41800000000E+01 0. -1.
        -11    1    4    4    0    0  0.40123801289E+02 -0.52613811033E+01  0.20248288438E+02  0.45250356304E+02  0.00000000000E+00 0.  1.
         11    1    4    4    0    0  0.12638075704E+02 -0.11544918219E+03  0.13039065455E+03  0.17461373777E+03  0.00000000000E+00 0. -1.
</event>
<event>
 8    1  0.6862919E-009  0.1935392E+03  0.7561462E-02  0.1155307E+00
         -2   -1    0    0    0  501 -0.00000000000E+00  0.00000000000E+00  0.15489402950E+03  0.15489402950E+03  0.00000000000E+00 0.  1.
          2   -1    0    0  501    0  0.00000000000E+00 -0.00000000000E+00 -0.25125160729E+03  0.25125160729E+03  0.00000000000E+00 0. -1.
         25    2    1    2    0    0 -0.13554321808E+03 -0.90468209401E+02 -0.31441004485E+02  0.20783008559E+03  0.12509335248E+03 0.  0.
         23    2    1    2    0    0  0.13554321808E+03  0.90468209401E+02 -0.64916573304E+02  0.19831555120E+03  0.92511812654E+02 0.  0.
          5    1    3    3  502    0 -0.11999066852E+03 -0.69967036234E+01 -0.14375695794E+02  0.12112327366E+03  0.41800000000E+01 0.  1.
         -5    1    3    3    0  502 -0.15552549562E+02 -0.83471505778E+02 -0.17065308691E+02  0.86706811932E+02  0.41800000000E+01 0.  1.
        -11    1    4    4    0    0  0.66109216066E+02  0.90859841052E+02 -0.16274406582E+02  0.11353763902E+03  0.00000000000E+00 0. -1.
         11    1    4    4    0    0  0.69434002012E+02 -0.39163165049E+00 -0.48642166722E+02  0.84777912183E+02  0.00000000000E+00 0.  1.
</event>
<event>
 8    1  0.6862919E-009  0.1631365E+03  0.7561462E-02  0.1185200E+00
          1   -1    0    0  501    0  0.00000000000E+00  0.00000000000E+00  0.60323621289E+03  0.60323621289E+03  0.00000000000E+00 0. -1.
         -1   -1    0    0    0  501 -0.00000000000E+00 -0.00000000000E+00 -0.63722105587E+02  0.63722105587E+02  0.00000000000E+00 0.  1.
         25    2    1    2    0    0  0.13187946950E+03 -0.62312510196E+02  0.17258479099E+03  0.25828190772E+03  0.12509592468E+03 0.  0.
         23    2    1    2    0    0 -0.13187946950E+03  0.62312510196E+02  0.36692931632E+03  0.40867641076E+03  0.10537666789E+03 0.  0.
          5    1    3    3  502    0  0.51752275456E+02 -0.30718924677E+02  0.16017773695E+03  0.17116170764E+03  0.41800000000E+01 0.  1.
         -5    1    3    3    0  502  0.80127194048E+02 -0.31593585519E+02  0.12407054039E+02  0.87120200079E+02  0.41800000000E+01 0.  1.
        -11    1    4    4    0    0 -0.13463517294E+02  0.59772487882E+02  0.11547008522E+03  0.13071861836E+03  0.00000000000E+00 0. -1.
         11    1    4    4    0    0 -0.11841595221E+03  0.25400223138E+01  0.25145923110E+03  0.27795779240E+03  0.00000000000E+00 0.  1.
</event>
<event>
 8    1  0.6862919E-009  0.1023916E+03  0.7561462E-02  0.1275346E+00
         -2   -1    0    0    0  501 -0.00000000000E+00  0.00000000000E+00  0.14956954189E+03  0.14956954189E+03  0.00000000000E+00 0.  1.
          2   -1    0    0  501    0  0.00000000000E+00 -0.00000000000E+00 -0.88144275555E+02  0.88144275555E+02  0.00000000000E+00 0. -1.
         25    2    1    2    0    0 -0.86293959460E+00  0.13661257782E+02 -0.11380741203E+01  0.12584300429E+03  0.12509113433E+03 0.  0.
         23    2    1    2    0    0  0.86293959460E+00 -0.13661257782E+02  0.62563340452E+02  0.11187081315E+03  0.91725310778E+02 0.  0.
          5    1    3    3  502    0  0.30598915973E+02  0.53103709595E+02  0.27911170200E+02  0.67474465195E+02  0.41800000000E+01 0. -1.
         -5    1    3    3    0  502 -0.31461855567E+02 -0.39442451813E+02 -0.29049244320E+02  0.58368539097E+02  0.41800000000E+01 0. -1.
        -11    1    4    4    0    0  0.45233539961E+02 -0.16780155299E+02  0.33566863703E+02  0.58773983089E+02  0.00000000000E+00 0.  1.
         11    1    4    4    0    0 -0.44370600367E+02  0.31188975169E+01  0.28996476748E+02  0.53096830060E+02  0.00000000000E+00 0. -1.
</event>
<event>
 8    1  0.6862919E-009  0.1519715E+03  0.7561462E-02  0.1198071E+00
          1   -1    0    0  501    0  0.00000000000E+00  0.00000000000E+00  0.47511361251E+03  0.47511361251E+03  0.00000000000E+00 0. -1.
         -1   -1    0    0    0  501 -0.00000000000E+00 -0.00000000000E+00 -0.58992657759E+02  0.58992657759E+02  0.00000000000E+00 0.  1.
         25    2    1    2    0    0  0.92673198409E+01 -0.12481351864E+03  0.19951157076E+03  0.26668036853E+03  0.12509698014E+03 0.  0.
         23    2    1    2    0    0 -0.92673198409E+01  0.12481351864E+03  0.21660938400E+03  0.26742590174E+03  0.94512909358E+02 0.  0.
          5    1    3    3  502    0  0.27439802544E+02 -0.80979451273E+01  0.12189733905E+03  0.12527950010E+03  0.41800000000E+01 0. -1.
         -5    1    3    3    0  502 -0.18172482703E+02 -0.11671557351E+03  0.77614231709E+02  0.14140086843E+03  0.41800000000E+01 0. -1.
        -11    1    4    4    0    0 -0.13350617685E+02 -0.13191363859E+02  0.25674921253E+02  0.31803343447E+02  0.00000000000E+00 0.  1.
         11    1    4    4    0    0  0.40832978441E+01  0.13800488250E+03  0.19093446274E+03  0.23562255830E+03  0.00000000000E+00 0. -1.
</event>
<event>
 8    1  0.6862919E-009  0.1442512E+03  0.7561462E-02  0.1207720E+00
          2   -1    0    0  501    0  0.00000000000E+00  0.00000000000E+00  0.56332974619E+03  0.56332974619E+03  0.00000000000E+00 0. -1.
         -2   -1    0    0    0  501 -0.00000000000E+00 -0.00000000000E+00 -0.61511898721E+02  0.61511898721E+02  0.00000000000E+00 0.  1.
         25    2    1    2    0    0  0.10026209065E+03  0.45650722362E+01  0.74297956391E+02  0.17675188894E+03  0.12509083586E+03 0.  0.
         23    2    1    2    0    0 -0.10026209065E+03 -0.45650722362E+01  0.42751989107E+03  0.44808975596E+03  0.89094586992E+02 0.  0.
          5    1    3    3  502    0  0.10134873891E+03  0.50824155967E+02  0.46531442278E+02  0.12262670684E+03  0.41800000000E+01 0.  1.
         -5    1    3    3    0  502 -0.10866482669E+01 -0.46259083731E+02  0.27766514113E+02  0.54125182107E+02  0.41800000000E+01 0.  1.
        -11    1    4    4    0    0 -0.88083521273E+02  0.29116390328E+02  0.35876622347E+03  0.37056669306E+03  0.00000000000E+00 0.  1.
         11    1    4    4    0    0 -0.12178569373E+02 -0.33681462565E+02  0.68753667604E+02  0.77523062900E+02  0.00000000000E+00 0. -1.
</event>
<event>
 8    1  0.6862919E-009  0.1905935E+03  0.7561462E-02  0.1157927E+00
         -1   -1    0    0    0  501 -0.00000000000E+00  0.00000000000E+00  0.19013009859E+02  0.19013009859E+02  0.00000000000E+00 0.  1.
          1   -1    0    0  501    0  0.00000000000E+00 -0.00000000000E+00 -0.28146940298E+04  0.28146940298E+04  0.00000000000E+00 0. -1.
         25    2    1    2    0    0 -0.15608171387E+03 -0.10183337894E+03 -0.19547693090E+04  0.19676133779E+04  0.12509122692E+03 0.  0.
         23    2    1    2    0    0  0.15608171387E+03  0.10183337894E+03 -0.84091171098E+03  0.86609366179E+03  0.90852555592E+02 0.  0.
          5    1    3    3  502    0 -0.15218795698E+03 -0.10147779721E+03 -0.12993157073E+04  0.13121347862E+04  0.41800000000E+01 0. -1.
         -5    1    3    3    0  502 -0.38937568906E+01 -0.35558172943E+00 -0.65545360169E+03  0.65547859168E+03  0.41800000000E+01 0. -1.
        -11    1    4    4    0    0  0.14890955781E+02  0.31316886189E+02 -0.59189535496E+02  0.68599482774E+02  0.00000000000E+00 0.  1.
         11    1    4    4    0    0  0.14119075809E+03  0.70516492749E+02 -0.78172217548E+03  0.79749417902E+03  0.00000000000E+00 0. -1.
</event>
<event>
 8    1  0.6862919E-009  0.1161800E+03  0.7561462E-02  0.1249535E+00
         -2   -1    0    0    0  501 -0.00000000000E+00  0.00000000000E+00  0.24972448035E+02  0.24972448035E+02  0.00000000000E+00 0.  1.
          2   -1    0    0  501    0  0.00000000000E+00 -0.00000000000E+00 -0.56270351650E+03  0.56270351650E+03  0.00000000000E+00 0. -1.
         25    2    1    2    0    0  0.10157643753E+02 -0.41548571139E+02 -0.31110215299E+03  0.33802310377E+03  0.12508240321E+03 0.  0.
         23    2    1    2    0    0 -0.10157643753E+02  0.41548571139E+02 -0.22662891547E+03  0.24965286077E+03  0.95584643495E+02 0.  0.
          5    1    3    3  502    0  0.41882585659E+02 -0.74533765770E+02 -0.21781487657E+03  0.23403039563E+03  0.41800000000E+01 0.  1.
         -5    1    3    3    0  502 -0.31724941906E+02  0.32985194632E+02 -0.93287276424E+02  0.10399270814E+03  0.41800000000E+01 0.  1.
        -11    1    4    4    0    0  0.20157476143E+02  0.61363777600E+02 -0.11033554977E+03  0.12785057915E+03  0.00000000000E+00 0.  1.
         11    1    4    4    0    0 -0.30315119896E+02 -0.19815206462E+02 -0.11629336571E+03  0.12180228162E+03  0.00000000000E+00 0. -1.
</event>
<event>
 8    1  0.6862919E-009  0.1402046E+03  0.7561462E-02  0.1213054E+00
          2   -1    0    0  501    0  0.00000000000E+00  0.00000000000E+00  0.97743591099E+03  0.97743591099E+03  0.00000000000E+00 0. -1.
         -2   -1    0    0    0  501 -0.00000000000E+00 -0.00000000000E+00 -0.21501155461E+02  0.21501155461E+02  0.00000000000E+00 0.  1.
         25    2    1    2    0    0  0.89304417803E+02  0.24482610317E+02  0.42107095832E+03  0.44891353635E+03  0.12509170210E+03 0.  0.
         23    2    1    2    0    0 -0.89304417803E+02 -0.24482610317E+02  0.53486379721E+03  0.55002353010E+03  0.88723868544E+02 0.  0.
          5    1    3    3  502    0 -0.72428854538E+00 -0.41299602753E+02  0.15336783600E+03  0.15888784504E+03  0.41800000000E+01 0. -1.
         -5    1    3    3    0  502  0.90028706348E+02  0.65782213070E+02  0.26770312232E+03  0.29002569131E+03  0.41800000000E+01 0. -1.
        -11    1    4    4    0    0  0.15622977121E+02 -0.15490779743E+02  0.69810064088E+02  0.73194854459E+02  0.00000000000E+00 0.  1.
         11    1    4    4    0    0 -0.10492739492E+03 -0.89918305733E+01  0.46505373312E+03  0.47682867564E+03  0.00000000000E+00 0. -1.
</event>
<event>
 8    1  0.6862919E-009  0.8916352E+02  0.7561462E-02  0.1304890E+00
          3   -1    0    0  501    0  0.00000000000E+00  0.00000000000E+00  0.64095632112E+02  0.64095632112E+02  0.00000000000E+00 0. -1.
         -3   -1    0    0    0  501 -0.00000000000E+00 -0.00000000000E+00 -0.38181701787E+03  0.38181701787E+03  0.00000000000E+00 0.  1.
         25    2    1    2    0    0  0.35438094919E+02  0.25121271788E+02 -0.31812249409E+03  0.34458145328E+03  0.12509004689E+03 0.  0.
         23    2    1    2    0    0 -0.35438094919E+02 -0.25121271788E+02  0.40110833341E+00  0.10133119670E+03  0.91547330213E+02 0.  0.
          5    1    3    3  502    0  0.28962028883E+02  0.74450541898E+02 -0.16207785438E+03  0.18074397801E+03  0.41800000000E+01 0.  1.
         -5    1    3    3    0  502  0.64760660358E+01 -0.49329270110E+02 -0.15604463971E+03  0.16383747527E+03  0.41800000000E+01 0.  1.
        -11    1    4    4    0    0 -0.14137530572E+02 -0.23001288523E+02  0.44649169025E+02  0.52177364240E+02  0.00000000000E+00 0. -1.
         11    1    4    4    0    0 -0.21300564347E+02 -0.21199832649E+01 -0.44248060692E+02  0.49153832460E+02  0.00000000000E+00 0.  1.
</event>
<event>
 8    1  0.6862919E-009  0.8729674E+02  0.7561462E-02  0.1309533E+00
          1   -1    0    0  501    0  0.00000000000E+00  0.00000000000E+00  0.69351818720E+02  0.69351818720E+02  0.00000000000E+00 0. -1.
         -1   -1    0    0    0  501 -0.00000000000E+00 -0.00000000000E+00 -0.20078207522E+03  0.20078207522E+03  0.00000000000E+00 0.  1.
         25    2    1    2    0    0  0.42923674840E+02  0.32538699455E+01 -0.74642633302E+02  0.15189510189E+03  0.12509024639E+03 0.  0.
         23    2    1    2    0    0 -0.42923674840E+02 -0.32538699455E+01 -0.56787623201E+02  0.11823879205E+03  0.94353316136E+02 0.  0.
          5    1    3    3  502    0 -0.30164145167E+02  0.23418291890E+02 -0.64793152824E+02  0.75325408074E+02  0.41800000000E+01 0. -1.
         -5    1    3    3    0  502  0.73087820007E+02 -0.20164421944E+02 -0.98494804786E+01  0.76569693818E+02  0.41800000000E+01 0. -1.
        -11    1    4    4    0    0 -0.12268190631E+02  0.18822005004E+02 -0.73553572402E+02  0.76908415579E+02  0.00000000000E+00 0.  1.
         11    1    4    4    0    0 -0.30655484209E+02 -0.22075874950E+02  0.16765949201E+02  0.41330376474E+02  0.00000000000E+00 0. -1.
</event>
<event>
 8    1  0.6862919E-009  0.1495806E+03  0.7561462E-02  0.1200989E+00
         -1   -1    0    0    0  501 -0.00000000000E+00  0.00000000000E+00  0.54922546224E+03  0.54922546224E+03  0.00000000000E+00 0.  1.
          1   -1    0    0  501    0  0.00000000000E+00 -0.00000000000E+00 -0.51947302120E+02  0.51947302120E+02  0.00000000000E+00 0. -1.
         25    2    1    2    0    0 -0.12208995055E+03 -0.17707488151E+01  0.18954667585E+03  0.25784933063E+03  0.12509693603E+03 0.  0.
         23    2    1    2    0    0  0.12208995055E+03  0.17707488151E+01  0.30773148426E+03  0.34332343373E+03  0.90902267085E+02 0.  0.
          5    1    3    3  502    0 -0.23003964625E+02  0.41668215051E+02  0.10983510587E+02  0.49025834402E+02  0.41800000000E+01 0. -1.
         -5    1    3    3    0  502 -0.99085985922E+02 -0.43438963866E+02  0.17856316526E+03  0.20882349623E+03  0.41800000000E+01 0. -1.
        -11    1    4    4    0    0  0.71418836436E+02 -0.35935593637E+02  0.22796676049E+03  0.24157992668E+03  0.00000000000E+00 0.  1.
         11    1    4    4    0    0  0.50671114111E+02  0.37706342453E+02  0.79764723777E+02  0.10174350704E+03  0.00000000000E+00 0. -1.
</event>
<event>
 8    1  0.6862919E-009  0.1749848E+03  0.7561462E-02  0.1172747E+00
          2   -1    0    0  501    0  0.00000000000E+00  0.00000000000E+00  0.16541533249E+04  0.16541533249E+04  0.00000000000E+00 0. -1.
         -2   -1    0    0    0  501 -0.00000000000E+00 -0.00000000000E+00 -0.22444433791E+02  0.22444433791E+02  0.00000000000E+00 0.  1.
         25    2    1    2    0    0  0.11167628818E+03  0.10347978391E+03  0.10473105547E+04  0.10656863482E+04  0.12509330843E+03 0.  0.
         23    2    1    2    0    0 -0.11167628818E+03 -0.10347978391E+03  0.58439833636E+03  0.61091141041E+03  0.92258749205E+02 0.  0.
          5    1    3    3  502    0  0.85164599615E+02 -0.48204528735E+01  0.44019222860E+03  0.44840039732E+03  0.41800000000E+01 0.  1.
         -5    1    3    3    0  502  0.26511688563E+02  0.10830023678E+03  0.60711832609E+03  0.61728595091E+03  0.41800000000E+01 0.  1.
        -11    1    4    4    0    0 -0.44354759299E+02 -0.51285634245E+02  0.11224661885E+03  0.13113681556E+03  0.00000000000E+00 0.  1.
         11    1    4    4    0    0 -0.67321528879E+02 -0.52194149661E+02  0.47215171752E+03  0.47977459485E+03  0.00000000000E+00 0. -1.
</event>
<event>
 8    1  0.6862919E-009  0.1623407E+03  0.7561462E-02  0.1186079E+00
         -4   -1    0    0    0  501 -0.00000000000E+00  0.00000000000E+00  0.43148872121E+03  0.43148872121E+03  0.00000000000E+00 0.  1.
          4   -1    0    0  501    0  0.00000000000E+00 -0.00000000000E+00 -0.68989338202E+02  0.68989338202E+02  0.00000000000E+00 0. -1.
         25    2    1    2    0    0 -0.12559795696E+03  0.45924112447E+02  0.17207801743E+03  0.25128335911E+03  0.12509441068E+03 0.  0.
         23    2    1    2    0    0  0.12559795696E+03 -0.45924112447E+02  0.19042136558E+03  0.24919470031E+03  0.89184254756E+02 0.  0.
          5    1    3    3  502    0 -0.27912615495E+02 -0.39256671492E+02  0.22523469052E+02  0.53338348480E+02  0.41800000000E+01 0.  1.
         -5    1    3    3    0  502 -0.97685341469E+02  0.85180783940E+02  0.14955454838E+03  0.19794501063E+03  0.41800000000E+01 0.  1.
        -11    1    4    4    0    0  0.11100367691E+03 -0.14420066669E+02  0.18167349910E+03  0.21338935045E+03  0.00000000000E+00 0.  1.
         11    1    4    4    0    0  0.14594280051E+02 -0.31504045778E+02  0.87478664787E+01  0.35805349859E+02  0.00000000000E+00 0. -1.
</event>
<event>
 8    1  0.6862919E-009  0.2395988E+03  0.7561462E-02  0.1120060E+00
         -1   -1    0    0    0  501 -0.00000000000E+00  0.00000000000E+00  0.46273467570E+03  0.46273467570E+03  0.00000000000E+00 0.  1.
          1   -1    0    0  501    0  0.00000000000E+00 -0.00000000000E+00 -0.21243923378E+03  0.21243923378E+03  0.00000000000E+00 0. -1.
         25    2    1    2    0    0  0.99398134599E+02 -0.20722642205E+03  0.32423424180E+03  0.41664988982E+03  0.12508600231E+03 0.  0.
         23    2    1    2    0    0 -0.99398134599E+02  0.20722642205E+03 -0.73938799879E+02  0.25852401966E+03  0.92438863331E+02 0.  0.
          5    1    3    3  502    0  0.95693291646E+02 -0.14695860636E+03  0.30722740995E+03  0.35377986358E+03  0.41800000000E+01 0. -1.
         -5    1    3    3    0  502  0.37048429529E+01 -0.60267815695E+02  0.17006831848E+02  0.62870026240E+02  0.41800000000E+01 0. -1.
        -11    1    4    4    0    0 -0.45969726427E+02  0.17482520010E+03 -0.75784938039E+02  0.19601128328E+03  0.00000000000E+00 0.  1.
         11    1    4    4    0    0 -0.53428408172E+02  0.32401221951E+02  0.18461381603E+01  0.62512736381E+02  0.00000000000E+00 0. -1.
</event>
<event>
 8    1  0.6862919E-009  0.8893742E+02  0.7561462E-02  0.1305445E+00
          1   -1    0    0  501    0  0.00000000000E+00  0.00000000000E+00  0.10663050261E+03  0.10663050261E+03  0.00000000000E+00 0. -1.
         -1   -1    0    0    0  501 -0.00000000000E+00 -0.00000000000E+00 -0.13695742519E+03  0.13695742519E+03  0.00000000000E+00 0.  1.
         25    2    1    2    0    0 -0.29851508035E+02  0.43818309080E+02 -0.16714226826E+02  0.13690575630E+03  0.12511060701E+03 0.  0.
         23    2    1    2    0    0  0.29851508035E+02 -0.43818309080E+02 -0.13612695752E+02  0.10668217150E+03  0.91567589721E+02 0.  0.
          5    1    3    3  502    0 -0.16386999208E+02 -0.77508619565E+01 -0.63310909932E+02  0.65987523976E+02  0.41800000000E+01 0.  1.
         -5    1    3    3    0  502 -0.13464508827E+02  0.51569171037E+02  0.46596683106E+02  0.70918232323E+02  0.41800000000E+01 0.  1.
        -11    1    4    4    0    0 -0.81590621293E+01  0.25489376560E+02 -0.33596730903E+01  0.26973431660E+02  0.00000000000E+00 0. -1.
         11    1    4    4    0    0  0.38010570165E+02 -0.69307685640E+02 -0.10253022662E+02  0.79708739839E+02  0.00000000000E+00 0.  1.
</event>
<event>
 8    1  0.6862919E-009  0.1034683E+03  0.7561462E-02  0.1273167E+00
         -2   -1    0    0    0  501 -0.00000000000E+00  0.00000000000E+00  0.52739190166E+03  0.52739190166E+03  0.00000000000E+00 0. -1.
          2   -1    0    0  501    0  0.00000000000E+00 -0.00000000000E+00 -0.66394045799E+02  0.66394045799E+02  0.00000000000E+00 0.  1.
         25    2    1    2    0    0  0.45431353028E+02 -0.85038697289E+02  0.42909759698E+03  0.45723913540E+03  0.12508913354E+03 0.  0.
         23    2    1    2    0    0 -0.45431353028E+02  0.85038697289E+02  0.31900258878E+02  0.13654681206E+03  0.91278789938E+02 0.  0.
          5    1    3    3  502    0  0.28765571753E+02 -0.30739799135E+02  0.37910258826E+03  0.38145594529E+03  0.41800000000E+01 0. -1.
         -5    1    3    3    0  502  0.16665781274E+02 -0.54298898154E+02  0.49995008721E+02  0.75783190110E+02  0.41800000000E+01 0. -1.
        -11    1    4    4    0    0 -0.19604021711E+02  0.78670694306E+02 -0.15166772034E+02  0.82482887824E+02  0.00000000000E+00 0.  1.
         11    1    4    4    0    0 -0.25827331316E+02  0.63680029828E+01  0.47067030911E+02  0.54063924235E+02  0.00000000000E+00 0. -1.
</event>
<event>
 8    1  0.6862919E-009  0.1108915E+03  0.7561462E-02  0.1258928E+00
          1   -1    0    0  501    0  0.00000000000E+00  0.00000000000E+00  0.50212885894E+03  0.50212885894E+03  0.00000000000E+00 0. -1.
         -1   -1    0    0    0  501 -0.00000000000E+00 -0.00000000000E+00 -0.27290663715E+02  0.27290663715E+02  0.00000000000E+00 0.  1.
         25    2    1    2    0    0  0.28628927825E+02  0.24698923868E+02  0.22331013777E+03  0.25873384085E+03  0.12508449313E+03 0.  0.
         23    2    1    2    0    0 -0.28628927825E+02 -0.24698923868E+02  0.25152805746E+03  0.27068568180E+03  0.92599796426E+02 0.  0.
          5    1    3    3  502    0  0.11825695153E+02 -0.46891389941E+02  0.13657694073E+03  0.14494613709E+03  0.41800000000E+01 0.  1.
         -5    1    3    3    0  502  0.16803232671E+02  0.71590313809E+02  0.86733197033E+02  0.11378770376E+03  0.41800000000E+01 0.  1.
        -11    1    4    4    0    0 -0.32900810482E+02  0.30118584702E+02  0.12528703319E+03  0.13299034987E+03  0.00000000000E+00 0. -1.
         11    1    4    4    0    0  0.42718826570E+01 -0.54817508570E+02  0.12624102427E+03  0.13769533193E+03  0.00000000000E+00 0.  1.
</event>
<event>
 8    1  0.6862919E-009  0.1610711E+03  0.7561462E-02  0.1187493E+00
         -3   -1    0    0    0  501 -0.00000000000E+00  0.00000000000E+00  0.95961128589E+02  0.95961128589E+02  0.00000000000E+00 0.  1.
          3   -1    0    0  501    0  0.00000000000E+00 -0.00000000000E+00 -0.33853925747E+03  0.33853925747E+03  0.00000000000E+00 0. -1.
         25    2    1    2    0    0  0.12666724140E+03  0.52299892330E+02 -0.77330434578E+02  0.20101535624E+03  0.12508920238E+03 0.  0.
         23    2    1    2    0    0 -0.12666724140E+03 -0.52299892330E+02 -0.16524769431E+03  0.23348502982E+03  0.91807352087E+02 0.  0.
          5    1    3    3  502    0  0.26322611625E+01 -0.27975763755E+02  0.90557064891E+01  0.29816947806E+02  0.41800000000E+01 0. -1.
         -5    1    3    3    0  502  0.12403498023E+03  0.80275656084E+02 -0.86386141067E+02  0.17119840843E+03  0.41800000000E+01 0. -1.
        -11    1    4    4    0    0 -0.64378080789E+02  0.33488555927E+00 -0.20886352225E+02  0.67682266094E+02  0.00000000000E+00 0.  1.
         11    1    4    4    0    0 -0.62289160607E+02 -0.52634777889E+02 -0.14436134208E+03  0.16580276373E+03  0.00000000000E+00 0. -1.
</event>
<event>
 8    1  0.6862919E-009  0.1031136E+03  0.7561462E-02  0.1273881E+00
          2   -1    0    0  501    0  0.00000000000E+00  0.00000000000E+00  0.70158974978E+03  0.70158974978E+03  0.00000000000E+00 0. -1.
         -2   -1    0    0    0  501 -0.00000000000E+00 -0.00000000000E+00 -0.19445916847E+02  0.19445916847E+02  0.00000000000E+00 0.  1.
         25    2    1    2    0    0  0.69723321570E+01 -0.16179251191E+01  0.25783172033E+03  0.28666239906E+03  0.12508758503E+03 0.  0.
         23    2    1    2    0    0 -0.69723321570E+01  0.16179251191E+01  0.42431211260E+03  0.43437326757E+03  0.92672194211E+02 0.  0.
          5    1    3    3  502    0 -0.19500921575E+02 -0.52532463796E+02  0.67519181067E+02  0.87842233047E+02  0.41800000000E+01 0.  1.
         -5    1    3    3    0  502  0.26473253732E+02  0.50914538677E+02  0.19031253926E+03  0.19882016601E+03  0.41800000000E+01 0.  1.
        -11    1    4    4    0    0 -0.17729347620E+02  0.44703249306E+02  0.19920013972E+03  0.20492292680E+03  0.00000000000E+00 0. -1.
         11    1    4    4    0    0  0.10757015463E+02 -0.43085324187E+02  0.22511197288E+03  0.22945034077E+03  0.00000000000E+00 0.  1.
</event>
<event>
 8    1  0.6862919E-009  0.1198337E+03  0.7561462E-02  0.1243372E+00
         -1   -1    0    0    0  501 -0.00000000000E+00  0.00000000000E+00  0.36426699087E+02  0.36426699087E+02  0.00000000000E+00 0.  1.
          1   -1    0    0  501    0  0.00000000000E+00 -0.00000000000E+00 -0.43260314738E+03  0.43260314738E+03  0.00000000000E+00 0. -1.
         25    2    1    2    0    0  0.15900975347E+01 -0.66142193330E+01 -0.24099890168E+03  0.27160709769E+03  0.12507465209E+03 0.  0.
         23    2    1    2    0    0 -0.15900975347E+01  0.66142193330E+01 -0.15517754661E+03  0.19742274878E+03  0.12185809147E+03 0.  0.
          5    1    3    3  502    0  0.15360765225E+01 -0.65482504381E+02 -0.11347524787E+03  0.13108936719E+03  0.41800000000E+01 0.  1.
         -5    1    3    3    0  502  0.54021012228E-01  0.58868285048E+02 -0.12752365381E+03  0.14051773050E+03  0.41800000000E+01 0.  1.
        -11    1    4    4    0    0 -0.42251027105E+02 -0.36442151461E+02 -0.10854293561E+03  0.12204404354E+03  0.00000000000E+00 0. -1.
         11    1    4    4    0    0  0.40660929570E+02  0.43056370794E+02 -0.46634611003E+02  0.75378705235E+02  0.00000000000E+00 0.  1.
</event>
<event>
 8    1  0.6862919E-009  0.9572979E+02  0.7561462E-02  0.1289541E+00
          1   -1    0    0  501    0  0.00000000000E+00  0.00000000000E+00  0.54976202512E+02  0.54976202512E+02  0.00000000000E+00 0. -1.
         -1   -1    0    0    0  501 -0.00000000000E+00 -0.00000000000E+00 -0.26011313628E+03  0.26011313628E+03  0.00000000000E+00 0.  1.
         25    2    1    2    0    0 -0.26590335854E+02  0.17334140276E+02 -0.64374856829E+02  0.14421935352E+03  0.12509029283E+03 0.  0.
         23    2    1    2    0    0  0.26590335854E+02 -0.17334140276E+02 -0.14076207694E+03  0.17086998527E+03  0.91515414993E+02 0.  0.
          5    1    3    3  502    0 -0.56926146436E+02 -0.14906455762E+02 -0.77922938802E+02  0.97735589029E+02  0.41800000000E+01 0. -1.
         -5    1    3    3    0  502  0.30335810581E+02  0.32240596038E+02  0.13548081973E+02  0.46483764495E+02  0.41800000000E+01 0. -1.
        -11    1    4    4    0    0 -0.28898967665E+02 -0.14762878310E+02 -0.89807215789E+02  0.95490465053E+02  0.00000000000E+00 0.  1.
         11    1    4    4    0    0  0.55489303519E+02 -0.25712619664E+01 -0.50954861149E+02  0.75379520215E+02  0.00000000000E+00 0. -1.
</event>
<event>
 8    1  0.6862919E-009  0.1390517E+03  0.7561462E-02  0.1214611E+00
         -3   -1    0    0    0  501 -0.00000000000E+00  0.00000000000E+00  0.23538951002E+03  0.23538951002E+03  0.00000000000E+00 0.  1.
          3   -1    0    0  501    0  0.00000000000E+00 -0.00000000000E+00 -0.10437219320E+03  0.10437219320E+03  0.00000000000E+00 0. -1.
         25    2    1    2    0    0  0.88481791316E+02 -0.71004034233E+02  0.63085029204E+02  0.18026787806E+03  0.12508471801E+03 0.  0.
         23    2    1    2    0    0 -0.88481791316E+02  0.71004034233E+02  0.67932287623E+02  0.15949382515E+03  0.89178945323E+02 0.  0.
          5    1    3    3  502    0  0.10914184498E+03 -0.82162126189E+02  0.30754585048E+02  0.14009237741E+03  0.41800000000E+01 0.  1.
         -5    1    3    3    0  502 -0.20660053667E+02  0.11158091956E+02  0.32330444156E+02  0.40175500656E+02  0.41800000000E+01 0.  1.
        -11    1    4    4    0    0 -0.71129587268E+02  0.70604475541E+02  0.87708568949E+02  0.13318109182E+03  0.00000000000E+00 0.  1.
         11    1    4    4    0    0 -0.17352204048E+02  0.39955869187E+00 -0.19776281326E+02  0.26312733335E+02  0.00000000000E+00 0. -1.
</event>
<event>
 8    1  0.6862919E-009  0.3159527E+03  0.7561462E-02  0.1077527E+00
          4   -1    0    0  501    0  0.00000000000E+00  0.00000000000E+00  0.15299143170E+04  0.15299143170E+04  0.00000000000E+00 0. -1.
         -4   -1    0    0    0  501 -0.00000000000E+00 -0.00000000000E+00 -0.85910194591E+02  0.85910194591E+02  0.00000000000E+00 0.  1.
         25    2    1    2    0    0 -0.59058908597E+02  0.30160294238E+03  0.37882659650E+03  0.50359147707E+03  0.12506996450E+03 0.  0.
         23    2    1    2    0    0  0.59058908597E+02 -0.30160294238E+03  0.10651775259E+04  0.11122330345E+04  0.89481125709E+02 0.  0.
          5    1    3    3  502    0  0.66152087176E+01 -0.40339110938E+01 -0.37054706842E+01  0.95517714630E+01  0.41800000000E+01 0.  1.
         -5    1    3    3    0  502 -0.65674117314E+02  0.30563685347E+03  0.38253206719E+03  0.49403970560E+03  0.41800000000E+01 0.  1.
        -11    1    4    4    0    0  0.76543301390E+01 -0.15349083157E+03  0.39219990738E+03  0.42123484126E+03  0.00000000000E+00 0.  1.
         11    1    4    4    0    0  0.51404578457E+02 -0.14811211081E+03  0.67297761850E+03  0.69099819324E+03  0.00000000000E+00 0. -1.
</event>
<event>
 8    1  0.6862919E-009  0.1274182E+03  0.7561462E-02  0.1231338E+00
          1   -1    0    0  501    0  0.00000000000E+00  0.00000000000E+00  0.42241693481E+02  0.42241693481E+02  0.00000000000E+00 0. -1.
         -1   -1    0    0    0  501 -0.00000000000E+00 -0.00000000000E+00 -0.49882932933E+03  0.49882932933E+03  0.00000000000E+00 0.  1.
         25    2    1    2    0    0  0.95073105070E+02 -0.95419496842E+01 -0.22339856972E+03  0.27327663197E+03  0.12507298875E+03 0.  0.
         23    2    1    2    0    0 -0.95073105070E+02  0.95419496842E+01 -0.23318906613E+03  0.26779439084E+03  0.90591120388E+02 0.  0.
          5    1    3    3  502    0  0.10898251605E+03 -0.90280853093E+01 -0.23191042896E+03  0.25643442552E+03  0.41800000000E+01 0.  1.
         -5    1    3    3    0  502 -0.13909410977E+02 -0.51386437493E+00  0.85118592445E+01  0.16842206451E+02  0.41800000000E+01 0.  1.
        -11    1    4    4    0    0 -0.63022796085E+01  0.37322969378E+02 -0.81434182206E+02  0.89801162592E+02  0.00000000000E+00 0.  1.
         11    1    4    4    0    0 -0.88770825461E+02 -0.27781019693E+02 -0.15175488392E+03  0.17799322825E+03  0.00000000000E+00 0. -1.
</event>
<event>
 8    1  0.6862919E-009  0.1265708E+03  0.7561462E-02  0.1232635E+00
          3   -1    0    0  501    0  0.00000000000E+00  0.00000000000E+00  0.36187585119E+02  0.36187585119E+02  0.00000000000E+00 0. -1.
         -3   -1    0    0    0  501 -0.00000000000E+00 -0.00000000000E+00 -0.52453183675E+03  0.52453183675E+03  0.00000000000E+00 0.  1.
         25    2    1    2    0    0  0.59984836659E+02  0.33742954852E+02 -0.36979311422E+03  0.39639777660E+03  0.12508989703E+03 0.  0.
         23    2    1    2    0    0 -0.59984836659E+02 -0.33742954852E+02 -0.11855113742E+03  0.16432164528E+03  0.90611606827E+02 0.  0.
          5    1    3    3  502    0 -0.33691719732E+02 -0.14933135237E+02 -0.92371978543E+02  0.99539868025E+02  0.41800000000E+01 0. -1.
         -5    1    3    3    0  502  0.93676556390E+02  0.48676090089E+02 -0.27742113567E+03  0.29685790857E+03  0.41800000000E+01 0. -1.
        -11    1    4    4    0    0 -0.52475725854E+02 -0.61963878204E+02 -0.10324789671E+03  0.13135201628E+03  0.00000000000E+00 0.  1.
         11    1    4    4    0    0 -0.75091108043E+01  0.28220923352E+02 -0.15303240709E+02  0.32969628996E+02  0.00000000000E+00 0. -1.
</event>
<event>
 8    1  0.6862919E-009  0.9736274E+02  0.7561462E-02  0.1285942E+00
          1   -1    0    0  501    0  0.00000000000E+00  0.00000000000E+00  0.10029089442E+03  0.10029089442E+03  0.00000000000E+00 0. -1.
         -1   -1    0    0    0  501 -0.00000000000E+00 -0.00000000000E+00 -0.15149345367E+03  0.15149345367E+03  0.00000000000E+00 0.  1.
         25    2    1    2    0    0  0.13116717295E+02 -0.52064478053E+02 -0.11406024698E+02  0.13660132642E+03  0.12508823619E+03 0.  0.
         23    2    1    2    0    0 -0.13116717295E+02  0.52064478053E+02 -0.39796534560E+02  0.11518302167E+03  0.93811546039E+02 0.  0.
          5    1    3    3  502    0  0.40845912874E+02 -0.74741001012E+02  0.21321172271E+02  0.87901482454E+02  0.41800000000E+01 0.  1.
         -5    1    3    3    0  502 -0.27729195579E+02  0.22676522959E+02 -0.32727196969E+02  0.48699843967E+02  0.41800000000E+01 0.  1.
        -11    1    4    4    0    0 -0.22814487243E+01  0.59944194545E+02  0.12433063283E+02  0.61262488772E+02  0.00000000000E+00 0. -1.
         11    1    4    4    0    0 -0.10835268570E+02 -0.78797164921E+01 -0.52229597844E+02  0.53920532897E+02  0.00000000000E+00 0.  1.
</event>
<event>
 8    1  0.6862919E-009  0.9844554E+02  0.7561462E-02  0.1283599E+00
         -1   -1    0    0    0  501 -0.00000000000E+00  0.00000000000E+00  0.11127738312E+03  0.11127738312E+03  0.00000000000E+00 0.  1.
          1   -1    0    0  501    0  0.00000000000E+00 -0.00000000000E+00 -0.12680291894E+03  0.12680291894E+03  0.00000000000E+00 0. -1.
         25    2    1    2    0    0  0.19002202303E+02 -0.31344725337E+02  0.20072697233E+02  0.13188753274E+03  0.12509129713E+03 0.  0.
         23    2    1    2    0    0 -0.19002202303E+02  0.31344725337E+02 -0.35598233057E+02  0.10619276932E+03  0.93091860869E+02 0.  0.
          5    1    3    3  502    0 -0.26811152299E+02  0.36380453808E+02 -0.64165291494E+01  0.45836879837E+02  0.41800000000E+01 0. -1.
         -5    1    3    3    0  502  0.45813354602E+02 -0.67725179145E+02  0.26489226383E+02  0.86050652900E+02  0.41800000000E+01 0. -1.
        -11    1    4    4    0    0 -0.38408689367E+02  0.32326894817E+02 -0.57886734775E+02  0.76623296786E+02  0.00000000000E+00 0. -1.
         11    1    4    4    0    0  0.19406487064E+02 -0.98216947967E+00  0.22288501718E+02  0.29569472533E+02  0.00000000000E+00 0.  1.
</event>
<event>
 8    1  0.6862919E-009  0.1296403E+03  0.7561462E-02  0.1227990E+00
         -1   -1    0    0    0  501 -0.00000000000E+00  0.00000000000E+00  0.16201179401E+02  0.16201179401E+02  0.00000000000E+00 0.  1.
          1   -1    0    0  501    0  0.00000000000E+00 -0.00000000000E+00 -0.13174060125E+04  0.13174060125E+04  0.00000000000E+00 0. -1.
         25    2    1    2    0    0  0.48295801063E+02  0.79843267484E+02 -0.81804385707E+03  0.83279682600E+03  0.12508944617E+03 0.  0.
         23    2    1    2    0    0 -0.48295801063E+02 -0.79843267484E+02 -0.48316097599E+03  0.50081036586E+03  0.93054081433E+02 0.  0.
          5    1    3    3  502    0  0.73591811398E+02  0.95517379753E+02 -0.72640521931E+03  0.73635680181E+03  0.41800000000E+01 0.  1.
         -5    1    3    3    0  502 -0.25296010335E+02 -0.15674112269E+02 -0.91638637762E+02  0.96440024187E+02  0.41800000000E+01 0.  1.
        -11    1    4    4    0    0  0.10882986782E+02 -0.24552117834E+01 -0.40093910767E+01  0.11855069928E+02  0.00000000000E+00 0.  1.
         11    1    4    4    0    0 -0.59178787844E+02 -0.77388055700E+02 -0.47915158491E+03  0.48895529593E+03  0.00000000000E+00 0. -1.
</event>
<event>
 8    1  0.6862919E-009  0.1294331E+03  0.7561462E-02  0.1228299E+00
         -1   -1    0    0    0  501 -0.00000000000E+00  0.00000000000E+00  0.18293887899E+03  0.18293887899E+03  0.00000000000E+00 0. -1.
          1   -1    0    0  501    0  0.00000000000E+00 -0.00000000000E+00 -0.15222844938E+03  0.15222844938E+03  0.00000000000E+00 0.  1.
         25    2    1    2    0    0  0.13912172051E+02  0.12438972720E+03 -0.37133578753E+01  0.17699536129E+03  0.12508883295E+03 0.  0.
         23    2    1    2    0    0 -0.13912172051E+02 -0.12438972720E+03  0.34423787480E+02  0.15817196708E+03  0.90371573311E+02 0.  0.
          5    1    3    3  502    0  0.29532191207E+02  0.69703527531E+02 -0.60138187531E+02  0.96771928095E+02  0.41800000000E+01 0.  1.
         -5    1    3    3    0  502 -0.15620019156E+02  0.54686199665E+02  0.56424829655E+02  0.80223433196E+02  0.41800000000E+01 0.  1.
        -11    1    4    4    0    0 -0.15782537660E+02 -0.77241272648E+02  0.64803096105E+02  0.10205265288E+03  0.00000000000E+00 0. -1.
         11    1    4    4    0    0  0.18703656087E+01 -0.47148454548E+02 -0.30379308625E+02  0.56119314200E+02  0.00000000000E+00 0.  1.
</event>
<event>
 8    1  0.6862919E-009  0.1175648E+03  0.7561462E-02  0.1247169E+00
         -2   -1    0    0    0  501 -0.00000000000E+00  0.00000000000E+00  0.10251840130E+03  0.10251840130E+03  0.00000000000E+00 0.  1.
          2   -1    0    0  501    0  0.00000000000E+00 -0.00000000000E+00 -0.20008049374E+03  0.20008049374E+03  0.00000000000E+00 0. -1.
         25    2    1    2    0    0  0.28687418767E+02 -0.76436581756E+02 -0.54684857117E+01  0.14947443444E+03  0.12508870128E+03 0.  0.
         23    2    1    2    0    0 -0.28687418767E+02  0.76436581756E+02 -0.92093606728E+02  0.15312446060E+03  0.91106251194E+02 0.  0.
          5    1    3    3  502    0  0.81727574895E+01 -0.93442617705E+02  0.35537435532E+02  0.10039272131E+03  0.41800000000E+01 0. -1.
         -5    1    3    3    0  502  0.20514661278E+02  0.17006035949E+02 -0.41005921244E+02  0.49081713123E+02  0.41800000000E+01 0. -1.
        -11    1    4    4    0    0 -0.49505546092E+02  0.79061017142E+02 -0.93525669368E+02  0.13209274907E+03  0.00000000000E+00 0. -1.
         11    1    4    4    0    0  0.20818127325E+02 -0.26244353861E+01  0.14320626400E+01  0.21031711529E+02  0.00000000000E+00 0.  1.
</event>
<event>
 8    1  0.6862919E-009  0.1048802E+03  0.7561462E-02  0.1270356E+00
          1   -1    0    0  501    0  0.00000000000E+00  0.00000000000E+00  0.42865741694E+03  0.42865741694E+03  0.00000000000E+00 0. -1.
         -1   -1    0    0    0  501 -0.00000000000E+00 -0.00000000000E+00 -0.28871365016E+02  0.28871365016E+02  0.00000000000E+00 0.  1.
         25    2    1    2    0    0 -0.88828771972E+01 -0.15099339858E+01  0.26878524233E+03  0.29660069702E+03  0.12508109998E+03 0.  0.
         23    2    1    2    0    0  0.88828771972E+01  0.15099339858E+01  0.13100080959E+03  0.16092808493E+03  0.93034676320E+02 0.  0.
          5    1    3    3  502    0 -0.13046417702E+02  0.57502123216E+02  0.85384151041E+02  0.10384906758E+03  0.41800000000E+01 0.  1.
         -5    1    3    3    0  502  0.41635405049E+01 -0.59012057202E+02  0.18340109129E+03  0.19275162944E+03  0.41800000000E+01 0.  1.
        -11    1    4    4    0    0 -0.37620920323E+02  0.18383352613E+02  0.43284007799E+02  0.60222808224E+02  0.00000000000E+00 0.  1.
         11    1    4    4    0    0  0.46503797520E+02 -0.16873418627E+02  0.87716801788E+02  0.10070527670E+03  0.00000000000E+00 0. -1.
</event>
<event>
 8    1  0.6862919E-009  0.2309071E+03  0.7561462E-02  0.1126003E+00
          2   -1    0    0  501    0  0.00000000000E+00  0.00000000000E+00  0.20681350971E+04  0.20681350971E+04  0.00000000000E+00 0. -1.
         -2   -1    0    0    0  501 -0.00000000000E+00 -0.00000000000E+00 -0.26391828534E+02  0.26391828534E+02  0.00000000000E+00 0.  1.
         25    2    1    2    0    0  0.17328608724E+03  0.10617995784E+03  0.90290369996E+03  0.93390887392E+03  0.12509373246E+03 0.  0.
         23    2    1    2    0    0 -0.17328608724E+03 -0.10617995784E+03  0.11388395686E+04  0.11606180517E+04  0.93682695687E+02 0.  0.
          5    1    3    3  502    0  0.19278842161E+03  0.92257350803E+02  0.82831444783E+03  0.85545373409E+03  0.41800000000E+01 0. -1.
         -5    1    3    3    0  502 -0.19502334361E+02  0.13922607035E+02  0.74589252129E+02  0.78455139827E+02  0.41800000000E+01 0. -1.
        -11    1    4    4    0    0 -0.10832536265E+03 -0.11545978922E+02  0.56789687260E+03  0.57825128770E+03  0.00000000000E+00 0. -1.
         11    1    4    4    0    0 -0.64960724598E+02 -0.94633978917E+02  0.57094269603E+03  0.58236676404E+03  0.00000000000E+00 0.  1.
</event>
<event>
 8    1  0.6862919E-009  0.5194446E+02  0.7561462E-02  0.1435127E+00
          1   -1    0    0  501    0  0.00000000000E+00  0.00000000000E+00  0.48040256702E+03  0.48040256702E+03  0.00000000000E+00 0. -1.
         -1   -1    0    0    0  501 -0.00000000000E+00 -0.00000000000E+00 -0.28638841506E+02  0.28638841506E+02  0.00000000000E+00 0.  1.
         25    2    1    2    0    0  0.16234220051E+02  0.10690983979E+02  0.34460511579E+03  0.36711934005E+03  0.12508427947E+03 0.  0.
         23    2    1    2    0    0 -0.16234220051E+02 -0.10690983979E+02  0.10715860972E+03  0.14192206848E+03  0.91000323319E+02 0.  0.
          5    1    3    3  502    0 -0.83629156434E+01 -0.22118184541E+02  0.43832743649E+01  0.24409791879E+02  0.41800000000E+01 0.  1.
         -5    1    3    3    0  502  0.24597135694E+02  0.32809168519E+02  0.34022184142E+03  0.34270954817E+03  0.41800000000E+01 0.  1.
        -11    1    4    4    0    0  0.90505473503E+01 -0.98249239621E+01 -0.13291144321E+02  0.18843992559E+02  0.00000000000E+00 0.  1.
         11    1    4    4    0    0 -0.25284767401E+02 -0.86606001657E+00  0.12044975404E+03  0.12307807592E+03  0.00000000000E+00 0. -1.
</event>
<event>
 8    1  0.6862919E-009  0.1254560E+03  0.7561462E-02  0.1234358E+00
          1   -1    0    0  501    0  0.00000000000E+00  0.00000000000E+00  0.75052787670E+02  0.75052787670E+02  0.00000000000E+00 0.  1.
         -1   -1    0    0    0  501 -0.00000000000E+00 -0.00000000000E+00 -0.30779920081E+03  0.30779920081E+03  0.00000000000E+00 0. -1.
         25    2    1    2    0    0  0.19305735417E+00  0.81129479058E+02 -0.21183934942E+03  0.25904859877E+03  0.12509291314E+03 0.  0.
         23    2    1    2    0    0 -0.19305735417E+00 -0.81129479058E+02 -0.20907063721E+02  0.12380338971E+03  0.91149022745E+02 0.  0.
          5    1    3    3  502    0 -0.14399616624E+02 -0.21826698376E+02 -0.11108456815E+03  0.11419723028E+03  0.41800000000E+01 0.  1.
         -5    1    3    3    0  502  0.14592673979E+02  0.10295617743E+03 -0.10075478126E+03  0.14485136849E+03  0.41800000000E+01 0.  1.
        -11    1    4    4    0    0 -0.18511297544E+02  0.14173722092E+02  0.38925291055E+01  0.23637138522E+02  0.00000000000E+00 0.  1.
         11    1    4    4    0    0  0.18318240189E+02 -0.95303201150E+02 -0.24799592826E+02  0.10016625119E+03  0.00000000000E+00 0. -1.
</event>
<event>
 8    1  0.6862919E-009  0.1107991E+03  0.7561462E-02  0.1259097E+00
          2   -1    0    0  501    0  0.00000000000E+00  0.00000000000E+00  0.19702735023E+03  0.19702735023E+03  0.00000000000E+00 0. -1.
         -2   -1    0    0    0  501 -0.00000000000E+00 -0.00000000000E+00 -0.75950548716E+02  0.75950548716E+02  0.00000000000E+00 0.  1.
         25    2    1    2    0    0 -0.12987583102E+02 -0.37458545294E+02  0.11366090820E+03  0.17360239119E+03  0.12508864155E+03 0.  0.
         23    2    1    2    0    0  0.12987583102E+02  0.37458545294E+02  0.74158933153E+01  0.99375507754E+02  0.90822222706E+02 0.  0.
          5    1    3    3  502    0  0.51461301587E+02  0.53241496183E+01  0.31679122061E+02  0.60808316083E+02  0.41800000000E+01 0.  1.
         -5    1    3    3    0  502 -0.64448884690E+02 -0.42782694913E+02  0.81981786137E+02  0.11279407511E+03  0.41800000000E+01 0.  1.
        -11    1    4    4    0    0  0.23510331730E+02  0.61575844098E+02 -0.11581635316E+02  0.66921256347E+02  0.00000000000E+00 0.  1.
         11    1    4    4    0    0 -0.10522748628E+02 -0.24117298804E+02  0.18997528631E+02  0.32454251407E+02  0.00000000000E+00 0. -1.
</event>
<event>
 8    1  0.6862919E-009  0.1609809E+03  0.7561462E-02  0.1187594E+00
         -2   -1    0    0    0  501 -0.00000000000E+00  0.00000000000E+00  0.21901221219E+03  0.21901221219E+03  0.00000000000E+00 0.  1.
          2   -1    0    0  501    0  0.00000000000E+00 -0.00000000000E+00 -0.14357668489E+03  0.14357668489E+03  0.00000000000E+00 0. -1.
         25    2    1    2    0    0 -0.48786403949E+02 -0.12410597465E+03 -0.35982142594E+01  0.18287271263E+03  0.12508827173E+03 0.  0.
         23    2    1    2    0    0  0.48786403949E+02  0.12410597465E+03  0.79033741556E+02  0.17971618445E+03  0.90934968504E+02 0.  0.
          5    1    3    3  502    0 -0.74772634121E+02 -0.30531075155E+02  0.18997286154E+02  0.83075042249E+02  0.41800000000E+01 0. -1.
         -5    1    3    3    0  502  0.25986230172E+02 -0.93574899492E+02 -0.22595500414E+02  0.99797670376E+02  0.41800000000E+01 0. -1.
        -11    1    4    4    0    0  0.24437242523E+02  0.11549977962E+03  0.93062639129E+02  0.15032642055E+03  0.00000000000E+00 0.  1.
         11    1    4    4    0    0  0.24349161426E+02  0.86061950236E+01 -0.14028897573E+02  0.29389763899E+02  0.00000000000E+00 0. -1.
</event>
<event>
 8    1  0.6862919E-009  0.1040966E+03  0.7561462E-02  0.1271910E+00
          2   -1    0    0  501    0  0.00000000000E+00  0.00000000000E+00  0.10128158587E+03  0.10128158587E+03  0.00000000000E+00 0. -1.
         -2   -1    0    0    0  501 -0.00000000000E+00 -0.00000000000E+00 -0.15682261419E+03  0.15682261419E+03  0.00000000000E+00 0.  1.
         25    2    1    2    0    0  0.85348640784E+01 -0.26943111843E+02  0.19396936132E+02  0.12970131658E+03  0.12508962871E+03 0.  0.
         23    2    1    2    0    0 -0.85348640784E+01  0.26943111843E+02 -0.74937964451E+02  0.12840288348E+03  0.10036347338E+03 0.  0.
          5    1    3    3  502    0  0.14921807060E+02  0.42469235690E+02 -0.20099372181E+02  0.49474776079E+02  0.41800000000E+01 0.  1.
         -5    1    3    3    0  502 -0.63869429817E+01 -0.69412347533E+02  0.39496308313E+02  0.80226540503E+02  0.41800000000E+01 0.  1.
        -11    1    4    4    0    0 -0.15274059280E+02  0.58718307461E+02 -0.18753265366E+02  0.63504499682E+02  0.00000000000E+00 0. -1.
         11    1    4    4    0    0  0.67391952016E+01 -0.31775195618E+02 -0.56184699085E+02  0.64898383800E+02  0.00000000000E+00 0.  1.
</event>
<event>
 8    1  0.6862919E-009  0.7497505E+02  0.7561462E-02  0.1343948E+00
          2   -1    0    0  501    0  0.00000000000E+00  0.00000000000E+00  0.29060290509E+03  0.29060290509E+03  0.00000000000E+00 0.  1.
         -2   -1    0    0    0  501 -0.00000000000E+00 -0.00000000000E+00 -0.44928160993E+02  0.44928160993E+02  0.00000000000E+00 0. -1.
         25    2    1    2    0    0 -0.27555218104E+02  0.98853841567E+01  0.11126587599E+03  0.16995437487E+03  0.12508950201E+03 0.  0.
         23    2    1    2    0    0  0.27555218104E+02 -0.98853841567E+01  0.13440886810E+03  0.16557669120E+03  0.92156855311E+02 0.  0.
          5    1    3    3  502    0  0.14867004125E+01 -0.23733800712E+02 -0.19974068890E+02  0.31335912343E+02  0.41800000000E+01 0.  1.
         -5    1    3    3    0  502 -0.29041918517E+02  0.33619184869E+02  0.13123994488E+03  0.13861846253E+03  0.41800000000E+01 0.  1.
        -11    1    4    4    0    0 -0.25567111610E+02  0.49194208753E+01  0.73303830033E+01  0.27048334751E+02  0.00000000000E+00 0. -1.
         11    1    4    4    0    0  0.53122329715E+02 -0.14804805032E+02  0.12707848510E+03  0.13852835645E+03  0.00000000000E+00 0.  1.
</event>
<event>
 8    1  0.6862919E-009  0.7609697E+02  0.7561462E-02  0.1340507E+00
          3   -1    0    0  501    0  0.00000000000E+00  0.00000000000E+00  0.41754968211E+02  0.41754968211E+02  0.00000000000E+00 0. -1.
         -3   -1    0    0    0  501 -0.00000000000E+00 -0.00000000000E+00 -0.30096547696E+03  0.30096547696E+03  0.00000000000E+00 0.  1.
         25    2    1    2    0    0 -0.24244640345E+02 -0.12886195626E+02 -0.13473453155E+03  0.18589341675E+03  0.12509640993E+03 0.  0.
         23    2    1    2    0    0  0.24244640345E+02  0.12886195626E+02 -0.12447597720E+03  0.15682702842E+03  0.91359681040E+02 0.  0.
          5    1    3    3  502    0  0.15198466342E+02 -0.11828683526E+02  0.18847191633E+02  0.27269033088E+02  0.41800000000E+01 0.  1.
         -5    1    3    3    0  502 -0.39443106687E+02 -0.10575121001E+01 -0.15358172318E+03  0.15862438366E+03  0.41800000000E+01 0.  1.
        -11    1    4    4    0    0  0.42685743907E+02  0.40999570210E+02 -0.95940990825E+02  0.11272848447E+03  0.00000000000E+00 0.  1.
         11    1    4    4    0    0 -0.18441103562E+02 -0.28113374584E+02 -0.28534986375E+02  0.44098543950E+02  0.00000000000E+00 0. -1.
</event>
<event>
 7    1  0.6862919E-009  0.1095741E+03  0.7561462E-02  0.1261361E+00
         -3   -1    0    0    0  501 -0.00000000000E+00  0.00000000000E+00  0.19931870637E+03  0.19931870637E+03  0.00000000000E+00 0.  1.
          3   -1    0    0  501    0  0.00000000000E+00 -0.00000000000E+00 -0.69151366315E+02  0.69151366315E+02  0.00000000000E+00 0. -1.
         25    2    1    2    0    0  0.11142747739E+02 -0.76166077863E+02  0.47545350289E+02  0.15437862685E+03  0.12508704110E+03 0.  0.
          5    1    3    3  502    0  0.19416567174E+02 -0.10679092414E+03  0.54660654929E+02  0.12160001709E+03  0.41800000000E+01 0.  1.
         -5    1    3    3    0  502 -0.82738194357E+01  0.30624846278E+02 -0.71153046398E+01  0.32778609758E+02  0.41800000000E+01 0.  1.
        -11    1    1    2    0    0 -0.14546073865E+02  0.47933092298E+02  0.56049649048E+02  0.75171355985E+02  0.00000000000E+00 0.  1.
         11    1    1    2    0    0  0.34033261265E+01  0.28232985565E+02  0.26572340715E+02  0.38920089847E+02  0.00000000000E+00 0. -1.
</event>
<event>
 8    1  0.6862919E-009  0.1955518E+03  0.7561462E-02  0.1153547E+00
         -1   -1    0    0    0  501 -0.00000000000E+00  0.00000000000E+00  0.17988130254E+03  0.17988130254E+03  0.00000000000E+00 0.  1.
          1   -1    0    0  501    0  0.00000000000E+00 -0.00000000000E+00 -0.43382548923E+03  0.43382548923E+03  0.00000000000E+00 0. -1.
         25    2    1    2    0    0 -0.10918126086E+03  0.14957868749E+03 -0.32612732698E+03  0.39535032312E+03  0.12509401710E+03 0.  0.
         23    2    1    2    0    0  0.10918126086E+03 -0.14957868749E+03  0.72183140289E+02  0.21835646865E+03  0.90414656912E+02 0.  0.
          5    1    3    3  502    0  0.10833618500E+02  0.22297465343E+02  0.11488250014E+00  0.25140203829E+02  0.41800000000E+01 0. -1.
         -5    1    3    3    0  502 -0.12001487936E+03  0.12728122214E+03 -0.32624220948E+03  0.37021011929E+03  0.41800000000E+01 0. -1.
        -11    1    4    4    0    0  0.32454441042E+02 -0.14330887039E+02  0.49967756856E+02  0.61281659506E+02  0.00000000000E+00 0. -1.
         11    1    4    4    0    0  0.76726819819E+02 -0.13524780045E+03  0.22215383433E+02  0.15707480914E+03  0.00000000000E+00 0.  1.
</event>
<event>
 8    1  0.6862919E-009  0.1393523E+03  0.7561462E-02  0.1214203E+00
          3   -1    0    0  501    0  0.00000000000E+00  0.00000000000E+00  0.52012002539E+02  0.52012002539E+02  0.00000000000E+00 0. -1.
         -3   -1    0    0    0  501 -0.00000000000E+00 -0.00000000000E+00 -0.44564373530E+03  0.44564373530E+03  0.00000000000E+00 0.  1.
         25    2    1    2    0    0  0.90328600401E+02  0.43141617162E+02 -0.15216463921E+03  0.22095689129E+03  0.12508962868E+03 0.  0.
         23    2    1    2    0    0 -0.90328600401E+02 -0.43141617162E+02 -0.24146709355E+03  0.27669884655E+03  0.90749320826E+02 0.  0.
          5    1    3    3  502    0  0.78430340153E+02  0.84228955216E+02 -0.94131466553E+02  0.14874152261E+03  0.41800000000E+01 0.  1.
         -5    1    3    3    0  502  0.11898260248E+02 -0.41087338054E+02 -0.58033172658E+02  0.72215368683E+02  0.41800000000E+01 0.  1.
        -11    1    4    4    0    0 -0.56159590445E+02  0.10330665912E+02 -0.17806143447E+03  0.18699330657E+03  0.00000000000E+00 0.  1.
         11    1    4    4    0    0 -0.34169009956E+02 -0.53472283074E+02 -0.63405659079E+02  0.89705539973E+02  0.00000000000E+00 0. -1.
</event>
<event>
 8    1  0.6862919E-009  0.1162711E+03  0.7561462E-02  0.1249378E+00
         -2   -1    0    0    0  501 -0.00000000000E+00  0.00000000000E+00  0.25873953120E+02  0.25873953120E+02  0.00000000000E+00 0. -1.
          2   -1    0    0  501    0  0.00000000000E+00 -0.00000000000E+00 -0.62088976609E+03  0.62088976609E+03  0.00000000000E+00 0.  1.
         25    2    1    2    0    0 -0.43826918427E+02 -0.61676852186E+02 -0.35938273515E+03  0.38797985229E+03  0.12509029771E+03 0.  0.
         23    2    1    2    0    0  0.43826918427E+02  0.61676852186E+02 -0.23563307782E+03  0.25878386692E+03  0.75639338595E+02 0.  0.
          5    1    3    3  502    0 -0.51710400171E+02  0.25840264278E+02 -0.15427330517E+03  0.16480112206E+03  0.41800000000E+01 0. -1.
         -5    1    3    3    0  502  0.78834817445E+01 -0.87517116464E+02 -0.20510942998E+03  0.22317873023E+03  0.41800000000E+01 0. -1.
        -11    1    4    4    0    0  0.38879114988E+02  0.18327549502E+02 -0.19319326731E+03  0.19791696033E+03  0.00000000000E+00 0.  1.
         11    1    4    4    0    0  0.49478034385E+01  0.43349302684E+02 -0.42439810509E+02  0.60866906592E+02  0.00000000000E+00 0. -1.
</event>
<event>
 8    1  0.6862919E-009  0.1455650E+03  0.7561462E-02  0.1206031E+00
          1   -1    0    0  501    0  0.00000000000E+00  0.00000000000E+00  0.18851995282E+03  0.18851995282E+03  0.00000000000E+00 0. -1.
         -1   -1    0    0    0  501 -0.00000000000E+00 -0.00000000000E+00 -0.12535117492E+03  0.12535117492E+03  0.00000000000E+00 0.  1.
         25    2    1    2    0    0  0.89270829884E+02  0.60465743021E+02  0.25975700330E+02  0.16717364372E+03  0.12508758132E+03 0.  0.
         23    2    1    2    0    0 -0.89270829884E+02 -0.60465743021E+02  0.37193077574E+02  0.14669748402E+03  0.92257463936E+02 0.  0.
          5    1    3    3  502    0 -0.29513999303E+02 -0.32474056237E+00  0.14583785679E+02  0.33186455310E+02  0.41800000000E+01 0. -1.
         -5    1    3    3    0  502  0.11878482919E+03  0.60790483584E+02  0.11391914651E+02  0.13398718841E+03  0.41800000000E+01 0. -1.
        -11    1    4    4    0    0  0.75756158415E+01 -0.22593079483E+02 -0.17156272902E+02  0.29362814848E+02  0.00000000000E+00 0.  1.
         11    1    4    4    0    0 -0.96846445725E+02 -0.37872663538E+02  0.54349350476E+02  0.11733466917E+03  0.00000000000E+00 0. -1.
</event>
<event>
 8    1  0.6862919E-009  0.6323959E+02  0.7561462E-02  0.1384718E+00
         -1   -1    0    0    0  501 -0.00000000000E+00  0.00000000000E+00  0.18249931317E+03  0.18249931317E+03  0.00000000000E+00 0.  1.
          1   -1    0    0  501    0  0.00000000000E+00 -0.00000000000E+00 -0.80880150828E+02  0.80880150828E+02  0.00000000000E+00 0. -1.
         25    2    1    2    0    0 -0.12931262908E+02  0.35807118185E-01  0.11765789916E+03  0.17221584581E+03  0.12509075694E+03 0.  0.
         23    2    1    2    0    0  0.12931262908E+02 -0.35807118185E-01 -0.16038736816E+02  0.91163618190E+02  0.88805097603E+02 0.  0.
          5    1    3    3  502    0  0.78959181396E+01 -0.10097299756E+02 -0.24584897453E+02  0.28039090007E+02  0.41800000000E+01 0. -1.
         -5    1    3    3    0  502 -0.20827181048E+02  0.10133106874E+02  0.14224279662E+03  0.14417675580E+03  0.41800000000E+01 0. -1.
        -11    1    4    4    0    0  0.48610263510E+02 -0.14851565624E+02 -0.55387671190E+01  0.51129293572E+02  0.00000000000E+00 0.  1.
         11    1    4    4    0    0 -0.35679000601E+02  0.14815758506E+02 -0.10499969697E+02  0.40034324618E+02  0.00000000000E+00 0. -1.
</event>
<event>
 8    1  0.6862919E-009  0.1385135E+03  0.7561462E-02  0.1215343E+00
         -2   -1    0    0    0  501 -0.00000000000E+00  0.00000000000E+00  0.32209754627E+03  0.32209754627E+03  0.00000000000E+00 0.  1.
          2   -1    0    0  501    0  0.00000000000E+00 -0.00000000000E+00 -0.78704146221E+02  0.78704146221E+02  0.00000000000E+00 0. -1.
         25    2    1    2    0    0 -0.25735250046E+02 -0.10625990971E+03  0.81699295758E+02  0.18513870654E+03  0.12509234279E+03 0.  0.
         23    2    1    2    0    0  0.25735250046E+02  0.10625990971E+03  0.16169410429E+03  0.21566298595E+03  0.91717330097E+02 0.  0.
          5    1    3    3  502    0  0.95842651856E+00  0.28283746839E+02  0.99799287459E+01  0.30297859568E+02  0.41800000000E+01 0.  1.
         -5    1    3    3    0  502 -0.26693676564E+02 -0.13454365655E+03  0.71719367012E+02  0.15484084697E+03  0.41800000000E+01 0.  1.
        -11    1    4    4    0    0  0.14930804113E+02  0.24294708616E+02 -0.55952804581E+01  0.29059747790E+02  0.00000000000E+00 0. -1.
         11    1    4    4    0    0  0.10804445932E+02  0.81965201094E+02  0.16728938475E+03  0.18660323816E+03  0.00000000000E+00 0.  1.
</event>
<event>
 8    1  0.6862919E-009  0.8221557E+02  0.7561462E-02  0.1322879E+00
         -1   -1    0    0    0  501 -0.00000000000E+00  0.00000000000E+00  0.35321108961E+03  0.35321108961E+03  0.00000000000E+00 0.  1.
          1   -1    0    0  501    0  0.00000000000E+00 -0.00000000000E+00 -0.50731753995E+02  0.50731753995E+02  0.00000000000E+00 0. -1.
         25    2    1    2    0    0 -0.43972245945E+02 -0.60065280798E+02  0.21084406554E+03  0.25621546278E+03  0.12509894892E+03 0.  0.
         23    2    1    2    0    0  0.43972245945E+02  0.60065280798E+02  0.91635270068E+02  0.14772738083E+03  0.88797296999E+02 0.  0.
          5    1    3    3  502    0 -0.46987936604E+02 -0.57385166912E+02  0.38308128799E+02  0.83581748605E+02  0.41800000000E+01 0.  1.
         -5    1    3    3    0  502  0.30156906585E+01 -0.26801138860E+01  0.17253593674E+03  0.17263371417E+03  0.41800000000E+01 0.  1.
        -11    1    4    4    0    0 -0.40149372989E+01  0.23930708903E+02  0.83686210603E+02  0.87133118819E+02  0.00000000000E+00 0.  1.
         11    1    4    4    0    0  0.47987183244E+02  0.36134571895E+02  0.79490594659E+01  0.60594262007E+02  0.00000000000E+00 0. -1.
</event>
<event>
 8    1  0.6862919E-009  0.9375679E+02  0.7561462E-02  0.1294001E+00
          1   -1    0    0  501    0  0.00000000000E+00  0.00000000000E+00  0.12418598950E+03  0.12418598950E+03  0.00000000000E+00 0. -1.
         -1   -1    0    0    0  501 -0.00000000000E+00 -0.00000000000E+00 -0.10887134581E+03  0.10887134581E+03  0.00000000000E+00 0.  1.
         25    2    1    2    0    0  0.64181273413E+01  0.19387240035E+02 -0.37368230758E+02  0.13214902141E+03  0.12509964730E+03 0.  0.
         23    2    1    2    0    0 -0.64181273413E+01 -0.19387240035E+02  0.52682874448E+02  0.10090831391E+03  0.83605891662E+02 0.  0.
          5    1    3    3  502    0  0.50778109319E+02 -0.28720192917E+02 -0.41253332724E+01  0.58632385606E+02  0.41800000000E+01 0.  1.
         -5    1    3    3    0  502 -0.44359981978E+02  0.48107432952E+02 -0.33242897486E+02  0.73516635801E+02  0.41800000000E+01 0.  1.
        -11    1    4    4    0    0 -0.33236973793E+02 -0.72541166454E+01 -0.66607890182E+01  0.34665324830E+02  0.00000000000E+00 0.  1.
         11    1    4    4    0    0  0.26818846452E+02 -0.12133123389E+02  0.59343663466E+02  0.66242989077E+02  0.00000000000E+00 0. -1.
</event>
<event>
 8    1  0.6862919E-009  0.7464901E+02  0.7561462E-02  0.1344961E+00
          1   -1    0    0  501    0  0.00000000000E+00  0.00000000000E+00  0.20840681191E+03  0.20840681191E+03  0.00000000000E+00 0. -1.
         -1   -1    0    0    0  501 -0.00000000000E+00 -0.00000000000E+00 -0.11010314756E+03  0.11010314756E+03  0.00000000000E+00 0.  1.
         25    2    1    2    0    0  0.36079563468E+02  0.52210581890E+02  0.14136028806E+03  0.19914314500E+03  0.12509029299E+03 0.  0.
         23    2    1    2    0    0 -0.36079563468E+02 -0.52210581890E+02 -0.43056623712E+02  0.11936681446E+03  0.91470671741E+02 0.  0.
          5    1    3    3  502    0  0.47949016577E+02  0.54175063024E+02  0.16052951263E+03  0.17612848285E+03  0.41800000000E+01 0.  1.
         -5    1    3    3    0  502 -0.11869453109E+02 -0.19644811345E+01 -0.19169224575E+02  0.23014662153E+02  0.41800000000E+01 0.  1.
        -11    1    4    4    0    0 -0.20078520660E+02 -0.36566436420E+02  0.24377354580E+02  0.48316732926E+02  0.00000000000E+00 0. -1.
         11    1    4    4    0    0 -0.16001042808E+02 -0.15644145470E+02 -0.67433978292E+02  0.71050081539E+02  0.00000000000E+00 0.  1.
</event>
<event>
 8    1  0.6862919E-009  0.7493821E+02  0.7561462E-02  0.1344062E+00
         -2   -1    0    0    0  501 -0.00000000000E+00  0.00000000000E+00  0.60368016666E+02  0.60368016666E+02  0.00000000000E+00 0. -1.
          2   -1    0    0  501    0  0.00000000000E+00 -0.00000000000E+00 -0.18954570517E+03  0.18954570517E+03  0.00000000000E+00 0.  1.
         25    2    1    2    0    0 -0.96129543475E+01  0.19422117904E+02 -0.60925008764E+02  0.14081650634E+03  0.12509118358E+03 0.  0.
         23    2    1    2    0    0  0.96129543475E+01 -0.19422117904E+02 -0.68252679737E+02  0.10909721550E+03  0.82305203862E+02 0.  0.
          5    1    3    3  502    0  0.28725238733E+02  0.42616072749E+01  0.29341249798E+02  0.41493155779E+02  0.41800000000E+01 0. -1.
         -5    1    3    3    0  502 -0.38338193080E+02  0.15160510629E+02 -0.90266258562E+02  0.99323350557E+02  0.41800000000E+01 0. -1.
        -11    1    4    4    0    0  0.40756245413E+02  0.27818460883E+01 -0.55223166549E+02  0.68690671357E+02  0.00000000000E+00 0.  1.
         11    1    4    4    0    0 -0.31143291066E+02 -0.22203963993E+02 -0.13029513188E+02  0.40406544139E+02  0.00000000000E+00 0. -1.
</event>
<event>
 8    1  0.6862919E-009  0.6769297E+02  0.7561462E-02  0.1368119E+00
          2   -1    0    0  501    0  0.00000000000E+00  0.00000000000E+00  0.48224896293E+03  0.48224896293E+03  0.00000000000E+00 0. -1.
         -2   -1    0    0    0  501 -0.00000000000E+00 -0.00000000000E+00 -0.29934777631E+02  0.29934777631E+02  0.00000000000E+00 0.  1.
         25    2    1    2    0    0  0.41943709573E+02 -0.21702702786E+02  0.20906143480E+03  0.24815810531E+03  0.12508189170E+03 0.  0.
         23    2    1    2    0    0 -0.41943709573E+02  0.21702702786E+02  0.24325275050E+03  0.26402563525E+03  0.91144683676E+02 0.  0.
          5    1    3    3  502    0 -0.82000007625E+01 -0.13794265328E+02 -0.12532215130E+02  0.20785826530E+02  0.41800000000E+01 0. -1.
         -5    1    3    3    0  502  0.50143710336E+02 -0.79084374579E+01  0.22159364993E+03  0.22737227878E+03  0.41800000000E+01 0. -1.
        -11    1    4    4    0    0 -0.15105026846E+02  0.34849338195E+02  0.22670471765E+03  0.22986445400E+03  0.00000000000E+00 0. -1.
         11    1    4    4    0    0 -0.26838682727E+02 -0.13146635409E+02  0.16548032850E+02  0.34161181249E+02  0.00000000000E+00 0.  1.
</event>
<event>
 8    1  0.6862919E-009  0.1050928E+03  0.7561462E-02  0.1269937E+00
         -1   -1    0    0    0  501 -0.00000000000E+00  0.00000000000E+00  0.11870762814E+03  0.11870762814E+03  0.00000000000E+00 0.  1.
          1   -1    0    0  501    0  0.00000000000E+00 -0.00000000000E+00 -0.10950501588E+03  0.10950501588E+03  0.00000000000E+00 0. -1.
         25    2    1    2    0    0 -0.17146870927E+02 -0.38512235659E+01  0.13869664329E+02  0.12706389959E+03  0.12507605640E+03 0.  0.
         23    2    1    2    0    0  0.17146870927E+02  0.38512235659E+01 -0.46670520752E+01  0.10114874443E+03  0.99500954865E+02 0.  0.
          5    1    3    3  502    0  0.45475089988E+02  0.29846176752E+02  0.34632621712E+00  0.54556121728E+02  0.41800000000E+01 0.  1.
         -5    1    3    3    0  502 -0.62621960915E+02 -0.33697400318E+02  0.13523338112E+02  0.72507777863E+02  0.41800000000E+01 0.  1.
        -11    1    4    4    0    0 -0.25803191166E+02 -0.22304942635E+02  0.25428614209E+02  0.42543266928E+02  0.00000000000E+00 0.  1.
         11    1    4    4    0    0  0.42950062093E+02  0.26156166201E+02 -0.30095666284E+02  0.58605477502E+02  0.00000000000E+00 0. -1.
</event>
<event>
 8    1  0.6862919E-009  0.1752610E+03  0.7561462E-02  0.1172470E+00
          1   -1    0    0  501    0  0.00000000000E+00  0.00000000000E+00  0.42663274265E+03  0.42663274265E+03  0.00000000000E+00 0. -1.
         -1   -1    0    0    0  501 -0.00000000000E+00 -0.00000000000E+00 -0.74602261506E+02  0.74602261506E+02  0.00000000000E+00 0.  1.
         25    2    1    2    0    0  0.78938616173E+02 -0.11754679800E+03  0.17698749098E+03  0.25888398373E+03  0.12509112769E+03 0.  0.
         23    2    1    2    0    0 -0.78938616173E+02  0.11754679800E+03  0.17504299016E+03  0.24235102042E+03  0.89696230978E+02 0.  0.
          5    1    3    3  502    0  0.91881113877E+01  0.26125481504E+02  0.16881033860E+02  0.32701741221E+02  0.41800000000E+01 0. -1.
         -5    1    3    3    0  502  0.69750504786E+02 -0.14367227950E+03  0.16010645712E+03  0.22618224251E+03  0.41800000000E+01 0. -1.
        -11    1    4    4    0    0 -0.95728244049E+02  0.10162787046E+03  0.16741228545E+03  0.21798851824E+03  0.00000000000E+00 0. -1.
         11    1    4    4    0    0  0.16789627876E+02  0.15918927543E+02  0.76307047046E+01  0.24362502183E+02  0.00000000000E+00 0.  1.
</event>
<event>
 8    1  0.6862919E-009  0.1455159E+03  0.7561462E-02  0.1206094E+00
          1   -1    0    0  501    0  0.00000000000E+00  0.00000000000E+00  0.48508590874E+02  0.48508590874E+02  0.00000000000E+00 0. -1.
         -1   -1    0    0    0  501 -0.00000000000E+00 -0.00000000000E+00 -0.58997029380E+03  0.58997029380E+03  0.00000000000E+00 0.  1.
         25    2    1    2    0    0 -0.72537442971E+02  0.93104974859E+02 -0.19037299227E+03  0.25655304437E+03  0.12508945364E+03 0.  0.
         23    2    1    2    0    0  0.72537442971E+02 -0.93104974859E+02 -0.35108871065E+03  0.38192584030E+03  0.93133494335E+02 0.  0.
          5    1    3    3  502    0 -0.23797847737E+02 -0.10366837241E+02  0.80416394712E+01  0.27494531032E+02  0.41800000000E+01 0. -1.
         -5    1    3    3    0  502 -0.48739595234E+02  0.10347181210E+03 -0.19841463174E+03  0.22905851334E+03  0.41800000000E+01 0. -1.
        -11    1    4    4    0    0  0.75077749966E+02 -0.20757204960E+02 -0.17658513792E+03  0.19300217882E+03  0.00000000000E+00 0.  1.
         11    1    4    4    0    0 -0.25403069950E+01 -0.72347769899E+02 -0.17450357273E+03  0.18892366148E+03  0.00000000000E+00 0. -1.
</event>
<event>
 8    1  0.6862919E-009  0.1217348E+03  0.7561462E-02  0.1240262E+00
          1   -1    0    0  501    0  0.00000000000E+00  0.00000000000E+00  0.27853753360E+02  0.27853753360E+02  0.00000000000E+00 0. -1.
         -1   -1    0    0    0  501 -0.00000000000E+00 -0.00000000000E+00 -0.61603886861E+03  0.61603886861E+03  0.00000000000E+00 0.  1.
         25    2    1    2    0    0 -0.43915337613E+00  0.72551514111E+02 -0.33846660571E+03  0.36806378054E+03  0.12508952118E+03 0.  0.
         23    2    1    2    0    0  0.43915337613E+00 -0.72551514111E+02 -0.24971850954E+03  0.27582884143E+03  0.91969020346E+02 0.  0.
          5    1    3    3  502    0  0.29165948580E+02  0.94045364509E+02 -0.17835392414E+03  0.20377138611E+03  0.41800000000E+01 0.  1.
         -5    1    3    3    0  502 -0.29605101956E+02 -0.21493850398E+02 -0.16011268157E+03  0.16429239443E+03  0.41800000000E+01 0.  1.
        -11    1    4    4    0    0 -0.27111618908E+02 -0.75657751208E+02 -0.22411576455E+03  0.23809034234E+03  0.00000000000E+00 0.  1.
         11    1    4    4    0    0  0.27550772284E+02  0.31062370970E+01 -0.25602744987E+02  0.37738499085E+02  0.00000000000E+00 0. -1.
</event>
<event>
 8    1  0.6862919E-009  0.1596604E+03  0.7561462E-02  0.1189081E+00
         -3   -1    0    0    0  501 -0.00000000000E+00  0.00000000000E+00  0.66367564727E+03  0.66367564727E+03  0.00000000000E+00 0.  1.
          3   -1    0    0  501    0  0.00000000000E+00 -0.00000000000E+00 -0.50548755038E+02  0.50548755038E+02  0.00000000000E+00 0. -1.
         25    2    1    2    0    0  0.28044348160E+02 -0.14435968581E+03  0.30140320805E+03  0.35793514851E+03  0.12508985717E+03 0.  0.
         23    2    1    2    0    0 -0.28044348160E+02  0.14435968581E+03  0.31172368418E+03  0.35628925380E+03  0.90245070449E+02 0.  0.
          5    1    3    3  502    0 -0.31411374489E+02 -0.57385441616E+02  0.41822805962E+02  0.77758490568E+02  0.41800000000E+01 0. -1.
         -5    1    3    3    0  502  0.59455722650E+02 -0.86974244191E+02  0.25958040209E+03  0.28017665794E+03  0.41800000000E+01 0. -1.
        -11    1    4    4    0    0 -0.28211976921E+02  0.98247186299E+02  0.28548777532E+03  0.30323537907E+03  0.00000000000E+00 0.  1.
         11    1    4    4    0    0  0.16762876092E+00  0.46112499508E+02  0.26235908857E+02  0.53053874729E+02  0.00000000000E+00 0. -1.
</event>
<event>
 8    1  0.6862919E-009  0.8460942E+02  0.7561462E-02  0.1316457E+00
          2   -1    0    0  501    0  0.00000000000E+00  0.00000000000E+00  0.50528604298E+03  0.50528604298E+03  0.00000000000E+00 0. -1.
         -2   -1    0    0    0  501 -0.00000000000E+00 -0.00000000000E+00 -0.23070578380E+02  0.23070578380E+02  0.00000000000E+00 0.  1.
         25    2    1    2    0    0  0.94616466350E+01 -0.38799603438E+01  0.36287074141E+03  0.38396329397E+03  0.12509220318E+03 0.  0.
         23    2    1    2    0    0 -0.94616466350E+01  0.38799603438E+01  0.11934472319E+03  0.14439332739E+03  0.80633077528E+02 0.  0.
          5    1    3    3  502    0 -0.37055881450E+02  0.32451108064E+02  0.26519015422E+03  0.26975823075E+03  0.41800000000E+01 0. -1.
         -5    1    3    3    0  502  0.46517528085E+02 -0.36331068408E+02  0.97680587193E+02  0.11420506322E+03  0.41800000000E+01 0. -1.
        -11    1    4    4    0    0  0.17655324380E+02 -0.18412576195E+02  0.10218271940E+03  0.10531876179E+03  0.00000000000E+00 0. -1.
         11    1    4    4    0    0 -0.27116971015E+02  0.22292536539E+02  0.17162003784E+02  0.39074565593E+02  0.00000000000E+00 0.  1.
</event>
<event>
 8    1  0.6862919E-009  0.8113332E+02  0.7561462E-02  0.1325866E+00
         -2   -1    0    0    0  501 -0.00000000000E+00  0.00000000000E+00  0.20192399136E+03  0.20192399136E+03  0.00000000000E+00 0.  1.
          2   -1    0    0  501    0  0.00000000000E+00 -0.00000000000E+00 -0.79721867723E+02  0.79721867723E+02  0.00000000000E+00 0. -1.
         25    2    1    2    0    0  0.34993411397E+02  0.40685354052E+02  0.28090473402E+02  0.13898402992E+03  0.12509056320E+03 0.  0.
         23    2    1    2    0    0 -0.34993411397E+02 -0.40685354052E+02  0.94111650232E+02  0.14266182916E+03  0.92820029704E+02 0.  0.
          5    1    3    3  502    0  0.18834148367E+02  0.49404834028E+02 -0.41212737417E+02  0.67167885894E+02  0.41800000000E+01 0.  1.
         -5    1    3    3    0  502  0.16159263031E+02 -0.87194799760E+01  0.69303210819E+02  0.71816144025E+02  0.41800000000E+01 0.  1.
        -11    1    4    4    0    0 -0.53507031885E+02 -0.46607310766E+02  0.99757683514E+02  0.12242074701E+03  0.00000000000E+00 0.  1.
         11    1    4    4    0    0  0.18513620487E+02  0.59219567140E+01 -0.56460332814E+01  0.20241082152E+02  0.00000000000E+00 0. -1.
</event>
<event>
 8    1  0.6862919E-009  0.1303226E+03  0.7561462E-02  0.1226978E+00
          2   -1    0    0  501    0  0.00000000000E+00  0.00000000000E+00  0.74285735805E+03  0.74285735805E+03  0.00000000000E+00 0. -1.
         -2   -1    0    0    0  501 -0.00000000000E+00 -0.00000000000E+00 -0.24946616713E+02  0.24946616713E+02  0.00000000000E+00 0.  1.
         25    2    1    2    0    0 -0.37994322389E+02 -0.67448155519E+02  0.46696170887E+03  0.48958521212E+03  0.12509044792E+03 0.  0.
         23    2    1    2    0    0  0.37994322389E+02  0.67448155519E+02  0.25094903247E+03  0.27821876264E+03  0.91855542962E+02 0.  0.
          5    1    3    3  502    0  0.29518603227E+02 -0.69972462621E+02  0.29838720643E+03  0.30792838587E+03  0.41800000000E+01 0. -1.
         -5    1    3    3    0  502 -0.67512925616E+02  0.25243071020E+01  0.16857450244E+03  0.18165682625E+03  0.41800000000E+01 0. -1.
        -11    1    4    4    0    0  0.62316978745E+02  0.23373077460E+02  0.11021227138E+03  0.12874956836E+03  0.00000000000E+00 0. -1.
         11    1    4    4    0    0 -0.24322656355E+02  0.44075078059E+02  0.14073676109E+03  0.14946919429E+03  0.00000000000E+00 0.  1.
</event>
<event>
 8    1  0.6862919E-009  0.1206886E+03  0.7561462E-02  0.1241965E+00
          1   -1    0    0  501    0  0.00000000000E+00  0.00000000000E+00  0.12166075645E+03  0.12166075645E+03  0.00000000000E+00 0. -1.
         -1   -1    0    0    0  501 -0.00000000000E+00 -0.00000000000E+00 -0.13665740199E+03  0.13665740199E+03  0.00000000000E+00 0.  1.
         25    2    1    2    0    0  0.38143864397E+02 -0.54332833777E+02 -0.26626477350E+02  0.14409657402E+03  0.12509133516E+03 0.  0.
         23    2    1    2    0    0 -0.38143864397E+02  0.54332833777E+02  0.11629831807E+02  0.11422158441E+03  0.92218794943E+02 0.  0.
          5    1    3    3  502    0 -0.21965506753E+02  0.25032123861E+02 -0.29095311177E+02  0.44419593024E+02  0.41800000000E+01 0. -1.
         -5    1    3    3    0  502  0.60109371150E+02 -0.79364957639E+02  0.24688338265E+01  0.99676981001E+02  0.41800000000E+01 0. -1.
        -11    1    4    4    0    0 -0.37713469184E+02  0.76871098885E+02  0.23437768341E+02  0.88773873333E+02  0.00000000000E+00 0.  1.
         11    1    4    4    0    0 -0.43039521266E+00 -0.22538265108E+02 -0.11807936533E+02  0.25447711081E+02  0.00000000000E+00 0. -1.
</event>
<event>
 8    1  0.6862919E-009  0.2233470E+03  0.7561462E-02  0.1131412E+00
         -2   -1    0    0    0  501 -0.00000000000E+00  0.00000000000E+00  0.96195547014E+02  0.96195547014E+02  0.00000000000E+00 0.  1.
          2   -1    0    0  501    0  0.00000000000E+00 -0.00000000000E+00 -0.17142273741E+04  0.17142273741E+04  0.00000000000E+00 0. -1.
         25    2    1    2    0    0 -0.19087475828E+03 -0.88385351392E+02 -0.15523383326E+04  0.15715110628E+04  0.12509027953E+03 0.  0.
         23    2    1    2    0    0  0.19087475828E+03  0.88385351392E+02 -0.65693494511E+02  0.23891185831E+03  0.92293537879E+02 0.  0.
          5    1    3    3  502    0 -0.21453134110E+02  0.70641012580E+01 -0.54976662325E+03  0.55024626389E+03  0.41800000000E+01 0.  1.
         -5    1    3    3    0  502 -0.16942162417E+03 -0.95449452650E+02 -0.10025717093E+04  0.10212647989E+04  0.41800000000E+01 0.  1.
        -11    1    4    4    0    0  0.13629340632E+03  0.14074396375E+02 -0.46828913024E+02  0.14479961442E+03  0.00000000000E+00 0. -1.
         11    1    4    4    0    0  0.54581351953E+02  0.74310955016E+02 -0.18864581487E+02  0.94112243896E+02  0.00000000000E+00 0.  1.
</event>
<event>
 8    1  0.6862919E-009  0.1290666E+03  0.7561462E-02  0.1228847E+00
          1   -1    0    0  501    0  0.00000000000E+00  0.00000000000E+00  0.59972622519E+02  0.59972622519E+02  0.00000000000E+00 0. -1.
         -1   -1    0    0    0  501 -0.00000000000E+00 -0.00000000000E+00 -0.38473072075E+03  0.38473072075E+03  0.00000000000E+00 0.  1.
         25    2    1    2    0    0 -0.67580652515E+02 -0.71605613250E+02 -0.11922812140E+03  0.19888944501E+03  0.12508860044E+03 0.  0.
         23    2    1    2    0    0  0.67580652515E+02  0.71605613250E+02 -0.20552997684E+03  0.24581389827E+03  0.92127046838E+02 0.  0.
          5    1    3    3  502    0 -0.22472981478E+02 -0.98866588757E+02 -0.54076247546E+02  0.11498413029E+03  0.41800000000E+01 0. -1.
         -5    1    3    3    0  502 -0.45107671037E+02  0.27260975507E+02 -0.65151873851E+02  0.83905314720E+02  0.41800000000E+01 0. -1.
        -11    1    4    4    0    0  0.23416771926E+02  0.51193527645E+01 -0.14142097140E+03  0.14343794523E+03  0.00000000000E+00 0.  1.
         11    1    4    4    0    0  0.44163880589E+02  0.66486260485E+02 -0.64109005439E+02  0.10237595304E+03  0.00000000000E+00 0. -1.
</event>
<event>
 8    1  0.6862919E-009  0.1345390E+03  0.7561462E-02  0.1220872E+00
         -2   -1    0    0    0  501 -0.00000000000E+00  0.00000000000E+00  0.31246377538E+02  0.31246377538E+02  0.00000000000E+00 0.  1.
          2   -1    0    0  501    0  0.00000000000E+00 -0.00000000000E+00 -0.73050496320E+03  0.73050496320E+03  0.00000000000E+00 0. -1.
         25    2    1    2    0    0  0.20589409711E+02 -0.82096107240E+02 -0.53279864729E+03  0.55379236777E+03  0.12509154020E+03 0.  0.
         23    2    1    2    0    0 -0.20589409711E+02  0.82096107240E+02 -0.16645993837E+03  0.20795897297E+03  0.91511358528E+02 0.  0.
          5    1    3    3  502    0  0.21668337116E+02 -0.11314657673E+03 -0.35490891859E+03  0.37316146312E+03  0.41800000000E+01 0. -1.
         -5    1    3    3    0  502 -0.10789274045E+01  0.31050469486E+02 -0.17788972870E+03  0.18063090465E+03  0.41800000000E+01 0. -1.
        -11    1    4    4    0    0 -0.64253900619E+01  0.99671234546E+02 -0.11867416754E+03  0.15511027907E+03  0.00000000000E+00 0.  1.
         11    1    4    4    0    0 -0.14164019649E+02 -0.17575127306E+02 -0.47785770831E+02  0.52848693894E+02  0.00000000000E+00 0. -1.
</event>
<event>
 8    1  0.6862919E-009  0.1312255E+03  0.7561462E-02  0.1225649E+00
         -1   -1    0    0    0  501 -0.00000000000E+00  0.00000000000E+00  0.79587118471E+02  0.79587118471E+02  0.00000000000E+00 0.  1.
          1   -1    0    0  501    0  0.00000000000E+00 -0.00000000000E+00 -0.37461875379E+03  0.37461875379E+03  0.00000000000E+00 0. -1.
         25    2    1    2    0    0 -0.22025969049E+02 -0.12030856409E+03 -0.22695247533E+03  0.28655705105E+03  0.12509285968E+03 0.  0.
         23    2    1    2    0    0  0.22025969049E+02  0.12030856409E+03 -0.68079159993E+02  0.16764882121E+03  0.92260833081E+02 0.  0.
          5    1    3    3  502    0 -0.72840163553E+01 -0.94757737465E+02 -0.23678776595E+03  0.25518229603E+03  0.41800000000E+01 0. -1.
         -5    1    3    3    0  502 -0.14741952694E+02 -0.25550826630E+02  0.98352906279E+01  0.31374755018E+02  0.41800000000E+01 0. -1.
        -11    1    4    4    0    0 -0.22301210648E+02  0.39513146039E+02  0.10463577245E+02  0.46563066426E+02  0.00000000000E+00 0. -1.
         11    1    4    4    0    0  0.44327179697E+02  0.80795418056E+02 -0.78542737238E+02  0.12108575478E+03  0.00000000000E+00 0.  1.
</event>
<event>
 8    1  0.6862919E-009  0.1181791E+03  0.7561462E-02  0.1246131E+00
          1   -1    0    0  501    0  0.00000000000E+00  0.00000000000E+00  0.57868215857E+02  0.57868215857E+02  0.00000000000E+00 0. -1.
         -1   -1    0    0    0  501 -0.00000000000E+00 -0.00000000000E+00 -0.27522095484E+03  0.27522095484E+03  0.00000000000E+00 0.  1.
         25    2    1    2    0    0 -0.14095966883E+02  0.54463308851E+02 -0.13990463335E+03  0.19592120774E+03  0.12508742909E+03 0.  0.
         23    2    1    2    0    0  0.14095966883E+02 -0.54463308851E+02 -0.77448105630E+02  0.13716796296E+03  0.98244046652E+02 0.  0.
          5    1    3    3  502    0 -0.48196613005E+02  0.72753431819E+02 -0.56955349353E+02  0.10429458071E+03  0.41800000000E+01 0.  1.
         -5    1    3    3    0  502  0.34100646122E+02 -0.18290122968E+02 -0.82949283998E+02  0.91626627025E+02  0.41800000000E+01 0.  1.
        -11    1    4    4    0    0  0.47742852263E+02 -0.59239327735E+02 -0.67623905964E+02  0.10179229121E+03  0.00000000000E+00 0.  1.
         11    1    4    4    0    0 -0.33646885380E+02  0.47760188845E+01 -0.98241996665E+01  0.35375671743E+02  0.00000000000E+00 0. -1.
</event>
<event>
 8    1  0.6862919E-009  0.3641228E+03  0.7561462E-02  0.1056963E+00
          2   -1    0    0  501    0  0.00000000000E+00  0.00000000000E+00  0.11252071633E+04  0.11252071633E+04  0.00000000000E+00 0. -1.
         -2   -1    0    0    0  501 -0.00000000000E+00 -0.00000000000E+00 -0.15051753208E+03  0.15051753208E+03  0.00000000000E+00 0.  1.
         25    2    1    2    0    0  0.35248109703E+03  0.73620555732E+02  0.75059113114E+03  0.84184217248E+03  0.12509311420E+03 0.  0.
         23    2    1    2    0    0 -0.35248109703E+03 -0.73620555732E+02  0.22409850004E+03  0.43388252287E+03  0.91493146966E+02 0.  0.
          5    1    3    3  502    0  0.19878295533E+03  0.73774936846E+02  0.54731906361E+03  0.58696936413E+03  0.41800000000E+01 0. -1.
         -5    1    3    3    0  502  0.15369814170E+03 -0.15438111385E+00  0.20327206754E+03  0.25487280835E+03  0.41800000000E+01 0. -1.
        -11    1    4    4    0    0 -0.99702716444E+02 -0.21343733429E+01  0.10701686552E+03  0.14627985754E+03  0.00000000000E+00 0.  1.
         11    1    4    4    0    0 -0.25277838059E+03 -0.71486182389E+02  0.11708163453E+03  0.28760266534E+03  0.00000000000E+00 0. -1.
</event>
<event>
 8    1  0.6862919E-009  0.1478478E+03  0.7561462E-02  0.1203143E+00
         -2   -1    0    0    0  501 -0.00000000000E+00  0.00000000000E+00  0.25677809259E+02  0.25677809259E+02  0.00000000000E+00 0. -1.
          2   -1    0    0  501    0  0.00000000000E+00 -0.00000000000E+00 -0.10416238203E+04  0.10416238203E+04  0.00000000000E+00 0.  1.
         25    2    1    2    0    0  0.10921951225E+03 -0.53646972448E+02 -0.47063056431E+03  0.50194366392E+03  0.12508962459E+03 0.  0.
         23    2    1    2    0    0 -0.10921951225E+03  0.53646972448E+02 -0.54531544669E+03  0.56535796559E+03  0.86335354017E+02 0.  0.
          5    1    3    3  502    0  0.15376455655E+02  0.37181836797E+02 -0.73879384074E+02  0.84229212078E+02  0.41800000000E+01 0. -1.
         -5    1    3    3    0  502  0.93843056599E+02 -0.90828809246E+02 -0.39675118024E+03  0.41771445185E+03  0.41800000000E+01 0. -1.
        -11    1    4    4    0    0 -0.84924487709E+02  0.53326718433E+02 -0.52247311807E+03  0.53200946103E+03  0.00000000000E+00 0.  1.
         11    1    4    4    0    0 -0.24295024545E+02  0.32025401485E+00 -0.22842328612E+02  0.33348504565E+02  0.00000000000E+00 0. -1.
</event>
<event>
 8    1  0.6862919E-009  0.1368815E+03  0.7561462E-02  0.1217588E+00
          2   -1    0    0  501    0  0.00000000000E+00  0.00000000000E+00  0.75019528218E+03  0.75019528218E+03  0.00000000000E+00 0. -1.
         -2   -1    0    0    0  501 -0.00000000000E+00 -0.00000000000E+00 -0.28387178996E+02  0.28387178996E+02  0.00000000000E+00 0.  1.
         25    2    1    2    0    0 -0.85508655561E+02  0.42531450940E+02  0.34175794475E+03  0.37625327349E+03  0.12508948203E+03 0.  0.
         23    2    1    2    0    0  0.85508655561E+02 -0.42531450940E+02  0.38005015843E+03  0.40232918769E+03  0.91159189591E+02 0.  0.
          5    1    3    3  502    0 -0.52868194131E+02 -0.39578553456E+02  0.11246667879E+03  0.13049036012E+03  0.41800000000E+01 0. -1.
         -5    1    3    3    0  502 -0.32640461430E+02  0.82110004396E+02  0.22929126596E+03  0.24576291337E+03  0.41800000000E+01 0. -1.
        -11    1    4    4    0    0 -0.12165710204E+02 -0.11247637595E+02  0.12547668050E+02  0.20783595207E+02  0.00000000000E+00 0.  1.
         11    1    4    4    0    0  0.97674365765E+02 -0.31283813345E+02  0.36750249038E+03  0.38154559248E+03  0.00000000000E+00 0. -1.
</event>
<event>
 8    1  0.6862919E-009  0.1027566E+03  0.7561462E-02  0.1274604E+00
          2   -1    0    0  501    0  0.00000000000E+00  0.00000000000E+00  0.19633819901E+03  0.19633819901E+03  0.00000000000E+00 0. -1.
         -2   -1    0    0    0  501 -0.00000000000E+00 -0.00000000000E+00 -0.88471224946E+02  0.88471224946E+02  0.00000000000E+00 0.  1.
         25    2    1    2    0    0 -0.47642621104E+02 -0.24136189537E+02 -0.19333891577E+00  0.13604576183E+03  0.12512408618E+03 0.  0.
         23    2    1    2    0    0  0.47642621104E+02  0.24136189537E+02  0.10806031298E+03  0.14876366212E+03  0.87184981137E+02 0.  0.
          5    1    3    3  502    0  0.11464500200E+02  0.25341671188E+02 -0.40228480156E+02  0.49086027330E+02  0.41800000000E+01 0.  1.
         -5    1    3    3    0  502 -0.59107121303E+02 -0.49477860725E+02  0.40035141240E+02  0.86959734503E+02  0.41800000000E+01 0.  1.
        -11    1    4    4    0    0 -0.22995224890E+02  0.18158793806E+02  0.46038333129E+02  0.54571515258E+02  0.00000000000E+00 0. -1.
         11    1    4    4    0    0  0.70637845994E+02  0.59773957310E+01  0.62021979851E+02  0.94192146865E+02  0.00000000000E+00 0.  1.
</event>
<event>
 8    1  0.6862919E-009  0.1471895E+03  0.7561462E-02  0.1203970E+00
         -2   -1    0    0    0  501 -0.00000000000E+00  0.00000000000E+00  0.37106775061E+03  0.37106775061E+03  0.00000000000E+00 0.  1.
          2   -1    0    0  501    0  0.00000000000E+00 -0.00000000000E+00 -0.68995727095E+02  0.68995727095E+02  0.00000000000E+00 0. -1.
         25    2    1    2    0    0 -0.10846261507E+03 -0.45524560552E+02  0.14901515531E+03  0.22735360451E+03  0.12509004953E+03 0.  0.
         23    2    1    2    0    0  0.10846261507E+03  0.45524560552E+02  0.15305686820E+03  0.21270987320E+03  0.89344618026E+02 0.  0.
          5    1    3    3  502    0  0.13926836187E+02 -0.16369367604E+02 -0.10390952894E+02  0.24235454689E+02  0.41800000000E+01 0.  1.
         -5    1    3    3    0  502 -0.12238945125E+03 -0.29155192947E+02  0.15940610821E+03  0.20311814982E+03  0.41800000000E+01 0.  1.
        -11    1    4    4    0    0  0.57506604329E+02 -0.22376049303E+02  0.77470959115E+02  0.99042650560E+02  0.00000000000E+00 0. -1.
         11    1    4    4    0    0  0.50956010737E+02  0.67900609854E+02  0.75585909088E+02  0.11366722264E+03  0.00000000000E+00 0.  1.
</event>
<event>
 8    1  0.6862919E-009  0.8277553E+02  0.7561462E-02  0.1321354E+00
         -1   -1    0    0    0  501 -0.00000000000E+00  0.00000000000E+00  0.17797586325E+03  0.17797586325E+03  0.00000000000E+00 0.  1.
          1   -1    0    0  501    0  0.00000000000E+00 -0.00000000000E+00 -0.10516213087E+03  0.10516213087E+03  0.00000000000E+00 0. -1.
         25    2    1    2    0    0  0.23120939567E+02 -0.77738038150E+02  0.55976537661E+02  0.15924409891E+03  0.12509008693E+03 0.  0.
         23    2    1    2    0    0 -0.23120939567E+02  0.77738038150E+02  0.16837194719E+02  0.12389389522E+03  0.92132652864E+02 0.  0.
          5    1    3    3  502    0  0.82800524828E+01 -0.31840158122E+02  0.92713455652E+02  0.98466299805E+02  0.41800000000E+01 0.  1.
         -5    1    3    3    0  502  0.14840887084E+02 -0.45897880028E+02 -0.36736917991E+02  0.60777799104E+02  0.41800000000E+01 0.  1.
        -11    1    4    4    0    0 -0.20778399844E+02  0.31894838484E+02  0.53142287361E+02  0.65369146606E+02  0.00000000000E+00 0.  1.
         11    1    4    4    0    0 -0.23425397229E+01  0.45843199666E+02 -0.36305092642E+02  0.58524748609E+02  0.00000000000E+00 0. -1.
</event>
<event>
 8    1  0.6862919E-009  0.1634535E+03  0.7561462E-02  0.1184852E+00
         -3   -1    0    0    0  501 -0.00000000000E+00  0.00000000000E+00  0.57134915154E+02  0.57134915154E+02  0.00000000000E+00 0.  1.
          3   -1    0    0  501    0  0.00000000000E+00 -0.00000000000E+00 -0.53214463531E+03  0.53214463531E+03  0.00000000000E+00 0. -1.
         25    2    1    2    0    0  0.42159671410E+02  0.12333994014E+03 -0.25770398734E+03  0.31472434384E+03  0.12509951555E+03 0.  0.
         23    2    1    2    0    0 -0.42159671410E+02 -0.12333994014E+03 -0.21730573281E+03  0.27455520662E+03  0.10568160313E+03 0.  0.
          5    1    3    3  502    0 -0.26348889673E+02  0.37780051700E+01 -0.57979410734E+01  0.27561310396E+02  0.41800000000E+01 0.  1.
         -5    1    3    3    0  502  0.68508561083E+02  0.11956193497E+03 -0.25190604627E+03  0.28716303345E+03  0.41800000000E+01 0.  1.
        -11    1    4    4    0    0  0.11466652269E+02  0.11954915951E+02 -0.52782538217E+01  0.17385743961E+02  0.00000000000E+00 0.  1.
         11    1    4    4    0    0 -0.53626323679E+02 -0.13529485609E+03 -0.21202747899E+03  0.25716946266E+03  0.00000000000E+00 0. -1.
</event>
<event>
 8    1  0.6862919E-009  0.8385184E+02  0.7561462E-02  0.1318463E+00
         -2   -1    0    0    0  501 -0.00000000000E+00  0.00000000000E+00  0.54549986657E+02  0.54549986657E+02  0.00000000000E+00 0.  1.
          2   -1    0    0  501    0  0.00000000000E+00 -0.00000000000E+00 -0.28893281727E+03  0.28893281727E+03  0.00000000000E+00 0. -1.
         25    2    1    2    0    0  0.44985336330E+02 -0.16881413953E+01 -0.19170043310E+03  0.23328781201E+03  0.12509043478E+03 0.  0.
         23    2    1    2    0    0 -0.44985336330E+02  0.16881413953E+01 -0.42682397511E+02  0.11019499192E+03  0.91074798273E+02 0.  0.
          5    1    3    3  502    0  0.36660799291E+02 -0.24569235760E+02 -0.20179034093E+03  0.20660221597E+03  0.41800000000E+01 0. -1.
         -5    1    3    3    0  502  0.83245370393E+01  0.22881094365E+02  0.10089907825E+02  0.26685596043E+02  0.41800000000E+01 0. -1.
        -11    1    4    4    0    0 -0.60105675653E+02  0.29544082979E+02 -0.40845348478E+02  0.78446718077E+02  0.00000000000E+00 0.  1.
         11    1    4    4    0    0  0.15120339322E+02 -0.27855941584E+02 -0.18370490329E+01  0.31748273841E+02  0.00000000000E+00 0. -1.
</event>
<event>
 8    1  0.6862919E-009  0.1137078E+03  0.7561462E-02  0.1253854E+00
          3   -1    0    0  501    0  0.00000000000E+00  0.00000000000E+00  0.30718481880E+02  0.30718481880E+02  0.00000000000E+00 0. -1.
         -3   -1    0    0    0  501 -0.00000000000E+00 -0.00000000000E+00 -0.53150360422E+03  0.53150360422E+03  0.00000000000E+00 0.  1.
         25    2    1    2    0    0 -0.51973936524E+02 -0.86772973645E+01 -0.35440163710E+03  0.37950579326E+03  0.12509013219E+03 0.  0.
         23    2    1    2    0    0  0.51973936524E+02  0.86772973645E+01 -0.14638348524E+03  0.18271629284E+03  0.95815099807E+02 0.  0.
          5    1    3    3  502    0  0.41200106094E+02 -0.19565459407E+00 -0.12672893351E+03  0.13332359885E+03  0.41800000000E+01 0. -1.
         -5    1    3    3    0  502 -0.93174042618E+02 -0.84816427704E+01 -0.22767270359E+03  0.24618219440E+03  0.41800000000E+01 0. -1.
        -11    1    4    4    0    0  0.78781593594E+01  0.38382712145E+02 -0.16768335852E+02  0.42620125220E+02  0.00000000000E+00 0. -1.
         11    1    4    4    0    0  0.44095777164E+02 -0.29705414781E+02 -0.12961514939E+03  0.14009616762E+03  0.00000000000E+00 0.  1.
</event>
<event>
 8    1  0.6862919E-009  0.1004102E+03  0.7561462E-02  0.1279436E+00
          2   -1    0    0  501    0  0.00000000000E+00  0.00000000000E+00  0.19643357851E+03  0.19643357851E+03  0.00000000000E+00 0. -1.
         -2   -1    0    0    0  501 -0.00000000000E+00 -0.00000000000E+00 -0.67257385959E+02  0.67257385959E+02  0.00000000000E+00 0.  1.
         25    2    1    2    0    0 -0.28000701550E+02 -0.98562908754E+01  0.10339564955E+03  0.16497957175E+03  0.12508562264E+03 0.  0.
         23    2    1    2    0    0  0.28000701550E+02  0.98562908754E+01  0.25780543005E+02  0.98711392721E+02  0.90543453094E+02 0.  0.
          5    1    3    3  502    0 -0.17536789516E+02  0.46572627327E+02  0.94320088584E+02  0.10672534897E+03  0.41800000000E+01 0.  1.
         -5    1    3    3    0  502 -0.10463912034E+02 -0.56428918203E+02  0.90755609616E+01  0.58254222777E+02  0.41800000000E+01 0.  1.
        -11    1    4    4    0    0 -0.12170190360E+01 -0.37593629999E+02  0.74239897719E+00  0.37620650022E+02  0.00000000000E+00 0.  1.
         11    1    4    4    0    0  0.29217720586E+02  0.47449920874E+02  0.25038144028E+02  0.61090742699E+02  0.00000000000E+00 0. -1.
</event>
<event>
 8    1  0.6862919E-009  0.1254109E+03  0.7561462E-02  0.1234429E+00
          1   -1    0    0  501    0  0.00000000000E+00  0.00000000000E+00  0.11264103620E+04  0.11264103620E+04  0.00000000000E+00 0. -1.
         -1   -1    0    0    0  501 -0.00000000000E+00 -0.00000000000E+00 -0.15137277223E+02  0.15137277223E+02  0.00000000000E+00 0.  1.
         25    2    1    2    0    0  0.26567439467E+02  0.68520104189E+02  0.62657434388E+03  0.64315116042E+03  0.12508866148E+03 0.  0.
         23    2    1    2    0    0 -0.26567439467E+02 -0.68520104189E+02  0.48469874089E+03  0.49839647879E+03  0.89807277726E+02 0.  0.
          5    1    3    3  502    0  0.66770671076E+02  0.11396924426E+02  0.40923888074E+03  0.41482785142E+03  0.41800000000E+01 0.  1.
         -5    1    3    3    0  502 -0.40203231609E+02  0.57123179763E+02  0.21733546313E+03  0.22832330900E+03  0.41800000000E+01 0.  1.
        -11    1    4    4    0    0 -0.14839416074E+01 -0.83665039136E+02  0.40317240662E+03  0.41176453261E+03  0.00000000000E+00 0. -1.
         11    1    4    4    0    0 -0.25083497860E+02  0.15144934947E+02  0.81526334274E+02  0.86631946184E+02  0.00000000000E+00 0.  1.
</event>
<event>
 8    1  0.6862919E-009  0.1207796E+03  0.7561462E-02  0.1241816E+00
         -2   -1    0    0    0  501 -0.00000000000E+00  0.00000000000E+00  0.14449475697E+02  0.14449475697E+02  0.00000000000E+00 0. -1.
          2   -1    0    0  501    0  0.00000000000E+00 -0.00000000000E+00 -0.11171671142E+04  0.11171671142E+04  0.00000000000E+00 0.  1.
         25    2    1    2    0    0 -0.34356050762E+02 -0.48465150759E+02 -0.74085184928E+03  0.75368356946E+03  0.12509297040E+03 0.  0.
         23    2    1    2    0    0  0.34356050762E+02  0.48465150759E+02 -0.36186578926E+03  0.37793302046E+03  0.91418321246E+02 0.  0.
          5    1    3    3  502    0  0.18545860782E+02 -0.72515323416E+02 -0.31134090111E+03  0.32023905163E+03  0.41800000000E+01 0.  1.
         -5    1    3    3    0  502 -0.52901911544E+02  0.24050172657E+02 -0.42951094816E+03  0.43344451784E+03  0.41800000000E+01 0.  1.
        -11    1    4    4    0    0  0.14848030865E+02  0.74406238019E+02 -0.27205584748E+03  0.28243784524E+03  0.00000000000E+00 0.  1.
         11    1    4    4    0    0  0.19508019897E+02 -0.25941087260E+02 -0.89809941778E+02  0.95495175222E+02  0.00000000000E+00 0. -1.
</event>
<event>
 8    1  0.6862919E-009  0.2893371E+03  0.7561462E-02  0.1090696E+00
          1   -1    0    0  501    0  0.00000000000E+00  0.00000000000E+00  0.34367293531E+03  0.34367293531E+03  0.00000000000E+00 0. -1.
         -1   -1    0    0    0  501 -0.00000000000E+00 -0.00000000000E+00 -0.26918993353E+03  0.26918993353E+03  0.00000000000E+00 0.  1.
         25    2    1    2    0    0 -0.10531905934E+03  0.26331350911E+03  0.54170260339E+02  0.31465549925E+03  0.12509019853E+03 0.  0.
         23    2    1    2    0    0  0.10531905934E+03 -0.26331350911E+03  0.20312741444E+02  0.29820736959E+03  0.89938420468E+02 0.  0.
          5    1    3    3  502    0 -0.10904777186E+03  0.25513419004E+03  0.19031191548E+02  0.27814480064E+03  0.41800000000E+01 0.  1.
         -5    1    3    3    0  502  0.37287125185E+01  0.81793190675E+01  0.35139068791E+02  0.36510698610E+02  0.41800000000E+01 0.  1.
        -11    1    4    4    0    0  0.70244268688E+02 -0.88595020995E+02  0.37636173123E+02  0.11916298316E+03  0.00000000000E+00 0. -1.
         11    1    4    4    0    0  0.35074790648E+02 -0.17471848811E+03 -0.17323431679E+02  0.17904438643E+03  0.00000000000E+00 0.  1.
</event>
<event>
 8    1  0.6862919E-009  0.9030251E+02  0.7561462E-02  0.1302121E+00
          1   -1    0    0  501    0  0.00000000000E+00  0.00000000000E+00  0.12111163932E+03  0.12111163932E+03  0.00000000000E+00 0. -1.
         -1   -1    0    0    0  501 -0.00000000000E+00 -0.00000000000E+00 -0.11248221723E+03  0.11248221723E+03  0.00000000000E+00 0.  1.
         25    2    1    2    0    0  0.38110694435E+02  0.17231042752E+02  0.26787846278E+02  0.13459099058E+03  0.12509121541E+03 0.  0.
         23    2    1    2    0    0 -0.38110694435E+02 -0.17231042752E+02 -0.18158424180E+02  0.99002865969E+02  0.87877785797E+02 0.  0.
          5    1    3    3  502    0  0.33670425592E+02 -0.24466956161E+02 -0.38521493830E+02  0.56865696076E+02  0.41800000000E+01 0.  1.
         -5    1    3    3    0  502  0.44402688432E+01  0.41697998913E+02  0.65309340108E+02  0.77725294506E+02  0.41800000000E+01 0.  1.
        -11    1    4    4    0    0  0.94517513623E+01  0.28880234581E+02 -0.28552422131E+00  0.30388897271E+02  0.00000000000E+00 0.  1.
         11    1    4    4    0    0 -0.47562445797E+02 -0.46111277333E+02 -0.17872899959E+02  0.68613968697E+02  0.00000000000E+00 0. -1.
</event>
<event>
 8    1  0.6862919E-009  0.1185248E+03  0.7561462E-02  0.1245551E+00
          2   -1    0    0  501    0  0.00000000000E+00  0.00000000000E+00  0.84394560039E+02  0.84394560039E+02  0.00000000000E+00 0.  1.
         -2   -1    0    0    0  501 -0.00000000000E+00 -0.00000000000E+00 -0.29312690614E+03  0.29312690614E+03  0.00000000000E+00 0. -1.
         25    2    1    2    0    0  0.32840058579E+02 -0.81172807732E+02 -0.25890180679E+02  0.15487340088E+03  0.12509186497E+03 0.  0.
         23    2    1    2    0    0 -0.32840058579E+02  0.81172807732E+02 -0.18284216542E+03  0.22264806530E+03  0.92051123633E+02 0.  0.
          5    1    3    3  502    0  0.34879078824E+02 -0.10829741318E+03 -0.43856962434E+02  0.12200731698E+03  0.41800000000E+01 0.  1.
         -5    1    3    3    0  502 -0.20390202456E+01  0.27124605452E+02  0.17966781755E+02  0.32866083903E+02  0.41800000000E+01 0.  1.
        -11    1    4    4    0    0 -0.33169659399E+02  0.30679794079E+02 -0.16172172876E+03  0.16791484038E+03  0.00000000000E+00 0.  1.
         11    1    4    4    0    0  0.32960082064E+00  0.50493013653E+02 -0.21120436665E+02  0.54733224913E+02  0.00000000000E+00 0. -1.
</event>
<event>
 8    1  0.6862919E-009  0.1264049E+03  0.7561462E-02  0.1232890E+00
         -2   -1    0    0    0  501 -0.00000000000E+00  0.00000000000E+00  0.29290388016E+02  0.29290388016E+02  0.00000000000E+00 0.  1.
          2   -1    0    0  501    0  0.00000000000E+00 -0.00000000000E+00 -0.81470661812E+03  0.81470661812E+03  0.00000000000E+00 0. -1.
         25    2    1    2    0    0  0.27481347662E+02  0.10566887212E+03 -0.45324364108E+03  0.48270131291E+03  0.12509845846E+03 0.  0.
         23    2    1    2    0    0 -0.27481347662E+02 -0.10566887212E+03 -0.33217258903E+03  0.36129569322E+03  0.90966004828E+02 0.  0.
          5    1    3    3  502    0 -0.40472552256E+01  0.26078615156E+02 -0.33812839127E+03  0.33918248160E+03  0.41800000000E+01 0.  1.
         -5    1    3    3    0  502  0.31528602888E+02  0.79590256962E+02 -0.11511524981E+03  0.14351883131E+03  0.41800000000E+01 0.  1.
        -11    1    4    4    0    0  0.51256647805E+01  0.14755137457E+02 -0.22080630854E+02  0.27047010551E+02  0.00000000000E+00 0.  1.
         11    1    4    4    0    0 -0.32607012443E+02 -0.12042400958E+03 -0.31009195818E+03  0.33424868267E+03  0.00000000000E+00 0. -1.
</event>
<event>
 8    1  0.6862919E-009  0.1100294E+03  0.7561462E-02  0.1260515E+00
         -4   -1    0    0    0  501 -0.00000000000E+00  0.00000000000E+00  0.14587630296E+03  0.14587630296E+03  0.00000000000E+00 0.  1.
          4   -1    0    0  501    0  0.00000000000E+00 -0.00000000000E+00 -0.13127259202E+03  0.13127259202E+03  0.00000000000E+00 0. -1.
         25    2    1    2    0    0  0.36076939816E+02  0.30292741132E+02 -0.64905563039E+02  0.14858692704E+03  0.12508455949E+03 0.  0.
         23    2    1    2    0    0 -0.36076939816E+02 -0.30292741132E+02  0.79509273978E+02  0.12856196794E+03  0.89371467482E+02 0.  0.
          5    1    3    3  502    0  0.52037223536E+02  0.64100705508E+02 -0.11800423666E+02  0.83507457623E+02  0.41800000000E+01 0.  1.
         -5    1    3    3    0  502 -0.15960283720E+02 -0.33807964376E+02 -0.53105139373E+02  0.65079469417E+02  0.41800000000E+01 0.  1.
        -11    1    4    4    0    0 -0.33724221759E+02 -0.60610732977E+02  0.64217401471E+02  0.94524381706E+02  0.00000000000E+00 0.  1.
         11    1    4    4    0    0 -0.23527180567E+01  0.30317991845E+02  0.15291872507E+02  0.34037586232E+02  0.00000000000E+00 0. -1.
</event>
<event>
 8    1  0.6862919E-009  0.8507690E+02  0.7561462E-02  0.1315232E+00
          1   -1    0    0  501    0  0.00000000000E+00  0.00000000000E+00  0.54563512712E+02  0.54563512712E+02  0.00000000000E+00 0. -1.
         -1   -1    0    0    0  501 -0.00000000000E+00 -0.00000000000E+00 -0.28284522174E+03  0.28284522174E+03  0.00000000000E+00 0.  1.
         25    2    1    2    0    0  0.30780553840E+02 -0.26151028804E+02 -0.19092165921E+03  0.23179730864E+03  0.12509034149E+03 0.  0.
         23    2    1    2    0    0 -0.30780553840E+02  0.26151028804E+02 -0.37360049823E+02  0.10561142582E+03  0.90148106682E+02 0.  0.
          5    1    3    3  502    0 -0.40242596929E+02  0.32229335833E+01 -0.12165894791E+03  0.12825063709E+03  0.41800000000E+01 0. -1.
         -5    1    3    3    0  502  0.71023150769E+02 -0.29373962388E+02 -0.69262711302E+02  0.10354667155E+03  0.41800000000E+01 0. -1.
        -11    1    4    4    0    0 -0.16746335255E+02 -0.57802681770E+01  0.27066742243E+02  0.32349030593E+02  0.00000000000E+00 0. -1.
         11    1    4    4    0    0 -0.14034218585E+02  0.31931296981E+02 -0.64426792066E+02  0.73262395225E+02  0.00000000000E+00 0.  1.
</event>
<event>
 8    1  0.6862919E-009  0.1154854E+03  0.7561462E-02  0.1250736E+00
         -2   -1    0    0    0  501 -0.00000000000E+00  0.00000000000E+00  0.11651219651E+02  0.11651219651E+02  0.00000000000E+00 0.  1.
          2   -1    0    0  501    0  0.00000000000E+00 -0.00000000000E+00 -0.12634213852E+04  0.12634213852E+04  0.00000000000E+00 0. -1.
         25    2    1    2    0    0 -0.18927795772E+02  0.45968518613E+02 -0.79614022819E+03  0.80743957384E+03  0.12509211127E+03 0.  0.
         23    2    1    2    0    0  0.18927795772E+02 -0.45968518613E+02 -0.45562993737E+03  0.46763303102E+03  0.92793565074E+02 0.  0.
          5    1    3    3  502    0 -0.67853746628E+02  0.19175639012E+02 -0.30236295569E+03  0.31050388956E+03  0.41800000000E+01 0.  1.
         -5    1    3    3    0  502  0.48925950857E+02  0.26792879601E+02 -0.49377727251E+03  0.49693568428E+03  0.41800000000E+01 0.  1.
        -11    1    4    4    0    0  0.56063911276E+02 -0.33039760676E+02 -0.31223016310E+03  0.31893959096E+03  0.00000000000E+00 0. -1.
         11    1    4    4    0    0 -0.37136115504E+02 -0.12928757937E+02 -0.14339977427E+03  0.14869344006E+03  0.00000000000E+00 0.  1.
</event>
<event>
 8    1  0.6862919E-009  0.1131525E+03  0.7561462E-02  0.1254841E+00
         -2   -1    0    0    0  501 -0.00000000000E+00  0.00000000000E+00  0.14130957917E+03  0.14130957917E+03  0.00000000000E+00 0.  1.
          2   -1    0    0  501    0  0.00000000000E+00 -0.00000000000E+00 -0.13379099850E+03  0.13379099850E+03  0.00000000000E+00 0. -1.
         25    2    1    2    0    0 -0.38337761652E+02  0.45264093789E+02 -0.55792675603E+02  0.14926303258E+03  0.12509199850E+03 0.  0.
         23    2    1    2    0    0  0.38337761652E+02 -0.45264093789E+02  0.63311256272E+02  0.12583754509E+03  0.91149056105E+02 0.  0.
          5    1    3    3  502    0 -0.75584053895E+02  0.44644768964E+02 -0.66580129423E+02  0.11025647660E+03  0.41800000000E+01 0.  1.
         -5    1    3    3    0  502  0.37246292243E+02  0.61932482491E+00  0.10787453820E+02  0.39006555975E+02  0.41800000000E+01 0.  1.
        -11    1    4    4    0    0  0.59340524717E+02 -0.51977962487E+02  0.66978491067E+02  0.10348490095E+03  0.00000000000E+00 0.  1.
         11    1    4    4    0    0 -0.21002763065E+02  0.67138686979E+01 -0.36672347952E+01  0.22352644146E+02  0.00000000000E+00 0. -1.
</event>
<event>
 8    1  0.6862919E-009  0.1128815E+03  0.7561462E-02  0.1255325E+00
          3   -1    0    0  501    0  0.00000000000E+00  0.00000000000E+00  0.10222715790E+03  0.10222715790E+03  0.00000000000E+00 0. -1.
         -3   -1    0    0    0  501 -0.00000000000E+00 -0.00000000000E+00 -0.12716920054E+03  0.12716920054E+03  0.00000000000E+00 0.  1.
         25    2    1    2    0    0 -0.31598054612E+02 -0.14059738044E+02 -0.88611088511E+01  0.13008460667E+03  0.12508945740E+03 0.  0.
         23    2    1    2    0    0  0.31598054612E+02  0.14059738044E+02 -0.16080933789E+02  0.99311751763E+02  0.91695770445E+02 0.  0.
          5    1    3    3  502    0 -0.29435599603E+01  0.54176172559E+02  0.50993313971E+01  0.54655263234E+02  0.41800000000E+01 0. -1.
         -5    1    3    3    0  502 -0.28654494652E+02 -0.68235910604E+02 -0.13960440248E+02  0.75429343439E+02  0.41800000000E+01 0. -1.
        -11    1    4    4    0    0  0.35325996415E+01  0.50835727954E+02 -0.14672629954E+02  0.53028639117E+02  0.00000000000E+00 0.  1.
         11    1    4    4    0    0  0.28065454970E+02 -0.36775989910E+02 -0.14083038350E+01  0.46283112646E+02  0.00000000000E+00 0. -1.
</event>
<event>
 8    1  0.6862919E-009  0.1522637E+03  0.7561462E-02  0.1197719E+00
          2   -1    0    0  501    0  0.00000000000E+00  0.00000000000E+00  0.24839639197E+03  0.24839639197E+03  0.00000000000E+00 0.  1.
         -2   -1    0    0    0  501 -0.00000000000E+00 -0.00000000000E+00 -0.14572257333E+03  0.14572257333E+03  0.00000000000E+00 0. -1.
         25    2    1    2    0    0  0.80308255426E+02  0.10312514947E+03 -0.33019333186E+02  0.18390845984E+03  0.12509129823E+03 0.  0.
         23    2    1    2    0    0 -0.80308255426E+02 -0.10312514947E+03  0.13569315182E+03  0.21021050547E+03  0.93228819646E+02 0.  0.
          5    1    3    3  502    0  0.23863839237E+02  0.10448716939E+03  0.16711167773E+02  0.10855315251E+03  0.41800000000E+01 0. -1.
         -5    1    3    3    0  502  0.56444416189E+02 -0.13620199190E+01 -0.49730500959E+02  0.75355307330E+02  0.41800000000E+01 0. -1.
        -11    1    4    4    0    0 -0.19376102029E+02 -0.67158044102E+02  0.11820669229E+03  0.13732610210E+03  0.00000000000E+00 0.  1.
         11    1    4    4    0    0 -0.60932153397E+02 -0.35967105371E+02  0.17486459538E+02  0.72884403363E+02  0.00000000000E+00 0. -1.
</event>
<event>
 8    1  0.6862919E-009  0.1488101E+03  0.7561462E-02  0.1201943E+00
          1   -1    0    0  501    0  0.00000000000E+00  0.00000000000E+00  0.25920045251E+03  0.25920045251E+03  0.00000000000E+00 0. -1.
         -1   -1    0    0    0  501 -0.00000000000E+00 -0.00000000000E+00 -0.11528717062E+03  0.11528717062E+03  0.00000000000E+00 0.  1.
         25    2    1    2    0    0 -0.10201790468E+03 -0.84824179038E+02  0.54200009251E+02  0.19023248501E+03  0.12509181878E+03 0.  0.
         23    2    1    2    0    0  0.10201790468E+03  0.84824179038E+02  0.89713272643E+02  0.18425513812E+03  0.91097148198E+02 0.  0.
          5    1    3    3  502    0 -0.63596457482E+02 -0.88406910711E+02  0.86971594706E+02  0.13943393400E+03  0.41800000000E+01 0.  1.
         -5    1    3    3    0  502 -0.38421447200E+02  0.35827316735E+01 -0.32771585456E+02  0.50798551007E+02  0.41800000000E+01 0.  1.
        -11    1    4    4    0    0  0.85882716015E+02  0.27361108140E+02  0.19717410340E+02  0.92267260821E+02  0.00000000000E+00 0. -1.
         11    1    4    4    0    0  0.16135188667E+02  0.57463070898E+02  0.69995862303E+02  0.91987877298E+02  0.00000000000E+00 0.  1.
</event>
<event>
 8    1  0.6862919E-009  0.1128730E+03  0.7561462E-02  0.1255340E+00
          1   -1    0    0  501    0  0.00000000000E+00  0.00000000000E+00  0.17800547144E+03  0.17800547144E+03  0.00000000000E+00 0. -1.
         -1   -1    0    0    0  501 -0.00000000000E+00 -0.00000000000E+00 -0.84525052896E+02  0.84525052896E+02  0.00000000000E+00 0.  1.
         25    2    1    2    0    0 -0.38577711883E+02  0.41118507960E+02  0.42534320716E+02  0.14365225300E+03  0.12509128588E+03 0.  0.
         23    2    1    2    0    0  0.38577711883E+02 -0.41118507960E+02  0.50946097832E+02  0.11887827134E+03  0.91419729604E+02 0.  0.
          5    1    3    3  502    0 -0.59250385576E+02 -0.26499061539E+02  0.30381856773E+02  0.71786754170E+02  0.41800000000E+01 0.  1.
         -5    1    3    3    0  502  0.20672673693E+02  0.67617569499E+02  0.12152463943E+02  0.71865498832E+02  0.41800000000E+01 0.  1.
        -11    1    4    4    0    0 -0.72552725386E+01 -0.43383422018E+02  0.57637481799E+02  0.72504066049E+02  0.00000000000E+00 0. -1.
         11    1    4    4    0    0  0.45832984422E+02  0.22649140573E+01 -0.66913839673E+01  0.46374205288E+02  0.00000000000E+00 0.  1.
</event>
<event>
 8    1  0.6862919E-009  0.1063104E+03  0.7561462E-02  0.1267559E+00
          1   -1    0    0  501    0  0.00000000000E+00  0.00000000000E+00  0.15846251257E+03  0.15846251257E+03  0.00000000000E+00 0. -1.
         -1   -1    0    0    0  501 -0.00000000000E+00 -0.00000000000E+00 -0.12052071695E+03  0.12052071695E+03  0.00000000000E+00 0.  1.
         25    2    1    2    0    0 -0.85513163008E+01  0.82548390132E+02 -0.28031446812E+01  0.15014370537E+03  0.12509161809E+03 0.  0.
         23    2    1    2    0    0  0.85513163008E+01 -0.82548390132E+02  0.40744940308E+02  0.12883952415E+03  0.89733556150E+02 0.  0.
          5    1    3    3  502    0 -0.34064802234E+01  0.84261587823E+02  0.49179300220E+02  0.97712308641E+02  0.41800000000E+01 0. -1.
         -5    1    3    3    0  502 -0.51448360774E+01 -0.17131976911E+01 -0.51982444901E+02  0.52431396724E+02  0.41800000000E+01 0. -1.
        -11    1    4    4    0    0 -0.34188939610E+02 -0.68140988269E+02  0.18033215674E+02  0.78340760409E+02  0.00000000000E+00 0.  1.
         11    1    4    4    0    0  0.42740255911E+02 -0.14407401862E+02  0.22711724634E+02  0.50498763743E+02  0.00000000000E+00 0. -1.
</event>
<event>
 8    1  0.6862919E-009  0.6948763E+02  0.7561462E-02  0.1361844E+00
         -1   -1    0    0    0  501 -0.00000000000E+00  0.00000000000E+00  0.13718801151E+03  0.13718801151E+03  0.00000000000E+00 0.  1.
          1   -1    0    0  501    0  0.00000000000E+00 -0.00000000000E+00 -0.95977530746E+02  0.95977530746E+02  0.00000000000E+00 0. -1.
         25    2    1    2    0    0 -0.20388974395E+02 -0.57440947536E-01 -0.48824004477E+01  0.12682556200E+03  0.12508066103E+03 0.  0.
         23    2    1    2    0    0  0.20388974395E+02  0.57440947536E-01  0.46092881214E+02  0.10633998026E+03  0.93637194144E+02 0.  0.
          5    1    3    3  502    0  0.16465158000E+02 -0.54007421259E+01  0.54091573234E+02  0.56952964263E+02  0.41800000000E+01 0.  1.
         -5    1    3    3    0  502 -0.36854132395E+02  0.53433011784E+01 -0.58973973681E+02  0.69872597732E+02  0.41800000000E+01 0.  1.
        -11    1    4    4    0    0 -0.31472972920E+02 -0.36414318087E+01 -0.65460876201E+01  0.32352114508E+02  0.00000000000E+00 0. -1.
         11    1    4    4    0    0  0.51861947315E+02  0.36988727563E+01  0.52638968834E+02  0.73987865755E+02  0.00000000000E+00 0.  1.
</event>
<event>
 8    1  0.6862919E-009  0.1698709E+03  0.7561462E-02  0.1177983E+00
          1   -1    0    0  501    0  0.00000000000E+00  0.00000000000E+00  0.66560778637E+03  0.66560778637E+03  0.00000000000E+00 0. -1.
         -1   -1    0    0    0  501 -0.00000000000E+00 -0.00000000000E+00 -0.72338713040E+02  0.72338713040E+02  0.00000000000E+00 0.  1.
         25    2    1    2    0    0  0.69086836528E+02 -0.13619578731E+03  0.49933160523E+03  0.53693715177E+03  0.12508864661E+03 0.  0.
         23    2    1    2    0    0 -0.69086836528E+02  0.13619578731E+03  0.93937468100E+02  0.20100934764E+03  0.90874784527E+02 0.  0.
          5    1    3    3  502    0 -0.27907906482E+02 -0.48931643859E+02  0.81290979420E+02  0.98989154709E+02  0.41800000000E+01 0. -1.
         -5    1    3    3    0  502  0.96994743010E+02 -0.87264143449E+02  0.41804062581E+03  0.43794799706E+03  0.41800000000E+01 0. -1.
        -11    1    4    4    0    0 -0.38037404629E+02  0.74493496117E+02  0.10149902533E+03  0.13152253517E+03  0.00000000000E+00 0. -1.
         11    1    4    4    0    0 -0.31049431899E+02  0.61702291192E+02 -0.75615572275E+01  0.69486812470E+02  0.00000000000E+00 0.  1.
</event>
<event>
 8    1  0.6862919E-009  0.9909272E+02  0.7561462E-02  0.1282215E+00
          4   -1    0    0  501    0  0.00000000000E+00  0.00000000000E+00  0.14964952604E+03  0.14964952604E+03  0.00000000000E+00 0. -1.
         -4   -1    0    0    0  501 -0.00000000000E+00 -0.00000000000E+00 -0.14262100618E+03  0.14262100618E+03  0.00000000000E+00 0.  1.
         25    2    1    2    0    0 -0.39737078249E+02  0.70693124326E+02  0.28076673675E+02  0.15170113201E+03  0.12509348757E+03 0.  0.
         23    2    1    2    0    0  0.39737078249E+02 -0.70693124326E+02 -0.21048153816E+02  0.14056940021E+03  0.11287239823E+03 0.  0.
          5    1    3    3  502    0 -0.35246848561E+02  0.71569001902E+02  0.71878131521E+02  0.10746348476E+03  0.41800000000E+01 0.  1.
         -5    1    3    3    0  502 -0.44902296879E+01 -0.87587757618E+00 -0.43801457846E+02  0.44237647243E+02  0.41800000000E+01 0.  1.
        -11    1    4    4    0    0  0.42832650063E+02 -0.15204715641E+01 -0.49704934500E+02  0.65631762576E+02  0.00000000000E+00 0.  1.
         11    1    4    4    0    0 -0.30955718147E+01 -0.69172652762E+02  0.28656780684E+02  0.74937637634E+02  0.00000000000E+00 0. -1.
</event>
<event>
 8    1  0.6862919E-009  0.1214009E+03  0.7561462E-02  0.1240804E+00
          3   -1    0    0  501    0  0.00000000000E+00  0.00000000000E+00  0.33982186870E+03  0.33982186870E+03  0.00000000000E+00 0. -1.
         -3   -1    0    0    0  501 -0.00000000000E+00 -0.00000000000E+00 -0.73463458282E+02  0.73463458282E+02  0.00000000000E+00 0.  1.
         25    2    1    2    0    0  0.11832159988E+02 -0.96375341707E+02  0.22320946712E+03  0.27367568835E+03  0.12509080575E+03 0.  0.
         23    2    1    2    0    0 -0.11832159988E+02  0.96375341707E+02  0.43148943298E+02  0.13960963863E+03  0.90558342478E+02 0.  0.
          5    1    3    3  502    0  0.13880482800E+02 -0.10942798838E+03  0.97721751389E+02  0.14742511841E+03  0.41800000000E+01 0.  1.
         -5    1    3    3    0  502 -0.20483228121E+01  0.13052646670E+02  0.12548771573E+03  0.12625056994E+03  0.41800000000E+01 0.  1.
        -11    1    4    4    0    0 -0.39603593127E+02  0.69039532568E+02  0.57385706474E+02  0.98122479348E+02  0.00000000000E+00 0. -1.
         11    1    4    4    0    0  0.27771433139E+02  0.27335809138E+02 -0.14236763175E+02  0.41487159285E+02  0.00000000000E+00 0.  1.
</event>
<event>
 8    1  0.6862919E-009  0.1296912E+03  0.7561462E-02  0.1227915E+00
          1   -1    0    0  501    0  0.00000000000E+00  0.00000000000E+00  0.29538245607E+03  0.29538245607E+03  0.00000000000E+00 0. -1.
         -1   -1    0    0    0  501 -0.00000000000E+00 -0.00000000000E+00 -0.69934720689E+02  0.69934720689E+02  0.00000000000E+00 0.  1.
         25    2    1    2    0    0 -0.29271835297E+02  0.59699532799E+02  0.19681286359E+03  0.24249416431E+03  0.12508893593E+03 0.  0.
         23    2    1    2    0    0  0.29271835297E+02 -0.59699532799E+02  0.28634871787E+02  0.12282301244E+03  0.99220269833E+02 0.  0.
          5    1    3    3  502    0 -0.75955479590E+02  0.55693086904E+02  0.12320041947E+03  0.15513468525E+03  0.41800000000E+01 0.  1.
         -5    1    3    3    0  502  0.46683644293E+02  0.40064458947E+01  0.73612444117E+02  0.87359479062E+02  0.41800000000E+01 0.  1.
        -11    1    4    4    0    0  0.45013350186E+02  0.10415218917E+02  0.22001048961E+01  0.46254934241E+02  0.00000000000E+00 0.  1.
         11    1    4    4    0    0 -0.15741514889E+02 -0.70114751716E+02  0.26434766891E+02  0.76568078203E+02  0.00000000000E+00 0. -1.
</event>
<event>
 8    1  0.6862919E-009  0.1965336E+03  0.7561462E-02  0.1152697E+00
          1   -1    0    0  501    0  0.00000000000E+00  0.00000000000E+00  0.42483556193E+03  0.42483556193E+03  0.00000000000E+00 0. -1.
         -1   -1    0    0    0  501 -0.00000000000E+00 -0.00000000000E+00 -0.17670598891E+03  0.17670598891E+03  0.00000000000E+00 0.  1.
         25    2    1    2    0    0 -0.17525716130E+03  0.59761521816E+02  0.31293583369E+03  0.38452933073E+03  0.12508980016E+03 0.  0.
         23    2    1    2    0    0  0.17525716130E+03 -0.59761521816E+02 -0.64806260677E+02  0.21701222011E+03  0.92778985633E+02 0.  0.
          5    1    3    3  502    0 -0.37785910424E+00 -0.43040403744E+01  0.10569462742E+03  0.10586545332E+03  0.41800000000E+01 0.  1.
         -5    1    3    3    0  502 -0.17487930220E+03  0.64065562190E+02  0.20724120628E+03  0.27866387741E+03  0.41800000000E+01 0.  1.
        -11    1    4    4    0    0  0.10377654776E+03  0.55690126848E+01 -0.68392564407E+01  0.10415066584E+03  0.00000000000E+00 0. -1.
         11    1    4    4    0    0  0.71480613546E+02 -0.65330534501E+02 -0.57967004236E+02  0.11286155427E+03  0.00000000000E+00 0.  1.
</event>
<event>
 8    1  0.6862919E-009  0.1591191E+03  0.7561462E-02  0.1189695E+00
          2   -1    0    0  501    0  0.00000000000E+00  0.00000000000E+00  0.41222046694E+03  0.41222046694E+03  0.00000000000E+00 0. -1.
         -2   -1    0    0    0  501 -0.00000000000E+00 -0.00000000000E+00 -0.62481081463E+02  0.62481081463E+02  0.00000000000E+00 0.  1.
         25    2    1    2    0    0  0.52106142817E+01 -0.11620572759E+03  0.20284891359E+03  0.26519016339E+03  0.12508884598E+03 0.  0.
         23    2    1    2    0    0 -0.52106142817E+01  0.11620572759E+03  0.14689047188E+03  0.20951138501E+03  0.93740536020E+02 0.  0.
          5    1    3    3  502    0  0.55226101395E+02 -0.16026555497E+02  0.83652275993E+02  0.10159699029E+03  0.41800000000E+01 0.  1.
         -5    1    3    3    0  502 -0.50015487114E+02 -0.10017917209E+03  0.11919663760E+03  0.16359317310E+03  0.41800000000E+01 0.  1.
        -11    1    4    4    0    0 -0.17719470218E+02 -0.10906607567E+02  0.13347046020E+02  0.24719978780E+02  0.00000000000E+00 0.  1.
         11    1    4    4    0    0  0.12508855936E+02  0.12711233515E+03  0.13354342586E+03  0.18479140623E+03  0.00000000000E+00 0. -1.
</event>
<event>
 8    1  0.6862919E-009  0.2455791E+03  0.7561462E-02  0.1116131E+00
         -1   -1    0    0    0  501 -0.00000000000E+00  0.00000000000E+00  0.83519732225E+02  0.83519732225E+02  0.00000000000E+00 0.  1.
          1   -1    0    0  501    0  0.00000000000E+00 -0.00000000000E+00 -0.79612233893E+03  0.79612233893E+03  0.00000000000E+00 0. -1.
         25    2    1    2    0    0 -0.22794218821E+03 -0.42203286260E+02 -0.40729814147E+03  0.48505424500E+03  0.12508831282E+03 0.  0.
         23    2    1    2    0    0  0.22794218821E+03  0.42203286260E+02 -0.30530446523E+03  0.39458782616E+03  0.93541314523E+02 0.  0.
          5    1    3    3  502    0 -0.18518260630E+03 -0.71820762003E+02 -0.37300374275E+03  0.42261103161E+03  0.41800000000E+01 0. -1.
         -5    1    3    3    0  502 -0.42759581907E+02  0.29617475744E+02 -0.34294398718E+02  0.62443213384E+02  0.41800000000E+01 0. -1.
        -11    1    4    4    0    0  0.19516912897E+03  0.58445141597E+02 -0.21037614935E+03  0.29285653091E+03  0.00000000000E+00 0. -1.
         11    1    4    4    0    0  0.32773059238E+02 -0.16241855337E+02 -0.94928315882E+02  0.10173129525E+03  0.00000000000E+00 0.  1.
</event>
<event>
 8    1  0.6862919E-009  0.1290685E+03  0.7561462E-02  0.1228844E+00
         -1   -1    0    0    0  501 -0.00000000000E+00  0.00000000000E+00  0.71137817473E+02  0.71137817473E+02  0.00000000000E+00 0.  1.
          1   -1    0    0  501    0  0.00000000000E+00 -0.00000000000E+00 -0.25763865588E+03  0.25763865588E+03  0.00000000000E+00 0. -1.
         25    2    1    2    0    0  0.38633691675E+02 -0.68944547035E+02 -0.77011690762E+02  0.16680688049E+03  0.12509125536E+03 0.  0.
         23    2    1    2    0    0 -0.38633691675E+02  0.68944547035E+02 -0.10948914764E+03  0.16196959286E+03  0.89444747534E+02 0.  0.
          5    1    3    3  502    0 -0.40881327408E+02 -0.10819133101E+02 -0.13165989286E+01  0.42515202039E+02  0.41800000000E+01 0.  1.
         -5    1    3    3    0  502  0.79515019083E+02 -0.58125413934E+02 -0.75695091833E+02  0.12429167845E+03  0.41800000000E+01 0.  1.
        -11    1    4    4    0    0 -0.48627085002E+02  0.85128591375E+02 -0.10214381716E+03  0.14157976497E+03  0.00000000000E+00 0. -1.
         11    1    4    4    0    0  0.99933933264E+01 -0.16184044340E+02 -0.73453304795E+01  0.20389827886E+02  0.00000000000E+00 0.  1.
</event>
<event>
 8    1  0.6862919E-009  0.7121052E+02  0.7561462E-02  0.1356024E+00
          2   -1    0    0  501    0  0.00000000000E+00  0.00000000000E+00  0.58045256258E+02  0.58045256258E+02  0.00000000000E+00 0. -1.
         -2   -1    0    0    0  501 -0.00000000000E+00 -0.00000000000E+00 -0.21504529039E+03  0.21504529039E+03  0.00000000000E+00 0.  1.
         25    2    1    2    0    0  0.80533593515E+01 -0.16555915206E+01 -0.58045190438E+02  0.13814471359E+03  0.12508844943E+03 0.  0.
         23    2    1    2    0    0 -0.80533593515E+01  0.16555915206E+01 -0.98954843696E+02  0.13494583306E+03  0.91382269550E+02 0.  0.
          5    1    3    3  502    0 -0.33541189579E+01 -0.33313969166E+02 -0.87152166697E+02  0.93456103148E+02  0.41800000000E+01 0. -1.
         -5    1    3    3    0  502  0.11407478309E+02  0.31658377645E+02  0.29106976260E+02  0.44688610445E+02  0.41800000000E+01 0. -1.
        -11    1    4    4    0    0 -0.16525085765E+02 -0.34169715855E+02 -0.10876168133E+02  0.39483401252E+02  0.00000000000E+00 0. -1.
         11    1    4    4    0    0  0.84717264138E+01  0.35825307375E+02 -0.88078675564E+02  0.95462431804E+02  0.00000000000E+00 0.  1.
</event>
<event>
 8    1  0.6862919E-009  0.1021465E+03  0.7561462E-02  0.1275846E+00
         -1   -1    0    0    0  501 -0.00000000000E+00  0.00000000000E+00  0.16459007195E+03  0.16459007195E+03  0.00000000000E+00 0.  1.
          1   -1    0    0  501    0  0.00000000000E+00 -0.00000000000E+00 -0.11695994663E+03  0.11695994663E+03  0.00000000000E+00 0. -1.
         25    2    1    2    0    0  0.34648145876E+02  0.74692670255E+02 -0.21611804002E+01  0.14977282995E+03  0.12509093048E+03 0.  0.
         23    2    1    2    0    0 -0.34648145876E+02 -0.74692670255E+02  0.49791305725E+02  0.13177718863E+03  0.90036461026E+02 0.  0.
          5    1    3    3  502    0  0.49275198141E+01  0.20779689078E+02  0.59004810601E+02  0.62889713020E+02  0.41800000000E+01 0.  1.
         -5    1    3    3    0  502  0.29720626062E+02  0.53912981177E+02 -0.61165991001E+02  0.86883116934E+02  0.41800000000E+01 0.  1.
        -11    1    4    4    0    0 -0.32249722267E+02  0.11771005474E+02  0.22620544325E+02  0.41113138797E+02  0.00000000000E+00 0.  1.
         11    1    4    4    0    0 -0.23984236086E+01 -0.86463675729E+02  0.27170761399E+02  0.90664049829E+02  0.00000000000E+00 0. -1.
</event>
<event>
 8    1  0.6862919E-009  0.9028665E+02  0.7561462E-02  0.1302159E+00
         -1   -1    0    0    0  501 -0.00000000000E+00  0.00000000000E+00  0.16681614966E+03  0.16681614966E+03  0.00000000000E+00 0.  1.
          1   -1    0    0  501    0  0.00000000000E+00 -0.00000000000E+00 -0.76256745777E+02  0.76256745777E+02  0.00000000000E+00 0. -1.
         25    2    1    2    0    0  0.19520445312E+02 -0.20373672533E+02  0.41498053252E+02  0.13477803162E+03  0.12508754960E+03 0.  0.
         23    2    1    2    0    0 -0.19520445312E+02  0.20373672533E+02  0.49061350633E+02  0.10829486382E+03  0.92328907102E+02 0.  0.
          5    1    3    3  502    0 -0.32464460813E+02 -0.10913019595E+02  0.67449240547E+02  0.75762178314E+02  0.41800000000E+01 0.  1.
         -5    1    3    3    0  502  0.51984906125E+02 -0.94606529386E+01 -0.25951187295E+02  0.59015853302E+02  0.41800000000E+01 0.  1.
        -11    1    4    4    0    0 -0.24870885908E+01 -0.35022124834E+02  0.49406575969E+01  0.35456239720E+02  0.00000000000E+00 0.  1.
         11    1    4    4    0    0 -0.17033356721E+02  0.55395797368E+02  0.44120693036E+02  0.72838624103E+02  0.00000000000E+00 0. -1.
</event>
<event>
 8    1  0.6862919E-009  0.1181003E+03  0.7561462E-02  0.1246264E+00
         -1   -1    0    0    0  501 -0.00000000000E+00  0.00000000000E+00  0.37913931193E+03  0.37913931193E+03  0.00000000000E+00 0.  1.
          1   -1    0    0  501    0  0.00000000000E+00 -0.00000000000E+00 -0.10410522920E+03  0.10410522920E+03  0.00000000000E+00 0. -1.
         25    2    1    2    0    0 -0.20190069039E+02  0.49109387613E+02 -0.47011879173E+02  0.14379146259E+03  0.12508595881E+03 0.  0.
         23    2    1    2    0    0  0.20190069039E+02 -0.49109387613E+02  0.32204596190E+03  0.33945307854E+03  0.93249236537E+02 0.  0.
          5    1    3    3  502    0  0.35928586160E+02 -0.23003863324E+02 -0.25309449500E+02  0.49780334122E+02  0.41800000000E+01 0.  1.
         -5    1    3    3    0  502 -0.56118655199E+02  0.72113250937E+02 -0.21702429672E+02  0.94011128467E+02  0.41800000000E+01 0.  1.
        -11    1    4    4    0    0  0.53951001245E+02 -0.20865643604E+02  0.12778918132E+03  0.14027173800E+03  0.00000000000E+00 0.  1.
         11    1    4    4    0    0 -0.33760932206E+02 -0.28243744009E+02  0.19425678058E+03  0.19918134054E+03  0.00000000000E+00 0. -1.
</event>
<event>
 8    1  0.6862919E-009  0.1931672E+03  0.7561462E-02  0.1155635E+00
         -1   -1    0    0    0  501 -0.00000000000E+00  0.00000000000E+00  0.14706846349E+03  0.14706846349E+03  0.00000000000E+00 0.  1.
          1   -1    0    0  501    0  0.00000000000E+00 -0.00000000000E+00 -0.31131583803E+03  0.31131583803E+03  0.00000000000E+00 0. -1.
         25    2    1    2    0    0  0.10773689857E+03 -0.14263058766E+03 -0.38387091047E+02  0.22152069861E+03  0.12508847790E+03 0.  0.
         23    2    1    2    0    0 -0.10773689857E+03  0.14263058766E+03 -0.12586028349E+03  0.23686360291E+03  0.91174731017E+02 0.  0.
          5    1    3    3  502    0 -0.93254270318E+01 -0.81988692301E+01  0.28273472235E+02  0.31161621880E+02  0.41800000000E+01 0.  1.
         -5    1    3    3    0  502  0.11706232560E+03 -0.13443171843E+03 -0.66660563283E+02  0.19035907673E+03  0.41800000000E+01 0.  1.
        -11    1    4    4    0    0 -0.10717468185E+03  0.83679280220E+02 -0.60445047886E+02  0.14880268204E+03  0.00000000000E+00 0.  1.
         11    1    4    4    0    0 -0.56221671909E+00  0.58951307441E+02 -0.65415235604E+02  0.88060920877E+02  0.00000000000E+00 0. -1.
</event>
<event>
 8    1  0.6862919E-009  0.1107923E+03  0.7561462E-02  0.1259110E+00
          2   -1    0    0  501    0  0.00000000000E+00  0.00000000000E+00  0.25978111725E+02  0.25978111725E+02  0.00000000000E+00 0.  1.
         -2   -1    0    0    0  501 -0.00000000000E+00 -0.00000000000E+00 -0.53491976155E+03  0.53491976155E+03  0.00000000000E+00 0. -1.
         25    2    1    2    0    0 -0.39756166894E+01  0.37682916985E+02 -0.35281700969E+03  0.37624908201E+03  0.12509085347E+03 0.  0.
         23    2    1    2    0    0  0.39756166894E+01 -0.37682916985E+02 -0.15612464013E+03  0.18464879126E+03  0.91019037017E+02 0.  0.
          5    1    3    3  502    0  0.51902388491E+02 -0.54890604163E+01 -0.21566938163E+03  0.22193409447E+03  0.41800000000E+01 0.  1.
         -5    1    3    3    0  502 -0.55878005181E+02  0.43171977401E+02 -0.13714762806E+03  0.15431498754E+03  0.41800000000E+01 0.  1.
        -11    1    4    4    0    0  0.31369885831E+02  0.18189796936E+02 -0.61581717150E+02  0.71465000782E+02  0.00000000000E+00 0.  1.
         11    1    4    4    0    0 -0.27394269142E+02 -0.55872713920E+02 -0.94542922979E+02  0.11318379048E+03  0.00000000000E+00 0. -1.
</event>
<event>
 8    1  0.6862919E-009  0.8325187E+02  0.7561462E-02  0.1320068E+00
          1   -1    0    0  501    0  0.00000000000E+00  0.00000000000E+00  0.55984926954E+03  0.55984926954E+03  0.00000000000E+00 0. -1.
         -1   -1    0    0    0  501 -0.00000000000E+00 -0.00000000000E+00 -0.34777016614E+02  0.34777016614E+02  0.00000000000E+00 0.  1.
         25    2    1    2    0    0 -0.40382409676E+02 -0.61226469817E+02  0.38366033453E+03  0.41014748327E+03  0.12508511550E+03 0.  0.
         23    2    1    2    0    0  0.40382409676E+02  0.61226469817E+02  0.14141191839E+03  0.18447880288E+03  0.93035898624E+02 0.  0.
          5    1    3    3  502    0 -0.39262014955E+01  0.95610511368E+01 -0.58288834021E+01  0.12580820273E+02  0.41800000000E+01 0.  1.
         -5    1    3    3    0  502 -0.36456208181E+02 -0.70787520953E+02  0.38948921793E+03  0.39756666299E+03  0.41800000000E+01 0.  1.
        -11    1    4    4    0    0  0.29397420790E+02  0.27892588088E+02  0.14370227187E+03  0.14930689121E+03  0.00000000000E+00 0. -1.
         11    1    4    4    0    0  0.10984988886E+02  0.33333881729E+02 -0.22903534853E+01  0.35171911677E+02  0.00000000000E+00 0.  1.
</event>
<event>
 8    1  0.6862919E-009  0.1194578E+03  0.7561462E-02  0.1243994E+00
          1   -1    0    0  501    0  0.00000000000E+00  0.00000000000E+00  0.81798879017E+03  0.81798879017E+03  0.00000000000E+00 0. -1.
         -1   -1    0    0    0  501 -0.00000000000E+00 -0.00000000000E+00 -0.29122353569E+02  0.29122353569E+02  0.00000000000E+00 0.  1.
         25    2    1    2    0    0 -0.27841260768E+01  0.76402341318E+02  0.64045780448E+03  0.65702256616E+03  0.12508950400E+03 0.  0.
         23    2    1    2    0    0  0.27841260768E+01 -0.76402341318E+02  0.14840863213E+03  0.19008857758E+03  0.90903663956E+02 0.  0.
          5    1    3    3  502    0 -0.50472066591E+02  0.75197538748E+02  0.30580974082E+03  0.31896578080E+03  0.41800000000E+01 0. -1.
         -5    1    3    3    0  502  0.47687940514E+02  0.12048025704E+01  0.33464806365E+03  0.33805678536E+03  0.41800000000E+01 0. -1.
        -11    1    4    4    0    0 -0.26284353143E+01 -0.87753197411E+02  0.74572900363E+02  0.11518962539E+03  0.00000000000E+00 0.  1.
         11    1    4    4    0    0  0.54125613912E+01  0.11350856093E+02  0.73835731766E+02  0.74898952197E+02  0.00000000000E+00 0. -1.
</event>
<event>
 8    1  0.6862919E-009  0.1044105E+03  0.7561462E-02  0.1271285E+00
          2   -1    0    0  501    0  0.00000000000E+00  0.00000000000E+00  0.52595038641E+03  0.52595038641E+03  0.00000000000E+00 0.  1.
         -2   -1    0    0    0  501 -0.00000000000E+00 -0.00000000000E+00 -0.24827871488E+02  0.24827871488E+02  0.00000000000E+00 0. -1.
         25    2    1    2    0    0  0.30638666179E+02 -0.17793455094E+01  0.33282824475E+03  0.35688116416E+03  0.12509049081E+03 0.  0.
         23    2    1    2    0    0 -0.30638666179E+02  0.17793455094E+01  0.16829427017E+03  0.19389709374E+03  0.91275558901E+02 0.  0.
          5    1    3    3  502    0  0.13471462576E+02 -0.56800402813E+02  0.90631269381E+02  0.10788542744E+03  0.41800000000E+01 0. -1.
         -5    1    3    3    0  502  0.17167203603E+02  0.55021057304E+02  0.24219697537E+03  0.24899573672E+03  0.41800000000E+01 0. -1.
        -11    1    4    4    0    0  0.17557062009E+02 -0.30012096861E+02  0.38714287880E+02  0.52036261112E+02  0.00000000000E+00 0. -1.
         11    1    4    4    0    0 -0.48195728188E+02  0.31791442370E+02  0.12957998229E+03  0.14186083263E+03  0.00000000000E+00 0.  1.
</event>
<event>
 8    1  0.6862919E-009  0.1083425E+03  0.7561462E-02  0.1263671E+00
          1   -1    0    0  501    0  0.00000000000E+00  0.00000000000E+00  0.44626387623E+02  0.44626387623E+02  0.00000000000E+00 0. -1.
         -1   -1    0    0    0  501 -0.00000000000E+00 -0.00000000000E+00 -0.34047963923E+03  0.34047963923E+03  0.00000000000E+00 0.  1.
         25    2    1    2    0    0  0.48201517098E+02  0.30768285688E+02 -0.19058714614E+03  0.23503212989E+03  0.12508624286E+03 0.  0.
         23    2    1    2    0    0 -0.48201517098E+02 -0.30768285688E+02 -0.10526610547E+03  0.15007389696E+03  0.90394402115E+02 0.  0.
          5    1    3    3  502    0  0.15207364962E+02  0.65018285968E+02 -0.42072567162E+02  0.79032997962E+02  0.41800000000E+01 0.  1.
         -5    1    3    3    0  502  0.32994152136E+02 -0.34250000280E+02 -0.14851457898E+03  0.15599913193E+03  0.41800000000E+01 0.  1.
        -11    1    4    4    0    0 -0.12306883348E+02  0.29460102942E+02 -0.55727400730E+02  0.64225386221E+02  0.00000000000E+00 0.  1.
         11    1    4    4    0    0 -0.35894633750E+02 -0.60228388631E+02 -0.49538704738E+02  0.85848510740E+02  0.00000000000E+00 0. -1.
</event>
<event>
 8    1  0.6862919E-009  0.8275198E+02  0.7561462E-02  0.1321418E+00
         -1   -1    0    0    0  501 -0.00000000000E+00  0.00000000000E+00  0.11035750666E+03  0.11035750666E+03  0.00000000000E+00 0.  1.
          1   -1    0    0  501    0  0.00000000000E+00 -0.00000000000E+00 -0.12177487599E+03  0.12177487599E+03  0.00000000000E+00 0. -1.
         25    2    1    2    0    0 -0.36823541869E+02  0.13542709093E+02 -0.47346116181E+01  0.13118453926E+03  0.12509032173E+03 0.  0.
         23    2    1    2    0    0  0.36823541869E+02 -0.13542709093E+02 -0.66827577095E+01  0.10094784339E+03  0.92770844716E+02 0.  0.
          5    1    3    3  502    0  0.20522949580E+01  0.52608847349E+02  0.34782497854E+02  0.63239206913E+02  0.41800000000E+01 0. -1.
         -5    1    3    3    0  502 -0.38875836827E+02 -0.39066138256E+02 -0.39517109472E+02  0.67945332351E+02  0.41800000000E+01 0. -1.
        -11    1    4    4    0    0  0.96285756220E+01 -0.25836996979E+02 -0.44758234074E+02  0.52569567231E+02  0.00000000000E+00 0. -1.
         11    1    4    4    0    0  0.27194966247E+02  0.12294287885E+02  0.38075476365E+02  0.48378276160E+02  0.00000000000E+00 0.  1.
</event>
<event>
 8    1  0.6862919E-009  0.1017405E+03  0.7561462E-02  0.1276678E+00
          2   -1    0    0  501    0  0.00000000000E+00  0.00000000000E+00  0.46776413869E+03  0.46776413869E+03  0.00000000000E+00 0. -1.
         -2   -1    0    0    0  501 -0.00000000000E+00 -0.00000000000E+00 -0.35051017749E+02  0.35051017749E+02  0.00000000000E+00 0.  1.
         25    2    1    2    0    0 -0.12828608363E+02  0.57647783900E+02  0.31030057927E+03  0.33973802570E+03  0.12509051294E+03 0.  0.
         23    2    1    2    0    0  0.12828608363E+02 -0.57647783900E+02  0.12241254167E+03  0.16307713075E+03  0.90119254504E+02 0.  0.
          5    1    3    3  502    0 -0.37030925378E+02  0.63811697190E+02  0.30505547564E+03  0.31387822121E+03  0.41800000000E+01 0.  1.
         -5    1    3    3    0  502  0.24202317016E+02 -0.61639132900E+01  0.52451036324E+01  0.25859804487E+02  0.41800000000E+01 0.  1.
        -11    1    4    4    0    0  0.43053537496E+02 -0.47190494890E+01  0.71800981094E+02  0.83852593312E+02  0.00000000000E+00 0.  1.
         11    1    4    4    0    0 -0.30224929133E+02 -0.52928734411E+02  0.50611560578E+02  0.79224537434E+02  0.00000000000E+00 0. -1.
</event>
<event>
 8    1  0.6862919E-009  0.2102232E+03  0.7561462E-02  0.1141389E+00
          1   -1    0    0  501    0  0.00000000000E+00  0.00000000000E+00  0.10571637684E+03  0.10571637684E+03  0.00000000000E+00 0. -1.
         -1   -1    0    0    0  501 -0.00000000000E+00 -0.00000000000E+00 -0.47963106128E+03  0.47963106128E+03  0.00000000000E+00 0.  1.
         25    2    1    2    0    0 -0.17180844429E+03  0.90841008479E+02 -0.15233986653E+03  0.27681231099E+03  0.12508952886E+03 0.  0.
         23    2    1    2    0    0  0.17180844429E+03 -0.90841008479E+02 -0.22157481791E+03  0.30853512714E+03  0.91259489355E+02 0.  0.
          5    1    3    3  502    0 -0.12801857084E+03  0.29123089543E+02 -0.15216932553E+03  0.20102210042E+03  0.41800000000E+01 0.  1.
         -5    1    3    3    0  502 -0.43789873447E+02  0.61717918935E+02 -0.17054100196E+00  0.75790210572E+02  0.41800000000E+01 0.  1.
        -11    1    4    4    0    0  0.93471450188E+01  0.16230126917E+02 -0.30758863177E+02  0.36012411800E+02  0.00000000000E+00 0. -1.
         11    1    4    4    0    0  0.16246129927E+03 -0.10707113540E+03 -0.19081595473E+03  0.27252271534E+03  0.00000000000E+00 0.  1.
</event>
<event>
 8    1  0.6862919E-009  0.1838988E+03  0.7561462E-02  0.1164082E+00
          2   -1    0    0  501    0  0.00000000000E+00  0.00000000000E+00  0.11058303696E+04  0.11058303696E+04  0.00000000000E+00 0. -1.
         -2   -1    0    0    0  501 -0.00000000000E+00 -0.00000000000E+00 -0.35766859679E+02  0.35766859679E+02  0.00000000000E+00 0.  1.
         25    2    1    2    0    0 -0.13378057159E+03  0.98878279754E+02  0.54713128607E+03  0.58538976774E+03  0.12511746657E+03 0.  0.
         23    2    1    2    0    0  0.13378057159E+03 -0.98878279754E+02  0.52293222383E+03  0.55620746151E+03  0.90744002466E+02 0.  0.
          5    1    3    3  502    0 -0.74562960019E+02  0.92075125541E+02  0.19489081585E+03  0.22811700123E+03  0.41800000000E+01 0. -1.
         -5    1    3    3    0  502 -0.59217611566E+02  0.68031542131E+01  0.35224047022E+03  0.35727276651E+03  0.41800000000E+01 0. -1.
        -11    1    4    4    0    0  0.11889871661E+03 -0.35060092284E+02  0.34012342053E+03  0.36200836465E+03  0.00000000000E+00 0. -1.
         11    1    4    4    0    0  0.14881854974E+02 -0.63818187469E+02  0.18280880329E+03  0.19419909686E+03  0.00000000000E+00 0.  1.
</event>
<event>
 8    1  0.6862919E-009  0.1135534E+03  0.7561462E-02  0.1254128E+00
          2   -1    0    0  501    0  0.00000000000E+00  0.00000000000E+00  0.28446527661E+03  0.28446527661E+03  0.00000000000E+00 0. -1.
         -2   -1    0    0    0  501 -0.00000000000E+00 -0.00000000000E+00 -0.58935361363E+02  0.58935361363E+02  0.00000000000E+00 0.  1.
         25    2    1    2    0    0  0.19919516462E+02 -0.67063179364E+02  0.13443465648E+03  0.19651204007E+03  0.12510015135E+03 0.  0.
         23    2    1    2    0    0 -0.19919516462E+02  0.67063179364E+02  0.91095258766E+02  0.14688859790E+03  0.91562311357E+02 0.  0.
          5    1    3    3  502    0 -0.36957629226E+02  0.42355241697E+01  0.84562042989E+02  0.92477118995E+02  0.41800000000E+01 0.  1.
         -5    1    3    3    0  502  0.56877145689E+02 -0.71298703533E+02  0.49872613492E+02  0.10403492108E+03  0.41800000000E+01 0.  1.
        -11    1    4    4    0    0 -0.21759371746E+02 -0.80760340426E+01  0.62156173291E+02  0.66348191104E+02  0.00000000000E+00 0. -1.
         11    1    4    4    0    0  0.18398552837E+01  0.75139213406E+02  0.28939085475E+02  0.80540406796E+02  0.00000000000E+00 0.  1.
</event>
<event>
 8    1  0.6862919E-009  0.1125036E+03  0.7561462E-02  0.1256003E+00
          3   -1    0    0  501    0  0.00000000000E+00  0.00000000000E+00  0.10833156926E+03  0.10833156926E+03  0.00000000000E+00 0. -1.
         -3   -1    0    0    0  501 -0.00000000000E+00 -0.00000000000E+00 -0.13820079483E+03  0.13820079483E+03  0.00000000000E+00 0.  1.
         25    2    1    2    0    0  0.37924466099E+02  0.17091917182E+02 -0.57122864992E+02  0.14368099776E+03  0.12510319200E+03 0.  0.
         23    2    1    2    0    0 -0.37924466099E+02 -0.17091917182E+02  0.27253639422E+02  0.10285136634E+03  0.90029128257E+02 0.  0.
          5    1    3    3  502    0  0.24323838424E+02  0.68594548459E+02 -0.12282517296E+02  0.73926949248E+02  0.41800000000E+01 0. -1.
         -5    1    3    3    0  502  0.13600627675E+02 -0.51502631277E+02 -0.44840347696E+02  0.69754048507E+02  0.41800000000E+01 0. -1.
        -11    1    4    4    0    0 -0.18654203145E+02  0.36900429571E+02  0.16527531318E+02  0.44528421137E+02  0.00000000000E+00 0. -1.
         11    1    4    4    0    0 -0.19270262954E+02 -0.53992346753E+02  0.10726108104E+02  0.58322945204E+02  0.00000000000E+00 0.  1.
</event>
<event>
 8    1  0.6862919E-009  0.8519020E+02  0.7561462E-02  0.1314936E+00
          2   -1    0    0  501    0  0.00000000000E+00  0.00000000000E+00  0.17683098577E+03  0.17683098577E+03  0.00000000000E+00 0. -1.
         -2   -1    0    0    0  501 -0.00000000000E+00 -0.00000000000E+00 -0.67849586117E+02  0.67849586117E+02  0.00000000000E+00 0.  1.
         25    2    1    2    0    0  0.22852866545E+02 -0.32108641453E+02  0.59230818999E+02  0.14390307625E+03  0.12508631847E+03 0.  0.
         23    2    1    2    0    0 -0.22852866545E+02  0.32108641453E+02  0.49750580649E+02  0.10077749564E+03  0.78280042071E+02 0.  0.
          5    1    3    3  502    0  0.55472319034E+02 -0.56198010672E+02  0.65473381139E+02  0.10266270316E+03  0.41800000000E+01 0. -1.
         -5    1    3    3    0  502 -0.32619452489E+02  0.24089369219E+02 -0.62425621401E+01  0.41240373085E+02  0.41800000000E+01 0. -1.
        -11    1    4    4    0    0  0.60166607181E+01  0.16838015791E+02  0.63033239340E+02  0.65520288794E+02  0.00000000000E+00 0. -1.
         11    1    4    4    0    0 -0.28869527263E+02  0.15270625662E+02 -0.13282658691E+02  0.35257206843E+02  0.00000000000E+00 0.  1.
</event>
<event>
 8    1  0.6862919E-009  0.1305531E+03  0.7561462E-02  0.1226637E+00
          2   -1    0    0  501    0  0.00000000000E+00  0.00000000000E+00  0.12371275291E+04  0.12371275291E+04  0.00000000000E+00 0. -1.
         -2   -1    0    0    0  501 -0.00000000000E+00 -0.00000000000E+00 -0.23213601178E+02  0.23213601178E+02  0.00000000000E+00 0.  1.
         25    2    1    2    0    0  0.10732239242E+03  0.59048673250E+01  0.91294327991E+03  0.92772075666E+03  0.12508959441E+03 0.  0.
         23    2    1    2    0    0 -0.10732239242E+03 -0.59048673250E+01  0.30097064802E+03  0.33262037363E+03  0.92195545497E+02 0.  0.
          5    1    3    3  502    0  0.67137961724E+02  0.30156849938E+02  0.82196023589E+03  0.82525937940E+03  0.41800000000E+01 0.  1.
         -5    1    3    3    0  502  0.40184430693E+02 -0.24251982613E+02  0.90983044027E+02  0.10246137727E+03  0.41800000000E+01 0.  1.
        -11    1    4    4    0    0 -0.39582531422E+02 -0.46678672042E+02  0.10902215211E+03  0.12502601677E+03  0.00000000000E+00 0. -1.
         11    1    4    4    0    0 -0.67739860996E+02  0.40773804717E+02  0.19194849591E+03  0.20759435686E+03  0.00000000000E+00 0.  1.
</event>
<event>
 8    1  0.6862919E-009  0.1106408E+03  0.7561462E-02  0.1259388E+00
         -2   -1    0    0    0  501 -0.00000000000E+00  0.00000000000E+00  0.17196981203E+02  0.17196981203E+02  0.00000000000E+00 0.  1.
          2   -1    0    0  501    0  0.00000000000E+00 -0.00000000000E+00 -0.95230940914E+03  0.95230940914E+03  0.00000000000E+00 0. -1.
         25    2    1    2    0    0  0.38174522195E+02  0.12780442999E+02 -0.73014803448E+03  0.74187901098E+03  0.12509069033E+03 0.  0.
         23    2    1    2    0    0 -0.38174522195E+02 -0.12780442999E+02 -0.20496439345E+03  0.22762737936E+03  0.90460971602E+02 0.  0.
          5    1    3    3  502    0 -0.12378407417E+02 -0.44447141756E+02 -0.41534266814E+03  0.41791838648E+03  0.41800000000E+01 0.  1.
         -5    1    3    3    0  502  0.50552929612E+02  0.57227584755E+02 -0.31480536634E+03  0.32396062450E+03  0.41800000000E+01 0.  1.
        -11    1    4    4    0    0  0.23236910127E+02 -0.26819309455E+02 -0.85490537793E+02  0.92562743066E+02  0.00000000000E+00 0. -1.
         11    1    4    4    0    0 -0.61411432322E+02  0.14038866456E+02 -0.11947385566E+03  0.13506463630E+03  0.00000000000E+00 0.  1.
</event>
<event>
 8    1  0.6862919E-009  0.1389196E+03  0.7561462E-02  0.1214790E+00
          2   -1    0    0  501    0  0.00000000000E+00  0.00000000000E+00  0.24578609077E+03  0.24578609077E+03  0.00000000000E+00 0.  1.
         -2   -1    0    0    0  501 -0.00000000000E+00 -0.00000000000E+00 -0.10003304860E+03  0.10003304860E+03  0.00000000000E+00 0. -1.
         25    2    1    2    0    0  0.38247189682E+02 -0.10363363987E+03  0.52315285441E+02  0.17488946122E+03  0.12508659291E+03 0.  0.
         23    2    1    2    0    0 -0.38247189682E+02  0.10363363987E+03  0.93437756731E+02  0.17092967815E+03  0.91014073962E+02 0.  0.
          5    1    3    3  502    0  0.76218964029E+02 -0.90606904334E+02  0.61514445158E+02  0.13349322437E+03  0.41800000000E+01 0. -1.
         -5    1    3    3    0  502 -0.37971774346E+02 -0.13026735534E+02 -0.91991597172E+01  0.41396236848E+02  0.41800000000E+01 0. -1.
        -11    1    4    4    0    0 -0.40793648066E+02  0.46684378377E+02  0.95531450930E+02  0.11388507814E+03  0.00000000000E+00 0.  1.
         11    1    4    4    0    0  0.25464583837E+01  0.56949261490E+02 -0.20936941990E+01  0.57044600007E+02  0.00000000000E+00 0. -1.
</event>
<event>
 8    1  0.6862919E-009  0.1238287E+03  0.7561462E-02  0.1236911E+00
         -2   -1    0    0    0  501 -0.00000000000E+00  0.00000000000E+00  0.46545473017E+02  0.46545473017E+02  0.00000000000E+00 0.  1.
          2   -1    0    0  501    0  0.00000000000E+00 -0.00000000000E+00 -0.44894651403E+03  0.44894651403E+03  0.00000000000E+00 0. -1.
         25    2    1    2    0    0 -0.58369479858E+02 -0.69237365169E+02 -0.20699683957E+03  0.25825536176E+03  0.12508929360E+03 0.  0.
         23    2    1    2    0    0  0.58369479858E+02  0.69237365169E+02 -0.19540420144E+03  0.23723662528E+03  0.99486710270E+02 0.  0.
          5    1    3    3  502    0 -0.63710796446E+02 -0.98640328615E+02 -0.12831722581E+03  0.17398782387E+03  0.41800000000E+01 0. -1.
         -5    1    3    3    0  502  0.53413165880E+01  0.29402963445E+02 -0.78679613758E+02  0.84267537898E+02  0.41800000000E+01 0. -1.
        -11    1    4    4    0    0  0.16576210222E+01  0.32208977125E+02 -0.15510886732E+03  0.15842640763E+03  0.00000000000E+00 0. -1.
         11    1    4    4    0    0  0.56711858836E+02  0.37028388044E+02 -0.40295334120E+02  0.78810217647E+02  0.00000000000E+00 0.  1.
</event>
<event>
 8    1  0.6862919E-009  0.1022393E+03  0.7561462E-02  0.1275656E+00
          1   -1    0    0  501    0  0.00000000000E+00  0.00000000000E+00  0.79131388814E+03  0.79131388814E+03  0.00000000000E+00 0. -1.
         -1   -1    0    0    0  501 -0.00000000000E+00 -0.00000000000E+00 -0.34235730506E+02  0.34235730506E+02  0.00000000000E+00 0.  1.
         25    2    1    2    0    0 -0.43579620012E+02  0.58350957620E+02  0.15564562794E+03  0.21255031365E+03  0.12509219321E+03 0.  0.
         23    2    1    2    0    0  0.43579620012E+02 -0.58350957620E+02  0.60143252969E+03  0.61299930499E+03  0.93504238466E+02 0.  0.
          5    1    3    3  502    0  0.75969912088E+01  0.21792980513E+02 -0.16862710919E+02  0.28887223726E+02  0.41800000000E+01 0. -1.
         -5    1    3    3    0  502 -0.51176611220E+02  0.36557977107E+02  0.17250833886E+03  0.18366308993E+03  0.41800000000E+01 0. -1.
        -11    1    4    4    0    0 -0.12214721574E+02 -0.60926094540E+02  0.34545203103E+03  0.35099614551E+03  0.00000000000E+00 0. -1.
         11    1    4    4    0    0  0.55794341586E+02  0.25751369203E+01  0.25598049866E+03  0.26200315948E+03  0.00000000000E+00 0.  1.
</event>
<event>
 8    1  0.6862919E-009  0.1332616E+03  0.7561462E-02  0.1222695E+00
          1   -1    0    0  501    0  0.00000000000E+00  0.00000000000E+00  0.81288956361E+02  0.81288956361E+02  0.00000000000E+00 0. -1.
         -1   -1    0    0    0  501 -0.00000000000E+00 -0.00000000000E+00 -0.30862615529E+03  0.30862615529E+03  0.00000000000E+00 0.  1.
         25    2    1    2    0    0  0.78107659491E+01  0.11477347574E+03 -0.11388099067E+03  0.20457395685E+03  0.12509062710E+03 0.  0.
         23    2    1    2    0    0 -0.78107659491E+01 -0.11477347574E+03 -0.11345620826E+03  0.18534115480E+03  0.90802388019E+02 0.  0.
          5    1    3    3  502    0 -0.16272666290E+02 -0.97557615926E+01 -0.66224224305E+02  0.69015178311E+02  0.41800000000E+01 0.  1.
         -5    1    3    3    0  502  0.24083432239E+02  0.12452923734E+03 -0.47656766364E+02  0.13555877854E+03  0.41800000000E+01 0.  1.
        -11    1    4    4    0    0  0.97684444928E+01 -0.85405462224E+02 -0.12276631623E+03  0.14987022348E+03  0.00000000000E+00 0.  1.
         11    1    4    4    0    0 -0.17579210442E+02 -0.29368013518E+02  0.93101079731E+01  0.35470931313E+02  0.00000000000E+00 0. -1.
</event>
<event>
 8    1  0.6862919E-009  0.1136760E+03  0.7561462E-02  0.1253910E+00
         -2   -1    0    0    0  501 -0.00000000000E+00  0.00000000000E+00  0.19907262766E+02  0.19907262766E+02  0.00000000000E+00 0.  1.
          2   -1    0    0  501    0  0.00000000000E+00 -0.00000000000E+00 -0.96444519778E+03  0.96444519778E+03  0.00000000000E+00 0. -1.
         25    2    1    2    0    0 -0.69214496387E+02 -0.14590748778E+02 -0.69808553762E+03  0.71272657755E+03  0.12510883279E+03 0.  0.
         23    2    1    2    0    0  0.69214496387E+02  0.14590748778E+02 -0.24645239739E+03  0.27162588300E+03  0.89656565155E+02 0.  0.
          5    1    3    3  502    0 -0.45421316828E+01 -0.54714694913E+02 -0.15867021867E+03  0.16795249177E+03  0.41800000000E+01 0.  1.
         -5    1    3    3    0  502 -0.64672364704E+02  0.40123946135E+02 -0.53941531895E+03  0.54477408577E+03  0.41800000000E+01 0.  1.
        -11    1    4    4    0    0  0.43150742195E+02  0.40598507278E+02 -0.71578547767E+02  0.92917780029E+02  0.00000000000E+00 0.  1.
         11    1    4    4    0    0  0.26063754192E+02 -0.26007758499E+02 -0.17487384963E+03  0.17870810297E+03  0.00000000000E+00 0. -1.
</event>
<event>
 8    1  0.6862919E-009  0.1033150E+03  0.7561462E-02  0.1273476E+00
          2   -1    0    0  501    0  0.00000000000E+00  0.00000000000E+00  0.84595132804E+03  0.84595132804E+03  0.00000000000E+00 0. -1.
         -2   -1    0    0    0  501 -0.00000000000E+00 -0.00000000000E+00 -0.15115048648E+02  0.15115048648E+02  0.00000000000E+00 0.  1.
         25    2    1    2    0    0  0.32407291987E+02 -0.58922346666E+01  0.51699854395E+03  0.53293534231E+03  0.12509050178E+03 0.  0.
         23    2    1    2    0    0 -0.32407291987E+02  0.58922346666E+01  0.31383773545E+03  0.32813103438E+03  0.89949433183E+02 0.  0.
          5    1    3    3  502    0  0.24213428659E+02  0.49234700728E+02  0.39413322140E+03  0.39795579465E+03  0.41800000000E+01 0.  1.
         -5    1    3    3    0  502  0.81938633273E+01 -0.55126935395E+02  0.12286532255E+03  0.13497954766E+03  0.41800000000E+01 0.  1.
        -11    1    4    4    0    0  0.22564064199E+02  0.28436058926E+02  0.12540384902E+03  0.13055218033E+03  0.00000000000E+00 0.  1.
         11    1    4    4    0    0 -0.54971356186E+02 -0.22543824259E+02  0.18843388643E+03  0.19757885406E+03  0.00000000000E+00 0. -1.
</event>
<event>
 8    1  0.6862919E-009  0.1134057E+03  0.7561462E-02  0.1254390E+00
         -3   -1    0    0    0  501 -0.00000000000E+00  0.00000000000E+00  0.79626849969E+02  0.79626849969E+02  0.00000000000E+00 0.  1.
          3   -1    0    0  501    0  0.00000000000E+00 -0.00000000000E+00 -0.17564646928E+03  0.17564646928E+03  0.00000000000E+00 0. -1.
         25    2    1    2    0    0  0.19022238697E+02  0.42599688197E+02 -0.46766230444E+02  0.14146282904E+03  0.12509225671E+03 0.  0.
         23    2    1    2    0    0 -0.19022238697E+02 -0.42599688197E+02 -0.49253388863E+02  0.11381049021E+03  0.91380262461E+02 0.  0.
          5    1    3    3  502    0 -0.43825466941E+02  0.48726096335E+02 -0.54684155340E+01  0.65895978520E+02  0.41800000000E+01 0. -1.
         -5    1    3    3    0  502  0.62847705638E+02 -0.61264081387E+01 -0.41297814910E+02  0.75566850516E+02  0.41800000000E+01 0. -1.
        -11    1    4    4    0    0 -0.19850723173E+02  0.24061260169E+02 -0.46055998999E+00  0.31196274888E+02  0.00000000000E+00 0.  1.
         11    1    4    4    0    0  0.82848447592E+00 -0.66660948365E+02 -0.48792828873E+02  0.82614215320E+02  0.00000000000E+00 0. -1.
</event>
<event>
 8    1  0.6862919E-009  0.1080530E+03  0.7561462E-02  0.1264218E+00
          1   -1    0    0  501    0  0.00000000000E+00  0.00000000000E+00  0.98461270167E+02  0.98461270167E+02  0.00000000000E+00 0. -1.
         -1   -1    0    0    0  501 -0.00000000000E+00 -0.00000000000E+00 -0.13659897886E+03  0.13659897886E+03  0.00000000000E+00 0.  1.
         25    2    1    2    0    0  0.16259273100E+02 -0.24545244643E+02  0.81066379364E+01  0.12877380871E+03  0.12510053252E+03 0.  0.
         23    2    1    2    0    0 -0.16259273100E+02  0.24545244643E+02 -0.46244346627E+02  0.10628644031E+03  0.91057316029E+02 0.  0.
          5    1    3    3  502    0 -0.47251162656E+02 -0.37346916087E+02  0.18232673184E+02  0.63066372061E+02  0.41800000000E+01 0.  1.
         -5    1    3    3    0  502  0.63510435757E+02  0.12801671443E+02 -0.10126035247E+02  0.65707436653E+02  0.41800000000E+01 0.  1.
        -11    1    4    4    0    0 -0.50001309679E+02  0.27277421393E+02 -0.12147561118E+02  0.58238749373E+02  0.00000000000E+00 0. -1.
         11    1    4    4    0    0  0.33742036579E+02 -0.27321767493E+01 -0.34096785509E+02  0.48047690936E+02  0.00000000000E+00 0.  1.
</event>
<event>
 8    1  0.6862919E-009  0.8768056E+02  0.7561462E-02  0.1308568E+00
          1   -1    0    0  501    0  0.00000000000E+00  0.00000000000E+00  0.11521766702E+03  0.11521766702E+03  0.00000000000E+00 0. -1.
         -1   -1    0    0    0  501 -0.00000000000E+00 -0.00000000000E+00 -0.14884040025E+03  0.14884040025E+03  0.00000000000E+00 0.  1.
         25    2    1    2    0    0  0.38700271448E+02  0.50531529763E+02  0.17270137258E+02  0.14141020598E+03  0.12508973660E+03 0.  0.
         23    2    1    2    0    0 -0.38700271448E+02 -0.50531529763E+02 -0.50892870480E+02  0.12264786130E+03  0.91658426260E+02 0.  0.
          5    1    3    3  502    0  0.13525129672E+02  0.89073704082E+01  0.68575660916E+02  0.70585862963E+02  0.41800000000E+01 0. -1.
         -5    1    3    3    0  502  0.25175141776E+02  0.41624159355E+02 -0.51305523658E+02  0.70824343013E+02  0.41800000000E+01 0. -1.
        -11    1    4    4    0    0 -0.50119470379E+02 -0.70683055192E+02 -0.48662751550E+02  0.99378664666E+02  0.00000000000E+00 0.  1.
         11    1    4    4    0    0  0.11419198931E+02  0.20151525429E+02 -0.22301189299E+01  0.23269196630E+02  0.00000000000E+00 0. -1.
</event>
<event>
 7    1  0.6862919E-009  0.9252984E+02  0.7561462E-02  0.1296838E+00
         -1   -1    0    0    0  501 -0.00000000000E+00  0.00000000000E+00  0.28850813699E+02  0.28850813699E+02  0.00000000000E+00 0.  1.
          1   -1    0    0  501    0  0.00000000000E+00 -0.00000000000E+00 -0.32608150318E+03  0.32608150318E+03  0.00000000000E+00 0. -1.
         25    2    1    2    0    0  0.34562091338E+02 -0.36876432823E+02 -0.23773866569E+03  0.27335214418E+03  0.12508921658E+03 0.  0.
          5    1    3    3  502    0  0.81377755318E+02 -0.28090645001E+02 -0.16761926453E+03  0.18848106971E+03  0.41800000000E+01 0.  1.
         -5    1    3    3    0  502 -0.46815663980E+02 -0.87857878219E+01 -0.70119401164E+02  0.84871074467E+02  0.41800000000E+01 0.  1.
        -11    1    1    2    0    0 -0.10806739845E+02  0.16666960928E+02 -0.40380164094E+02  0.45001454031E+02  0.00000000000E+00 0.  1.
         11    1    1    2    0    0 -0.23755351493E+02  0.20209471895E+02 -0.19111859697E+02  0.36578718675E+02  0.00000000000E+00 0. -1.
</event>
<event>
 8    1  0.6862919E-009  0.2132746E+03  0.7561462E-02  0.1138999E+00
         -1   -1    0    0    0  501 -0.00000000000E+00  0.00000000000E+00  0.79708164888E+02  0.79708164888E+02  0.00000000000E+00 0.  1.
          1   -1    0    0  501    0  0.00000000000E+00 -0.00000000000E+00 -0.70742125317E+03  0.70742125317E+03  0.00000000000E+00 0. -1.
         25    2    1    2    0    0 -0.14216165798E+03  0.11800167599E+03 -0.15561648598E+03  0.27202747028E+03  0.12509245118E+03 0.  0.
         23    2    1    2    0    0  0.14216165798E+03 -0.11800167599E+03 -0.47209660230E+03  0.51510194778E+03  0.91216677014E+02 0.  0.
          5    1    3    3  502    0 -0.13165889378E+03  0.14344231309E+03 -0.12964815522E+03  0.23395700043E+03  0.41800000000E+01 0. -1.
         -5    1    3    3    0  502 -0.10502764201E+02 -0.25440637105E+02 -0.25968330764E+02  0.38070469853E+02  0.41800000000E+01 0. -1.
        -11    1    4    4    0    0  0.12569082944E+03 -0.13205526020E+03 -0.44111815774E+03  0.47730703477E+03  0.00000000000E+00 0. -1.
         11    1    4    4    0    0  0.16470828538E+02  0.14053584213E+02 -0.30978444566E+02  0.37794913013E+02  0.00000000000E+00 0.  1.
</event>
<event>
 8    1  0.6862919E-009  0.9937091E+02  0.7561462E-02  0.1281624E+00
          1   -1    0    0  501    0  0.00000000000E+00  0.00000000000E+00  0.14541058872E+03  0.14541058872E+03  0.00000000000E+00 0. -1.
         -1   -1    0    0    0  501 -0.00000000000E+00 -0.00000000000E+00 -0.91673962489E+02  0.91673962489E+02  0.00000000000E+00 0.  1.
         25    2    1    2    0    0 -0.30844435012E+02  0.21871332292E+02  0.30959558043E+02  0.13429720399E+03  0.12509000926E+03 0.  0.
         23    2    1    2    0    0  0.30844435012E+02 -0.21871332292E+02  0.22777068190E+02  0.10278734723E+03  0.92826233183E+02 0.  0.
          5    1    3    3  502    0 -0.42267056117E+02  0.69318676520E+02  0.24396663615E+02  0.84877868393E+02  0.41800000000E+01 0. -1.
         -5    1    3    3    0  502  0.11422621104E+02 -0.47447344228E+02  0.65628944277E+01  0.49419335593E+02  0.41800000000E+01 0. -1.
        -11    1    4    4    0    0 -0.13865759512E+02  0.67049661440E+01 -0.26320106133E+02  0.30495308568E+02  0.00000000000E+00 0.  1.
         11    1    4    4    0    0  0.44710194525E+02 -0.28576298436E+02  0.49097174323E+02  0.72292038658E+02  0.00000000000E+00 0. -1.
</event>
<event>
 8    1  0.6862919E-009  0.7371872E+02  0.7561462E-02  0.1347885E+00
          2   -1    0    0  501    0  0.00000000000E+00  0.00000000000E+00  0.68476317201E+03  0.68476317201E+03  0.00000000000E+00 0.  1.
         -2   -1    0    0    0  501 -0.00000000000E+00 -0.00000000000E+00 -0.20066062302E+02  0.20066062302E+02  0.00000000000E+00 0. -1.
         25    2    1    2    0    0 -0.32509653871E+02 -0.15579176564E+02  0.28696669193E+03  0.31512235253E+03  0.12511045701E+03 0.  0.
         23    2    1    2    0    0  0.32509653871E+02  0.15579176564E+02  0.37773041778E+03  0.38970688178E+03  0.88834660197E+02 0.  0.
          5    1    3    3  502    0 -0.40815199757E+02 -0.17742021684E+02  0.21709449422E+02  0.49693384457E+02  0.41800000000E+01 0.  1.
         -5    1    3    3    0  502  0.83055458857E+01  0.21628451200E+01  0.26525724251E+03  0.26542896808E+03  0.41800000000E+01 0.  1.
        -11    1    4    4    0    0  0.53152182069E+02  0.35966613969E+02  0.29876420087E+03  0.30557944875E+03  0.00000000000E+00 0.  1.
         11    1    4    4    0    0 -0.20642528198E+02 -0.20387437405E+02  0.78966216911E+02  0.84127433026E+02  0.00000000000E+00 0. -1.
</event>
<event>
 8    1  0.6862919E-009  0.1846590E+03  0.7561462E-02  0.1163369E+00
          2   -1    0    0  501    0  0.00000000000E+00  0.00000000000E+00  0.13756780940E+04  0.13756780940E+04  0.00000000000E+00 0. -1.
         -2   -1    0    0    0  501 -0.00000000000E+00 -0.00000000000E+00 -0.28897676554E+02  0.28897676554E+02  0.00000000000E+00 0.  1.
         25    2    1    2    0    0  0.11633176424E+03  0.97911050559E+02  0.46155786995E+03  0.50178825161E+03  0.12504450786E+03 0.  0.
         23    2    1    2    0    0 -0.11633176424E+03 -0.97911050559E+02  0.88522254750E+03  0.90278751896E+03  0.91031272544E+02 0.  0.
          5    1    3    3  502    0  0.13010961616E+03  0.11216968438E+03  0.36915583993E+03  0.40719044299E+03  0.41800000000E+01 0. -1.
         -5    1    3    3    0  502 -0.13777851927E+02 -0.14258633821E+02  0.92402030025E+02  0.94597808616E+02  0.41800000000E+01 0. -1.
        -11    1    4    4    0    0 -0.84403302034E+02 -0.11608345153E+02  0.42712445197E+03  0.43553871073E+03  0.00000000000E+00 0.  1.
         11    1    4    4    0    0 -0.31928462204E+02 -0.86302705406E+02  0.45809809553E+03  0.46724880823E+03  0.00000000000E+00 0. -1.
</event>
<event>
 8    1  0.6862919E-009  0.2458809E+03  0.7561462E-02  0.1115936E+00
         -1   -1    0    0    0  501 -0.00000000000E+00  0.00000000000E+00  0.28700619567E+03  0.28700619567E+03  0.00000000000E+00 0.  1.
          1   -1    0    0  501    0  0.00000000000E+00 -0.00000000000E+00 -0.22406785555E+03  0.22406785555E+03  0.00000000000E+00 0. -1.
         25    2    1    2    0    0 -0.73581249533E+02 -0.21644482890E+03  0.18974932646E+02  0.26128537246E+03  0.12508970202E+03 0.  0.
         23    2    1    2    0    0  0.73581249533E+02  0.21644482890E+03  0.43963407467E+02  0.24978867876E+03  0.90548542766E+02 0.  0.
          5    1    3    3  502    0 -0.10504296885E+03 -0.12813444336E+03  0.10258912244E+01  0.16574373513E+03  0.41800000000E+01 0.  1.
         -5    1    3    3    0  502  0.31461719319E+02 -0.88310385540E+02  0.17949041421E+02  0.95541637335E+02  0.41800000000E+01 0.  1.
        -11    1    4    4    0    0 -0.11002422296E+01  0.46944882635E+02  0.44313120582E+02  0.64565355992E+02  0.00000000000E+00 0.  1.
         11    1    4    4    0    0  0.74681491763E+02  0.16949994627E+03 -0.34971311549E+00  0.18522332277E+03  0.00000000000E+00 0. -1.
</event>
<event>
 8    1  0.6862919E-009  0.1220412E+03  0.7561462E-02  0.1239767E+00
          1   -1    0    0  501    0  0.00000000000E+00  0.00000000000E+00  0.14660751972E+03  0.14660751972E+03  0.00000000000E+00 0.  1.
         -1   -1    0    0    0  501 -0.00000000000E+00 -0.00000000000E+00 -0.13595702169E+03  0.13595702169E+03  0.00000000000E+00 0. -1.
         25    2    1    2    0    0 -0.36766316519E+02  0.76763634482E+02 -0.17166932286E+02  0.15227374070E+03  0.12509264940E+03 0.  0.
         23    2    1    2    0    0  0.36766316519E+02 -0.76763634482E+02  0.27817430316E+02  0.13029080072E+03  0.94643888937E+02 0.  0.
          5    1    3    3  502    0 -0.74201964011E+02  0.72441878010E+02 -0.36113268013E+02  0.10988811437E+03  0.41800000000E+01 0.  1.
         -5    1    3    3    0  502  0.37435647492E+02  0.43217564723E+01  0.18946335727E+02  0.42385626333E+02  0.41800000000E+01 0.  1.
        -11    1    4    4    0    0 -0.36177971914E+01 -0.57544898577E+02  0.53552033423E+02  0.78691321583E+02  0.00000000000E+00 0.  1.
         11    1    4    4    0    0  0.40384113711E+02 -0.19218735905E+02 -0.25734603107E+02  0.51599479135E+02  0.00000000000E+00 0. -1.
</event>
<event>
 8    1  0.6862919E-009  0.9052267E+02  0.7561462E-02  0.1301591E+00
          1   -1    0    0  501    0  0.00000000000E+00  0.00000000000E+00  0.95594163931E+03  0.95594163931E+03  0.00000000000E+00 0. -1.
         -1   -1    0    0    0  501 -0.00000000000E+00 -0.00000000000E+00 -0.12764065446E+02  0.12764065446E+02  0.00000000000E+00 0.  1.
         25    2    1    2    0    0 -0.19828782097E+02 -0.20948476487E+01  0.63699540777E+03  0.64946777644E+03  0.12509066366E+03 0.  0.
         23    2    1    2    0    0  0.19828782097E+02  0.20948476487E+01  0.30618216610E+03  0.31923792832E+03  0.88134936616E+02 0.  0.
          5    1    3    3  502    0 -0.46553289872E+02 -0.27727591266E+02  0.12734369812E+03  0.13845547287E+03  0.41800000000E+01 0. -1.
         -5    1    3    3    0  502  0.26724507776E+02  0.25632743617E+02  0.50965170964E+03  0.51101230357E+03  0.41800000000E+01 0. -1.
        -11    1    4    4    0    0 -0.22660820000E+02 -0.28983973266E+02  0.14897960549E+03  0.15345522579E+03  0.00000000000E+00 0. -1.
         11    1    4    4    0    0  0.42489602097E+02  0.31078820915E+02  0.15720256061E+03  0.16578270253E+03  0.00000000000E+00 0.  1.
</event>
<event>
 8    1  0.6862919E-009  0.1164248E+03  0.7561462E-02  0.1249114E+00
          1   -1    0    0  501    0  0.00000000000E+00  0.00000000000E+00  0.45034660976E+03  0.45034660976E+03  0.00000000000E+00 0. -1.
         -1   -1    0    0    0  501 -0.00000000000E+00 -0.00000000000E+00 -0.37760592469E+02  0.37760592469E+02  0.00000000000E+00 0.  1.
         25    2    1    2    0    0 -0.51899047859E+02  0.38750058819E+02  0.15995470731E+03  0.21314371240E+03  0.12509858319E+03 0.  0.
         23    2    1    2    0    0  0.51899047859E+02 -0.38750058819E+02  0.25263130998E+03  0.27496348983E+03  0.87104900728E+02 0.  0.
          5    1    3    3  502    0 -0.50290915800E+02  0.76106019270E+02  0.68196457701E+02  0.11397162640E+03  0.41800000000E+01 0. -1.
         -5    1    3    3    0  502 -0.16081320584E+01 -0.37355960451E+02  0.91758249608E+02  0.99172085997E+02  0.41800000000E+01 0. -1.
        -11    1    4    4    0    0  0.16999311847E+02  0.25585098742E+02  0.42414890747E+02  0.52369808459E+02  0.00000000000E+00 0. -1.
         11    1    4    4    0    0  0.34899736012E+02 -0.64335157561E+02  0.21021641923E+03  0.22259368137E+03  0.00000000000E+00 0.  1.
</event>
<event>
 8    1  0.6862919E-009  0.2769232E+03  0.7561462E-02  0.1097381E+00
          2   -1    0    0  501    0  0.00000000000E+00  0.00000000000E+00  0.66014601013E+03  0.66014601013E+03  0.00000000000E+00 0.  1.
         -2   -1    0    0    0  501 -0.00000000000E+00 -0.00000000000E+00 -0.15608587882E+03  0.15608587882E+03  0.00000000000E+00 0. -1.
         25    2    1    2    0    0 -0.13555615214E+03 -0.23500092037E+03  0.89404806347E+02  0.31183538218E+03  0.12508870144E+03 0.  0.
         23    2    1    2    0    0  0.13555615214E+03  0.23500092037E+03  0.41465532496E+03  0.50439650676E+03  0.94211966138E+02 0.  0.
          5    1    3    3  502    0 -0.87527256648E+02 -0.10004451999E+03  0.10252801010E+03  0.16792674561E+03  0.41800000000E+01 0. -1.
         -5    1    3    3    0  502 -0.48028895490E+02 -0.13495640038E+03 -0.13123203749E+02  0.14390863658E+03  0.41800000000E+01 0. -1.
        -11    1    4    4    0    0  0.14115362983E+03  0.21858563483E+03  0.41135609914E+03  0.48674209522E+03  0.00000000000E+00 0.  1.
         11    1    4    4    0    0 -0.55974776916E+01  0.16415285537E+02  0.32992258231E+01  0.17654411539E+02  0.00000000000E+00 0. -1.
</event>
<event>
 8    1  0.6862919E-009  0.1005611E+03  0.7561462E-02  0.1279120E+00
         -1   -1    0    0    0  501 -0.00000000000E+00  0.00000000000E+00  0.15147714692E+03  0.15147714692E+03  0.00000000000E+00 0.  1.
          1   -1    0    0  501    0  0.00000000000E+00 -0.00000000000E+00 -0.93066327655E+02  0.93066327655E+02  0.00000000000E+00 0. -1.
         25    2    1    2    0    0  0.44953230269E+02  0.90787891877E+01  0.19396469267E+02  0.13463352717E+03  0.12508695493E+03 0.  0.
         23    2    1    2    0    0 -0.44953230269E+02 -0.90787891877E+01  0.39014349995E+02  0.10990994740E+03  0.91950311083E+02 0.  0.
          5    1    3    3  502    0  0.47595846753E+02 -0.46721332734E+02  0.36392800170E+02  0.76093073698E+02  0.41800000000E+01 0. -1.
         -5    1    3    3    0  502 -0.26426164837E+01  0.55800121921E+02 -0.16996330904E+02  0.58540453470E+02  0.41800000000E+01 0. -1.
        -11    1    4    4    0    0 -0.58343346377E+02  0.53555146599E+01 -0.78173508887E+01  0.59107855473E+02  0.00000000000E+00 0. -1.
         11    1    4    4    0    0  0.13390116107E+02 -0.14434303848E+02  0.46831700884E+02  0.50802091932E+02  0.00000000000E+00 0.  1.
</event>
<event>
 8    1  0.6862919E-009  0.9261583E+02  0.7561462E-02  0.1296638E+00
         -1   -1    0    0    0  501 -0.00000000000E+00  0.00000000000E+00  0.40379130752E+03  0.40379130752E+03  0.00000000000E+00 0.  1.
          1   -1    0    0  501    0  0.00000000000E+00 -0.00000000000E+00 -0.43342305839E+02  0.43342305839E+02  0.00000000000E+00 0. -1.
         25    2    1    2    0    0 -0.20965769957E+02 -0.90398918668E+01  0.77308240221E+02  0.14881113729E+03  0.12508759899E+03 0.  0.
         23    2    1    2    0    0  0.20965769957E+02  0.90398918668E+01  0.28314076146E+03  0.29832247607E+03  0.91139046364E+02 0.  0.
          5    1    3    3  502    0  0.36098789439E+02 -0.35764445458E+01  0.83368541871E+02  0.91014832462E+02  0.41800000000E+01 0.  1.
         -5    1    3    3    0  502 -0.57064559396E+02 -0.54634473210E+01 -0.60603016496E+01  0.57796304828E+02  0.41800000000E+01 0.  1.
        -11    1    4    4    0    0 -0.98593156132E+01  0.43732297666E+02  0.17486691204E+03  0.18052190142E+03  0.00000000000E+00 0.  1.
         11    1    4    4    0    0  0.30825085571E+02 -0.34692405800E+02  0.10827384942E+03  0.11780057465E+03  0.00000000000E+00 0. -1.
</event>
<event>
 8    1  0.6862919E-009  0.9652161E+02  0.7561462E-02  0.1287785E+00
         -1   -1    0    0    0  501 -0.00000000000E+00  0.00000000000E+00  0.28038383146E+03  0.28038383146E+03  0.00000000000E+00 0.  1.
          1   -1    0    0  501    0  0.00000000000E+00 -0.00000000000E+00 -0.63283584855E+02  0.63283584855E+02  0.00000000000E+00 0. -1.
         25    2    1    2    0    0 -0.44374213364E+02 -0.31651721999E+02  0.51007267157E+02  0.14567100989E+03  0.12508956592E+03 0.  0.
         23    2    1    2    0    0  0.44374213364E+02  0.31651721999E+02  0.16609297945E+03  0.19799640643E+03  0.92977399504E+02 0.  0.
          5    1    3    3  502    0 -0.69780754981E+02 -0.29616175072E+02  0.77626335859E+02  0.10858080867E+03  0.41800000000E+01 0.  1.
         -5    1    3    3    0  502  0.25406541617E+02 -0.20355469275E+01 -0.26619068702E+02  0.37090201223E+02  0.41800000000E+01 0.  1.
        -11    1    4    4    0    0  0.33184560036E+02 -0.19798031067E+02  0.21732585931E+02  0.44333760839E+02  0.00000000000E+00 0. -1.
         11    1    4    4    0    0  0.11189653328E+02  0.51449753066E+02  0.14436039352E+03  0.15366264559E+03  0.00000000000E+00 0.  1.
</event>
<event>
 8    1  0.6862919E-009  0.9628458E+02  0.7561462E-02  0.1288309E+00
         -1   -1    0    0    0  501 -0.00000000000E+00  0.00000000000E+00  0.24235276075E+02  0.24235276075E+02  0.00000000000E+00 0.  1.
          1   -1    0    0  501    0  0.00000000000E+00 -0.00000000000E+00 -0.80365936482E+03  0.80365936482E+03  0.00000000000E+00 0. -1.
         25    2    1    2    0    0  0.32814064107E+02  0.41352751002E+02 -0.22091869950E+03  0.25930179281E+03  0.12508211362E+03 0.  0.
         23    2    1    2    0    0 -0.32814064107E+02 -0.41352751002E+02 -0.55850538924E+03  0.56859284808E+03  0.92643101507E+02 0.  0.
          5    1    3    3  502    0  0.52676503255E+02  0.20052198118E+02 -0.22276313533E+03  0.22982121640E+03  0.41800000000E+01 0. -1.
         -5    1    3    3    0  502 -0.19862439149E+02  0.21300552884E+02  0.18444358317E+01  0.29480576413E+02  0.41800000000E+01 0. -1.
        -11    1    4    4    0    0 -0.35260781916E+02  0.23083628861E+02 -0.21981920991E+03  0.22382283554E+03  0.00000000000E+00 0. -1.
         11    1    4    4    0    0  0.24467178088E+01 -0.64436379863E+02 -0.33868617933E+03  0.34477001254E+03  0.00000000000E+00 0.  1.
</event>
<event>
 8    1  0.6862919E-009  0.1011936E+03  0.7561462E-02  0.1277806E+00
          1   -1    0    0  501    0  0.00000000000E+00  0.00000000000E+00  0.49376126010E+03  0.49376126010E+03  0.00000000000E+00 0. -1.
         -1   -1    0    0    0  501 -0.00000000000E+00 -0.00000000000E+00 -0.23734753265E+02  0.23734753265E+02  0.00000000000E+00 0.  1.
         25    2    1    2    0    0  0.22074672602E+02  0.39012256841E+01  0.24940243899E+03  0.27991358721E+03  0.12509008353E+03 0.  0.
         23    2    1    2    0    0 -0.22074672602E+02 -0.39012256841E+01  0.22062406785E+03  0.23758242616E+03  0.85252091900E+02 0.  0.
          5    1    3    3  502    0 -0.76091907416E+01  0.60092158749E+02  0.15042984124E+03  0.16222076582E+03  0.41800000000E+01 0. -1.
         -5    1    3    3    0  502  0.29683863343E+02 -0.56190933064E+02  0.98972597743E+02  0.11769282138E+03  0.41800000000E+01 0. -1.
        -11    1    4    4    0    0  0.26858379227E+02 -0.10027311766E+02  0.33614155264E+02  0.44179530894E+02  0.00000000000E+00 0.  1.
         11    1    4    4    0    0 -0.48933051829E+02  0.61260860818E+01  0.18700991258E+03  0.19340289526E+03  0.00000000000E+00 0. -1.
</event>
<event>
 8    1  0.6862919E-009  0.1037080E+03  0.7561462E-02  0.1272686E+00
          3   -1    0    0  501    0  0.00000000000E+00  0.00000000000E+00  0.41589083699E+03  0.41589083699E+03  0.00000000000E+00 0. -1.
         -3   -1    0    0    0  501 -0.00000000000E+00 -0.00000000000E+00 -0.70299266938E+02  0.70299266938E+02  0.00000000000E+00 0.  1.
         25    2    1    2    0    0 -0.41634123330E+02 -0.14316408835E+02  0.71601837091E+01  0.13281294673E+03  0.12509856434E+03 0.  0.
         23    2    1    2    0    0  0.41634123330E+02  0.14316408835E+02  0.33843138634E+03  0.35337715720E+03  0.91658344846E+02 0.  0.
          5    1    3    3  502    0  0.31364745189E+02 -0.77442265373E+01 -0.35276471678E+02  0.48016894313E+02  0.41800000000E+01 0. -1.
         -5    1    3    3    0  502 -0.72998868518E+02 -0.65721822972E+01  0.42436655387E+02  0.84796052417E+02  0.41800000000E+01 0. -1.
        -11    1    4    4    0    0  0.84862493881E+01  0.51164250944E+02  0.18558609802E+03  0.19269664445E+03  0.00000000000E+00 0. -1.
         11    1    4    4    0    0  0.33147873942E+02 -0.36847842109E+02  0.15284528832E+03  0.16068051274E+03  0.00000000000E+00 0.  1.
</event>
<event>
 8    1  0.6862919E-009  0.1013466E+03  0.7561462E-02  0.1277489E+00
         -2   -1    0    0    0  501 -0.00000000000E+00  0.00000000000E+00  0.19566956078E+02  0.19566956078E+02  0.00000000000E+00 0.  1.
          2   -1    0    0  501    0  0.00000000000E+00 -0.00000000000E+00 -0.11530516292E+04  0.11530516292E+04  0.00000000000E+00 0. -1.
         25    2    1    2    0    0  0.51318740923E+02  0.82476036933E+02 -0.74633661676E+03  0.76295610973E+03  0.12509104692E+03 0.  0.
         23    2    1    2    0    0 -0.51318740923E+02 -0.82476036933E+02 -0.38714805638E+03  0.40966247557E+03  0.92216140076E+02 0.  0.
          5    1    3    3  502    0  0.43785674316E+02  0.38014685545E+02 -0.68089274854E+03  0.68337011129E+03  0.41800000000E+01 0. -1.
         -5    1    3    3    0  502  0.75330666065E+01  0.44461351388E+02 -0.65443868218E+02  0.79585998436E+02  0.41800000000E+01 0. -1.
        -11    1    4    4    0    0 -0.33181716686E+02 -0.69353478162E+02 -0.37756146819E+03  0.38530973712E+03  0.00000000000E+00 0. -1.
         11    1    4    4    0    0 -0.18137024237E+02 -0.13122558771E+02 -0.95865881897E+01  0.24352738449E+02  0.00000000000E+00 0.  1.
</event>
<event>
 8    1  0.6862919E-009  0.8687539E+02  0.7561462E-02  0.1310600E+00
          2   -1    0    0  501    0  0.00000000000E+00  0.00000000000E+00  0.57865968818E+02  0.57865968818E+02  0.00000000000E+00 0. -1.
         -2   -1    0    0    0  501 -0.00000000000E+00 -0.00000000000E+00 -0.25360355651E+03  0.25360355651E+03  0.00000000000E+00 0.  1.
         25    2    1    2    0    0 -0.48632958599E+02  0.27816825774E+02 -0.11014553487E+03  0.17583461407E+03  0.12508729830E+03 0.  0.
         23    2    1    2    0    0  0.48632958599E+02 -0.27816825774E+02 -0.85592052830E+02  0.13563491126E+03  0.89061154198E+02 0.  0.
          5    1    3    3  502    0 -0.69984224382E+02  0.48683136721E+02 -0.30441169654E+02  0.90619957368E+02  0.41800000000E+01 0. -1.
         -5    1    3    3    0  502  0.21351265783E+02 -0.20866310947E+02 -0.79704365212E+02  0.85214656702E+02  0.41800000000E+01 0. -1.
        -11    1    4    4    0    0  0.36500528470E+02 -0.28180713450E+02 -0.10389735509E+03  0.11367102350E+03  0.00000000000E+00 0.  1.
         11    1    4    4    0    0  0.12132430129E+02  0.36388767625E+00  0.18305302255E+02  0.21963887765E+02  0.00000000000E+00 0. -1.
</event>
<event>
 8    1  0.6862919E-009  0.7317434E+02  0.7561462E-02  0.1349620E+00
          2   -1    0    0  501    0  0.00000000000E+00  0.00000000000E+00  0.16811001366E+03  0.16811001366E+03  0.00000000000E+00 0. -1.
         -2   -1    0    0    0  501 -0.00000000000E+00 -0.00000000000E+00 -0.69716896487E+02  0.69716896487E+02  0.00000000000E+00 0.  1.
         25    2    1    2    0    0 -0.10063845538E+02  0.93081230470E+01  0.65298712816E+02  0.14176836408E+03  0.12508567071E+03 0.  0.
         23    2    1    2    0    0  0.10063845538E+02 -0.93081230470E+01  0.33094404356E+02  0.96058546068E+02  0.89129582807E+02 0.  0.
          5    1    3    3  502    0 -0.58303365023E+02 -0.58232354928E+01  0.69340902081E+02  0.90878080668E+02  0.41800000000E+01 0. -1.
         -5    1    3    3    0  502  0.48239519486E+02  0.15131358540E+02 -0.40421892649E+01  0.50890283410E+02  0.41800000000E+01 0. -1.
        -11    1    4    4    0    0 -0.73436922225E+00 -0.20970321529E+02 -0.26830780604E+02  0.34061480752E+02  0.00000000000E+00 0.  1.
         11    1    4    4    0    0  0.10798214760E+02  0.11662198482E+02  0.59925184960E+02  0.61997065317E+02  0.00000000000E+00 0. -1.
</event>
<event>
 8    1  0.6862919E-009  0.1133444E+03  0.7561462E-02  0.1254499E+00
          2   -1    0    0  501    0  0.00000000000E+00  0.00000000000E+00  0.13694911229E+03  0.13694911229E+03  0.00000000000E+00 0. -1.
         -2   -1    0    0    0  501 -0.00000000000E+00 -0.00000000000E+00 -0.99091348582E+02  0.99091348582E+02  0.00000000000E+00 0.  1.
         25    2    1    2    0    0 -0.87896603246E+01  0.19191508920E+02  0.10582523994E+02  0.12729685964E+03  0.12508768331E+03 0.  0.
         23    2    1    2    0    0  0.87896603246E+01 -0.19191508920E+02  0.27275239713E+02  0.10874360123E+03  0.10312933610E+03 0.  0.
          5    1    3    3  502    0 -0.19145206009E+02 -0.50112744905E+02 -0.86804293188E+01  0.54503654632E+02  0.41800000000E+01 0.  1.
         -5    1    3    3    0  502  0.10355545685E+02  0.69304253825E+02  0.19262953313E+02  0.72793205006E+02  0.41800000000E+01 0.  1.
        -11    1    4    4    0    0 -0.94480240648E+01 -0.58548252193E+02  0.38136602813E+01  0.59428166708E+02  0.00000000000E+00 0.  1.
         11    1    4    4    0    0  0.18237684389E+02  0.39356743273E+02  0.23461579432E+02  0.49315434525E+02  0.00000000000E+00 0. -1.
</event>
<event>
 8    1  0.6862919E-009  0.1146013E+03  0.7561462E-02  0.1252279E+00
         -2   -1    0    0    0  501 -0.00000000000E+00  0.00000000000E+00  0.48293441888E+02  0.48293441888E+02  0.00000000000E+00 0. -1.
          2   -1    0    0  501    0  0.00000000000E+00 -0.00000000000E+00 -0.84741334091E+03  0.84741334091E+03  0.00000000000E+00 0.  1.
         25    2    1    2    0    0  0.56544492059E+02  0.38963944156E+02 -0.76351615699E+03  0.77673693049E+03  0.12509144131E+03 0.  0.
         23    2    1    2    0    0 -0.56544492059E+02 -0.38963944156E+02 -0.35603742036E+02  0.11896985230E+03  0.90392094696E+02 0.  0.
          5    1    3    3  502    0  0.69475790233E+02  0.70139888087E+02 -0.66962035387E+03  0.67687176041E+03  0.41800000000E+01 0.  1.
         -5    1    3    3    0  502 -0.12931298174E+02 -0.31175943931E+02 -0.93895803116E+02  0.99865170081E+02  0.41800000000E+01 0.  1.
        -11    1    4    4    0    0  0.46886617809E+01 -0.34682464765E+02  0.16278222000E+02  0.38598412181E+02  0.00000000000E+00 0. -1.
         11    1    4    4    0    0 -0.61233153840E+02 -0.42814793912E+01 -0.51881964036E+02  0.80371440121E+02  0.00000000000E+00 0.  1.
</event>
<event>
 8    1  0.6862919E-009  0.2636072E+03  0.7561462E-02  0.1104995E+00
         -2   -1    0    0    0  501 -0.00000000000E+00  0.00000000000E+00  0.75717078311E+02  0.75717078311E+02  0.00000000000E+00 0.  1.
          2   -1    0    0  501    0  0.00000000000E+00 -0.00000000000E+00 -0.10228615454E+04  0.10228615454E+04  0.00000000000E+00 0. -1.
         25    2    1    2    0    0 -0.18729879325E+03 -0.16483546825E+03 -0.56031683094E+03  0.62598201446E+03  0.12508781654E+03 0.  0.
         23    2    1    2    0    0  0.18729879325E+03  0.16483546825E+03 -0.38682763614E+03  0.47259660924E+03  0.10705309634E+03 0.  0.
          5    1    3    3  502    0 -0.10216859772E+03 -0.14264322358E+03 -0.46078102855E+03  0.49307417319E+03  0.41800000000E+01 0.  1.
         -5    1    3    3    0  502 -0.85130195529E+02 -0.22192244668E+02 -0.99535802388E+02  0.13290784127E+03  0.41800000000E+01 0.  1.
        -11    1    4    4    0    0  0.78123561868E+02  0.12502215096E+03 -0.15890959305E+03  0.21676274568E+03  0.00000000000E+00 0.  1.
         11    1    4    4    0    0  0.10917523138E+03  0.39813317295E+02 -0.22791804309E+03  0.25583386356E+03  0.00000000000E+00 0. -1.
</event>
<event>
 8    1  0.6862919E-009  0.1747055E+03  0.7561462E-02  0.1173028E+00
         -1   -1    0    0    0  501 -0.00000000000E+00  0.00000000000E+00  0.63825016953E+02  0.63825016953E+02  0.00000000000E+00 0.  1.
          1   -1    0    0  501    0  0.00000000000E+00 -0.00000000000E+00 -0.92420790534E+03  0.92420790534E+03  0.00000000000E+00 0. -1.
         25    2    1    2    0    0 -0.10476635665E+03  0.89162096033E+02 -0.10233014696E+03  0.21224394309E+03  0.12510061370E+03 0.  0.
         23    2    1    2    0    0  0.10476635665E+03 -0.89162096033E+02 -0.75805274143E+03  0.77578897920E+03  0.90987431058E+02 0.  0.
          5    1    3    3  502    0  0.28441551475E+02  0.92287874053E+01 -0.21571554223E+02  0.37106558974E+02  0.41800000000E+01 0.  1.
         -5    1    3    3    0  502 -0.13320790812E+03  0.79933308627E+02 -0.80758592738E+02  0.17513738412E+03  0.41800000000E+01 0.  1.
        -11    1    4    4    0    0  0.44553411013E+02  0.11951357158E+02 -0.25647437775E+03  0.26058961571E+03  0.00000000000E+00 0.  1.
         11    1    4    4    0    0  0.60212945635E+02 -0.10111345319E+03 -0.50157836368E+03  0.51519936350E+03  0.00000000000E+00 0. -1.
</event>
<event>
 8    1  0.6862919E-009  0.1018411E+03  0.7561462E-02  0.1276471E+00
         -2   -1    0    0    0  501 -0.00000000000E+00  0.00000000000E+00  0.18385565367E+03  0.18385565367E+03  0.00000000000E+00 0.  1.
          2   -1    0    0  501    0  0.00000000000E+00 -0.00000000000E+00 -0.66003488296E+02  0.66003488296E+02  0.00000000000E+00 0. -1.
         25    2    1    2    0    0  0.17091442404E+02  0.94773214079E+01  0.63118806760E+02  0.14146684471E+03  0.12508775864E+03 0.  0.
         23    2    1    2    0    0 -0.17091442404E+02 -0.94773214079E+01  0.54733358611E+02  0.10839229725E+03  0.91494330612E+02 0.  0.
          5    1    3    3  502    0  0.48566282440E+02  0.53163773234E+02  0.30029733746E+02  0.78130198280E+02  0.41800000000E+01 0. -1.
         -5    1    3    3    0  502 -0.31474840036E+02 -0.43686451826E+02  0.33089073014E+02  0.63336646433E+02  0.41800000000E+01 0. -1.
        -11    1    4    4    0    0 -0.33717311967E+02  0.23169825319E+02  0.58690821853E+02  0.71542368575E+02  0.00000000000E+00 0.  1.
         11    1    4    4    0    0  0.16625869563E+02 -0.32647146727E+02 -0.39574632421E+01  0.36849928676E+02  0.00000000000E+00 0. -1.
</event>
<event>
 8    1  0.6862919E-009  0.9901515E+02  0.7561462E-02  0.1282381E+00
         -2   -1    0    0    0  501 -0.00000000000E+00  0.00000000000E+00  0.18907981219E+02  0.18907981219E+02  0.00000000000E+00 0.  1.
          2   -1    0    0  501    0  0.00000000000E+00 -0.00000000000E+00 -0.77235529199E+03  0.77235529199E+03  0.00000000000E+00 0. -1.
         25    2    1    2    0    0  0.38434387506E+01 -0.42481644670E+02 -0.52738652640E+03  0.54369430246E+03  0.12508990427E+03 0.  0.
         23    2    1    2    0    0 -0.38434387506E+01  0.42481644670E+02 -0.22606078437E+03  0.24756897074E+03  0.91473793456E+02 0.  0.
          5    1    3    3  502    0  0.45423852855E+02 -0.20528297872E+02 -0.83735283214E+02  0.97538748591E+02  0.41800000000E+01 0.  1.
         -5    1    3    3    0  502 -0.41580414105E+02 -0.21953346798E+02 -0.44365124318E+03  0.44615555387E+03  0.41800000000E+01 0.  1.
        -11    1    4    4    0    0 -0.76135016894E+01 -0.28612820635E+02 -0.60850785821E+02  0.67671833488E+02  0.00000000000E+00 0.  1.
         11    1    4    4    0    0  0.37700629388E+01  0.71094465305E+02 -0.16520999855E+03  0.17989713725E+03  0.00000000000E+00 0. -1.
</event>
<event>
 8    1  0.6862919E-009  0.1025506E+03  0.7561462E-02  0.1275022E+00
         -4   -1    0    0    0  501 -0.00000000000E+00  0.00000000000E+00  0.12203700317E+02  0.12203700317E+02  0.00000000000E+00 0.  1.
          4   -1    0    0  501    0  0.00000000000E+00 -0.00000000000E+00 -0.10755289609E+04  0.10755289609E+04  0.00000000000E+00 0. -1.
         25    2    1    2    0    0 -0.19855008105E+02 -0.12814729974E+02 -0.76670165532E+03  0.77719422296E+03  0.12506395679E+03 0.  0.
         23    2    1    2    0    0  0.19855008105E+02  0.12814729974E+02 -0.29662360528E+03  0.31053843827E+03  0.88826346217E+02 0.  0.
          5    1    3    3  502    0  0.51029535899E+02 -0.20143053405E+02 -0.28936882295E+03  0.29455312633E+03  0.41800000000E+01 0. -1.
         -5    1    3    3    0  502 -0.70884544005E+02  0.73283234308E+01 -0.47733283237E+03  0.48264109663E+03  0.41800000000E+01 0. -1.
        -11    1    4    4    0    0 -0.26517924824E+02  0.17976533100E+02 -0.48906983999E+02  0.58465794813E+02  0.00000000000E+00 0.  1.
         11    1    4    4    0    0  0.46372932930E+02 -0.51618031267E+01 -0.24771662128E+03  0.25207264345E+03  0.00000000000E+00 0. -1.
</event>
<event>
 8    1  0.6862919E-009  0.1488968E+03  0.7561462E-02  0.1201835E+00
         -1   -1    0    0    0  501 -0.00000000000E+00  0.00000000000E+00  0.22319032893E+03  0.22319032893E+03  0.00000000000E+00 0.  1.
          1   -1    0    0  501    0  0.00000000000E+00 -0.00000000000E+00 -0.11659200049E+03  0.11659200049E+03  0.00000000000E+00 0. -1.
         25    2    1    2    0    0  0.98760846282E+02  0.50702522591E+02  0.14132277062E+02  0.16785001536E+03  0.12509778514E+03 0.  0.
         23    2    1    2    0    0 -0.98760846282E+02 -0.50702522591E+02  0.92466051376E+02  0.17193231405E+03  0.93200318684E+02 0.  0.
          5    1    3    3  502    0 -0.28475457289E+02  0.14622290904E+02  0.14838454769E+02  0.35529075403E+02  0.41800000000E+01 0.  1.
         -5    1    3    3    0  502  0.12723630357E+03  0.36080231687E+02 -0.70617770727E+00  0.13232093996E+03  0.41800000000E+01 0.  1.
        -11    1    4    4    0    0 -0.35742054715E+02  0.17954487445E+02 -0.90809301479E+00  0.40008533185E+02  0.00000000000E+00 0.  1.
         11    1    4    4    0    0 -0.63018791567E+02 -0.68657010036E+02  0.93374144391E+02  0.13192378087E+03  0.00000000000E+00 0. -1.
</event>
<event>
 8    1  0.6862919E-009  0.1635626E+03  0.7561462E-02  0.1184732E+00
         -2   -1    0    0    0  501 -0.00000000000E+00  0.00000000000E+00  0.10662460246E+03  0.10662460246E+03  0.00000000000E+00 0.  1.
          2   -1    0    0  501    0  0.00000000000E+00 -0.00000000000E+00 -0.27284928500E+03  0.27284928500E+03  0.00000000000E+00 0. -1.
         25    2    1    2    0    0 -0.10892959101E+03 -0.66715145088E+02 -0.55355480769E+02  0.18716908552E+03  0.12510583896E+03 0.  0.
         23    2    1    2    0    0  0.10892959101E+03  0.66715145088E+02 -0.11086920177E+03  0.19230480194E+03  0.91501860997E+02 0.  0.
          5    1    3    3  502    0 -0.93575108581E+02  0.15363899893E+02 -0.34543471257E+02  0.10101026766E+03  0.41800000000E+01 0. -1.
         -5    1    3    3    0  502 -0.15354482432E+02 -0.82079044981E+02 -0.20812009511E+02  0.86158817864E+02  0.41800000000E+01 0. -1.
        -11    1    4    4    0    0  0.80082073325E+02  0.47217578125E+01 -0.90547549426E+02  0.12097227853E+03  0.00000000000E+00 0.  1.
         11    1    4    4    0    0  0.28847517688E+02  0.61993387275E+02 -0.20321652344E+02  0.71332523414E+02  0.00000000000E+00 0. -1.
</event>
<event>
 8    1  0.6862919E-009  0.1127724E+03  0.7561462E-02  0.1255520E+00
         -2   -1    0    0    0  501 -0.00000000000E+00  0.00000000000E+00  0.36119693732E+02  0.36119693732E+02  0.00000000000E+00 0. -1.
          2   -1    0    0  501    0  0.00000000000E+00 -0.00000000000E+00 -0.48986778573E+03  0.48986778573E+03  0.00000000000E+00 0.  1.
         25    2    1    2    0    0  0.18902471300E+02  0.40061395718E+02 -0.12660164162E+03  0.18340614329E+03  0.12509044282E+03 0.  0.
         23    2    1    2    0    0 -0.18902471300E+02 -0.40061395718E+02 -0.32714645037E+03  0.34258133617E+03  0.91514769588E+02 0.  0.
          5    1    3    3  502    0 -0.53620817957E+02  0.19416500793E+02 -0.54236136102E+02  0.78811315689E+02  0.41800000000E+01 0. -1.
         -5    1    3    3    0  502  0.72523289257E+02  0.20644894926E+02 -0.72365505517E+02  0.10459482760E+03  0.41800000000E+01 0. -1.
        -11    1    4    4    0    0  0.30543758522E+02 -0.29121092994E+02 -0.81598438197E+02  0.91865468801E+02  0.00000000000E+00 0.  1.
         11    1    4    4    0    0 -0.49446229822E+02 -0.10940302724E+02 -0.24554801218E+03  0.25071586737E+03  0.00000000000E+00 0. -1.
</event>
<event>
 8    1  0.6862919E-009  0.7083978E+02  0.7561462E-02  0.1357260E+00
         -1   -1    0    0    0  501 -0.00000000000E+00  0.00000000000E+00  0.26713298299E+02  0.26713298299E+02  0.00000000000E+00 0.  1.
          1   -1    0    0  501    0  0.00000000000E+00 -0.00000000000E+00 -0.41605794186E+03  0.41605794186E+03  0.00000000000E+00 0. -1.
         25    2    1    2    0    0  0.13161225049E+02 -0.15043774616E+02 -0.30162374610E+03  0.32714698656E+03  0.12509489842E+03 0.  0.
         23    2    1    2    0    0 -0.13161225049E+02  0.15043774616E+02 -0.87720897464E+02  0.11562425359E+03  0.72625609588E+02 0.  0.
          5    1    3    3  502    0 -0.57271329811E+01  0.43143175056E+02 -0.42891047080E+02  0.61247431993E+02  0.41800000000E+01 0.  1.
         -5    1    3    3    0  502  0.18888358030E+02 -0.58186949672E+02 -0.25873269902E+03  0.26589955457E+03  0.41800000000E+01 0.  1.
        -11    1    4    4    0    0  0.55724854997E+01  0.16917760904E+02 -0.94080632453E+02  0.95751911894E+02  0.00000000000E+00 0. -1.
         11    1    4    4    0    0 -0.18733710548E+02 -0.18739862886E+01  0.63597349892E+01  0.19872341700E+02  0.00000000000E+00 0.  1.
</event>
<event>
 8    1  0.6862919E-009  0.1714763E+03  0.7561462E-02  0.1176317E+00
          2   -1    0    0  501    0  0.00000000000E+00  0.00000000000E+00  0.63594187044E+03  0.63594187044E+03  0.00000000000E+00 0. -1.
         -2   -1    0    0    0  501 -0.00000000000E+00 -0.00000000000E+00 -0.58292883268E+02  0.58292883268E+02  0.00000000000E+00 0.  1.
         25    2    1    2    0    0  0.14130490911E+03  0.40190136004E+02  0.41053109817E+03  0.45361300950E+03  0.12508659183E+03 0.  0.
         23    2    1    2    0    0 -0.14130490911E+03 -0.40190136004E+02  0.16711788900E+03  0.24062174420E+03  0.91586628879E+02 0.  0.
          5    1    3    3  502    0 -0.74640744049E+01 -0.27678837178E+02  0.72897416668E+02  0.78443203601E+02  0.41800000000E+01 0. -1.
         -5    1    3    3    0  502  0.14876898351E+03  0.67868973182E+02  0.33763368150E+03  0.37516980590E+03  0.41800000000E+01 0. -1.
        -11    1    4    4    0    0 -0.23558785706E+02 -0.20087075900E+02 -0.47488136350E+01  0.31321849133E+02  0.00000000000E+00 0.  1.
         11    1    4    4    0    0 -0.11774612340E+03 -0.20103060104E+02  0.17186670264E+03  0.20929989507E+03  0.00000000000E+00 0. -1.
</event>
<event>
 8    1  0.6862919E-009  0.8031073E+02  0.7561462E-02  0.1328172E+00
          1   -1    0    0  501    0  0.00000000000E+00  0.00000000000E+00  0.43263547334E+03  0.43263547334E+03  0.00000000000E+00 0. -1.
         -1   -1    0    0    0  501 -0.00000000000E+00 -0.00000000000E+00 -0.28433262112E+02  0.28433262112E+02  0.00000000000E+00 0.  1.
         25    2    1    2    0    0  0.13282994494E+02 -0.25554384932E+02  0.21789189976E+03  0.25289207586E+03  0.12509219609E+03 0.  0.
         23    2    1    2    0    0 -0.13282994494E+02  0.25554384932E+02  0.18631031148E+03  0.20817665959E+03  0.88297932620E+02 0.  0.
          5    1    3    3  502    0 -0.95034483394E+01 -0.55911218231E+02  0.36611352637E+02  0.67633153086E+02  0.41800000000E+01 0. -1.
         -5    1    3    3    0  502  0.22786442833E+02  0.30356833299E+02  0.18128054712E+03  0.18525892278E+03  0.41800000000E+01 0. -1.
        -11    1    4    4    0    0 -0.18796128657E+02 -0.15365904965E+02  0.86363408871E+01  0.25768039735E+02  0.00000000000E+00 0.  1.
         11    1    4    4    0    0  0.55131341633E+01  0.40920289897E+02  0.17767397059E+03  0.18240861986E+03  0.00000000000E+00 0. -1.
</event>
<event>
 8    1  0.6862919E-009  0.3897080E+03  0.7561462E-02  0.1047403E+00
          2   -1    0    0  501    0  0.00000000000E+00  0.00000000000E+00  0.16462048169E+04  0.16462048169E+04  0.00000000000E+00 0. -1.
         -2   -1    0    0    0  501 -0.00000000000E+00 -0.00000000000E+00 -0.98529557245E+02  0.98529557245E+02  0.00000000000E+00 0.  1.
         25    2    1    2    0    0  0.38702294353E+03  0.20640211232E+02  0.74110491706E+03  0.84563395374E+03  0.12509000158E+03 0.  0.
         23    2    1    2    0    0 -0.38702294353E+03 -0.20640211232E+02  0.80657034259E+03  0.89910042040E+03  0.87252915602E+02 0.  0.
          5    1    3    3  502    0  0.22613549650E+03  0.31318438721E+02  0.30752199416E+03  0.38302135276E+03  0.41800000000E+01 0. -1.
         -5    1    3    3    0  502  0.16088744703E+03 -0.10678227489E+02  0.43358292290E+03  0.46261260098E+03  0.41800000000E+01 0. -1.
        -11    1    4    4    0    0 -0.13424600250E+03  0.12595976690E+02  0.36643530050E+03  0.39045547412E+03  0.00000000000E+00 0. -1.
         11    1    4    4    0    0 -0.25277694103E+03 -0.33236187922E+02  0.44013504209E+03  0.50864494628E+03  0.00000000000E+00 0.  1.
</event>
<event>
 8    1  0.6862919E-009  0.1504410E+03  0.7561462E-02  0.1199932E+00
         -1   -1    0    0    0  501 -0.00000000000E+00  0.00000000000E+00  0.16188631234E+03  0.16188631234E+03  0.00000000000E+00 0.  1.
          1   -1    0    0  501    0  0.00000000000E+00 -0.00000000000E+00 -0.15729868648E+03  0.15729868648E+03  0.00000000000E+00 0. -1.
         25    2    1    2    0    0  0.20069325917E+02 -0.11378464348E+03 -0.19951516225E+02  0.17144868467E+03  0.12508743158E+03 0.  0.
         23    2    1    2    0    0 -0.20069325917E+02  0.11378464348E+03  0.24539142078E+02  0.14773631415E+03  0.88736272674E+02 0.  0.
          5    1    3    3  502    0 -0.47730356472E+02 -0.78654253835E+02  0.11863822527E+01  0.92106234741E+02  0.41800000000E+01 0. -1.
         -5    1    3    3    0  502  0.67799682389E+02 -0.35130389650E+02 -0.21137898477E+02  0.79342449931E+02  0.41800000000E+01 0. -1.
        -11    1    4    4    0    0  0.17732486347E+02  0.78906122771E+02  0.44802065893E+02  0.92454542295E+02  0.00000000000E+00 0. -1.
         11    1    4    4    0    0 -0.37801812264E+02  0.34878520714E+02 -0.20262923814E+02  0.55281771852E+02  0.00000000000E+00 0.  1.
</event>
<event>
 8    1  0.6862919E-009  0.8146500E+02  0.7561462E-02  0.1324945E+00
          1   -1    0    0  501    0  0.00000000000E+00  0.00000000000E+00  0.11812119346E+03  0.11812119346E+03  0.00000000000E+00 0. -1.
         -1   -1    0    0    0  501 -0.00000000000E+00 -0.00000000000E+00 -0.16575455995E+03  0.16575455995E+03  0.00000000000E+00 0.  1.
         25    2    1    2    0    0 -0.31105892172E+02  0.24703376054E+02 -0.10549292919E+03  0.16838653920E+03  0.12508970844E+03 0.  0.
         23    2    1    2    0    0  0.31105892172E+02 -0.24703376054E+02  0.57859562701E+02  0.11548921421E+03  0.91718025958E+02 0.  0.
          5    1    3    3  502    0 -0.50094667179E+02  0.34610777196E+02 -0.12500821888E+03  0.13911113818E+03  0.41800000000E+01 0.  1.
         -5    1    3    3    0  502  0.18988775007E+02 -0.99074011427E+01  0.19515289683E+02  0.29275401023E+02  0.41800000000E+01 0.  1.
        -11    1    4    4    0    0  0.44769346149E+02  0.72237362068E+01  0.65753966697E+02  0.79875283134E+02  0.00000000000E+00 0. -1.
         11    1    4    4    0    0 -0.13663453977E+02 -0.31927112260E+02 -0.78944039968E+01  0.35613931071E+02  0.00000000000E+00 0.  1.
</event>
<event>
 8    1  0.6862919E-009  0.1515916E+03  0.7561462E-02  0.1198531E+00
          2   -1    0    0  501    0  0.00000000000E+00  0.00000000000E+00  0.51601137703E+02  0.51601137703E+02  0.00000000000E+00 0.  1.
         -2   -1    0    0    0  501 -0.00000000000E+00 -0.00000000000E+00 -0.59845577013E+03  0.59845577013E+03  0.00000000000E+00 0. -1.
         25    2    1    2    0    0  0.93529742101E+02  0.95668104980E+02 -0.35125933917E+03  0.39614472826E+03  0.12508926175E+03 0.  0.
         23    2    1    2    0    0 -0.93529742101E+02 -0.95668104980E+02 -0.19559529325E+03  0.25391217957E+03  0.91179368410E+02 0.  0.
          5    1    3    3  502    0  0.92203240453E+02  0.71379317137E+02 -0.35262307632E+03  0.37142556565E+03  0.41800000000E+01 0. -1.
         -5    1    3    3    0  502  0.13265016478E+01  0.24288787843E+02  0.13637371415E+01  0.24719162617E+02  0.41800000000E+01 0. -1.
        -11    1    4    4    0    0 -0.29565042273E+02  0.15638257220E+02 -0.37172080855E+02  0.50004103917E+02  0.00000000000E+00 0.  1.
         11    1    4    4    0    0 -0.63964699828E+02 -0.11130636220E+03 -0.15842321240E+03  0.20390807565E+03  0.00000000000E+00 0. -1.
</event>
<event>
 8    1  0.6862919E-009  0.1043109E+03  0.7561462E-02  0.1271483E+00
          2   -1    0    0  501    0  0.00000000000E+00  0.00000000000E+00  0.10624628589E+04  0.10624628589E+04  0.00000000000E+00 0. -1.
         -2   -1    0    0    0  501 -0.00000000000E+00 -0.00000000000E+00 -0.15410748300E+02  0.15410748300E+02  0.00000000000E+00 0.  1.
         25    2    1    2    0    0 -0.62118806938E+01  0.62131430985E+02  0.71015756965E+03  0.72378880003E+03  0.12509017209E+03 0.  0.
         23    2    1    2    0    0  0.62118806938E+01 -0.62131430985E+02  0.33689454093E+03  0.35408480714E+03  0.89326461710E+02 0.  0.
          5    1    3    3  502    0 -0.28557858611E+02 -0.14187373655E+02  0.46308085731E+03  0.46419627924E+03  0.41800000000E+01 0.  1.
         -5    1    3    3    0  502  0.22345977918E+02  0.76318804640E+02  0.24707671234E+03  0.25959252079E+03  0.41800000000E+01 0.  1.
        -11    1    4    4    0    0  0.30632228424E+02 -0.61093919133E+00  0.42813576873E+02  0.52647022989E+02  0.00000000000E+00 0.  1.
         11    1    4    4    0    0 -0.24420347730E+02 -0.61520491793E+02  0.29408096406E+03  0.30143778416E+03  0.00000000000E+00 0. -1.
</event>
<event>
 8    1  0.6862919E-009  0.1400549E+03  0.7561462E-02  0.1213255E+00
          1   -1    0    0  501    0  0.00000000000E+00  0.00000000000E+00  0.31748931550E+02  0.31748931550E+02  0.00000000000E+00 0. -1.
         -1   -1    0    0    0  501 -0.00000000000E+00 -0.00000000000E+00 -0.62540280818E+03  0.62540280818E+03  0.00000000000E+00 0.  1.
         25    2    1    2    0    0  0.33297344581E+02  0.83062936870E+02 -0.34618882291E+03  0.37881697059E+03  0.12508969367E+03 0.  0.
         23    2    1    2    0    0 -0.33297344581E+02 -0.83062936870E+02 -0.24746505372E+03  0.27833476914E+03  0.90681454893E+02 0.  0.
          5    1    3    3  502    0  0.79250637887E+02  0.36699923704E+02 -0.17685704054E+03  0.19729022579E+03  0.41800000000E+01 0.  1.
         -5    1    3    3    0  502 -0.45953293306E+02  0.46363013166E+02 -0.16933178238E+03  0.18152674480E+03  0.41800000000E+01 0.  1.
        -11    1    4    4    0    0 -0.50065476011E+02 -0.84317612011E+01 -0.10516406518E+03  0.11677811050E+03  0.00000000000E+00 0.  1.
         11    1    4    4    0    0  0.16768131430E+02 -0.74631175669E+02 -0.14230098853E+03  0.16155665864E+03  0.00000000000E+00 0. -1.
</event>
<event>
 7    1  0.6862919E-009  0.1719208E+03  0.7561462E-02  0.1175859E+00
          1   -1    0    0  501    0  0.00000000000E+00  0.00000000000E+00  0.41061755705E+03  0.41061755705E+03  0.00000000000E+00 0. -1.
         -1   -1    0    0    0  501 -0.00000000000E+00 -0.00000000000E+00 -0.81163538013E+02  0.81163538013E+02  0.00000000000E+00 0.  1.
         25    2    1    2    0    0  0.38542995358E+02 -0.11835612428E+03  0.12397053540E+03  0.21566547992E+03  0.12509664639E+03 0.  0.
          5    1    3    3  502    0  0.75062847413E+02 -0.67768334986E+02  0.35363195427E+02  0.10721476708E+03  0.41800000000E+01 0. -1.
         -5    1    3    3    0  502 -0.36519852055E+02 -0.50587789292E+02  0.88607339975E+02  0.10845071285E+03  0.41800000000E+01 0. -1.
        -11    1    1    2    0    0 -0.86703747948E+02  0.85673071827E+02  0.10943992126E+03  0.16381242783E+03  0.00000000000E+00 0.  1.
         11    1    1    2    0    0  0.48160752590E+02  0.32683052450E+02  0.96043562374E+02  0.11230318731E+03  0.00000000000E+00 0. -1.
</event>
<event>
 8    1  0.6862919E-009  0.9691712E+02  0.7561462E-02  0.1286916E+00
         -1   -1    0    0    0  501 -0.00000000000E+00  0.00000000000E+00  0.11104926429E+03  0.11104926429E+03  0.00000000000E+00 0.  1.
          1   -1    0    0  501    0  0.00000000000E+00 -0.00000000000E+00 -0.14996850792E+03  0.14996850792E+03  0.00000000000E+00 0. -1.
         25    2    1    2    0    0  0.47603150077E-01 -0.43745984319E+02 -0.75983893645E+02  0.15275497723E+03  0.12508723982E+03 0.  0.
         23    2    1    2    0    0 -0.47603150077E-01  0.43745984319E+02  0.37064650007E+02  0.10826279498E+03  0.91833169862E+02 0.  0.
          5    1    3    3  502    0 -0.60297787111E+02 -0.35489468252E+02 -0.51501221248E+02  0.86978006860E+02  0.41800000000E+01 0. -1.
         -5    1    3    3    0  502  0.60345390261E+02 -0.82565160668E+01 -0.24482672398E+02  0.65776970370E+02  0.41800000000E+01 0. -1.
        -11    1    4    4    0    0 -0.95838999014E+01  0.50245555114E+02 -0.16283448585E+02  0.53680700851E+02  0.00000000000E+00 0. -1.
         11    1    4    4    0    0  0.95362967514E+01 -0.64995707951E+01  0.53348098592E+02  0.54582094130E+02  0.00000000000E+00 0.  1.
</event>
<event>
 8    1  0.6862919E-009  0.9113865E+02  0.7561462E-02  0.1300117E+00
          1   -1    0    0  501    0  0.00000000000E+00  0.00000000000E+00  0.56533139967E+02  0.56533139967E+02  0.00000000000E+00 0. -1.
         -1   -1    0    0    0  501 -0.00000000000E+00 -0.00000000000E+00 -0.26858654462E+03  0.26858654462E+03  0.00000000000E+00 0.  1.
         25    2    1    2    0    0 -0.62648278043E+02  0.19542321065E+02 -0.11151572267E+03  0.17997298351E+03  0.12509120407E+03 0.  0.
         23    2    1    2    0    0  0.62648278043E+02 -0.19542321065E+02 -0.10053768198E+03  0.14514670108E+03  0.81566109876E+02 0.  0.
          5    1    3    3  502    0  0.84557764086E+01  0.10542908952E+02 -0.10711501726E+03  0.10804514060E+03  0.41800000000E+01 0. -1.
         -5    1    3    3    0  502 -0.71104054452E+02  0.89994121132E+01 -0.44007054064E+01  0.71927842912E+02  0.41800000000E+01 0. -1.
        -11    1    4    4    0    0  0.25304409474E+02  0.26775363913E+02 -0.67988330692E+02  0.77328173144E+02  0.00000000000E+00 0.  1.
         11    1    4    4    0    0  0.37343868569E+02 -0.46317684978E+02 -0.32549351293E+02  0.67818527934E+02  0.00000000000E+00 0. -1.
</event>
<event>
 8    1  0.6862919E-009  0.1997380E+03  0.7561462E-02  0.1149960E+00
          1   -1    0    0  501    0  0.00000000000E+00  0.00000000000E+00  0.51778051548E+02  0.51778051548E+02  0.00000000000E+00 0. -1.
         -1   -1    0    0    0  501 -0.00000000000E+00 -0.00000000000E+00 -0.10734204162E+04  0.10734204162E+04  0.00000000000E+00 0.  1.
         25    2    1    2    0    0 -0.17796936848E+03 -0.19650099341E+02 -0.78246669753E+03  0.81238043033E+03  0.12509439762E+03 0.  0.
         23    2    1    2    0    0  0.17796936848E+03  0.19650099341E+02 -0.23917566714E+03  0.31281803744E+03  0.92687120327E+02 0.  0.
          5    1    3    3  502    0 -0.10101021081E+03 -0.66386036962E+02 -0.54794087749E+03  0.56112997266E+03  0.41800000000E+01 0. -1.
         -5    1    3    3    0  502 -0.76959157663E+02  0.46735937621E+02 -0.23452582004E+03  0.25125045767E+03  0.41800000000E+01 0. -1.
        -11    1    4    4    0    0  0.84271862477E+02  0.38777904729E+02 -0.62295389829E+02  0.11174161398E+03  0.00000000000E+00 0. -1.
         11    1    4    4    0    0  0.93697506000E+02 -0.19127805388E+02 -0.17688027731E+03  0.20107642346E+03  0.00000000000E+00 0.  1.
</event>
<event>
 8    1  0.6862919E-009  0.1352283E+03  0.7561462E-02  0.1219898E+00
         -3   -1    0    0    0  501 -0.00000000000E+00  0.00000000000E+00  0.13783471760E+03  0.13783471760E+03  0.00000000000E+00 0.  1.
          3   -1    0    0  501    0  0.00000000000E+00 -0.00000000000E+00 -0.17150934775E+03  0.17150934775E+03  0.00000000000E+00 0. -1.
         25    2    1    2    0    0 -0.69499531237E+02  0.63180412219E+02 -0.73150531470E+02  0.17268796590E+03  0.12509270156E+03 0.  0.
         23    2    1    2    0    0  0.69499531237E+02 -0.63180412219E+02  0.39475901329E+02  0.13665609945E+03  0.91074658383E+02 0.  0.
          5    1    3    3  502    0 -0.88571711045E+02  0.16195336072E+02 -0.86738288494E+01  0.90553545568E+02  0.41800000000E+01 0. -1.
         -5    1    3    3    0  502  0.19072179808E+02  0.46985076148E+02 -0.64476702620E+02  0.82134420336E+02  0.41800000000E+01 0. -1.
        -11    1    4    4    0    0  0.10068033204E+02 -0.68993099363E+02  0.31141057012E+02  0.76362153480E+02  0.00000000000E+00 0.  1.
         11    1    4    4    0    0  0.59431498034E+02  0.58126871434E+01  0.83348443165E+01  0.60293945966E+02  0.00000000000E+00 0. -1.
</event>
<event>
 8    1  0.6862919E-009  0.1849556E+03  0.7561462E-02  0.1163091E+00
          1   -1    0    0  501    0  0.00000000000E+00  0.00000000000E+00  0.62359884667E+03  0.62359884667E+03  0.00000000000E+00 0. -1.
         -1   -1    0    0    0  501 -0.00000000000E+00 -0.00000000000E+00 -0.70412788683E+02  0.70412788683E+02  0.00000000000E+00 0.  1.
         25    2    1    2    0    0  0.15680383124E+03  0.83345689000E+02  0.33431674929E+03  0.39868424981E+03  0.12508995493E+03 0.  0.
         23    2    1    2    0    0 -0.15680383124E+03 -0.83345689000E+02  0.21886930870E+03  0.29532738555E+03  0.88207397615E+02 0.  0.
          5    1    3    3  502    0  0.77951141009E+02  0.59767111485E+02  0.28763247157E+03  0.30397104978E+03  0.41800000000E+01 0.  1.
         -5    1    3    3    0  502  0.78852690234E+02  0.23578577515E+02  0.46684277716E+02  0.94713200034E+02  0.41800000000E+01 0.  1.
        -11    1    4    4    0    0 -0.16250106257E+03 -0.74736546442E+02  0.22147400012E+03  0.28468031094E+03  0.00000000000E+00 0. -1.
         11    1    4    4    0    0  0.56972313231E+01 -0.86091425580E+01 -0.26046914124E+01  0.10647074607E+02  0.00000000000E+00 0.  1.
</event>
<event>
 8    1  0.6862919E-009  0.1873206E+03  0.7561462E-02  0.1160900E+00
         -2   -1    0    0    0  501 -0.00000000000E+00  0.00000000000E+00  0.33913576763E+02  0.33913576763E+02  0.00000000000E+00 0.  1.
          2   -1    0    0  501    0  0.00000000000E+00 -0.00000000000E+00 -0.13823476694E+04  0.13823476694E+04  0.00000000000E+00 0. -1.
         25    2    1    2    0    0 -0.15211111229E+03  0.58571289599E+02 -0.10026102467E+04  0.10234466843E+04  0.12508965737E+03 0.  0.
         23    2    1    2    0    0  0.15211111229E+03 -0.58571289599E+02 -0.34582384591E+03  0.39281456183E+03  0.90226166607E+02 0.  0.
          5    1    3    3  502    0 -0.12602660221E+03 -0.14175988598E+02 -0.67450754263E+03  0.68633924599E+03  0.41800000000E+01 0. -1.
         -5    1    3    3    0  502 -0.26084510072E+02  0.72747278198E+02 -0.32810270409E+03  0.33710743834E+03  0.41800000000E+01 0. -1.
        -11    1    4    4    0    0  0.51950410732E+02  0.42504169454E+01 -0.19114405276E+03  0.19812359810E+03  0.00000000000E+00 0. -1.
         11    1    4    4    0    0  0.10016070155E+03 -0.62821706545E+02 -0.15467979315E+03  0.19469096373E+03  0.00000000000E+00 0.  1.
</event>
<event>
 8    1  0.6862919E-009  0.1063238E+03  0.7561462E-02  0.1267533E+00
         -4   -1    0    0    0  501 -0.00000000000E+00  0.00000000000E+00  0.22358430411E+03  0.22358430411E+03  0.00000000000E+00 0. -1.
          4   -1    0    0  501    0  0.00000000000E+00 -0.00000000000E+00 -0.88911731743E+02  0.88911731743E+02  0.00000000000E+00 0.  1.
         25    2    1    2    0    0 -0.38307594091E+02  0.62017783895E+02  0.14834738746E+02  0.14553826459E+03  0.12509052603E+03 0.  0.
         23    2    1    2    0    0  0.38307594091E+02 -0.62017783895E+02  0.11983783362E+03  0.16695777126E+03  0.90554479368E+02 0.  0.
          5    1    3    3  502    0  0.34050147773E+02  0.25360984133E+02 -0.30573191386E+02  0.52486041107E+02  0.41800000000E+01 0.  1.
         -5    1    3    3    0  502 -0.72357741864E+02  0.36656799761E+02  0.45407930132E+02  0.93052223484E+02  0.41800000000E+01 0.  1.
        -11    1    4    4    0    0 -0.10737945597E+02 -0.25340318603E+02  0.98233382945E+02  0.10201584557E+03  0.00000000000E+00 0. -1.
         11    1    4    4    0    0  0.49045539688E+02 -0.36677465291E+02  0.21604450674E+02  0.64941925691E+02  0.00000000000E+00 0.  1.
</event>
<event>
 8    1  0.6862919E-009  0.1053037E+03  0.7561462E-02  0.1269522E+00
          1   -1    0    0  501    0  0.00000000000E+00  0.00000000000E+00  0.35963954650E+03  0.35963954650E+03  0.00000000000E+00 0. -1.
         -1   -1    0    0    0  501 -0.00000000000E+00 -0.00000000000E+00 -0.43372319623E+02  0.43372319623E+02  0.00000000000E+00 0.  1.
         25    2    1    2    0    0 -0.44489627660E+02  0.12960493848E+02  0.11750573973E+03  0.17777063790E+03  0.12508996546E+03 0.  0.
         23    2    1    2    0    0  0.44489627660E+02 -0.12960493848E+02  0.19876148715E+03  0.22524122823E+03  0.95289982424E+02 0.  0.
          5    1    3    3  502    0 -0.37376797823E+02 -0.49502109273E+02  0.89131934110E+02  0.10867132978E+03  0.41800000000E+01 0. -1.
         -5    1    3    3    0  502 -0.71128298372E+01  0.62462603121E+02  0.28373805623E+02  0.69099308119E+02  0.41800000000E+01 0. -1.
        -11    1    4    4    0    0  0.14219778905E+02  0.29814271495E+02  0.19236636370E+02  0.38224875092E+02  0.00000000000E+00 0.  1.
         11    1    4    4    0    0  0.30269848755E+02 -0.42774765344E+02  0.17952485078E+03  0.18701635314E+03  0.00000000000E+00 0. -1.
</event>
<event>
 8    1  0.6862919E-009  0.1071050E+03  0.7561462E-02  0.1266027E+00
         -1   -1    0    0    0  501 -0.00000000000E+00  0.00000000000E+00  0.60024592235E+02  0.60024592235E+02  0.00000000000E+00 0.  1.
          1   -1    0    0  501    0  0.00000000000E+00 -0.00000000000E+00 -0.30544212206E+03  0.30544212206E+03  0.00000000000E+00 0. -1.
         25    2    1    2    0    0  0.30379487539E+02 -0.70372612751E+02 -0.97662102232E+02  0.17624129833E+03  0.12509153103E+03 0.  0.
         23    2    1    2    0    0 -0.30379487539E+02  0.70372612751E+02 -0.14775542759E+03  0.18922541596E+03  0.89996520905E+02 0.  0.
          5    1    3    3  502    0  0.70093395193E+02 -0.47764253345E+02 -0.98871506660E+02  0.13033631565E+03  0.41800000000E+01 0. -1.
         -5    1    3    3    0  502 -0.39713907654E+02 -0.22608359406E+02  0.12094044274E+01  0.45904982684E+02  0.41800000000E+01 0. -1.
        -11    1    4    4    0    0 -0.27102865572E+02  0.21983412112E+02 -0.12709111079E+01  0.34920637814E+02  0.00000000000E+00 0.  1.
         11    1    4    4    0    0 -0.32766219672E+01  0.48389200639E+02 -0.14648451649E+03  0.15430477815E+03  0.00000000000E+00 0. -1.
</event>
<event>
 8    1  0.6862919E-009  0.4509624E+03  0.7561462E-02  0.1027435E+00
         -1   -1    0    0    0  501 -0.00000000000E+00  0.00000000000E+00  0.23240497019E+03  0.23240497019E+03  0.00000000000E+00 0.  1.
          1   -1    0    0  501    0  0.00000000000E+00 -0.00000000000E+00 -0.91076951416E+03  0.91076951416E+03  0.00000000000E+00 0. -1.
         25    2    1    2    0    0 -0.48740507158E+02 -0.44379588408E+03 -0.37416461182E+03  0.59579937231E+03  0.12508921435E+03 0.  0.
         23    2    1    2    0    0  0.48740507158E+02  0.44379588408E+03 -0.30419993215E+03  0.54737511205E+03  0.88042551112E+02 0.  0.
          5    1    3    3  502    0  0.24951204233E+02 -0.17073977661E+03 -0.19755100569E+03  0.26233281563E+03  0.41800000000E+01 0. -1.
         -5    1    3    3    0  502 -0.73691711390E+02 -0.27305610746E+03 -0.17661360613E+03  0.33346655668E+03  0.41800000000E+01 0. -1.
        -11    1    4    4    0    0  0.16474112868E+02  0.14733851779E+03 -0.52934477909E+02  0.15742329615E+03  0.00000000000E+00 0.  1.
         11    1    4    4    0    0  0.32266394290E+02  0.29645736629E+03 -0.25126545424E+03  0.38995181590E+03  0.00000000000E+00 0. -1.
</event>
<event>
 7    1  0.6862919E-009  0.2848839E+03  0.7561462E-02  0.1093051E+00
         -1   -1    0    0    0  501 -0.00000000000E+00  0.00000000000E+00  0.15388767574E+03  0.15388767574E+03  0.00000000000E+00 0. -1.
          1   -1    0    0  501    0  0.00000000000E+00 -0.00000000000E+00 -0.58370045766E+03  0.58370045766E+03  0.00000000000E+00 0.  1.
         23    2    1    2    0    0  0.72499091666E+02 -0.25954893964E+03 -0.29756208316E+03  0.41231144321E+03  0.93998736740E+02 0.  0.
          5    1    1    2  502    0 -0.39556521215E+02  0.26075264027E+03 -0.11381808207E+03  0.28727806388E+03  0.41800000000E+01 0. -1.
         -5    1    1    2    0  502 -0.32942570451E+02 -0.12037006302E+01 -0.18432616692E+02  0.37998626307E+02  0.41800000000E+01 0. -1.
        -11    1    3    3    0    0  0.75179647377E+02 -0.20831038484E+03 -0.18484685144E+03  0.28846759662E+03  0.00000000000E+00 0.  1.
         11    1    3    3    0    0 -0.26805557113E+01 -0.51238554798E+02 -0.11271523172E+03  0.12384384659E+03  0.00000000000E+00 0. -1.
</event>
<event>
 8    1  0.6862919E-009  0.8595893E+02  0.7561462E-02  0.1312944E+00
         -2   -1    0    0    0  501 -0.00000000000E+00  0.00000000000E+00  0.58665342292E+02  0.58665342292E+02  0.00000000000E+00 0. -1.
          2   -1    0    0  501    0  0.00000000000E+00 -0.00000000000E+00 -0.28225809114E+03  0.28225809114E+03  0.00000000000E+00 0.  1.
         25    2    1    2    0    0  0.57486979619E+02  0.34429399728E+02 -0.14083789500E+03  0.19993221929E+03  0.12508974079E+03 0.  0.
         23    2    1    2    0    0 -0.57486979619E+02 -0.34429399728E+02 -0.82754853843E+02  0.14099121414E+03  0.92412229919E+02 0.  0.
          5    1    3    3  502    0  0.31032455480E+02 -0.10452137779E+01 -0.15109959323E+03  0.15431352902E+03  0.41800000000E+01 0. -1.
         -5    1    3    3    0  502  0.26454524139E+02  0.35474613505E+02  0.10261698232E+02  0.45618690264E+02  0.41800000000E+01 0. -1.
        -11    1    4    4    0    0 -0.19165429656E+02  0.21205119092E+02 -0.65203244854E+02  0.71192934404E+02  0.00000000000E+00 0.  1.
         11    1    4    4    0    0 -0.38321549964E+02 -0.55634518820E+02 -0.17551608990E+02  0.69798279736E+02  0.00000000000E+00 0. -1.
</event>
<event>
 8    1  0.6862919E-009  0.1219333E+03  0.7561462E-02  0.1239941E+00
         -2   -1    0    0    0  501 -0.00000000000E+00  0.00000000000E+00  0.19391633613E+02  0.19391633613E+02  0.00000000000E+00 0.  1.
          2   -1    0    0  501    0  0.00000000000E+00 -0.00000000000E+00 -0.78784774869E+03  0.78784774869E+03  0.00000000000E+00 0. -1.
         25    2    1    2    0    0  0.45951531384E+02 -0.32866889763E+02 -0.47813816311E+03  0.49744834241E+03  0.12508786777E+03 0.  0.
         23    2    1    2    0    0 -0.45951531384E+02  0.32866889763E+02 -0.29031795197E+03  0.30979103990E+03  0.92163981495E+02 0.  0.
          5    1    3    3  502    0  0.72702799040E+02 -0.62890038815E+02 -0.35713595249E+03  0.36987080844E+03  0.41800000000E+01 0. -1.
         -5    1    3    3    0  502 -0.26751267656E+02  0.30023149052E+02 -0.12100221062E+03  0.12757753398E+03  0.41800000000E+01 0. -1.
        -11    1    4    4    0    0 -0.71915296546E+02  0.37083668831E+02 -0.23495105087E+03  0.24849347009E+03  0.00000000000E+00 0.  1.
         11    1    4    4    0    0  0.25963765162E+02 -0.42167790680E+01 -0.55366901099E+02  0.61297569808E+02  0.00000000000E+00 0. -1.
</event>
<event>
 8    1  0.6862919E-009  0.8612581E+02  0.7561462E-02  0.1312514E+00
         -2   -1    0    0    0  501 -0.00000000000E+00  0.00000000000E+00  0.78382615991E+02  0.78382615991E+02  0.00000000000E+00 0.  1.
          2   -1    0    0  501    0  0.00000000000E+00 -0.00000000000E+00 -0.19195005957E+03  0.19195005957E+03  0.00000000000E+00 0. -1.
         25    2    1    2    0    0  0.10420232056E+02 -0.49889580307E+02 -0.94642603550E+02  0.16492763094E+03  0.12508536917E+03 0.  0.
         23    2    1    2    0    0 -0.10420232056E+02  0.49889580307E+02 -0.18924840031E+02  0.10540504462E+03  0.90302394223E+02 0.  0.
          5    1    3    3  502    0 -0.28005502256E+02  0.41953648642E+01 -0.94195809927E+02  0.98449135347E+02  0.41800000000E+01 0.  1.
         -5    1    3    3    0  502  0.38425734312E+02 -0.54084945171E+02 -0.44679362397E+00  0.66478495592E+02  0.41800000000E+01 0.  1.
        -11    1    4    4    0    0  0.23660281721E+02  0.13280152953E+02  0.26436250427E+02  0.37882010641E+02  0.00000000000E+00 0.  1.
         11    1    4    4    0    0 -0.34080513777E+02  0.36609427355E+02 -0.45361090459E+02  0.67523033982E+02  0.00000000000E+00 0. -1.
</event>
<event>
 8    1  0.6862919E-009  0.9954809E+02  0.7561462E-02  0.1281249E+00
          2   -1    0    0  501    0  0.00000000000E+00  0.00000000000E+00  0.21226113550E+03  0.21226113550E+03  0.00000000000E+00 0.  1.
         -2   -1    0    0    0  501 -0.00000000000E+00 -0.00000000000E+00 -0.77949886757E+02  0.77949886757E+02  0.00000000000E+00 0. -1.
         25    2    1    2    0    0 -0.45390327983E+02 -0.23361804684E+02  0.20053426419E+02  0.13658078797E+03  0.12508443524E+03 0.  0.
         23    2    1    2    0    0  0.45390327983E+02  0.23361804684E+02  0.11425782233E+03  0.15363023429E+03  0.89114213975E+02 0.  0.
          5    1    3    3  502    0 -0.62116515733E+02 -0.48918187726E+02 -0.24070323143E+02  0.82754477059E+02  0.41800000000E+01 0.  1.
         -5    1    3    3    0  502  0.16726187749E+02  0.25556383041E+02  0.44123749562E+02  0.53826310910E+02  0.41800000000E+01 0.  1.
        -11    1    4    4    0    0  0.44172386591E+02 -0.18009334020E+02  0.98315352371E+02  0.10927691596E+03  0.00000000000E+00 0.  1.
         11    1    4    4    0    0  0.12179413918E+01  0.41371138704E+02  0.15942469955E+02  0.44353318333E+02  0.00000000000E+00 0. -1.
</event>
<event>
 8    1  0.6862919E-009  0.2021219E+03  0.7561462E-02  0.1147961E+00
         -1   -1    0    0    0  501 -0.00000000000E+00  0.00000000000E+00  0.29422171252E+03  0.29422171252E+03  0.00000000000E+00 0.  1.
          1   -1    0    0  501    0  0.00000000000E+00 -0.00000000000E+00 -0.18014780306E+03  0.18014780306E+03  0.00000000000E+00 0. -1.
         25    2    1    2    0    0  0.18953241793E+03 -0.29958797863E+02  0.12677188039E+03  0.26179707329E+03  0.12508609399E+03 0.  0.
         23    2    1    2    0    0 -0.18953241793E+03  0.29958797863E+02 -0.12697970933E+02  0.21257244229E+03  0.90585527203E+02 0.  0.
          5    1    3    3  502    0  0.58064270815E+02  0.28060406350E+02  0.94455862937E+02  0.11444749186E+03  0.41800000000E+01 0.  1.
         -5    1    3    3    0  502  0.13146814712E+03 -0.58019204213E+02  0.32316017452E+02  0.14734958143E+03  0.41800000000E+01 0.  1.
        -11    1    4    4    0    0 -0.38097256208E+02  0.22484945639E+02  0.31888643438E+02  0.54533102711E+02  0.00000000000E+00 0.  1.
         11    1    4    4    0    0 -0.15143516173E+03  0.74738522246E+01 -0.44586614371E+02  0.15803933958E+03  0.00000000000E+00 0. -1.
</event>
<event>
 7    1  0.6862919E-009  0.1506666E+03  0.7561462E-02  0.1199656E+00
         -4   -1    0    0    0  501 -0.00000000000E+00  0.00000000000E+00  0.16114823837E+03  0.16114823837E+03  0.00000000000E+00 0.  1.
          4   -1    0    0  501    0  0.00000000000E+00 -0.00000000000E+00 -0.20006861088E+03  0.20006861088E+03  0.00000000000E+00 0. -1.
         23    2    1    2    0    0  0.13533679378E+03 -0.20365414453E+02 -0.58735961016E+02  0.17470485049E+03  0.91329479412E+02 0.  0.
          5    1    1    2  502    0 -0.50279481070E+02 -0.35763639200E+02 -0.34648364319E+02  0.70887556422E+02  0.41800000000E+01 0. -1.
         -5    1    1    2    0  502 -0.85057312714E+02  0.56129053653E+02  0.54463952824E+02  0.11562444234E+03  0.41800000000E+01 0. -1.
        -11    1    3    3    0    0  0.20075973204E+02 -0.78589971358E+01  0.24008964077E+02  0.32268233483E+02  0.00000000000E+00 0.  1.
         11    1    3    3    0    0  0.11526082058E+03 -0.12506417317E+02 -0.82744925093E+02  0.14243661700E+03  0.00000000000E+00 0. -1.
</event>
<event>
 8    1  0.6862919E-009  0.1221105E+03  0.7561462E-02  0.1239655E+00
          2   -1    0    0  501    0  0.00000000000E+00  0.00000000000E+00  0.16019822129E+03  0.16019822129E+03  0.00000000000E+00 0. -1.
         -2   -1    0    0    0  501 -0.00000000000E+00 -0.00000000000E+00 -0.13135604157E+03  0.13135604157E+03  0.00000000000E+00 0.  1.
         25    2    1    2    0    0  0.82883880241E+02 -0.78405862784E+00 -0.39976128044E+02  0.15528930949E+03  0.12508527682E+03 0.  0.
         23    2    1    2    0    0 -0.82883880241E+02  0.78405862784E+00  0.68818307760E+02  0.13626495337E+03  0.83437555583E+02 0.  0.
          5    1    3    3  502    0  0.10723546396E+03  0.28127605051E+02 -0.37767926129E+02  0.11719426411E+03  0.41800000000E+01 0.  1.
         -5    1    3    3    0  502 -0.24351583722E+02 -0.28911663679E+02 -0.22082019150E+01  0.38095045375E+02  0.41800000000E+01 0.  1.
        -11    1    4    4    0    0 -0.29970099488E+02 -0.22462135965E+02  0.68954804733E+02  0.78469863714E+02  0.00000000000E+00 0. -1.
         11    1    4    4    0    0 -0.52913780753E+02  0.23246194593E+02 -0.13649697359E+00  0.57795089654E+02  0.00000000000E+00 0.  1.
</event>
<event>
 8    1  0.6862919E-009  0.6789153E+02  0.7561462E-02  0.1367413E+00
         -2   -1    0    0    0  501 -0.00000000000E+00  0.00000000000E+00  0.96429978538E+02  0.96429978538E+02  0.00000000000E+00 0.  1.
          2   -1    0    0  501    0  0.00000000000E+00 -0.00000000000E+00 -0.12508556351E+03  0.12508556351E+03  0.00000000000E+00 0. -1.
         25    2    1    2    0    0  0.72901490006E+01  0.94187189707E+00 -0.51336428984E+00  0.12530621511E+03  0.12508937048E+03 0.  0.
         23    2    1    2    0    0 -0.72901490006E+01 -0.94187189707E+00 -0.28142220685E+02  0.96209326943E+02  0.91707233142E+02 0.  0.
          5    1    3    3  502    0  0.28968761239E+01 -0.41018710794E+02 -0.46866141518E+02  0.62488672152E+02  0.41800000000E+01 0. -1.
         -5    1    3    3    0  502  0.43932728766E+01  0.41960582691E+02  0.46352777228E+02  0.62817542957E+02  0.41800000000E+01 0. -1.
        -11    1    4    4    0    0 -0.29193952674E+02 -0.54306071522E+01  0.24832359483E+02  0.38709487781E+02  0.00000000000E+00 0.  1.
         11    1    4    4    0    0  0.21903803674E+02  0.44887352552E+01 -0.52974580168E+02  0.57499839161E+02  0.00000000000E+00 0. -1.
</event>
<event>
 8    1  0.6862919E-009  0.1166665E+03  0.7561462E-02  0.1248700E+00
         -2   -1    0    0    0  501 -0.00000000000E+00  0.00000000000E+00  0.34597540336E+03  0.34597540336E+03  0.00000000000E+00 0.  1.
          2   -1    0    0  501    0  0.00000000000E+00 -0.00000000000E+00 -0.52532169618E+02  0.52532169618E+02  0.00000000000E+00 0. -1.
         25    2    1    2    0    0  0.72213426227E+02  0.57441283775E+01  0.11166312813E+03  0.18265491912E+03  0.12508553617E+03 0.  0.
         23    2    1    2    0    0 -0.72213426227E+02 -0.57441283775E+01  0.18178010562E+03  0.21585265386E+03  0.91107559732E+02 0.  0.
          5    1    3    3  502    0 -0.22385188245E+02 -0.34252399515E+02  0.24444224878E+02  0.47846797753E+02  0.41800000000E+01 0. -1.
         -5    1    3    3    0  502  0.94598614472E+02  0.39996527893E+02  0.87218903250E+02  0.13480812137E+03  0.41800000000E+01 0. -1.
        -11    1    4    4    0    0 -0.26766149946E+02  0.23289924932E+02  0.14805274346E+03  0.15224474451E+03  0.00000000000E+00 0.  1.
         11    1    4    4    0    0 -0.45447276282E+02 -0.29034053309E+02  0.33727362161E+02  0.63607909346E+02  0.00000000000E+00 0. -1.
</event>
<event>
 8    1  0.6862919E-009  0.1940096E+03  0.7561462E-02  0.1154894E+00
         -1   -1    0    0    0  501 -0.00000000000E+00  0.00000000000E+00  0.16060064136E+04  0.16060064136E+04  0.00000000000E+00 0.  1.
          1   -1    0    0  501    0  0.00000000000E+00 -0.00000000000E+00 -0.32141540888E+02  0.32141540888E+02  0.00000000000E+00 0. -1.
         25    2    1    2    0    0 -0.35665159791E+02 -0.16662118446E+03  0.11884146810E+04  0.12070676025E+04  0.12509244714E+03 0.  0.
         23    2    1    2    0    0  0.35665159791E+02  0.16662118446E+03  0.38545019178E+03  0.43108035202E+03  0.90685152167E+02 0.  0.
          5    1    3    3  502    0 -0.69902718567E+02 -0.10990371459E+03  0.55078786067E+03  0.56599466111E+03  0.41800000000E+01 0.  1.
         -5    1    3    3    0  502  0.34237558777E+02 -0.56717469875E+02  0.63762682030E+03  0.64107294139E+03  0.41800000000E+01 0.  1.
        -11    1    4    4    0    0 -0.27254059017E+02  0.78076225678E+02  0.13874330766E+03  0.16151899631E+03  0.00000000000E+00 0.  1.
         11    1    4    4    0    0  0.62919218807E+02  0.88544958782E+02  0.24670688412E+03  0.26956135571E+03  0.00000000000E+00 0. -1.
</event>
<event>
 8    1  0.6862919E-009  0.8430346E+02  0.7561462E-02  0.1317264E+00
          2   -1    0    0  501    0  0.00000000000E+00  0.00000000000E+00  0.14612805351E+04  0.14612805351E+04  0.00000000000E+00 0. -1.
         -2   -1    0    0    0  501 -0.00000000000E+00 -0.00000000000E+00 -0.18445558502E+02  0.18445558502E+02  0.00000000000E+00 0.  1.
         25    2    1    2    0    0 -0.55499235802E+01 -0.31149192882E+02  0.13125553701E+04  0.13188817309E+04  0.12508535801E+03 0.  0.
         23    2    1    2    0    0  0.55499235802E+01  0.31149192882E+02  0.13027960655E+03  0.16084436270E+03  0.88865399685E+02 0.  0.
          5    1    3    3  502    0 -0.97995102623E+01  0.24454095915E+02  0.67618822638E+02  0.72689825858E+02  0.41800000000E+01 0.  1.
         -5    1    3    3    0  502  0.42495866820E+01 -0.55603288797E+02  0.12449365474E+04  0.12461919051E+04  0.41800000000E+01 0.  1.
        -11    1    4    4    0    0 -0.27483693306E+02 -0.13379272715E+02  0.81329604114E+02  0.86884192126E+02  0.00000000000E+00 0. -1.
         11    1    4    4    0    0  0.33033616886E+02  0.44528465597E+02  0.48950002432E+02  0.73960170572E+02  0.00000000000E+00 0.  1.
</event>
<event>
 8    1  0.6862919E-009  0.1189794E+03  0.7561462E-02  0.1244790E+00
          1   -1    0    0  501    0  0.00000000000E+00  0.00000000000E+00  0.55695183081E+02  0.55695183081E+02  0.00000000000E+00 0. -1.
         -1   -1    0    0    0  501 -0.00000000000E+00 -0.00000000000E+00 -0.34382982272E+03  0.34382982272E+03  0.00000000000E+00 0.  1.
         25    2    1    2    0    0  0.56088595308E+02 -0.37002946009E+02 -0.23195883401E+03  0.27196973359E+03  0.12508991477E+03 0.  0.
         23    2    1    2    0    0 -0.56088595308E+02  0.37002946009E+02 -0.56175805627E+02  0.12755527221E+03  0.92733369361E+02 0.  0.
          5    1    3    3  502    0 -0.44485112986E+01 -0.59848321766E+02 -0.48135021070E+02  0.77045853389E+02  0.41800000000E+01 0. -1.
         -5    1    3    3    0  502  0.60537106606E+02  0.22845375756E+02 -0.18382381294E+03  0.19492388021E+03  0.41800000000E+01 0. -1.
        -11    1    4    4    0    0  0.82264114783E+01 -0.23353671216E+02 -0.21469322834E+02  0.32771933541E+02  0.00000000000E+00 0.  1.
         11    1    4    4    0    0 -0.64315006786E+02  0.60356617225E+02 -0.34706482793E+02  0.94783338666E+02  0.00000000000E+00 0. -1.
</event>
<event>
 8    1  0.6862919E-009  0.1546726E+03  0.7561462E-02  0.1194846E+00
         -2   -1    0    0    0  501 -0.00000000000E+00  0.00000000000E+00  0.69999558920E+02  0.69999558920E+02  0.00000000000E+00 0.  1.
          2   -1    0    0  501    0  0.00000000000E+00 -0.00000000000E+00 -0.78299359441E+03  0.78299359441E+03  0.00000000000E+00 0. -1.
         25    2    1    2    0    0  0.14749841243E+03 -0.23739094473E+02 -0.62915220405E+03  0.65863521607E+03  0.12509406740E+03 0.  0.
         23    2    1    2    0    0 -0.14749841243E+03  0.23739094473E+02 -0.83841831432E+02  0.19435793726E+03  0.91794492220E+02 0.  0.
          5    1    3    3  502    0  0.10406496255E+03 -0.42348768298E+02 -0.22316455464E+03  0.24988562475E+03  0.41800000000E+01 0.  1.
         -5    1    3    3    0  502  0.43433449887E+02  0.18609673825E+02 -0.40598764941E+03  0.40874959132E+03  0.41800000000E+01 0.  1.
        -11    1    4    4    0    0 -0.53956792072E+02  0.62696346957E+01  0.15805483413E+02  0.56572582014E+02  0.00000000000E+00 0.  1.
         11    1    4    4    0    0 -0.93541620361E+02  0.17469459777E+02 -0.99647314845E+02  0.13778535525E+03  0.00000000000E+00 0. -1.
</event>
<event>
 8    1  0.6862919E-009  0.9973597E+02  0.7561462E-02  0.1280852E+00
         -1   -1    0    0    0  501 -0.00000000000E+00  0.00000000000E+00  0.40743360264E+03  0.40743360264E+03  0.00000000000E+00 0.  1.
          1   -1    0    0  501    0  0.00000000000E+00 -0.00000000000E+00 -0.32780991274E+02  0.32780991274E+02  0.00000000000E+00 0. -1.
         25    2    1    2    0    0 -0.24886789034E+01  0.31147469889E+02  0.16561588124E+03  0.20988230557E+03  0.12508238754E+03 0.  0.
         23    2    1    2    0    0  0.24886789034E+01 -0.31147469889E+02  0.20903673013E+03  0.23033228834E+03  0.91543705990E+02 0.  0.
          5    1    3    3  502    0 -0.18520933651E+02  0.67060802725E+02  0.15339492351E+03  0.16848635317E+03  0.41800000000E+01 0.  1.
         -5    1    3    3    0  502  0.16032254748E+02 -0.35913332836E+02  0.12220957727E+02  0.41395952404E+02  0.41800000000E+01 0.  1.
        -11    1    4    4    0    0 -0.21980922864E+02  0.22379808003E+02  0.37006909762E+02  0.48513174977E+02  0.00000000000E+00 0. -1.
         11    1    4    4    0    0  0.24469601768E+02 -0.53527277892E+02  0.17202982037E+03  0.18181911336E+03  0.00000000000E+00 0.  1.
</event>
<event>
 8    1  0.6862919E-009  0.2213600E+03  0.7561462E-02  0.1132873E+00
          1   -1    0    0  501    0  0.00000000000E+00  0.00000000000E+00  0.39914145903E+03  0.39914145903E+03  0.00000000000E+00 0. -1.
         -1   -1    0    0    0  501 -0.00000000000E+00 -0.00000000000E+00 -0.20909160427E+03  0.20909160427E+03  0.00000000000E+00 0.  1.
         25    2    1    2    0    0  0.17812294621E+03  0.78950738803E+02  0.29009828264E+03  0.37116760466E+03  0.12508946411E+03 0.  0.
         23    2    1    2    0    0 -0.17812294621E+03 -0.78950738803E+02 -0.10004842788E+03  0.23706545865E+03  0.90715713303E+02 0.  0.
          5    1    3    3  502    0  0.13901615542E+03 -0.19708032306E+01  0.14907812251E+03  0.20389000599E+03  0.41800000000E+01 0.  1.
         -5    1    3    3    0  502  0.39106790787E+02  0.80921542033E+02  0.14102016013E+03  0.16727759866E+03  0.41800000000E+01 0.  1.
        -11    1    4    4    0    0 -0.16375082899E+03 -0.35048772695E+02 -0.67480839842E+02  0.18054477065E+03  0.00000000000E+00 0. -1.
         11    1    4    4    0    0 -0.14372117215E+02 -0.43901966108E+02 -0.32567588034E+02  0.56520687997E+02  0.00000000000E+00 0.  1.
</event>
<event>
 8    1  0.6862919E-009  0.2392942E+03  0.7561462E-02  0.1120264E+00
          1   -1    0    0  501    0  0.00000000000E+00  0.00000000000E+00  0.76529477706E+03  0.76529477706E+03  0.00000000000E+00 0. -1.
         -1   -1    0    0    0  501 -0.00000000000E+00 -0.00000000000E+00 -0.87660746631E+02  0.87660746631E+02  0.00000000000E+00 0.  1.
         25    2    1    2    0    0  0.14853628809E+03 -0.15888699944E+03  0.45642367562E+03  0.52084358600E+03  0.12508941579E+03 0.  0.
         23    2    1    2    0    0 -0.14853628809E+03  0.15888699944E+03  0.22121035482E+03  0.33211193769E+03  0.11855889090E+03 0.  0.
          5    1    3    3  502    0  0.12491306461E+03 -0.16416774899E+03  0.45060802520E+03  0.49560002855E+03  0.41800000000E+01 0. -1.
         -5    1    3    3    0  502  0.23623223476E+02  0.52807495484E+01  0.58156504172E+01  0.25243557454E+02  0.41800000000E+01 0. -1.
        -11    1    4    4    0    0 -0.16009074977E+03  0.16867489562E+03  0.20876759489E+03  0.31251268335E+03  0.00000000000E+00 0. -1.
         11    1    4    4    0    0  0.11554461686E+02 -0.97878961771E+01  0.12442759926E+02  0.19599254348E+02  0.00000000000E+00 0.  1.
</event>
<event>
 8    1  0.6862919E-009  0.1838886E+03  0.7561462E-02  0.1164092E+00
          1   -1    0    0  501    0  0.00000000000E+00  0.00000000000E+00  0.43320126297E+03  0.43320126297E+03  0.00000000000E+00 0. -1.
         -1   -1    0    0    0  501 -0.00000000000E+00 -0.00000000000E+00 -0.94624763973E+02  0.94624763973E+02  0.00000000000E+00 0.  1.
         25    2    1    2    0    0  0.13913006600E+03  0.10305385742E+03  0.17379417357E+03  0.27537130117E+03  0.12509063094E+03 0.  0.
         23    2    1    2    0    0 -0.13913006600E+03 -0.10305385742E+03  0.16478232543E+03  0.25245472578E+03  0.81258236501E+02 0.  0.
          5    1    3    3  502    0  0.83625334173E+02  0.88280569257E+01  0.13530615241E+03  0.15936234933E+03  0.41800000000E+01 0.  1.
         -5    1    3    3    0  502  0.55504731823E+02  0.94225800493E+02  0.38488021154E+02  0.11600895183E+03  0.41800000000E+01 0.  1.
        -11    1    4    4    0    0 -0.63751097166E+02 -0.35746126969E+02  0.19790991898E+02  0.75721009921E+02  0.00000000000E+00 0.  1.
         11    1    4    4    0    0 -0.75378968829E+02 -0.67307730450E+02  0.14499133353E+03  0.17673371586E+03  0.00000000000E+00 0. -1.
</event>
<event>
 8    1  0.6862919E-009  0.1986610E+03  0.7561462E-02  0.1150874E+00
          1   -1    0    0  501    0  0.00000000000E+00  0.00000000000E+00  0.21583434227E+03  0.21583434227E+03  0.00000000000E+00 0. -1.
         -1   -1    0    0    0  501 -0.00000000000E+00 -0.00000000000E+00 -0.20205932411E+03  0.20205932411E+03  0.00000000000E+00 0.  1.
         25    2    1    2    0    0  0.16990516548E+03  0.36527602429E+02  0.47160837758E+02  0.21925567144E+03  0.12508746477E+03 0.  0.
         23    2    1    2    0    0 -0.16990516548E+03 -0.36527602429E+02 -0.33385819606E+02  0.19863799495E+03  0.90224215649E+02 0.  0.
          5    1    3    3  502    0  0.18636971640E+03  0.19742375916E+02  0.29990833137E+02  0.18984297477E+03  0.41800000000E+01 0. -1.
         -5    1    3    3    0  502 -0.16464550924E+02  0.16785226513E+02  0.17170004622E+02  0.29412696662E+02  0.41800000000E+01 0. -1.
        -11    1    4    4    0    0 -0.86991714573E+02  0.15123247527E+02 -0.46970460918E+02  0.10001247532E+03  0.00000000000E+00 0.  1.
         11    1    4    4    0    0 -0.82913450906E+02 -0.51650849956E+02  0.13584641313E+02  0.98625519628E+02  0.00000000000E+00 0. -1.
</event>
<event>
 8    1  0.6862919E-009  0.1688928E+03  0.7561462E-02  0.1179007E+00
         -1   -1    0    0    0  501 -0.00000000000E+00  0.00000000000E+00  0.20928695376E+03  0.20928695376E+03  0.00000000000E+00 0.  1.
          1   -1    0    0  501    0  0.00000000000E+00 -0.00000000000E+00 -0.14902954335E+03  0.14902954335E+03  0.00000000000E+00 0. -1.
         25    2    1    2    0    0 -0.47252792529E+02 -0.12793841477E+03  0.74565290094E+01  0.18520330964E+03  0.12507438467E+03 0.  0.
         23    2    1    2    0    0  0.47252792529E+02  0.12793841477E+03  0.52800881404E+02  0.17311318747E+03  0.92623853416E+02 0.  0.
          5    1    3    3  502    0  0.50716467301E+01 -0.12999178120E+03 -0.81212894643E+01  0.13041093712E+03  0.41800000000E+01 0.  1.
         -5    1    3    3    0  502 -0.52324439259E+02  0.20533664218E+01  0.15577818474E+02  0.54792372515E+02  0.41800000000E+01 0.  1.
        -11    1    4    4    0    0  0.63792339024E+02  0.69392529653E+02  0.26938430725E+01  0.94297627119E+02  0.00000000000E+00 0. -1.
         11    1    4    4    0    0 -0.16539546495E+02  0.58545885122E+02  0.50107038331E+02  0.78815560350E+02  0.00000000000E+00 0.  1.
</event>
<event>
 8    1  0.6862919E-009  0.1092014E+03  0.7561462E-02  0.1262056E+00
         -4   -1    0    0    0  501 -0.00000000000E+00  0.00000000000E+00  0.31396134082E+02  0.31396134082E+02  0.00000000000E+00 0.  1.
          4   -1    0    0  501    0  0.00000000000E+00 -0.00000000000E+00 -0.68351498274E+03  0.68351498274E+03  0.00000000000E+00 0. -1.
         25    2    1    2    0    0  0.56745714688E+02 -0.44143215187E+02 -0.48634794247E+03  0.50729876294E+03  0.12509601973E+03 0.  0.
         23    2    1    2    0    0 -0.56745714688E+02  0.44143215187E+02 -0.16577090618E+03  0.20761235387E+03  0.10224576550E+03 0.  0.
          5    1    3    3  502    0  0.53518019064E+02  0.17914331084E+02 -0.37891748736E+03  0.38312013292E+03  0.41800000000E+01 0. -1.
         -5    1    3    3    0  502  0.32276956234E+01 -0.62057546270E+02 -0.10743045512E+03  0.12417863002E+03  0.41800000000E+01 0. -1.
        -11    1    4    4    0    0 -0.75109966099E+01  0.49443312716E+02 -0.14593815944E+03  0.15426925365E+03  0.00000000000E+00 0. -1.
         11    1    4    4    0    0 -0.49234718078E+02 -0.53000975292E+01 -0.19832746743E+02  0.53343100223E+02  0.00000000000E+00 0.  1.
</event>
<event>
 8    1  0.6862919E-009  0.8653426E+02  0.7561462E-02  0.1311468E+00
         -4   -1    0    0    0  501 -0.00000000000E+00  0.00000000000E+00  0.65798158238E+02  0.65798158238E+02  0.00000000000E+00 0.  1.
          4   -1    0    0  501    0  0.00000000000E+00 -0.00000000000E+00 -0.29719041644E+03  0.29719041644E+03  0.00000000000E+00 0. -1.
         25    2    1    2    0    0 -0.42295469738E+02 -0.33745832211E+02 -0.36448243269E+02  0.14108089169E+03  0.12509058962E+03 0.  0.
         23    2    1    2    0    0  0.42295469738E+02  0.33745832211E+02 -0.19494401494E+03  0.22190768299E+03  0.91171063708E+02 0.  0.
          5    1    3    3  502    0 -0.57260163509E+02 -0.15924655817E+02  0.32726905285E+02  0.67976788079E+02  0.41800000000E+01 0.  1.
         -5    1    3    3    0  502  0.14964693771E+02 -0.17821176394E+02 -0.69175148554E+02  0.73104103614E+02  0.41800000000E+01 0.  1.
        -11    1    4    4    0    0  0.34635939926E+02 -0.16958972455E+02 -0.29087588060E+02  0.48304687769E+02  0.00000000000E+00 0.  1.
         11    1    4    4    0    0  0.76595298121E+01  0.50704804665E+02 -0.16585642688E+03  0.17360299522E+03  0.00000000000E+00 0. -1.
</event>
<event>
 8    1  0.6862919E-009  0.1689936E+03  0.7561462E-02  0.1178901E+00
         -2   -1    0    0    0  501 -0.00000000000E+00  0.00000000000E+00  0.49309425355E+02  0.49309425355E+02  0.00000000000E+00 0.  1.
          2   -1    0    0  501    0  0.00000000000E+00 -0.00000000000E+00 -0.76588109054E+03  0.76588109054E+03  0.00000000000E+00 0. -1.
         25    2    1    2    0    0  0.15282581936E+03 -0.38018688809E+02 -0.30231390938E+03  0.36310642921E+03  0.12510566482E+03 0.  0.
         23    2    1    2    0    0 -0.15282581936E+03  0.38018688809E+02 -0.41425775581E+03  0.45208408669E+03  0.89271391969E+02 0.  0.
          5    1    3    3  502    0  0.14190771343E+03 -0.65930592256E+01 -0.29687204683E+03  0.32913789230E+03  0.41800000000E+01 0. -1.
         -5    1    3    3    0  502  0.10918105931E+02 -0.31425629583E+02 -0.54418625487E+01  0.33968536910E+02  0.41800000000E+01 0. -1.
        -11    1    4    4    0    0 -0.11995545113E+03  0.12271768140E+02 -0.19795984001E+03  0.23179302148E+03  0.00000000000E+00 0.  1.
         11    1    4    4    0    0 -0.32870368231E+02  0.25746920669E+02 -0.21629791579E+03  0.22029106520E+03  0.00000000000E+00 0. -1.
</event>
<event>
 8    1  0.6862919E-009  0.1264165E+03  0.7561462E-02  0.1232872E+00
         -3   -1    0    0    0  501 -0.00000000000E+00  0.00000000000E+00  0.35558139676E+03  0.35558139676E+03  0.00000000000E+00 0.  1.
          3   -1    0    0  501    0  0.00000000000E+00 -0.00000000000E+00 -0.53014128748E+02  0.53014128748E+02  0.00000000000E+00 0. -1.
         25    2    1    2    0    0  0.62802498176E+02 -0.51051106896E+02  0.13289579911E+03  0.19964980665E+03  0.12509349536E+03 0.  0.
         23    2    1    2    0    0 -0.62802498176E+02  0.51051106896E+02  0.16967146890E+03  0.20894571886E+03  0.91211494774E+02 0.  0.
          5    1    3    3  502    0  0.63334399822E+02 -0.89821763731E+02  0.99049618871E+02  0.14801180642E+03  0.41800000000E+01 0. -1.
         -5    1    3    3    0  502 -0.53190164655E+00  0.38770656835E+02  0.33846180239E+02  0.51638000228E+02  0.41800000000E+01 0. -1.
        -11    1    4    4    0    0 -0.26365335242E+02 -0.13578082603E+02  0.74721809507E+01  0.30583144340E+02  0.00000000000E+00 0. -1.
         11    1    4    4    0    0 -0.36437162934E+02  0.64629189498E+02  0.16219928795E+03  0.17836257452E+03  0.00000000000E+00 0.  1.
</event>
<event>
 8    1  0.6862919E-009  0.1215822E+03  0.7561462E-02  0.1240510E+00
          1   -1    0    0  501    0  0.00000000000E+00  0.00000000000E+00  0.35188511013E+02  0.35188511013E+02  0.00000000000E+00 0. -1.
         -1   -1    0    0    0  501 -0.00000000000E+00 -0.00000000000E+00 -0.43800228408E+03  0.43800228408E+03  0.00000000000E+00 0.  1.
         25    2    1    2    0    0  0.39513283750E+02  0.40882156703E+02 -0.26573165056E+03  0.29915558933E+03  0.12509239061E+03 0.  0.
         23    2    1    2    0    0 -0.39513283750E+02 -0.40882156703E+02 -0.13708212250E+03  0.17403520576E+03  0.90907063553E+02 0.  0.
          5    1    3    3  502    0  0.51887597819E+02  0.79647049110E+02 -0.20402837422E+03  0.22512446585E+03  0.41800000000E+01 0. -1.
         -5    1    3    3    0  502 -0.12374314070E+02 -0.38764892407E+02 -0.61703276347E+02  0.74031123481E+02  0.41800000000E+01 0. -1.
        -11    1    4    4    0    0 -0.23852115184E+02 -0.70051486017E+02 -0.90941553140E+02  0.11724546976E+03  0.00000000000E+00 0.  1.
         11    1    4    4    0    0 -0.15661168566E+02  0.29169329314E+02 -0.46140569360E+02  0.56789735994E+02  0.00000000000E+00 0. -1.
</event>
<event>
 8    1  0.6862919E-009  0.1568979E+03  0.7561462E-02  0.1192244E+00
         -1   -1    0    0    0  501 -0.00000000000E+00  0.00000000000E+00  0.97339955273E+02  0.97339955273E+02  0.00000000000E+00 0.  1.
          1   -1    0    0  501    0  0.00000000000E+00 -0.00000000000E+00 -0.40558136066E+03  0.40558136066E+03  0.00000000000E+00 0. -1.
         25    2    1    2    0    0  0.69496831983E+02  0.12569232735E+03 -0.55000342595E+02  0.19822043577E+03  0.12505171994E+03 0.  0.
         23    2    1    2    0    0 -0.69496831983E+02 -0.12569232735E+03 -0.25324106279E+03  0.30470088017E+03  0.89906727669E+02 0.  0.
          5    1    3    3  502    0  0.27317722732E+02  0.63418044797E+02 -0.91342510982E+02  0.11458199289E+03  0.41800000000E+01 0. -1.
         -5    1    3    3    0  502  0.42179109251E+02  0.62274282552E+02  0.36342168387E+02  0.83638442881E+02  0.41800000000E+01 0. -1.
        -11    1    4    4    0    0 -0.26376639103E+02 -0.12331251454E+03 -0.18280210845E+03  0.22207727076E+03  0.00000000000E+00 0. -1.
         11    1    4    4    0    0 -0.43120192881E+02 -0.23798128064E+01 -0.70438954345E+02  0.82623609412E+02  0.00000000000E+00 0.  1.
</event>
<event>
 8    1  0.6862919E-009  0.8410818E+02  0.7561462E-02  0.1317781E+00
          1   -1    0    0  501    0  0.00000000000E+00  0.00000000000E+00  0.77878721108E+03  0.77878721108E+03  0.00000000000E+00 0. -1.
         -1   -1    0    0    0  501 -0.00000000000E+00 -0.00000000000E+00 -0.22786064445E+02  0.22786064445E+02  0.00000000000E+00 0.  1.
         25    2    1    2    0    0  0.27891432532E+02 -0.53579749229E+02  0.56828218672E+03  0.58501274526E+03  0.12508615763E+03 0.  0.
         23    2    1    2    0    0 -0.27891432532E+02  0.53579749229E+02  0.18771895991E+03  0.21656053027E+03  0.89506054672E+02 0.  0.
          5    1    3    3  502    0  0.11355562070E+02 -0.29298268733E+02  0.54835252276E+03  0.54926796644E+03  0.41800000000E+01 0.  1.
         -5    1    3    3    0  502  0.16535870462E+02 -0.24281480497E+02  0.19929663964E+02  0.35744778818E+02  0.41800000000E+01 0.  1.
        -11    1    4    4    0    0  0.31553727120E+02  0.27787504881E+02  0.58967304942E+02  0.72421862547E+02  0.00000000000E+00 0. -1.
         11    1    4    4    0    0 -0.59445159652E+02  0.25792244349E+02  0.12875165497E+03  0.14413866772E+03  0.00000000000E+00 0.  1.
</event>
<event>
 8    1  0.6862919E-009  0.1350781E+03  0.7561462E-02  0.1220110E+00
          2   -1    0    0  501    0  0.00000000000E+00  0.00000000000E+00  0.69658064174E+03  0.69658064174E+03  0.00000000000E+00 0. -1.
         -2   -1    0    0    0  501 -0.00000000000E+00 -0.00000000000E+00 -0.29777679518E+02  0.29777679518E+02  0.00000000000E+00 0.  1.
         25    2    1    2    0    0  0.77866663402E+02 -0.27593829115E+02  0.40630005701E+03  0.43307331206E+03  0.12509244828E+03 0.  0.
         23    2    1    2    0    0 -0.77866663402E+02  0.27593829115E+02  0.26050290521E+03  0.29328500920E+03  0.10644104623E+03 0.  0.
          5    1    3    3  502    0 -0.50496727592E+01 -0.58443112367E+02  0.20234280328E+03  0.21071587272E+03  0.41800000000E+01 0.  1.
         -5    1    3    3    0  502  0.82916336161E+02  0.30849283253E+02  0.20395725373E+03  0.22235743934E+03  0.41800000000E+01 0.  1.
        -11    1    4    4    0    0 -0.97767960137E+02  0.31048784164E+02  0.15502653202E+03  0.18589197578E+03  0.00000000000E+00 0.  1.
         11    1    4    4    0    0  0.19901296735E+02 -0.34549550489E+01  0.10547637319E+03  0.10739303342E+03  0.00000000000E+00 0. -1.
</event>
<event>
 8    1  0.6862919E-009  0.9525576E+02  0.7561462E-02  0.1290601E+00
          2   -1    0    0  501    0  0.00000000000E+00  0.00000000000E+00  0.55477344013E+03  0.55477344013E+03  0.00000000000E+00 0. -1.
         -2   -1    0    0    0  501 -0.00000000000E+00 -0.00000000000E+00 -0.27532258876E+02  0.27532258876E+02  0.00000000000E+00 0.  1.
         25    2    1    2    0    0  0.42344410655E+01 -0.87177815973E+01  0.43039547223E+03  0.44831008321E+03  0.12509091888E+03 0.  0.
         23    2    1    2    0    0 -0.42344410655E+01  0.87177815973E+01  0.96845709026E+02  0.13399561580E+03  0.92096707265E+02 0.  0.
          5    1    3    3  502    0 -0.37145652479E+02 -0.52694206708E+02  0.23843810842E+03  0.24703579268E+03  0.41800000000E+01 0. -1.
         -5    1    3    3    0  502  0.41380093544E+02  0.43976425111E+02  0.19195736381E+03  0.20127429053E+03  0.41800000000E+01 0. -1.
        -11    1    4    4    0    0  0.16875400163E+02 -0.22233231282E+02 -0.23006883439E+01  0.28006943259E+02  0.00000000000E+00 0.  1.
         11    1    4    4    0    0 -0.21109841228E+02  0.30951012879E+02  0.99146397370E+02  0.10598867254E+03  0.00000000000E+00 0. -1.
</event>
<event>
 8    1  0.6862919E-009  0.1106047E+03  0.7561462E-02  0.1259454E+00
          2   -1    0    0  501    0  0.00000000000E+00  0.00000000000E+00  0.23678697352E+03  0.23678697352E+03  0.00000000000E+00 0.  1.
         -2   -1    0    0    0  501 -0.00000000000E+00 -0.00000000000E+00 -0.91314801388E+02  0.91314801388E+02  0.00000000000E+00 0. -1.
         25    2    1    2    0    0 -0.90389193182E+02 -0.33077960664E+02  0.54399733411E+02  0.16694676816E+03  0.12509010623E+03 0.  0.
         23    2    1    2    0    0  0.90389193182E+02  0.33077960664E+02  0.91072438716E+02  0.16115500674E+03  0.91719078599E+02 0.  0.
          5    1    3    3  502    0 -0.77656191229E+02 -0.20936269389E+02  0.93777977717E+02  0.12361469539E+03  0.41800000000E+01 0.  1.
         -5    1    3    3    0  502 -0.12733001953E+02 -0.12141691276E+02 -0.39378244305E+02  0.43332072768E+02  0.41800000000E+01 0.  1.
        -11    1    4    4    0    0  0.67419295417E+02  0.57827370540E+02  0.34530558716E+02  0.95298088455E+02  0.00000000000E+00 0. -1.
         11    1    4    4    0    0  0.22969897766E+02 -0.24749409876E+02  0.56541880000E+02  0.65856918289E+02  0.00000000000E+00 0.  1.
</event>
<event>
 8    1  0.6862919E-009  0.1295761E+03  0.7561462E-02  0.1228086E+00
          4   -1    0    0  501    0  0.00000000000E+00  0.00000000000E+00  0.65395943094E+02  0.65395943094E+02  0.00000000000E+00 0. -1.
         -4   -1    0    0    0  501 -0.00000000000E+00 -0.00000000000E+00 -0.47151307813E+03  0.47151307813E+03  0.00000000000E+00 0.  1.
         25    2    1    2    0    0 -0.73694635939E+02  0.56327412629E+02 -0.36797686111E+03  0.39957405040E+03  0.12509506249E+03 0.  0.
         23    2    1    2    0    0  0.73694635939E+02 -0.56327412629E+02 -0.38140273926E+02  0.13733497083E+03  0.93821836144E+02 0.  0.
          5    1    3    3  502    0 -0.85252624034E+02 -0.16552203931E+01 -0.13963241033E+03  0.16366255550E+03  0.41800000000E+01 0. -1.
         -5    1    3    3    0  502  0.11557988095E+02  0.57982633022E+02 -0.22834445079E+03  0.23591149490E+03  0.41800000000E+01 0. -1.
        -11    1    4    4    0    0  0.71497084686E+02 -0.14910971948E+02 -0.56143982843E+02  0.92121208267E+02  0.00000000000E+00 0.  1.
         11    1    4    4    0    0  0.21975512528E+01 -0.41416440681E+02  0.18003708916E+02  0.45213762561E+02  0.00000000000E+00 0. -1.
</event>
<event>
 8    1  0.6862919E-009  0.9068549E+02  0.7561462E-02  0.1301200E+00
         -1   -1    0    0    0  501 -0.00000000000E+00  0.00000000000E+00  0.23965971605E+02  0.23965971605E+02  0.00000000000E+00 0.  1.
          1   -1    0    0  501    0  0.00000000000E+00 -0.00000000000E+00 -0.50669326948E+03  0.50669326948E+03  0.00000000000E+00 0. -1.
         25    2    1    2    0    0  0.64310163510E+01  0.91222348282E+01 -0.22116433664E+03  0.25433516927E+03  0.12509253129E+03 0.  0.
         23    2    1    2    0    0 -0.64310163510E+01 -0.91222348282E+01 -0.26156296123E+03  0.27632407181E+03  0.88403828176E+02 0.  0.
          5    1    3    3  502    0  0.49999238586E+02  0.39727151433E+01 -0.19849452629E+03  0.20477611113E+03  0.41800000000E+01 0.  1.
         -5    1    3    3    0  502 -0.43568222235E+02  0.51495196849E+01 -0.22669810351E+02  0.49559058134E+02  0.41800000000E+01 0.  1.
        -11    1    4    4    0    0  0.16806866400E+02  0.34032633288E+02 -0.14477557940E+03  0.14966849795E+03  0.00000000000E+00 0. -1.
         11    1    4    4    0    0 -0.23237882751E+02 -0.43154868116E+02 -0.11678738183E+03  0.12665557387E+03  0.00000000000E+00 0.  1.
</event>
<event>
 7    1  0.6862919E-009  0.1013162E+03  0.7561462E-02  0.1277552E+00
         -1   -1    0    0    0  501 -0.00000000000E+00  0.00000000000E+00  0.32518501662E+02  0.32518501662E+02  0.00000000000E+00 0.  1.
          1   -1    0    0  501    0  0.00000000000E+00 -0.00000000000E+00 -0.56452189414E+03  0.56452189414E+03  0.00000000000E+00 0. -1.
         25    2    1    2    0    0  0.41508787597E+02 -0.45450039576E+02 -0.14309364835E+03  0.19977503433E+03  0.12508231929E+03 0.  0.
          5    1    3    3  502    0 -0.11156054981E+01 -0.72307633287E+02 -0.12789942970E+03  0.14698766930E+03  0.41800000000E+01 0. -1.
         -5    1    3    3    0  502  0.42624393096E+02  0.26857593711E+02 -0.15194218644E+02  0.52787365031E+02  0.41800000000E+01 0. -1.
        -11    1    1    2    0    0 -0.24985157348E+01  0.40202988793E+02 -0.23347124014E+03  0.23692054124E+03  0.00000000000E+00 0. -1.
         11    1    1    2    0    0 -0.39010271863E+02  0.52470507827E+01 -0.15543850398E+03  0.16034482023E+03  0.00000000000E+00 0.  1.
</event>
<event>
 8    1  0.6862919E-009  0.2017744E+03  0.7561462E-02  0.1148251E+00
          2   -1    0    0  501    0  0.00000000000E+00  0.00000000000E+00  0.29436889854E+04  0.29436889854E+04  0.00000000000E+00 0. -1.
         -2   -1    0    0    0  501 -0.00000000000E+00 -0.00000000000E+00 -0.19529213258E+02  0.19529213258E+02  0.00000000000E+00 0.  1.
         25    2    1    2    0    0  0.50282684987E+02  0.18123198865E+03  0.21354357786E+04  0.21473489168E+04  0.12509206285E+03 0.  0.
         23    2    1    2    0    0 -0.50282684987E+02 -0.18123198865E+03  0.78872399359E+03  0.81586928182E+03  0.90464163304E+02 0.  0.
          5    1    3    3  502    0  0.80814462539E+02  0.10730067786E+03  0.16381796252E+04  0.16436831719E+04  0.41800000000E+01 0.  1.
         -5    1    3    3    0  502 -0.30531777552E+02  0.73931310792E+02  0.49725615337E+03  0.50366574493E+03  0.41800000000E+01 0.  1.
        -11    1    4    4    0    0 -0.84096942081E-01 -0.24135225938E+02  0.25824837235E+02  0.35347396249E+02  0.00000000000E+00 0.  1.
         11    1    4    4    0    0 -0.50198588045E+02 -0.15709676271E+03  0.76289915635E+03  0.78052188557E+03  0.00000000000E+00 0. -1.
</event>
<event>
 8    1  0.6862919E-009  0.1252294E+03  0.7561462E-02  0.1234711E+00
         -1   -1    0    0    0  501 -0.00000000000E+00  0.00000000000E+00  0.24872051445E+03  0.24872051445E+03  0.00000000000E+00 0.  1.
          1   -1    0    0  501    0  0.00000000000E+00 -0.00000000000E+00 -0.76621808363E+02  0.76621808363E+02  0.00000000000E+00 0. -1.
         25    2    1    2    0    0  0.81658789432E+02  0.14383593655E+02  0.10966600160E+03  0.18587545756E+03  0.12509199878E+03 0.  0.
         23    2    1    2    0    0 -0.81658789432E+02 -0.14383593655E+02  0.62432704482E+02  0.13946686525E+03  0.93156418221E+02 0.  0.
          5    1    3    3  502    0  0.57170560490E+02 -0.44336337756E+02  0.96651205833E+02  0.12080195289E+03  0.41800000000E+01 0.  1.
         -5    1    3    3    0  502  0.24488228942E+02  0.58719931411E+02  0.13014795769E+02  0.65073504674E+02  0.41800000000E+01 0.  1.
        -11    1    4    4    0    0 -0.20058744448E+02 -0.42137385958E+02  0.54011709613E+02  0.71380510642E+02  0.00000000000E+00 0.  1.
         11    1    4    4    0    0 -0.61600044984E+02  0.27753792303E+02  0.84209948688E+01  0.68086354608E+02  0.00000000000E+00 0. -1.
</event>
<event>
 8    1  0.6862919E-009  0.1497680E+03  0.7561462E-02  0.1200758E+00
         -2   -1    0    0    0  501 -0.00000000000E+00  0.00000000000E+00  0.41680118861E+02  0.41680118861E+02  0.00000000000E+00 0.  1.
          2   -1    0    0  501    0  0.00000000000E+00 -0.00000000000E+00 -0.60436973375E+03  0.60436973375E+03  0.00000000000E+00 0. -1.
         25    2    1    2    0    0 -0.49767648748E+02  0.10408392562E+03 -0.29319614955E+03  0.33900119119E+03  0.12509013982E+03 0.  0.
         23    2    1    2    0    0  0.49767648748E+02 -0.10408392562E+03 -0.26949346533E+03  0.30704866142E+03  0.91333839230E+02 0.  0.
          5    1    3    3  502    0 -0.73673788994E+02  0.33494504045E+02 -0.22002536762E+03  0.23447461223E+03  0.41800000000E+01 0. -1.
         -5    1    3    3    0  502  0.23906140247E+02  0.70589421572E+02 -0.73170781934E+02  0.10452657896E+03  0.41800000000E+01 0. -1.
        -11    1    4    4    0    0 -0.23008555244E+02 -0.43293426033E+02 -0.63050956894E+02  0.79869503049E+02  0.00000000000E+00 0.  1.
         11    1    4    4    0    0  0.72776203992E+02 -0.60790499585E+02 -0.20644250844E+03  0.22717915837E+03  0.00000000000E+00 0. -1.
</event>
<event>
 8    1  0.6862919E-009  0.1917878E+03  0.7561462E-02  0.1156859E+00
          2   -1    0    0  501    0  0.00000000000E+00  0.00000000000E+00  0.37440153718E+03  0.37440153718E+03  0.00000000000E+00 0. -1.
         -2   -1    0    0    0  501 -0.00000000000E+00 -0.00000000000E+00 -0.16770114908E+03  0.16770114908E+03  0.00000000000E+00 0.  1.
         25    2    1    2    0    0  0.10460017576E+03  0.13201535548E+03  0.25518262193E+03  0.33035479414E+03  0.12508744392E+03 0.  0.
         23    2    1    2    0    0 -0.10460017576E+03 -0.13201535548E+03 -0.48482233823E+02  0.21174789212E+03  0.11881663170E+03 0.  0.
          5    1    3    3  502    0  0.47940551584E+02  0.14237599752E+03  0.20256291912E+03  0.25222694098E+03  0.41800000000E+01 0. -1.
         -5    1    3    3    0  502  0.56659624179E+02 -0.10360642039E+02  0.52619702810E+02  0.78127853160E+02  0.41800000000E+01 0. -1.
        -11    1    4    4    0    0 -0.21307527878E+02 -0.65698975786E+02 -0.75070699105E+02  0.10200968595E+03  0.00000000000E+00 0.  1.
         11    1    4    4    0    0 -0.83292647885E+02 -0.66316379690E+02  0.26588465282E+02  0.10973820617E+03  0.00000000000E+00 0. -1.
</event>
<event>
 8    1  0.6862919E-009  0.9888928E+02  0.7561462E-02  0.1282649E+00
         -1   -1    0    0    0  501 -0.00000000000E+00  0.00000000000E+00  0.30739122914E+03  0.30739122914E+03  0.00000000000E+00 0.  1.
          1   -1    0    0  501    0  0.00000000000E+00 -0.00000000000E+00 -0.35009154888E+02  0.35009154888E+02  0.00000000000E+00 0. -1.
         25    2    1    2    0    0  0.12773766491E+02 -0.10045497432E+02  0.15407851102E+03  0.19913268884E+03  0.12509819774E+03 0.  0.
         23    2    1    2    0    0 -0.12773766491E+02  0.10045497432E+02  0.11830356322E+03  0.14326769518E+03  0.79156921881E+02 0.  0.
          5    1    3    3  502    0 -0.34603720023E+02 -0.45755405380E+02  0.38697674863E+02  0.69325009922E+02  0.41800000000E+01 0. -1.
         -5    1    3    3    0  502  0.47377486513E+02  0.35709907948E+02  0.11538083616E+03  0.12980767892E+03  0.41800000000E+01 0. -1.
        -11    1    4    4    0    0 -0.21637497694E+02  0.42203566952E+02  0.71149222410E+02  0.85507509725E+02  0.00000000000E+00 0.  1.
         11    1    4    4    0    0  0.88637312032E+01 -0.32158069520E+02  0.47154340815E+02  0.57760185455E+02  0.00000000000E+00 0. -1.
</event>
<event>
 8    1  0.6862919E-009  0.1696710E+03  0.7561462E-02  0.1178191E+00
          1   -1    0    0  501    0  0.00000000000E+00  0.00000000000E+00  0.11934071829E+04  0.11934071829E+04  0.00000000000E+00 0. -1.
         -1   -1    0    0    0  501 -0.00000000000E+00 -0.00000000000E+00 -0.32452073034E+02  0.32452073034E+02  0.00000000000E+00 0.  1.
         25    2    1    2    0    0  0.13244425224E+03  0.83328365541E+02  0.74818981411E+03  0.77454568616E+03  0.12509166865E+03 0.  0.
         23    2    1    2    0    0 -0.13244425224E+03 -0.83328365541E+02  0.41276529576E+03  0.45131356977E+03  0.93934298418E+02 0.  0.
          5    1    3    3  502    0  0.13476057348E+03  0.80642044133E+02  0.75176223896E+03  0.76800227069E+03  0.41800000000E+01 0.  1.
         -5    1    3    3    0  502 -0.23163212384E+01  0.26863214077E+01 -0.35724248553E+01  0.65434154790E+01  0.41800000000E+01 0.  1.
        -11    1    4    4    0    0 -0.10836158507E+03 -0.21593639402E+02  0.30933600498E+03  0.32847721741E+03  0.00000000000E+00 0. -1.
         11    1    4    4    0    0 -0.24082667170E+02 -0.61734726139E+02  0.10342929079E+03  0.12283635236E+03  0.00000000000E+00 0.  1.
</event>
<event>
 8    1  0.6862919E-009  0.2266228E+03  0.7561462E-02  0.1129040E+00
         -2   -1    0    0    0  501 -0.00000000000E+00  0.00000000000E+00  0.10670527469E+03  0.10670527469E+03  0.00000000000E+00 0.  1.
          2   -1    0    0  501    0  0.00000000000E+00 -0.00000000000E+00 -0.48576289700E+03  0.48576289700E+03  0.00000000000E+00 0. -1.
         25    2    1    2    0    0 -0.11210690010E+03 -0.16672598574E+03 -0.19749040221E+03  0.30824614298E+03  0.12509082431E+03 0.  0.
         23    2    1    2    0    0  0.11210690010E+03  0.16672598574E+03 -0.18156722010E+03  0.28422202871E+03  0.86313352464E+02 0.  0.
          5    1    3    3  502    0 -0.51474969217E+02  0.55075762855E+01 -0.27648360771E+02  0.58837998825E+02  0.41800000000E+01 0. -1.
         -5    1    3    3    0  502 -0.60631930886E+02 -0.17223356203E+03 -0.16984204144E+03  0.24940814416E+03  0.41800000000E+01 0. -1.
        -11    1    4    4    0    0  0.12503676546E+03  0.13299816745E+03 -0.15122267553E+03  0.23704641498E+03  0.00000000000E+00 0.  1.
         11    1    4    4    0    0 -0.12929865355E+02  0.33727818297E+02 -0.30344544573E+02  0.47175613727E+02  0.00000000000E+00 0. -1.
</event>
<event>
 8    1  0.6862919E-009  0.1341541E+03  0.7561462E-02  0.1221419E+00
         -2   -1    0    0    0  501 -0.00000000000E+00  0.00000000000E+00  0.21323596339E+02  0.21323596339E+02  0.00000000000E+00 0. -1.
          2   -1    0    0  501    0  0.00000000000E+00 -0.00000000000E+00 -0.10597972115E+04  0.10597972115E+04  0.00000000000E+00 0.  1.
         25    2    1    2    0    0 -0.41362708211E+01  0.86018977920E+02 -0.77109581437E+03  0.78590892136E+03  0.12509078476E+03 0.  0.
         23    2    1    2    0    0  0.41362708211E+01 -0.86018977920E+02 -0.26737780076E+03  0.29521188645E+03  0.90789846698E+02 0.  0.
          5    1    3    3  502    0 -0.58608852230E+02  0.54659453310E+02 -0.29717518057E+03  0.30782009964E+03  0.41800000000E+01 0. -1.
         -5    1    3    3    0  502  0.54472581408E+02  0.31359524610E+02 -0.47392063380E+03  0.47808882172E+03  0.41800000000E+01 0. -1.
        -11    1    4    4    0    0  0.47456932816E+02 -0.44178881891E+02 -0.13360896034E+03  0.14851022982E+03  0.00000000000E+00 0. -1.
         11    1    4    4    0    0 -0.43320661995E+02 -0.41840096029E+02 -0.13376884041E+03  0.14670165663E+03  0.00000000000E+00 0.  1.
</event>
<event>
 8    1  0.6862919E-009  0.1670871E+03  0.7561462E-02  0.1180920E+00
         -2   -1    0    0    0  501 -0.00000000000E+00  0.00000000000E+00  0.65348533394E+03  0.65348533394E+03  0.00000000000E+00 0.  1.
          2   -1    0    0  501    0  0.00000000000E+00 -0.00000000000E+00 -0.47065708576E+02  0.47065708576E+02  0.00000000000E+00 0. -1.
         25    2    1    2    0    0  0.17985001178E+02  0.13300035425E+03  0.36175422370E+03  0.40561821641E+03  0.12508982620E+03 0.  0.
         23    2    1    2    0    0 -0.17985001178E+02 -0.13300035425E+03  0.24466540166E+03  0.29493282611E+03  0.95455008486E+02 0.  0.
          5    1    3    3  502    0 -0.49613754859E+02  0.68414012439E+02  0.22047058215E+03  0.23614985023E+03  0.41800000000E+01 0. -1.
         -5    1    3    3    0  502  0.67598756037E+02  0.64586341813E+02  0.14128364155E+03  0.16946836618E+03  0.41800000000E+01 0. -1.
        -11    1    4    4    0    0 -0.17460520289E+02  0.48507593782E+01  0.70619925645E+02  0.72907979902E+02  0.00000000000E+00 0.  1.
         11    1    4    4    0    0 -0.52448088856E+00 -0.13785111363E+03  0.17404547602E+03  0.22202484620E+03  0.00000000000E+00 0. -1.
</event>
<event>
 8    1  0.6862919E-009  0.9354714E+02  0.7561462E-02  0.1294482E+00
          2   -1    0    0  501    0  0.00000000000E+00  0.00000000000E+00  0.38565725548E+03  0.38565725548E+03  0.00000000000E+00 0. -1.
         -2   -1    0    0    0  501 -0.00000000000E+00 -0.00000000000E+00 -0.32039109373E+02  0.32039109373E+02  0.00000000000E+00 0.  1.
         25    2    1    2    0    0  0.30073546130E+01  0.62972205479E+01  0.24921775389E+03  0.27893437400E+03  0.12508475916E+03 0.  0.
         23    2    1    2    0    0 -0.30073546130E+01 -0.62972205479E+01  0.10440039221E+03  0.13876199085E+03  0.91141368448E+02 0.  0.
          5    1    3    3  502    0 -0.41677133443E+02  0.47677378932E+02  0.14244548928E+03  0.15594327729E+03  0.41800000000E+01 0.  1.
         -5    1    3    3    0  502  0.44684488056E+02 -0.41380158384E+02  0.10677226461E+03  0.12299109671E+03  0.41800000000E+01 0.  1.
        -11    1    4    4    0    0  0.29133435949E+02 -0.85619397239E+01  0.91787109678E+00  0.30379374407E+02  0.00000000000E+00 0.  1.
         11    1    4    4    0    0 -0.32140790562E+02  0.22647191760E+01  0.10348252111E+03  0.10838261644E+03  0.00000000000E+00 0. -1.
</event>
<event>
 8    1  0.6862919E-009  0.8583755E+02  0.7561462E-02  0.1313257E+00
          1   -1    0    0  501    0  0.00000000000E+00  0.00000000000E+00  0.80881441730E+02  0.80881441730E+02  0.00000000000E+00 0. -1.
         -1   -1    0    0    0  501 -0.00000000000E+00 -0.00000000000E+00 -0.15415285107E+03  0.15415285107E+03  0.00000000000E+00 0.  1.
         25    2    1    2    0    0 -0.16209623015E+02  0.25448635582E+01 -0.15746108989E+02  0.12714645511E+03  0.12509617456E+03 0.  0.
         23    2    1    2    0    0  0.16209623015E+02 -0.25448635582E+01 -0.57525300346E+02  0.10788783768E+03  0.89785283489E+02 0.  0.
          5    1    3    3  502    0  0.23330415953E+02 -0.28292863947E+02 -0.52967191584E+02  0.64558425036E+02  0.41800000000E+01 0. -1.
         -5    1    3    3    0  502 -0.39540038968E+02  0.30837727506E+02  0.37221082595E+02  0.62588030076E+02  0.41800000000E+01 0. -1.
        -11    1    4    4    0    0 -0.17451648040E+02  0.31853226923E+02 -0.45613433406E+02  0.58307575766E+02  0.00000000000E+00 0.  1.
         11    1    4    4    0    0  0.33661271055E+02 -0.34398090481E+02 -0.11911866940E+02  0.49580261917E+02  0.00000000000E+00 0. -1.
</event>
<event>
 8    1  0.6862919E-009  0.1103731E+03  0.7561462E-02  0.1259881E+00
         -2   -1    0    0    0  501 -0.00000000000E+00  0.00000000000E+00  0.67839441050E+02  0.67839441050E+02  0.00000000000E+00 0.  1.
          2   -1    0    0  501    0  0.00000000000E+00 -0.00000000000E+00 -0.27386623881E+03  0.27386623881E+03  0.00000000000E+00 0. -1.
         25    2    1    2    0    0 -0.29581672689E+02 -0.29379780072E+02 -0.20201501691E+03  0.24123813768E+03  0.12509006825E+03 0.  0.
         23    2    1    2    0    0  0.29581672689E+02  0.29379780072E+02 -0.40117808442E+01  0.10046754218E+03  0.91320237682E+02 0.  0.
          5    1    3    3  502    0 -0.20948463524E+02 -0.72817737148E+02 -0.17078546506E+03  0.18688608413E+03  0.41800000000E+01 0.  1.
         -5    1    3    3    0  502 -0.86332091651E+01  0.43437957076E+02 -0.31229551857E+02  0.54352053545E+02  0.41800000000E+01 0.  1.
        -11    1    4    4    0    0  0.62751792082E+02  0.17560542414E+02 -0.33426572347E+01  0.65248244549E+02  0.00000000000E+00 0.  1.
         11    1    4    4    0    0 -0.33170119393E+02  0.11819237658E+02 -0.66912360949E+00  0.35219297633E+02  0.00000000000E+00 0. -1.
</event>
<event>
 8    1  0.6862919E-009  0.1618619E+03  0.7561462E-02  0.1186611E+00
         -2   -1    0    0    0  501 -0.00000000000E+00  0.00000000000E+00  0.90439836626E+02  0.90439836626E+02  0.00000000000E+00 0.  1.
          2   -1    0    0  501    0  0.00000000000E+00 -0.00000000000E+00 -0.72781748799E+03  0.72781748799E+03  0.00000000000E+00 0. -1.
         25    2    1    2    0    0 -0.13788559419E+03  0.42184996440E+02 -0.62016506955E+03  0.64888045342E+03  0.12509643615E+03 0.  0.
         23    2    1    2    0    0  0.13788559419E+03 -0.42184996440E+02 -0.17212581813E+02  0.16937687119E+03  0.87179358290E+02 0.  0.
          5    1    3    3  502    0  0.83906700691E+01  0.30476229538E+02 -0.22650275901E+03  0.22873604034E+03  0.41800000000E+01 0.  1.
         -5    1    3    3    0  502 -0.14627626426E+03  0.11708766902E+02 -0.39366231053E+03  0.42014441308E+03  0.41800000000E+01 0.  1.
        -11    1    4    4    0    0  0.56566520423E+02 -0.93371798150E+01  0.35133057294E+02  0.67240507691E+02  0.00000000000E+00 0.  1.
         11    1    4    4    0    0  0.81319073765E+02 -0.32847816625E+02 -0.52345639108E+02  0.10213636350E+03  0.00000000000E+00 0. -1.
</event>
<event>
 8    1  0.6862919E-009  0.1446667E+03  0.7561462E-02  0.1207184E+00
         -1   -1    0    0    0  501 -0.00000000000E+00  0.00000000000E+00  0.13135633089E+03  0.13135633089E+03  0.00000000000E+00 0.  1.
          1   -1    0    0  501    0  0.00000000000E+00 -0.00000000000E+00 -0.19877454820E+03  0.19877454820E+03  0.00000000000E+00 0. -1.
         25    2    1    2    0    0  0.11758065535E+03 -0.80547086755E+01 -0.57203627765E+02  0.18113318916E+03  0.12508752272E+03 0.  0.
         23    2    1    2    0    0 -0.11758065535E+03  0.80547086755E+01 -0.10214589551E+02  0.14899768994E+03  0.90586339604E+02 0.  0.
          5    1    3    3  502    0  0.40433610093E+02 -0.54452461995E+02 -0.60456772709E+02  0.90952961518E+02  0.41800000000E+01 0.  1.
         -5    1    3    3    0  502  0.77147045256E+02  0.46397753319E+02  0.32531449442E+01  0.90180227638E+02  0.41800000000E+01 0.  1.
        -11    1    4    4    0    0 -0.77357452534E+02 -0.22708396192E+02  0.28227563414E+02  0.85420384314E+02  0.00000000000E+00 0.  1.
         11    1    4    4    0    0 -0.40223202815E+02  0.30763104868E+02 -0.38442152964E+02  0.63577305623E+02  0.00000000000E+00 0. -1.
</event>
<event>
 8    1  0.6862919E-009  0.8345053E+02  0.7561462E-02  0.1319535E+00
         -2   -1    0    0    0  501 -0.00000000000E+00  0.00000000000E+00  0.51014834787E+03  0.51014834787E+03  0.00000000000E+00 0.  1.
          2   -1    0    0  501    0  0.00000000000E+00 -0.00000000000E+00 -0.32186349848E+02  0.32186349848E+02  0.00000000000E+00 0. -1.
         25    2    1    2    0    0 -0.29529861341E+02  0.26438989235E+01  0.39269173358E+03  0.41319848982E+03  0.12508873432E+03 0.  0.
         23    2    1    2    0    0  0.29529861341E+02 -0.26438989235E+01  0.85270264433E+02  0.12913620789E+03  0.92337095904E+02 0.  0.
          5    1    3    3  502    0  0.23067475136E+02 -0.20269302114E+02  0.21843004509E+02  0.37914934568E+02  0.41800000000E+01 0.  1.
         -5    1    3    3    0  502 -0.52597336478E+02  0.22913201037E+02  0.37084872908E+03  0.37528355525E+03  0.41800000000E+01 0.  1.
        -11    1    4    4    0    0 -0.24212319022E+02  0.27805949613E+01 -0.40968218099E+01  0.24713398183E+02  0.00000000000E+00 0. -1.
         11    1    4    4    0    0  0.53742180364E+02 -0.54244938848E+01  0.89367086243E+02  0.10442280971E+03  0.00000000000E+00 0.  1.
</event>
<event>
 8    1  0.6862919E-009  0.1541959E+03  0.7561462E-02  0.1195410E+00
          1   -1    0    0  501    0  0.00000000000E+00  0.00000000000E+00  0.40344419132E+03  0.40344419132E+03  0.00000000000E+00 0. -1.
         -1   -1    0    0    0  501 -0.00000000000E+00 -0.00000000000E+00 -0.79052810318E+02  0.79052810318E+02  0.00000000000E+00 0.  1.
         25    2    1    2    0    0  0.14028503422E+03 -0.17372204678E+02  0.16425020606E+03  0.25021398021E+03  0.12508885394E+03 0.  0.
         23    2    1    2    0    0 -0.14028503422E+03  0.17372204678E+02  0.16014117494E+03  0.23228302143E+03  0.91260735311E+02 0.  0.
          5    1    3    3  502    0  0.62483245371E+02 -0.38742485845E+02  0.76924789335E+01  0.74039062620E+02  0.41800000000E+01 0.  1.
         -5    1    3    3    0  502  0.77801788849E+02  0.21370281167E+02  0.15655772712E+03  0.17617491759E+03  0.41800000000E+01 0.  1.
        -11    1    4    4    0    0 -0.11551298173E+03  0.38128874754E+02  0.79267606709E+02  0.14519095533E+03  0.00000000000E+00 0.  1.
         11    1    4    4    0    0 -0.24772052493E+02 -0.20756670076E+02  0.80873568235E+02  0.87092066093E+02  0.00000000000E+00 0. -1.
</event>
<event>
 8    1  0.6862919E-009  0.3972315E+03  0.7561462E-02  0.1044743E+00
         -2   -1    0    0    0  501 -0.00000000000E+00  0.00000000000E+00  0.87953618954E+02  0.87953618954E+02  0.00000000000E+00 0.  1.
          2   -1    0    0  501    0  0.00000000000E+00 -0.00000000000E+00 -0.18625214728E+04  0.18625214728E+04  0.00000000000E+00 0. -1.
         25    2    1    2    0    0 -0.38875244691E+03  0.72243246267E+01 -0.82672064665E+03  0.92211383740E+03  0.12508495392E+03 0.  0.
         23    2    1    2    0    0  0.38875244691E+03 -0.72243246267E+01 -0.94784720721E+03  0.10283612544E+04  0.89061133034E+02 0.  0.
          5    1    3    3  502    0 -0.90072820408E+02 -0.47546309924E+02 -0.16357677756E+03  0.19273971859E+03  0.41800000000E+01 0. -1.
         -5    1    3    3    0  502 -0.29867962650E+03  0.54770634551E+02 -0.66314386908E+03  0.72937411882E+03  0.41800000000E+01 0. -1.
        -11    1    4    4    0    0  0.97878586585E+02 -0.34151824767E+01 -0.15005220104E+03  0.17918578130E+03  0.00000000000E+00 0.  1.
         11    1    4    4    0    0  0.29087386032E+03 -0.38091421500E+01 -0.79779500617E+03  0.84917547306E+03  0.00000000000E+00 0. -1.
</event>
<event>
 8    1  0.6862919E-009  0.9149669E+02  0.7561462E-02  0.1299267E+00
         -1   -1    0    0    0  501 -0.00000000000E+00  0.00000000000E+00  0.19951085434E+03  0.19951085434E+03  0.00000000000E+00 0.  1.
          1   -1    0    0  501    0  0.00000000000E+00 -0.00000000000E+00 -0.80339519451E+02  0.80339519451E+02  0.00000000000E+00 0. -1.
         25    2    1    2    0    0 -0.79784888096E+00 -0.61964740301E+02  0.50210195912E+02  0.14836046852E+03  0.12509795858E+03 0.  0.
         23    2    1    2    0    0  0.79784888096E+00  0.61964740301E+02  0.68961138976E+02  0.13148990527E+03  0.93239964049E+02 0.  0.
          5    1    3    3  502    0 -0.50139375582E+02 -0.45095479023E+02  0.65249951677E+02  0.93928631449E+02  0.41800000000E+01 0.  1.
         -5    1    3    3    0  502  0.49341526701E+02 -0.16869261279E+02 -0.15039755765E+02  0.54431837069E+02  0.41800000000E+01 0.  1.
        -11    1    4    4    0    0  0.63944641898E+01  0.32001283737E+02 -0.19437116657E+02  0.37983849686E+02  0.00000000000E+00 0. -1.
         11    1    4    4    0    0 -0.55966153088E+01  0.29963456565E+02  0.88398255632E+02  0.93506055585E+02  0.00000000000E+00 0.  1.
</event>
<event>
 8    1  0.6862919E-009  0.1427769E+03  0.7561462E-02  0.1209641E+00
          2   -1    0    0  501    0  0.00000000000E+00  0.00000000000E+00  0.53973938286E+03  0.53973938286E+03  0.00000000000E+00 0. -1.
         -2   -1    0    0    0  501 -0.00000000000E+00 -0.00000000000E+00 -0.64509926518E+02  0.64509926518E+02  0.00000000000E+00 0.  1.
         25    2    1    2    0    0 -0.90030267654E+02  0.61889904650E+02  0.41686871050E+03  0.44873441080E+03  0.12508892937E+03 0.  0.
         23    2    1    2    0    0  0.90030267654E+02 -0.61889904650E+02  0.58360745838E+02  0.15551489857E+03  0.94037745784E+02 0.  0.
          5    1    3    3  502    0 -0.10138584511E+03  0.82482080399E+02  0.27073160526E+03  0.30065837368E+03  0.41800000000E+01 0.  1.
         -5    1    3    3    0  502  0.11355577461E+02 -0.20592175750E+02  0.14613710525E+03  0.14807603713E+03  0.41800000000E+01 0.  1.
        -11    1    4    4    0    0  0.52390698627E+02 -0.74614505301E+02  0.82203806239E+01  0.91540615912E+02  0.00000000000E+00 0.  1.
         11    1    4    4    0    0  0.37639569026E+02  0.12724600651E+02  0.50140365214E+02  0.63974282661E+02  0.00000000000E+00 0. -1.
</event>
<event>
 8    1  0.6862919E-009  0.1765360E+03  0.7561462E-02  0.1171198E+00
         -1   -1    0    0    0  501 -0.00000000000E+00  0.00000000000E+00  0.91274492585E+02  0.91274492585E+02  0.00000000000E+00 0.  1.
          1   -1    0    0  501    0  0.00000000000E+00 -0.00000000000E+00 -0.50317162217E+03  0.50317162217E+03  0.00000000000E+00 0. -1.
         25    2    1    2    0    0 -0.51832499707E+02 -0.13387085458E+03 -0.37372114344E+03  0.41943414937E+03  0.12509795710E+03 0.  0.
         23    2    1    2    0    0  0.51832499707E+02  0.13387085458E+03 -0.38175986145E+02  0.17501196539E+03  0.92540630955E+02 0.  0.
          5    1    3    3  502    0 -0.27244216868E+02  0.15730123263E+02 -0.11730251166E+03  0.12151969294E+03  0.41800000000E+01 0. -1.
         -5    1    3    3    0  502 -0.24588282839E+02 -0.14960097785E+03 -0.25641863178E+03  0.29791445643E+03  0.41800000000E+01 0. -1.
        -11    1    4    4    0    0  0.31459321396E+02 -0.27125339499E+01 -0.15107148907E+02  0.35003895372E+02  0.00000000000E+00 0. -1.
         11    1    4    4    0    0  0.20373178311E+02  0.13658338853E+03 -0.23068837238E+02  0.14000807001E+03  0.00000000000E+00 0.  1.
</event>
<event>
 8    1  0.6862919E-009  0.9156640E+02  0.7561462E-02  0.1299102E+00
          1   -1    0    0  501    0  0.00000000000E+00  0.00000000000E+00  0.15969032215E+03  0.15969032215E+03  0.00000000000E+00 0. -1.
         -1   -1    0    0    0  501 -0.00000000000E+00 -0.00000000000E+00 -0.11690267969E+03  0.11690267969E+03  0.00000000000E+00 0.  1.
         25    2    1    2    0    0  0.13443169920E+02  0.75385080123E+02  0.54376447926E+02  0.15642280599E+03  0.12509063522E+03 0.  0.
         23    2    1    2    0    0 -0.13443169920E+02 -0.75385080123E+02 -0.11588805463E+02  0.12017019586E+03  0.91885507225E+02 0.  0.
          5    1    3    3  502    0  0.85781620712E+01  0.28398269895E+02 -0.40487301930E+02  0.50366066108E+02  0.41800000000E+01 0.  1.
         -5    1    3    3    0  502  0.48650078483E+01  0.46986810228E+02  0.94863749856E+02  0.10605673988E+03  0.41800000000E+01 0.  1.
        -11    1    4    4    0    0 -0.43763194903E+02 -0.46962894069E+02 -0.34330151464E+02  0.72796222065E+02  0.00000000000E+00 0.  1.
         11    1    4    4    0    0  0.30320024983E+02 -0.28422186055E+02  0.22741346001E+02  0.47373973794E+02  0.00000000000E+00 0. -1.
</event>
<event>
 8    1  0.6862919E-009  0.1032111E+03  0.7561462E-02  0.1273685E+00
         -2   -1    0    0    0  501 -0.00000000000E+00  0.00000000000E+00  0.48366153158E+03  0.48366153158E+03  0.00000000000E+00 0.  1.
          2   -1    0    0  501    0  0.00000000000E+00 -0.00000000000E+00 -0.28319916242E+02  0.28319916242E+02  0.00000000000E+00 0. -1.
         25    2    1    2    0    0  0.95445699690E+01 -0.23845201351E+02  0.17863881754E+03  0.21958546157E+03  0.12508499254E+03 0.  0.
         23    2    1    2    0    0 -0.95445699690E+01  0.23845201351E+02  0.27670279780E+03  0.29239598625E+03  0.90946588851E+02 0.  0.
          5    1    3    3  502    0 -0.61773398255E+01  0.47062372943E+02  0.36900551657E+02  0.60267317735E+02  0.41800000000E+01 0. -1.
         -5    1    3    3    0  502  0.15721909794E+02 -0.70907574294E+02  0.14173826588E+03  0.15931814384E+03  0.41800000000E+01 0. -1.
        -11    1    4    4    0    0 -0.37998806229E+02 -0.12374417706E+02  0.69820299766E+02  0.80448180513E+02  0.00000000000E+00 0. -1.
         11    1    4    4    0    0  0.28454236260E+02  0.36219619057E+02  0.20688249803E+03  0.21194780574E+03  0.00000000000E+00 0.  1.
</event>
<event>
 8    1  0.6862919E-009  0.7693621E+02  0.7561462E-02  0.1337978E+00
          2   -1    0    0  501    0  0.00000000000E+00  0.00000000000E+00  0.42585889223E+02  0.42585889223E+02  0.00000000000E+00 0. -1.
         -2   -1    0    0    0  501 -0.00000000000E+00 -0.00000000000E+00 -0.29249423065E+03  0.29249423065E+03  0.00000000000E+00 0.  1.
         25    2    1    2    0    0  0.13484837619E+02 -0.14782133538E+02 -0.11614852396E+03  0.17186941917E+03  0.12509302662E+03 0.  0.
         23    2    1    2    0    0 -0.13484837619E+02  0.14782133538E+02 -0.13375981746E+03  0.16321070070E+03  0.91354757609E+02 0.  0.
          5    1    3    3  502    0  0.63742443875E+01 -0.48360818970E+02  0.17661174416E+01  0.48989706814E+02  0.41800000000E+01 0.  1.
         -5    1    3    3    0  502  0.71105932310E+01  0.33578685432E+02 -0.11791464140E+03  0.12287971236E+03  0.41800000000E+01 0.  1.
        -11    1    4    4    0    0 -0.36377044353E+02  0.26128115212E+02 -0.24596924648E+02  0.51097714846E+02  0.00000000000E+00 0. -1.
         11    1    4    4    0    0  0.22892206735E+02 -0.11345981674E+02 -0.10916289281E+03  0.11211298585E+03  0.00000000000E+00 0.  1.
</event>
<event>
 8    1  0.6862919E-009  0.8963970E+02  0.7561462E-02  0.1303727E+00
          2   -1    0    0  501    0  0.00000000000E+00  0.00000000000E+00  0.19072946483E+03  0.19072946483E+03  0.00000000000E+00 0. -1.
         -2   -1    0    0    0  501 -0.00000000000E+00 -0.00000000000E+00 -0.65466931250E+02  0.65466931250E+02  0.00000000000E+00 0.  1.
         25    2    1    2    0    0 -0.17623437684E+02 -0.33315141368E+01  0.99782273092E+02  0.16101373292E+03  0.12508891088E+03 0.  0.
         23    2    1    2    0    0  0.17623437684E+02  0.33315141368E+01  0.25480260486E+02  0.95182663156E+02  0.89937818234E+02 0.  0.
          5    1    3    3  502    0 -0.55316240850E+01  0.56416977334E+02  0.77206090701E+02  0.95873494970E+02  0.41800000000E+01 0.  1.
         -5    1    3    3    0  502 -0.12091813599E+02 -0.59748491470E+02  0.22576182391E+02  0.65140237952E+02  0.41800000000E+01 0.  1.
        -11    1    4    4    0    0 -0.94664861954E+01  0.24944152063E+02  0.47246443653E+02  0.54259114634E+02  0.00000000000E+00 0. -1.
         11    1    4    4    0    0  0.27089923880E+02 -0.21612637926E+02 -0.21766183167E+02  0.40923548522E+02  0.00000000000E+00 0.  1.
</event>
<event>
 8    1  0.6862919E-009  0.1388725E+03  0.7561462E-02  0.1214854E+00
         -2   -1    0    0    0  501 -0.00000000000E+00  0.00000000000E+00  0.28818960544E+02  0.28818960544E+02  0.00000000000E+00 0.  1.
          2   -1    0    0  501    0  0.00000000000E+00 -0.00000000000E+00 -0.74657115892E+03  0.74657115892E+03  0.00000000000E+00 0. -1.
         25    2    1    2    0    0  0.21657169351E+02 -0.93421132300E+02 -0.42893141538E+03  0.45697764646E+03  0.12509943774E+03 0.  0.
         23    2    1    2    0    0 -0.21657169351E+02  0.93421132300E+02 -0.28882078300E+03  0.31841247300E+03  0.93661717509E+02 0.  0.
          5    1    3    3  502    0  0.64599090439E+02 -0.86220867371E+02 -0.24092173515E+03  0.26394665242E+03  0.41800000000E+01 0.  1.
         -5    1    3    3    0  502 -0.42941921088E+02 -0.72002649284E+01 -0.18800968023E+03  0.19303099404E+03  0.41800000000E+01 0.  1.
        -11    1    4    4    0    0  0.81472032109E+01  0.95931037731E+02 -0.25838999518E+03  0.27574359563E+03  0.00000000000E+00 0.  1.
         11    1    4    4    0    0 -0.29804372562E+02 -0.25099054314E+01 -0.30430787817E+02  0.42668877373E+02  0.00000000000E+00 0. -1.
</event>
<event>
 8    1  0.6862919E-009  0.9036035E+02  0.7561462E-02  0.1301981E+00
          1   -1    0    0  501    0  0.00000000000E+00  0.00000000000E+00  0.50502424017E+02  0.50502424017E+02  0.00000000000E+00 0. -1.
         -1   -1    0    0    0  501 -0.00000000000E+00 -0.00000000000E+00 -0.28800670443E+03  0.28800670443E+03  0.00000000000E+00 0.  1.
         25    2    1    2    0    0  0.23279882898E+02  0.19570709513E+01 -0.20414662728E+03  0.24056021415E+03  0.12509031988E+03 0.  0.
         23    2    1    2    0    0 -0.23279882898E+02 -0.19570709513E+01 -0.33357653132E+02  0.97948914299E+02  0.89081275897E+02 0.  0.
          5    1    3    3  502    0  0.70879741583E+02 -0.19727394489E+02 -0.13442022361E+03  0.15329506442E+03  0.41800000000E+01 0.  1.
         -5    1    3    3    0  502 -0.47599858685E+02  0.21684465440E+02 -0.69726403669E+02  0.87265149727E+02  0.41800000000E+01 0.  1.
        -11    1    4    4    0    0  0.14115248972E+02  0.74979748042E+01 -0.52506547162E+02  0.54885311101E+02  0.00000000000E+00 0.  1.
         11    1    4    4    0    0 -0.37395131871E+02 -0.94550457555E+01  0.19148894030E+02  0.43063603198E+02  0.00000000000E+00 0. -1.
</event>
<event>
 8    1  0.6862919E-009  0.6564833E+02  0.7561462E-02  0.1375549E+00
          1   -1    0    0  501    0  0.00000000000E+00  0.00000000000E+00  0.44678389298E+02  0.44678389298E+02  0.00000000000E+00 0. -1.
         -1   -1    0    0    0  501 -0.00000000000E+00 -0.00000000000E+00 -0.32481721740E+03  0.32481721740E+03  0.00000000000E+00 0.  1.
         25    2    1    2    0    0  0.22389689970E+01 -0.15601817902E+02 -0.81156519954E+02  0.14994283694E+03  0.12509214169E+03 0.  0.
         23    2    1    2    0    0 -0.22389689970E+01  0.15601817902E+02 -0.19898230815E+03  0.21955276977E+03  0.91438668244E+02 0.  0.
          5    1    3    3  502    0 -0.19855393315E+01  0.23663689605E+02  0.26122339860E+02  0.35549424917E+02  0.41800000000E+01 0.  1.
         -5    1    3    3    0  502  0.42245083285E+01 -0.39265507507E+02 -0.10727885981E+03  0.11439341202E+03  0.41800000000E+01 0.  1.
        -11    1    4    4    0    0 -0.33063403548E+02  0.31442849776E+00 -0.17379357693E+03  0.17691098016E+03  0.00000000000E+00 0.  1.
         11    1    4    4    0    0  0.30824434551E+02  0.15287389404E+02 -0.25188731225E+02  0.42641789607E+02  0.00000000000E+00 0. -1.
</event>
<event>
 8    1  0.6862919E-009  0.2865067E+03  0.7561462E-02  0.1092187E+00
         -1   -1    0    0    0  501 -0.00000000000E+00  0.00000000000E+00  0.46176698433E+03  0.46176698433E+03  0.00000000000E+00 0.  1.
          1   -1    0    0  501    0  0.00000000000E+00 -0.00000000000E+00 -0.18019613578E+03  0.18019613578E+03  0.00000000000E+00 0. -1.
         25    2    1    2    0    0 -0.92126061756E+02  0.25017820703E+03  0.13939530921E+03  0.32581783177E+03  0.12509940345E+03 0.  0.
         23    2    1    2    0    0  0.92126061756E+02 -0.25017820703E+03  0.14217553934E+03  0.31614528835E+03  0.93046294036E+02 0.  0.
          5    1    3    3  502    0 -0.11949619792E+01 -0.12381708842E+02 -0.31555757333E+01  0.13496840600E+02  0.41800000000E+01 0. -1.
         -5    1    3    3    0  502 -0.90931099777E+02  0.26255991587E+03  0.14255088494E+03  0.31232099117E+03  0.41800000000E+01 0. -1.
        -11    1    4    4    0    0  0.22676151366E+01 -0.13913128553E+03  0.78277230333E+02  0.15965582194E+03  0.00000000000E+00 0. -1.
         11    1    4    4    0    0  0.89858446619E+02 -0.11104692150E+03  0.63898309004E+02  0.15648946641E+03  0.00000000000E+00 0.  1.
</event>
<event>
 8    1  0.6862919E-009  0.1349133E+03  0.7561462E-02  0.1220342E+00
         -4   -1    0    0    0  501 -0.00000000000E+00  0.00000000000E+00  0.23992761392E+03  0.23992761392E+03  0.00000000000E+00 0.  1.
          4   -1    0    0  501    0  0.00000000000E+00 -0.00000000000E+00 -0.12310538668E+03  0.12310538668E+03  0.00000000000E+00 0. -1.
         25    2    1    2    0    0 -0.91692969194E+01  0.13068180994E+03  0.36748558572E+02  0.18482508022E+03  0.12509213511E+03 0.  0.
         23    2    1    2    0    0  0.91692969194E+01 -0.13068180994E+03  0.80073668667E+02  0.17820792037E+03  0.90467999945E+02 0.  0.
          5    1    3    3  502    0 -0.15495818566E+01  0.16515867822E+02  0.64735703006E+02  0.66957887792E+02  0.41800000000E+01 0.  1.
         -5    1    3    3    0  502 -0.76197150627E+01  0.11416594212E+03 -0.27987144434E+02  0.11786719243E+03  0.41800000000E+01 0.  1.
        -11    1    4    4    0    0 -0.13924181752E+02 -0.92936971596E+02  0.88923302187E+01  0.94394052057E+02  0.00000000000E+00 0. -1.
         11    1    4    4    0    0  0.23093478671E+02 -0.37744838348E+02  0.71181338448E+02  0.83813868318E+02  0.00000000000E+00 0.  1.
</event>
<event>
 8    1  0.6862919E-009  0.2178836E+03  0.7561462E-02  0.1135471E+00
         -2   -1    0    0    0  501 -0.00000000000E+00  0.00000000000E+00  0.95945632032E+02  0.95945632032E+02  0.00000000000E+00 0.  1.
          2   -1    0    0  501    0  0.00000000000E+00 -0.00000000000E+00 -0.86460315894E+03  0.86460315894E+03  0.00000000000E+00 0. -1.
         25    2    1    2    0    0 -0.16909366510E+03 -0.10079140949E+03 -0.93110559094E+02  0.25113629825E+03  0.12509311843E+03 0.  0.
         23    2    1    2    0    0  0.16909366510E+03  0.10079140949E+03 -0.67554696781E+03  0.70941249272E+03  0.90281799392E+02 0.  0.
          5    1    3    3  502    0 -0.15410180212E+03 -0.27462715498E+02 -0.76864379953E+02  0.17443385986E+03  0.41800000000E+01 0. -1.
         -5    1    3    3    0  502 -0.14991862982E+02 -0.73328693996E+02 -0.16246179141E+02  0.76702438393E+02  0.41800000000E+01 0. -1.
        -11    1    4    4    0    0  0.79646030003E+02  0.78946453955E+02 -0.48484757898E+03  0.49764767409E+03  0.00000000000E+00 0. -1.
         11    1    4    4    0    0  0.89447635098E+02  0.21844955538E+02 -0.19069938883E+03  0.21176481863E+03  0.00000000000E+00 0.  1.
</event>
<event>
 8    1  0.6862919E-009  0.1038568E+03  0.7561462E-02  0.1272389E+00
          1   -1    0    0  501    0  0.00000000000E+00  0.00000000000E+00  0.16962661141E+03  0.16962661141E+03  0.00000000000E+00 0. -1.
         -1   -1    0    0    0  501 -0.00000000000E+00 -0.00000000000E+00 -0.15001685858E+03  0.15001685858E+03  0.00000000000E+00 0.  1.
         25    2    1    2    0    0  0.53423377500E+02 -0.71496752186E+02 -0.62809639653E+02  0.16600779666E+03  0.12509074659E+03 0.  0.
         23    2    1    2    0    0 -0.53423377500E+02  0.71496752186E+02  0.82419392486E+02  0.15363567333E+03  0.94048503585E+02 0.  0.
          5    1    3    3  502    0 -0.28044351358E+01 -0.60348567784E+02 -0.85027367977E+02  0.10438841025E+03  0.41800000000E+01 0.  1.
         -5    1    3    3    0  502  0.56227812636E+02 -0.11148184401E+02  0.22217728324E+02  0.61619386407E+02  0.41800000000E+01 0.  1.
        -11    1    4    4    0    0 -0.52028241164E+01  0.12124750136E+02 -0.21123699023E+02  0.24905613926E+02  0.00000000000E+00 0.  1.
         11    1    4    4    0    0 -0.48220553384E+02  0.59372002050E+02  0.10354309151E+03  0.12873005941E+03  0.00000000000E+00 0. -1.
</event>
<event>
 8    1  0.6862919E-009  0.1320528E+03  0.7561462E-02  0.1224441E+00
          4   -1    0    0  501    0  0.00000000000E+00  0.00000000000E+00  0.61378220790E+03  0.61378220790E+03  0.00000000000E+00 0. -1.
         -4   -1    0    0    0  501 -0.00000000000E+00 -0.00000000000E+00 -0.38990962796E+02  0.38990962796E+02  0.00000000000E+00 0.  1.
         25    2    1    2    0    0 -0.79652327258E+02 -0.10697188649E+02  0.46792232570E+03  0.49097684382E+03  0.12509210689E+03 0.  0.
         23    2    1    2    0    0  0.79652327258E+02  0.10697188649E+02  0.10686891941E+03  0.16179632687E+03  0.91094249936E+02 0.  0.
          5    1    3    3  502    0 -0.22112913564E+02  0.56012461650E+02  0.20006496632E+03  0.20897329962E+03  0.41800000000E+01 0. -1.
         -5    1    3    3    0  502 -0.57539413693E+02 -0.66709650298E+02  0.26785735938E+03  0.28200354420E+03  0.41800000000E+01 0. -1.
        -11    1    4    4    0    0  0.88136185719E+02 -0.14173002500E+02  0.10114206239E+03  0.13490210531E+03  0.00000000000E+00 0. -1.
         11    1    4    4    0    0 -0.84838584614E+01  0.24870191149E+02  0.57268570226E+01  0.26894221564E+02  0.00000000000E+00 0.  1.
</event>
<event>
 8    1  0.6862919E-009  0.1482819E+03  0.7561462E-02  0.1202600E+00
         -2   -1    0    0    0  501 -0.00000000000E+00  0.00000000000E+00  0.45017915607E+03  0.45017915607E+03  0.00000000000E+00 0.  1.
          2   -1    0    0  501    0  0.00000000000E+00 -0.00000000000E+00 -0.80593673334E+02  0.80593673334E+02  0.00000000000E+00 0. -1.
         25    2    1    2    0    0  0.83255258401E+01  0.13192268322E+03  0.77285669114E+02  0.19771939364E+03  0.12508787008E+03 0.  0.
         23    2    1    2    0    0 -0.83255258401E+01 -0.13192268322E+03  0.29229981362E+03  0.33305343577E+03  0.89512576224E+02 0.  0.
          5    1    3    3  502    0  0.16403784909E+02  0.12310733671E+03  0.10790938772E+03  0.16457949103E+03  0.41800000000E+01 0.  1.
         -5    1    3    3    0  502 -0.80782590693E+01  0.88153465130E+01 -0.30623718603E+02  0.33139902607E+02  0.41800000000E+01 0.  1.
        -11    1    4    4    0    0 -0.48467893612E+02 -0.58666421003E+02  0.14119278517E+03  0.16039416526E+03  0.00000000000E+00 0.  1.
         11    1    4    4    0    0  0.40142367772E+02 -0.73256262218E+02  0.15110702845E+03  0.17265927051E+03  0.00000000000E+00 0. -1.
</event>
<event>
 8    1  0.6862919E-009  0.1180383E+03  0.7561462E-02  0.1246369E+00
         -1   -1    0    0    0  501 -0.00000000000E+00  0.00000000000E+00  0.39435317078E+03  0.39435317078E+03  0.00000000000E+00 0.  1.
          1   -1    0    0  501    0  0.00000000000E+00 -0.00000000000E+00 -0.61347513552E+02  0.61347513552E+02  0.00000000000E+00 0. -1.
         25    2    1    2    0    0  0.14831714396E+02 -0.10734450895E+03  0.14329083390E+03  0.21890659213E+03  0.12508001298E+03 0.  0.
         23    2    1    2    0    0 -0.14831714396E+02  0.10734450895E+03  0.18971482333E+03  0.23679409220E+03  0.91306651211E+02 0.  0.
          5    1    3    3  502    0  0.18684163613E+02 -0.10560794833E+03  0.16475692325E+03  0.19663278689E+03  0.41800000000E+01 0.  1.
         -5    1    3    3    0  502 -0.38524492162E+01 -0.17365606256E+01 -0.21466089357E+02  0.22273805244E+02  0.41800000000E+01 0.  1.
        -11    1    4    4    0    0  0.20781833291E+02  0.21684208191E+02  0.11143442051E+03  0.11541108939E+03  0.00000000000E+00 0.  1.
         11    1    4    4    0    0 -0.35613547687E+02  0.85660300761E+02  0.78280402819E+02  0.12138300281E+03  0.00000000000E+00 0. -1.
</event>
<event>
 8    1  0.6862919E-009  0.1212336E+03  0.7561462E-02  0.1241076E+00
         -1   -1    0    0    0  501 -0.00000000000E+00  0.00000000000E+00  0.87933419067E+03  0.87933419067E+03  0.00000000000E+00 0.  1.
          1   -1    0    0  501    0  0.00000000000E+00 -0.00000000000E+00 -0.21390933045E+02  0.21390933045E+02  0.00000000000E+00 0. -1.
         25    2    1    2    0    0  0.27956935457E+02  0.62828330332E+02  0.62560393712E+03  0.64168355379E+03  0.12509399560E+03 0.  0.
         23    2    1    2    0    0 -0.27956935457E+02 -0.62828330332E+02  0.23233932051E+03  0.25904156992E+03  0.91607782220E+02 0.  0.
          5    1    3    3  502    0 -0.36428005689E+02 -0.12332019708E+02  0.10881497497E+03  0.11548701003E+03  0.41800000000E+01 0.  1.
         -5    1    3    3    0  502  0.64384941146E+02  0.75160350039E+02  0.51678896216E+03  0.52619654377E+03  0.41800000000E+01 0.  1.
        -11    1    4    4    0    0 -0.23647298371E+02  0.14196356591E+02  0.11751698887E+03  0.12071028926E+03  0.00000000000E+00 0.  1.
         11    1    4    4    0    0 -0.43096370864E+01 -0.77024686923E+02  0.11482233164E+03  0.13833128066E+03  0.00000000000E+00 0. -1.
</event>
<event>
 8    1  0.6862919E-009  0.1339641E+03  0.7561462E-02  0.1221690E+00
         -1   -1    0    0    0  501 -0.00000000000E+00  0.00000000000E+00  0.15047353819E+03  0.15047353819E+03  0.00000000000E+00 0.  1.
          1   -1    0    0  501    0  0.00000000000E+00 -0.00000000000E+00 -0.15607208593E+03  0.15607208593E+03  0.00000000000E+00 0. -1.
         25    2    1    2    0    0  0.10514175494E+03  0.29744586670E+02 -0.26941300978E+02  0.16826363420E+03  0.12508911955E+03 0.  0.
         23    2    1    2    0    0 -0.10514175494E+03 -0.29744586670E+02  0.21342753237E+02  0.13828198992E+03  0.82017477115E+02 0.  0.
          5    1    3    3  502    0  0.89080819682E+02 -0.11251597378E+02  0.31258148307E+02  0.95165829552E+02  0.41800000000E+01 0. -1.
         -5    1    3    3    0  502  0.16060935258E+02  0.40996184048E+02 -0.58199449285E+02  0.73097804652E+02  0.41800000000E+01 0. -1.
        -11    1    4    4    0    0 -0.10922105916E+03 -0.56394976460E+01  0.62378326019E+01  0.10954430269E+03  0.00000000000E+00 0. -1.
         11    1    4    4    0    0  0.40793042158E+01 -0.24105089025E+02  0.15104920635E+02  0.28737687227E+02  0.00000000000E+00 0.  1.
</event>
<event>
 8    1  0.6862919E-009  0.3673109E+03  0.7561462E-02  0.1055726E+00
          2   -1    0    0  501    0  0.00000000000E+00  0.00000000000E+00  0.18458923994E+04  0.18458923994E+04  0.00000000000E+00 0.  1.
         -2   -1    0    0    0  501 -0.00000000000E+00 -0.00000000000E+00 -0.79714528904E+02  0.79714528904E+02  0.00000000000E+00 0. -1.
         25    2    1    2    0    0  0.29674490965E+03 -0.19992069355E+03  0.67943970783E+03  0.77801771322E+03  0.12508964941E+03 0.  0.
         23    2    1    2    0    0 -0.29674490965E+03  0.19992069355E+03  0.10867381627E+04  0.11475892151E+04  0.89080566183E+02 0.  0.
          5    1    3    3  502    0  0.86567825198E+02 -0.12551034093E+03  0.22519870113E+03  0.27199037011E+03  0.41800000000E+01 0. -1.
         -5    1    3    3    0  502  0.21017708446E+03 -0.74410352618E+02  0.45424100670E+03  0.50602734311E+03  0.41800000000E+01 0. -1.
        -11    1    4    4    0    0 -0.16213333685E+03  0.12735364466E+03  0.49084619668E+03  0.53238722610E+03  0.00000000000E+00 0. -1.
         11    1    4    4    0    0 -0.13461157281E+03  0.72567048897E+02  0.59589196602E+03  0.61520198902E+03  0.00000000000E+00 0.  1.
</event>
<event>
 8    1  0.6862919E-009  0.9219894E+02  0.7561462E-02  0.1297612E+00
          3   -1    0    0  501    0  0.00000000000E+00  0.00000000000E+00  0.35627097997E+03  0.35627097997E+03  0.00000000000E+00 0. -1.
         -3   -1    0    0    0  501 -0.00000000000E+00 -0.00000000000E+00 -0.32344125987E+02  0.32344125987E+02  0.00000000000E+00 0.  1.
         25    2    1    2    0    0 -0.37012389624E+02  0.78015652489E+01  0.21787105193E+03  0.25405546672E+03  0.12508238683E+03 0.  0.
         23    2    1    2    0    0  0.37012389624E+02 -0.78015652489E+01  0.10605580205E+03  0.13455963923E+03  0.73672803372E+02 0.  0.
          5    1    3    3  502    0 -0.33805095131E+01  0.64281566889E+02  0.11644608333E+03  0.13311915868E+03  0.41800000000E+01 0.  1.
         -5    1    3    3    0  502 -0.33631880111E+02 -0.56480001641E+02  0.10142496861E+03  0.12093630804E+03  0.41800000000E+01 0.  1.
        -11    1    4    4    0    0  0.11930008358E+02  0.15655038154E+02 -0.32830722698E+01  0.19954545410E+02  0.00000000000E+00 0.  1.
         11    1    4    4    0    0  0.25082381267E+02 -0.23456603403E+02  0.10933887432E+03  0.11460509382E+03  0.00000000000E+00 0. -1.
</event>
<event>
 8    1  0.6862919E-009  0.9114141E+02  0.7561462E-02  0.1300111E+00
         -1   -1    0    0    0  501 -0.00000000000E+00  0.00000000000E+00  0.14945125363E+03  0.14945125363E+03  0.00000000000E+00 0.  1.
          1   -1    0    0  501    0  0.00000000000E+00 -0.00000000000E+00 -0.11972640611E+03  0.11972640611E+03  0.00000000000E+00 0. -1.
         25    2    1    2    0    0  0.39451534192E+02 -0.30576724562E+01 -0.50882658364E+02  0.14072099115E+03  0.12509028547E+03 0.  0.
         23    2    1    2    0    0 -0.39451534192E+02  0.30576724562E+01  0.80607505887E+02  0.12845666858E+03  0.91857350209E+02 0.  0.
          5    1    3    3  502    0  0.40553087136E+01  0.48766655314E+02  0.13274182595E+02  0.50875421599E+02  0.41800000000E+01 0. -1.
         -5    1    3    3    0  502  0.35396225478E+02 -0.51824327770E+02 -0.64156840959E+02  0.89845569556E+02  0.41800000000E+01 0. -1.
        -11    1    4    4    0    0 -0.47669072265E+02  0.19803090710E+02  0.64867058534E+01  0.52024803749E+02  0.00000000000E+00 0. -1.
         11    1    4    4    0    0  0.82175380733E+01 -0.16745418254E+02  0.74120800033E+02  0.76431864835E+02  0.00000000000E+00 0.  1.
</event>
<event>
 8    1  0.6862919E-009  0.9628389E+02  0.7561462E-02  0.1288310E+00
          2   -1    0    0  501    0  0.00000000000E+00  0.00000000000E+00  0.44605017541E+03  0.44605017541E+03  0.00000000000E+00 0. -1.
         -2   -1    0    0    0  501 -0.00000000000E+00 -0.00000000000E+00 -0.27365953837E+02  0.27365953837E+02  0.00000000000E+00 0.  1.
         25    2    1    2    0    0  0.17423667922E+01  0.14849972108E+02  0.19821080510E+03  0.23485988523E+03  0.12509230560E+03 0.  0.
         23    2    1    2    0    0 -0.17423667922E+01 -0.14849972108E+02  0.22047341647E+03  0.23855624401E+03  0.89872112878E+02 0.  0.
          5    1    3    3  502    0  0.17293223293E+02  0.57079405067E+02  0.44193067966E+02  0.74347923380E+02  0.41800000000E+01 0. -1.
         -5    1    3    3    0  502 -0.15550856501E+02 -0.42229432960E+02  0.15401773713E+03  0.16051196185E+03  0.41800000000E+01 0. -1.
        -11    1    4    4    0    0  0.36274533288E+02 -0.29587578443E+02  0.84483591638E+02  0.96585422396E+02  0.00000000000E+00 0.  1.
         11    1    4    4    0    0 -0.38016900080E+02  0.14737606336E+02  0.13598982483E+03  0.14197082162E+03  0.00000000000E+00 0. -1.
</event>
<event>
 8    1  0.6862919E-009  0.2170057E+03  0.7561462E-02  0.1136135E+00
          1   -1    0    0  501    0  0.00000000000E+00  0.00000000000E+00  0.91989963748E+03  0.91989963748E+03  0.00000000000E+00 0. -1.
         -1   -1    0    0    0  501 -0.00000000000E+00 -0.00000000000E+00 -0.63901157888E+02  0.63901157888E+02  0.00000000000E+00 0.  1.
         25    2    1    2    0    0 -0.57403386757E+02  0.19554642851E+03  0.59173007451E+03  0.63822139253E+03  0.12509400581E+03 0.  0.
         23    2    1    2    0    0  0.57403386757E+02 -0.19554642851E+03  0.26426840509E+03  0.34557940284E+03  0.89742850570E+02 0.  0.
          5    1    3    3  502    0 -0.82213480688E+01  0.12447477658E+03  0.48509247227E+03  0.50089294227E+03  0.41800000000E+01 0. -1.
         -5    1    3    3    0  502 -0.49182038688E+02  0.71071651931E+02  0.10663760224E+03  0.13732845025E+03  0.41800000000E+01 0. -1.
        -11    1    4    4    0    0 -0.19847252308E+02 -0.88237843787E+02  0.10945456467E+03  0.14198638043E+03  0.00000000000E+00 0.  1.
         11    1    4    4    0    0  0.77250639064E+02 -0.10730858472E+03  0.15481384042E+03  0.20359302241E+03  0.00000000000E+00 0. -1.
</event>
<event>
 8    1  0.6862919E-009  0.9399731E+02  0.7561462E-02  0.1293450E+00
         -2   -1    0    0    0  501 -0.00000000000E+00  0.00000000000E+00  0.67690600807E+02  0.67690600807E+02  0.00000000000E+00 0.  1.
          2   -1    0    0  501    0  0.00000000000E+00 -0.00000000000E+00 -0.20521735108E+03  0.20521735108E+03  0.00000000000E+00 0. -1.
         25    2    1    2    0    0  0.15057750999E+02  0.25833749984E+02 -0.11377462784E+03  0.17171348828E+03  0.12508692023E+03 0.  0.
         23    2    1    2    0    0 -0.15057750999E+02 -0.25833749984E+02 -0.23752122431E+02  0.10119446361E+03  0.93712526601E+02 0.  0.
          5    1    3    3  502    0  0.24995136254E+02  0.65230033763E+02 -0.25559780008E+02  0.74501603306E+02  0.41800000000E+01 0.  1.
         -5    1    3    3    0  502 -0.99373852558E+01 -0.39396283779E+02 -0.88214847833E+02  0.97211884970E+02  0.41800000000E+01 0.  1.
        -11    1    4    4    0    0  0.26957872124E+02  0.15765100230E+01 -0.40176367706E+02  0.48408189135E+02  0.00000000000E+00 0. -1.
         11    1    4    4    0    0 -0.42015623122E+02 -0.27410260007E+02  0.16424245275E+02  0.52786274474E+02  0.00000000000E+00 0.  1.
</event>
<event>
 8    1  0.6862919E-009  0.1178928E+03  0.7561462E-02  0.1246614E+00
          2   -1    0    0  501    0  0.00000000000E+00  0.00000000000E+00  0.17761020127E+03  0.17761020127E+03  0.00000000000E+00 0. -1.
         -2   -1    0    0    0  501 -0.00000000000E+00 -0.00000000000E+00 -0.11229952740E+03  0.11229952740E+03  0.00000000000E+00 0.  1.
         25    2    1    2    0    0 -0.39107352361E+02  0.81158137836E+02  0.43324638629E+02  0.16011214871E+03  0.12507136965E+03 0.  0.
         23    2    1    2    0    0  0.39107352361E+02 -0.81158137836E+02  0.21986035232E+02  0.12979757996E+03  0.90818487506E+02 0.  0.
          5    1    3    3  502    0 -0.53629221532E+02  0.97075643721E+02 -0.62722280612E+00  0.11098486300E+03  0.41800000000E+01 0. -1.
         -5    1    3    3    0  502  0.14521869170E+02 -0.15917505886E+02  0.43951861435E+02  0.49127285712E+02  0.41800000000E+01 0. -1.
        -11    1    4    4    0    0  0.33014934026E+02 -0.14737839266E+02  0.46353784063E+02  0.58786589219E+02  0.00000000000E+00 0. -1.
         11    1    4    4    0    0  0.60924183349E+01 -0.66420298569E+02 -0.24367748830E+02  0.71010990743E+02  0.00000000000E+00 0.  1.
</event>
<event>
 8    1  0.6862919E-009  0.1564828E+03  0.7561462E-02  0.1192726E+00
          2   -1    0    0  501    0  0.00000000000E+00  0.00000000000E+00  0.39529707038E+03  0.39529707038E+03  0.00000000000E+00 0. -1.
         -2   -1    0    0    0  501 -0.00000000000E+00 -0.00000000000E+00 -0.83065582134E+02  0.83065582134E+02  0.00000000000E+00 0.  1.
         25    2    1    2    0    0 -0.20593705786E+02  0.13915031920E+03  0.12041586388E+03  0.22345871838E+03  0.12508759529E+03 0.  0.
         23    2    1    2    0    0  0.20593705786E+02 -0.13915031920E+03  0.19181562437E+03  0.25490393414E+03  0.91628979235E+02 0.  0.
          5    1    3    3  502    0 -0.52206676339E+02  0.68698197586E+02  0.11780258498E+03  0.14608182924E+03  0.41800000000E+01 0.  1.
         -5    1    3    3    0  502  0.31612970553E+02  0.70452121614E+02  0.26132789060E+01  0.77376889145E+02  0.41800000000E+01 0.  1.
        -11    1    4    4    0    0 -0.58979651533E+01 -0.10880692718E+03  0.18404020013E+03  0.21387970605E+03  0.00000000000E+00 0. -1.
         11    1    4    4    0    0  0.26491670939E+02 -0.30343392016E+02  0.77754242402E+01  0.41024228089E+02  0.00000000000E+00 0.  1.
</event>
<event>
 8    1  0.6862919E-009  0.9819886E+02  0.7561462E-02  0.1284130E+00
          1   -1    0    0  501    0  0.00000000000E+00  0.00000000000E+00  0.19782478488E+03  0.19782478488E+03  0.00000000000E+00 0. -1.
         -1   -1    0    0    0  501 -0.00000000000E+00 -0.00000000000E+00 -0.91858276736E+02  0.91858276736E+02  0.00000000000E+00 0.  1.
         25    2    1    2    0    0 -0.64326380510E+02 -0.45163068023E+02  0.76903298891E+02  0.16655433485E+03  0.12509453679E+03 0.  0.
         23    2    1    2    0    0  0.64326380510E+02  0.45163068023E+02  0.29063209256E+02  0.12312872677E+03  0.90213232294E+02 0.  0.
          5    1    3    3  502    0 -0.10152704962E+02 -0.58276154817E+02  0.91269554745E+02  0.10884296790E+03  0.41800000000E+01 0. -1.
         -5    1    3    3    0  502 -0.54173675548E+02  0.13113086794E+02 -0.14366255855E+02  0.57711366948E+02  0.41800000000E+01 0. -1.
        -11    1    4    4    0    0  0.39366177170E+02  0.39166592900E+02  0.60778073854E+02  0.82326740284E+02  0.00000000000E+00 0. -1.
         11    1    4    4    0    0  0.24960203340E+02  0.59964751227E+01 -0.31714864598E+02  0.40801986485E+02  0.00000000000E+00 0.  1.
</event>
<event>
 8    1  0.6862919E-009  0.1650899E+03  0.7561462E-02  0.1183067E+00
         -2   -1    0    0    0  501 -0.00000000000E+00  0.00000000000E+00  0.53811566859E+02  0.53811566859E+02  0.00000000000E+00 0.  1.
          2   -1    0    0  501    0  0.00000000000E+00 -0.00000000000E+00 -0.56910448983E+03  0.56910448983E+03  0.00000000000E+00 0. -1.
         25    2    1    2    0    0  0.13271129480E+03 -0.24754607137E+02 -0.31112721397E+03  0.36148584136E+03  0.12508713719E+03 0.  0.
         23    2    1    2    0    0 -0.13271129480E+03  0.24754607137E+02 -0.20416570900E+03  0.26143021532E+03  0.91853374518E+02 0.  0.
          5    1    3    3  502    0 -0.22177736742E+02 -0.13829873996E+01 -0.73041301970E+02  0.76460897553E+02  0.41800000000E+01 0. -1.
         -5    1    3    3    0  502  0.15488903154E+03 -0.23371619738E+02 -0.23808591200E+03  0.28502494381E+03  0.41800000000E+01 0. -1.
        -11    1    4    4    0    0 -0.10379507073E+03 -0.11574957472E+02 -0.18232248497E+03  0.21011636032E+03  0.00000000000E+00 0. -1.
         11    1    4    4    0    0 -0.28916224073E+02  0.36329564609E+02 -0.21843224027E+02  0.51313855003E+02  0.00000000000E+00 0.  1.
</event>
<event>
 8    1  0.6862919E-009  0.6215824E+02  0.7561462E-02  0.1388991E+00
         -2   -1    0    0    0  501 -0.00000000000E+00  0.00000000000E+00  0.44366449100E+03  0.44366449100E+03  0.00000000000E+00 0.  1.
          2   -1    0    0  501    0  0.00000000000E+00 -0.00000000000E+00 -0.27938741307E+02  0.27938741307E+02  0.00000000000E+00 0. -1.
         25    2    1    2    0    0  0.24360167614E+02  0.13119617784E+02  0.21097834152E+03  0.24682966477E+03  0.12508989041E+03 0.  0.
         23    2    1    2    0    0 -0.24360167614E+02 -0.13119617784E+02  0.20474740817E+03  0.22477356753E+03  0.88521824277E+02 0.  0.
          5    1    3    3  502    0  0.14707111738E+02  0.14388405904E+02 -0.11608539327E+02  0.23990747080E+02  0.41800000000E+01 0.  1.
         -5    1    3    3    0  502  0.96530558759E+01 -0.12687881200E+01  0.22258688085E+03  0.22283891769E+03  0.41800000000E+01 0.  1.
        -11    1    4    4    0    0 -0.56030629111E+02 -0.21420553144E+02  0.13025148889E+03  0.14340056434E+03  0.00000000000E+00 0.  1.
         11    1    4    4    0    0  0.31670461498E+02  0.83009353599E+01  0.74495919279E+02  0.81373003193E+02  0.00000000000E+00 0. -1.
</event>
<event>
 8    1  0.6862919E-009  0.1830893E+03  0.7561462E-02  0.1164846E+00
          1   -1    0    0  501    0  0.00000000000E+00  0.00000000000E+00  0.38124549588E+03  0.38124549588E+03  0.00000000000E+00 0. -1.
         -1   -1    0    0    0  501 -0.00000000000E+00 -0.00000000000E+00 -0.93471741697E+02  0.93471741697E+02  0.00000000000E+00 0.  1.
         25    2    1    2    0    0  0.67542860249E+02 -0.13540688616E+03  0.11364474082E+03  0.22684591440E+03  0.12508748527E+03 0.  0.
         23    2    1    2    0    0 -0.67542860249E+02  0.13540688616E+03  0.17412901336E+03  0.24787132318E+03  0.90676440001E+02 0.  0.
          5    1    3    3  502    0 -0.25603309430E+02 -0.83500174517E+02  0.34552393263E+02  0.94016747861E+02  0.41800000000E+01 0.  1.
         -5    1    3    3    0  502  0.93146169679E+02 -0.51906711645E+02  0.79092347562E+02  0.13282916654E+03  0.41800000000E+01 0.  1.
        -11    1    4    4    0    0  0.17899174141E+02  0.40768189102E+02  0.22908286807E+02  0.50072100835E+02  0.00000000000E+00 0.  1.
         11    1    4    4    0    0 -0.85442034390E+02  0.94638697059E+02  0.15122072655E+03  0.19779922234E+03  0.00000000000E+00 0. -1.
</event>
<event>
 8    1  0.6862919E-009  0.1403713E+03  0.7561462E-02  0.1212830E+00
         -2   -1    0    0    0  501 -0.00000000000E+00  0.00000000000E+00  0.57691108491E+02  0.57691108491E+02  0.00000000000E+00 0. -1.
          2   -1    0    0  501    0  0.00000000000E+00 -0.00000000000E+00 -0.36510666861E+03  0.36510666861E+03  0.00000000000E+00 0.  1.
         25    2    1    2    0    0 -0.94361941002E+02  0.12432395189E+02 -0.14701491424E+03  0.21522143520E+03  0.12509252896E+03 0.  0.
         23    2    1    2    0    0  0.94361941002E+02 -0.12432395189E+02 -0.16040064588E+03  0.20757634190E+03  0.91108891761E+02 0.  0.
          5    1    3    3  502    0  0.22960894794E+02 -0.15934274374E+02 -0.48367044857E+01  0.28670017437E+02  0.41800000000E+01 0. -1.
         -5    1    3    3    0  502 -0.11732283580E+03  0.28366669563E+02 -0.14217820975E+03  0.18655141776E+03  0.41800000000E+01 0. -1.
        -11    1    4    4    0    0  0.60662121662E+02 -0.51882816819E+02 -0.99939466470E+02  0.12790471705E+03  0.00000000000E+00 0. -1.
         11    1    4    4    0    0  0.33699819340E+02  0.39450421630E+02 -0.60461179412E+02  0.79671624850E+02  0.00000000000E+00 0.  1.
</event>
<event>
 8    1  0.6862919E-009  0.1437293E+03  0.7561462E-02  0.1208397E+00
         -1   -1    0    0    0  501 -0.00000000000E+00  0.00000000000E+00  0.32551102343E+03  0.32551102343E+03  0.00000000000E+00 0.  1.
          1   -1    0    0  501    0  0.00000000000E+00 -0.00000000000E+00 -0.65146454959E+02  0.65146454959E+02  0.00000000000E+00 0. -1.
         25    2    1    2    0    0 -0.25607454796E+02  0.85125351484E+02  0.11553207320E+03  0.19208980709E+03  0.12509503126E+03 0.  0.
         23    2    1    2    0    0  0.25607454796E+02 -0.85125351484E+02  0.14483249527E+03  0.19856767129E+03  0.10271611943E+03 0.  0.
          5    1    3    3  502    0 -0.16585350087E+02  0.11705854049E+03  0.77416709324E+02  0.14138102780E+03  0.41800000000E+01 0.  1.
         -5    1    3    3    0  502 -0.90221047091E+01 -0.31933189010E+02  0.38115363877E+02  0.50708779291E+02  0.41800000000E+01 0.  1.
        -11    1    4    4    0    0  0.10669115659E+02 -0.10792659970E+03  0.11912699168E+03  0.16110003444E+03  0.00000000000E+00 0.  1.
         11    1    4    4    0    0  0.14938339137E+02  0.22801248214E+02  0.25705503594E+02  0.37467636853E+02  0.00000000000E+00 0. -1.
</event>
<event>
 8    1  0.6862919E-009  0.8428121E+02  0.7561462E-02  0.1317323E+00
          2   -1    0    0  501    0  0.00000000000E+00  0.00000000000E+00  0.53086472819E+03  0.53086472819E+03  0.00000000000E+00 0. -1.
         -2   -1    0    0    0  501 -0.00000000000E+00 -0.00000000000E+00 -0.30342207748E+02  0.30342207748E+02  0.00000000000E+00 0.  1.
         25    2    1    2    0    0  0.50020990009E+02  0.68369566523E+01  0.37229651050E+03  0.39598850505E+03  0.12511339252E+03 0.  0.
         23    2    1    2    0    0 -0.50020990009E+02 -0.68369566523E+01  0.12822600995E+03  0.16521843089E+03  0.91139326641E+02 0.  0.
          5    1    3    3  502    0  0.66596960414E+01 -0.18344532757E+02  0.32900919845E+03  0.32961401441E+03  0.41800000000E+01 0.  1.
         -5    1    3    3    0  502  0.43361293968E+02  0.25181489409E+02  0.43287312051E+02  0.66374490642E+02  0.41800000000E+01 0.  1.
        -11    1    4    4    0    0 -0.37030486055E+02  0.37131003565E+02  0.40587666124E+02  0.66312343984E+02  0.00000000000E+00 0.  1.
         11    1    4    4    0    0 -0.12990503953E+02 -0.43967960218E+02  0.87638343823E+02  0.98906086905E+02  0.00000000000E+00 0. -1.
</event>
<event>
 8    1  0.6862919E-009  0.1103743E+03  0.7561462E-02  0.1259878E+00
          2   -1    0    0  501    0  0.00000000000E+00  0.00000000000E+00  0.97254890702E+03  0.97254890702E+03  0.00000000000E+00 0.  1.
         -2   -1    0    0    0  501 -0.00000000000E+00 -0.00000000000E+00 -0.22878228634E+02  0.22878228634E+02  0.00000000000E+00 0. -1.
         25    2    1    2    0    0 -0.16510651979E+02  0.71665804548E+02  0.73401077296E+03  0.74821638776E+03  0.12508940371E+03 0.  0.
         23    2    1    2    0    0  0.16510651979E+02 -0.71665804548E+02  0.21565990543E+03  0.24721074789E+03  0.95892491343E+02 0.  0.
          5    1    3    3  502    0 -0.52323299145E+02  0.83792148646E+02  0.62468303338E+03  0.63245965595E+03  0.41800000000E+01 0. -1.
         -5    1    3    3    0  502  0.35812647166E+02 -0.12126344098E+02  0.10932773958E+03  0.11575673182E+03  0.41800000000E+01 0. -1.
        -11    1    4    4    0    0  0.29972407787E+02 -0.51498695109E+02  0.21483960591E+03  0.22294958420E+03  0.00000000000E+00 0.  1.
         11    1    4    4    0    0 -0.13461755808E+02 -0.20167109439E+02  0.82029951462E+00  0.24261163695E+02  0.00000000000E+00 0. -1.
</event>
<event>
 8    1  0.6862919E-009  0.1088476E+03  0.7561462E-02  0.1262719E+00
          1   -1    0    0  501    0  0.00000000000E+00  0.00000000000E+00  0.58075377056E+03  0.58075377056E+03  0.00000000000E+00 0. -1.
         -1   -1    0    0    0  501 -0.00000000000E+00 -0.00000000000E+00 -0.26766996266E+02  0.26766996266E+02  0.00000000000E+00 0.  1.
         25    2    1    2    0    0 -0.16055533957E+02 -0.30392174951E+02  0.18676819334E+03  0.22738746522E+03  0.12506493043E+03 0.  0.
         23    2    1    2    0    0  0.16055533957E+02  0.30392174951E+02  0.36721858095E+03  0.38013330161E+03  0.92034647432E+02 0.  0.
          5    1    3    3  502    0 -0.39985182764E+02  0.36930337798E+02  0.55335613177E+02  0.77731378324E+02  0.41800000000E+01 0. -1.
         -5    1    3    3    0  502  0.23929648807E+02 -0.67322512749E+02  0.13143258017E+03  0.14965608689E+03  0.41800000000E+01 0. -1.
        -11    1    4    4    0    0 -0.23546193567E+02  0.43796455861E+02  0.26620741554E+03  0.27081163355E+03  0.00000000000E+00 0.  1.
         11    1    4    4    0    0  0.39601727525E+02 -0.13404280910E+02  0.10101116541E+03  0.10932166806E+03  0.00000000000E+00 0. -1.
</event>
<event>
 8    1  0.6862919E-009  0.9362614E+02  0.7561462E-02  0.1294301E+00
         -2   -1    0    0    0  501 -0.00000000000E+00  0.00000000000E+00  0.94160131625E+02  0.94160131625E+02  0.00000000000E+00 0.  1.
          2   -1    0    0  501    0  0.00000000000E+00 -0.00000000000E+00 -0.20438799253E+03  0.20438799253E+03  0.00000000000E+00 0. -1.
         25    2    1    2    0    0  0.21221271037E+02 -0.58334643516E+02  0.42208782379E+01  0.13971133350E+03  0.12509263734E+03 0.  0.
         23    2    1    2    0    0 -0.21221271037E+02  0.58334643516E+02 -0.11444873914E+03  0.15883679066E+03  0.90979883472E+02 0.  0.
          5    1    3    3  502    0 -0.53969663871E+01  0.92363728248E+01 -0.48518825264E+02  0.49859669414E+02  0.41800000000E+01 0. -1.
         -5    1    3    3    0  502  0.26618237424E+02 -0.67571016341E+02  0.52739703501E+02  0.89851664082E+02  0.41800000000E+01 0. -1.
        -11    1    4    4    0    0  0.27670312925E+02  0.10228666647E+01 -0.59391967110E+02  0.65529369223E+02  0.00000000000E+00 0. -1.
         11    1    4    4    0    0 -0.48891583962E+02  0.57311776851E+02 -0.55056772031E+02  0.93307421434E+02  0.00000000000E+00 0.  1.
</event>
<event>
 8    1  0.6862919E-009  0.2400364E+03  0.7561462E-02  0.1119769E+00
         -2   -1    0    0    0  501 -0.00000000000E+00  0.00000000000E+00  0.87537184161E+02  0.87537184161E+02  0.00000000000E+00 0.  1.
          2   -1    0    0  501    0  0.00000000000E+00 -0.00000000000E+00 -0.92693509427E+03  0.92693509427E+03  0.00000000000E+00 0. -1.
         25    2    1    2    0    0  0.58328284963E+02 -0.22590681428E+03 -0.21333235853E+03  0.33999096632E+03  0.12508830647E+03 0.  0.
         23    2    1    2    0    0 -0.58328284963E+02  0.22590681428E+03 -0.62606555158E+03  0.67448131211E+03  0.92362806115E+02 0.  0.
          5    1    3    3  502    0  0.44569625368E+02 -0.16942718946E+03 -0.22007284064E+03  0.28132108279E+03  0.41800000000E+01 0.  1.
         -5    1    3    3    0  502  0.13758659595E+02 -0.56479624823E+02  0.67404821140E+01  0.58669883527E+02  0.41800000000E+01 0.  1.
        -11    1    4    4    0    0  0.64416064012E+01  0.13377203309E+03 -0.40166821458E+03  0.42340737562E+03  0.00000000000E+00 0. -1.
         11    1    4    4    0    0 -0.64769891364E+02  0.92134781189E+02 -0.22439733700E+03  0.25107393649E+03  0.00000000000E+00 0.  1.
</event>
<event>
 8    1  0.6862919E-009  0.1878715E+03  0.7561462E-02  0.1160395E+00
          2   -1    0    0  501    0  0.00000000000E+00  0.00000000000E+00  0.23116714716E+03  0.23116714716E+03  0.00000000000E+00 0. -1.
         -2   -1    0    0    0  501 -0.00000000000E+00 -0.00000000000E+00 -0.17070748130E+03  0.17070748130E+03  0.00000000000E+00 0.  1.
         25    2    1    2    0    0  0.47771235997E+02 -0.14862428140E+03  0.87596256021E+02  0.21839721907E+03  0.12511184283E+03 0.  0.
         23    2    1    2    0    0 -0.47771235997E+02  0.14862428140E+03 -0.27136590160E+02  0.18347740939E+03  0.92500255237E+02 0.  0.
          5    1    3    3  502    0  0.65631651769E+02 -0.26540829698E+02  0.57571356306E+02  0.91344747095E+02  0.41800000000E+01 0. -1.
         -5    1    3    3    0  502 -0.17860415772E+02 -0.12208345170E+03  0.30024899715E+02  0.12705247197E+03  0.41800000000E+01 0. -1.
        -11    1    4    4    0    0 -0.75653806039E+02  0.11552952556E+03 -0.18211019706E+02  0.13929181915E+03  0.00000000000E+00 0.  1.
         11    1    4    4    0    0  0.27882570042E+02  0.33094755838E+02 -0.89255704544E+01  0.44185590231E+02  0.00000000000E+00 0. -1.
</event>
<event>
 8    1  0.6862919E-009  0.1744550E+03  0.7561462E-02  0.1173280E+00
          3   -1    0    0  501    0  0.00000000000E+00  0.00000000000E+00  0.55506044386E+03  0.55506044386E+03  0.00000000000E+00 0. -1.
         -3   -1    0    0    0  501 -0.00000000000E+00 -0.00000000000E+00 -0.63590028795E+02  0.63590028795E+02  0.00000000000E+00 0.  1.
         25    2    1    2    0    0 -0.27195844105E+02 -0.14930158307E+03  0.22040470163E+03  0.29539347312E+03  0.12509394395E+03 0.  0.
         23    2    1    2    0    0  0.27195844105E+02  0.14930158307E+03  0.27106571343E+03  0.32325699954E+03  0.89374997098E+02 0.  0.
          5    1    3    3  502    0  0.40853278678E+02 -0.11100314724E+03  0.13765406945E+03  0.18154009010E+03  0.41800000000E+01 0. -1.
         -5    1    3    3    0  502 -0.68049122783E+02 -0.38298435835E+02  0.82750632185E+02  0.11385338302E+03  0.41800000000E+01 0. -1.
        -11    1    4    4    0    0  0.23362168439E+02  0.91775819389E+02  0.80929087041E+02  0.12457170252E+03  0.00000000000E+00 0.  1.
         11    1    4    4    0    0  0.38336756662E+01  0.57525763685E+02  0.19013662639E+03  0.19868529702E+03  0.00000000000E+00 0. -1.
</event>
<event>
 8    1  0.6862919E-009  0.1605535E+03  0.7561462E-02  0.1188073E+00
         -1   -1    0    0    0  501 -0.00000000000E+00  0.00000000000E+00  0.20462693588E+03  0.20462693588E+03  0.00000000000E+00 0.  1.
          1   -1    0    0  501    0  0.00000000000E+00 -0.00000000000E+00 -0.15782870526E+03  0.15782870526E+03  0.00000000000E+00 0. -1.
         25    2    1    2    0    0 -0.12726439043E+03 -0.64714917856E+02  0.34973224435E+02  0.19301384015E+03  0.12508785071E+03 0.  0.
         23    2    1    2    0    0  0.12726439043E+03  0.64714917856E+02  0.11825006189E+02  0.16944180099E+03  0.90478989203E+02 0.  0.
          5    1    3    3  502    0 -0.34143237942E+02 -0.70811526792E+02  0.56809460796E+02  0.97081513480E+02  0.41800000000E+01 0. -1.
         -5    1    3    3    0  502 -0.93121152488E+02  0.60966089357E+01 -0.21836236361E+02  0.95932326666E+02  0.41800000000E+01 0. -1.
        -11    1    4    4    0    0  0.37288709194E+02  0.42011083292E+02 -0.34297549621E+02  0.65815658188E+02  0.00000000000E+00 0. -1.
         11    1    4    4    0    0  0.89975681236E+02  0.22703834564E+02  0.46122555810E+02  0.10362614280E+03  0.00000000000E+00 0.  1.
</event>
<event>
 8    1  0.6862919E-009  0.1502282E+03  0.7561462E-02  0.1200193E+00
         -1   -1    0    0    0  501 -0.00000000000E+00  0.00000000000E+00  0.48786341580E+02  0.48786341580E+02  0.00000000000E+00 0.  1.
          1   -1    0    0  501    0  0.00000000000E+00 -0.00000000000E+00 -0.47407143159E+03  0.47407143159E+03  0.00000000000E+00 0. -1.
         25    2    1    2    0    0 -0.15341178086E+02  0.10348266494E+03 -0.25422284019E+03  0.30202830288E+03  0.12509128497E+03 0.  0.
         23    2    1    2    0    0  0.15341178086E+02 -0.10348266494E+03 -0.17106224981E+03  0.22082947029E+03  0.92516744142E+02 0.  0.
          5    1    3    3  502    0  0.50372309281E+02  0.76024105238E+02 -0.15355392729E+03  0.17864298225E+03  0.41800000000E+01 0.  1.
         -5    1    3    3    0  502 -0.65713487367E+02  0.27458559705E+02 -0.10066891290E+03  0.12338532063E+03  0.41800000000E+01 0.  1.
        -11    1    4    4    0    0 -0.34721466218E+02 -0.18898194943E+02 -0.33838321743E+02  0.52036083700E+02  0.00000000000E+00 0.  1.
         11    1    4    4    0    0  0.50062644304E+02 -0.84584470000E+02 -0.13722392807E+03  0.16879338659E+03  0.00000000000E+00 0. -1.
</event>
<event>
 8    1  0.6862919E-009  0.1128967E+03  0.7561462E-02  0.1255298E+00
          2   -1    0    0  501    0  0.00000000000E+00  0.00000000000E+00  0.16408560666E+03  0.16408560666E+03  0.00000000000E+00 0. -1.
         -2   -1    0    0    0  501 -0.00000000000E+00 -0.00000000000E+00 -0.10553370361E+03  0.10553370361E+03  0.00000000000E+00 0.  1.
         25    2    1    2    0    0  0.52121101117E+02  0.44301222399E+02  0.21178306577E+01  0.14259078243E+03  0.12509371903E+03 0.  0.
         23    2    1    2    0    0 -0.52121101117E+02 -0.44301222399E+02  0.56434072393E+02  0.12702852785E+03  0.90951827205E+02 0.  0.
          5    1    3    3  502    0  0.79635400291E+02  0.51209953701E+02 -0.30122201660E+02  0.99443832239E+02  0.41800000000E+01 0. -1.
         -5    1    3    3    0  502 -0.27514299173E+02 -0.69087313018E+01  0.32240032318E+02  0.43146950194E+02  0.41800000000E+01 0. -1.
        -11    1    4    4    0    0  0.11788424745E+02  0.12256143969E+02 -0.92300327500E+01  0.19348734520E+02  0.00000000000E+00 0.  1.
         11    1    4    4    0    0 -0.63909525862E+02 -0.56557366368E+02  0.65664105143E+02  0.10767979333E+03  0.00000000000E+00 0. -1.
</event>
<event>
 8    1  0.6862919E-009  0.1294695E+03  0.7561462E-02  0.1228245E+00
         -1   -1    0    0    0  501 -0.00000000000E+00  0.00000000000E+00  0.20124456672E+03  0.20124456672E+03  0.00000000000E+00 0.  1.
          1   -1    0    0  501    0  0.00000000000E+00 -0.00000000000E+00 -0.10463378349E+03  0.10463378349E+03  0.00000000000E+00 0. -1.
         25    2    1    2    0    0  0.83743036380E+02 -0.19284115366E+02  0.24976697621E+02  0.15381079340E+03  0.12509656868E+03 0.  0.
         23    2    1    2    0    0 -0.83743036380E+02  0.19284115366E+02  0.71634085613E+02  0.15206755681E+03  0.10299672988E+03 0.  0.
          5    1    3    3  502    0  0.93521390959E+02  0.18821687554E+02 -0.16037665979E+02  0.96825542184E+02  0.41800000000E+01 0.  1.
         -5    1    3    3    0  502 -0.97783545783E+01 -0.38105802921E+02  0.41014363600E+02  0.56985251215E+02  0.41800000000E+01 0.  1.
        -11    1    4    4    0    0  0.19019341764E+01 -0.26640372182E+02  0.43240198387E+02  0.50823631710E+02  0.00000000000E+00 0.  1.
         11    1    4    4    0    0 -0.85644970557E+02  0.45924487548E+02  0.28393887226E+02  0.10124392510E+03  0.00000000000E+00 0. -1.
</event>
<event>
 8    1  0.6862919E-009  0.1187129E+03  0.7561462E-02  0.1245236E+00
         -2   -1    0    0    0  501 -0.00000000000E+00  0.00000000000E+00  0.86976201272E+02  0.86976201272E+02  0.00000000000E+00 0.  1.
          2   -1    0    0  501    0  0.00000000000E+00 -0.00000000000E+00 -0.24904025956E+03  0.24904025956E+03  0.00000000000E+00 0. -1.
         25    2    1    2    0    0 -0.43251650662E+02 -0.80033896680E+02 -0.13082783908E+03  0.20258358051E+03  0.12509218085E+03 0.  0.
         23    2    1    2    0    0  0.43251650662E+02  0.80033896680E+02 -0.31236219208E+02  0.13343288033E+03  0.92479739724E+02 0.  0.
          5    1    3    3  502    0  0.10970332328E+02 -0.37834427641E+02  0.14173270939E+02  0.42073104419E+02  0.41800000000E+01 0. -1.
         -5    1    3    3    0  502 -0.54221982990E+02 -0.42199469039E+02 -0.14500111002E+03  0.16051047609E+03  0.41800000000E+01 0. -1.
        -11    1    4    4    0    0  0.68064496781E+02  0.32652909001E+02 -0.25305909132E+02  0.79620206137E+02  0.00000000000E+00 0.  1.
         11    1    4    4    0    0 -0.24812846119E+02  0.47380987679E+02 -0.59303100766E+01  0.53812674191E+02  0.00000000000E+00 0. -1.
</event>
<event>
 8    1  0.6862919E-009  0.2142297E+03  0.7561462E-02  0.1138260E+00
          1   -1    0    0  501    0  0.00000000000E+00  0.00000000000E+00  0.21390655966E+03  0.21390655966E+03  0.00000000000E+00 0. -1.
         -1   -1    0    0    0  501 -0.00000000000E+00 -0.00000000000E+00 -0.26167938699E+03  0.26167938699E+03  0.00000000000E+00 0.  1.
         25    2    1    2    0    0 -0.19176670041E+03 -0.55070758093E+02 -0.89582052316E+02  0.25195376996E+03  0.12509397394E+03 0.  0.
         23    2    1    2    0    0  0.19176670041E+03  0.55070758093E+02  0.41809224986E+02  0.22363217669E+03  0.91956964789E+02 0.  0.
          5    1    3    3  502    0 -0.65983693572E+02 -0.76642217918E+02 -0.69289197143E+02  0.12266353421E+03  0.41800000000E+01 0. -1.
         -5    1    3    3    0  502 -0.12578300684E+03  0.21571459825E+02 -0.20292855173E+02  0.12929023575E+03  0.41800000000E+01 0. -1.
        -11    1    4    4    0    0  0.85040006052E+02  0.22499462689E+02  0.65357340367E+02  0.10958836795E+03  0.00000000000E+00 0. -1.
         11    1    4    4    0    0  0.10672669436E+03  0.32571295404E+02 -0.23548115381E+02  0.11404380874E+03  0.00000000000E+00 0.  1.
</event>
<event>
 8    1  0.6862919E-009  0.9887883E+02  0.7561462E-02  0.1282671E+00
         -4   -1    0    0    0  501 -0.00000000000E+00  0.00000000000E+00  0.29996536490E+03  0.29996536490E+03  0.00000000000E+00 0.  1.
          4   -1    0    0  501    0  0.00000000000E+00 -0.00000000000E+00 -0.46492800035E+02  0.46492800035E+02  0.00000000000E+00 0. -1.
         25    2    1    2    0    0 -0.46252250533E+02 -0.95428985997E+01  0.14813702718E+03  0.19956101071E+03  0.12509868336E+03 0.  0.
         23    2    1    2    0    0  0.46252250533E+02  0.95428985997E+01  0.10533553768E+03  0.14689715423E+03  0.90845257599E+02 0.  0.
          5    1    3    3  502    0 -0.76312507532E+02 -0.43499067047E+02  0.10311855554E+03  0.13552371208E+03  0.41800000000E+01 0.  1.
         -5    1    3    3    0  502  0.30060256998E+02  0.33956168447E+02  0.45018471649E+02  0.64037298631E+02  0.41800000000E+01 0.  1.
        -11    1    4    4    0    0  0.37121566468E+02 -0.13492349958E+02  0.11399892811E+03  0.12064746087E+03  0.00000000000E+00 0.  1.
         11    1    4    4    0    0  0.91306840649E+01  0.23035248558E+02 -0.86633904270E+01  0.26249693356E+02  0.00000000000E+00 0. -1.
</event>
<event>
 8    1  0.6862919E-009  0.1450945E+03  0.7561462E-02  0.1206634E+00
          1   -1    0    0  501    0  0.00000000000E+00  0.00000000000E+00  0.82249922585E+02  0.82249922585E+02  0.00000000000E+00 0. -1.
         -1   -1    0    0    0  501 -0.00000000000E+00 -0.00000000000E+00 -0.31413194089E+03  0.31413194089E+03  0.00000000000E+00 0.  1.
         25    2    1    2    0    0  0.10865986021E+03  0.20430453167E+02 -0.17834492194E+03  0.24429303109E+03  0.12509118762E+03 0.  0.
         23    2    1    2    0    0 -0.10865986021E+03 -0.20430453167E+02 -0.53537096363E+02  0.15208883239E+03  0.89668409226E+02 0.  0.
          5    1    3    3  502    0  0.13465920623E+03  0.52663424913E+01 -0.13067265629E+03  0.18775955818E+03  0.41800000000E+01 0.  1.
         -5    1    3    3    0  502 -0.25999346028E+02  0.15164110676E+02 -0.47672265653E+02  0.56533472907E+02  0.41800000000E+01 0.  1.
        -11    1    4    4    0    0 -0.22310624293E+02 -0.30771515260E+02  0.15504149627E+02  0.41049101858E+02  0.00000000000E+00 0. -1.
         11    1    4    4    0    0 -0.86349235914E+02  0.10341062093E+02 -0.69041245990E+02  0.11103973053E+03  0.00000000000E+00 0.  1.
</event>
<event>
 8    1  0.6862919E-009  0.2590085E+03  0.7561462E-02  0.1107740E+00
         -2   -1    0    0    0  501 -0.00000000000E+00  0.00000000000E+00  0.18709239018E+02  0.18709239018E+02  0.00000000000E+00 0.  1.
          2   -1    0    0  501    0  0.00000000000E+00 -0.00000000000E+00 -0.43168738537E+04  0.43168738537E+04  0.00000000000E+00 0. -1.
         25    2    1    2    0    0  0.13269246926E+03  0.19497707937E+03 -0.30883874452E+04  0.30999046513E+04  0.12509389501E+03 0.  0.
         23    2    1    2    0    0 -0.13269246926E+03 -0.19497707937E+03 -0.12097771694E+04  0.12356784414E+04  0.87846786607E+02 0.  0.
          5    1    3    3  502    0  0.11490890983E+03  0.59100903081E+02 -0.16015796585E+04  0.16067892983E+04  0.41800000000E+01 0. -1.
         -5    1    3    3    0  502  0.17783559431E+02  0.13587617629E+03 -0.14868077867E+04  0.14931153530E+04  0.41800000000E+01 0. -1.
        -11    1    4    4    0    0 -0.15764399739E+02 -0.99318560852E+02 -0.47253201250E+03  0.48311406072E+03  0.00000000000E+00 0.  1.
         11    1    4    4    0    0 -0.11692806952E+03 -0.95658518522E+02 -0.73724515691E+03  0.75256438064E+03  0.00000000000E+00 0. -1.
</event>
<event>
 8    1  0.6862919E-009  0.8472167E+02  0.7561462E-02  0.1316162E+00
          2   -1    0    0  501    0  0.00000000000E+00  0.00000000000E+00  0.24930006938E+04  0.24930006938E+04  0.00000000000E+00 0. -1.
         -2   -1    0    0    0  501 -0.00000000000E+00 -0.00000000000E+00 -0.74565820522E+01  0.74565820522E+01  0.00000000000E+00 0.  1.
         25    2    1    2    0    0 -0.91724306278E+01  0.41134761840E+02  0.20062644923E+04  0.20106018057E+04  0.12508479480E+03 0.  0.
         23    2    1    2    0    0  0.91724306278E+01 -0.41134761840E+02  0.47927961941E+03  0.48985547012E+03  0.92050127148E+02 0.  0.
          5    1    3    3  502    0  0.15214012440E+02 -0.52386041193E+01  0.16837737721E+04  0.16838558421E+04  0.41800000000E+01 0.  1.
         -5    1    3    3    0  502 -0.24386443068E+02  0.46373365959E+02  0.32249072027E+03  0.32674596361E+03  0.41800000000E+01 0.  1.
        -11    1    4    4    0    0  0.49751920692E+02 -0.14896009113E+02  0.28211016082E+03  0.28685063628E+03  0.00000000000E+00 0.  1.
         11    1    4    4    0    0 -0.40579490064E+02 -0.26238752726E+02  0.19716945860E+03  0.20300483384E+03  0.00000000000E+00 0. -1.
</event>
<event>
 8    1  0.6862919E-009  0.1592512E+03  0.7561462E-02  0.1189545E+00
         -1   -1    0    0    0  501 -0.00000000000E+00  0.00000000000E+00  0.16858844769E+03  0.16858844769E+03  0.00000000000E+00 0.  1.
          1   -1    0    0  501    0  0.00000000000E+00 -0.00000000000E+00 -0.18477790054E+03  0.18477790054E+03  0.00000000000E+00 0. -1.
         25    2    1    2    0    0 -0.10374706119E+03 -0.76036846498E+02  0.45835397994E+02  0.18518580738E+03  0.12509134589E+03 0.  0.
         23    2    1    2    0    0  0.10374706119E+03  0.76036846498E+02 -0.62024850835E+02  0.16818054085E+03  0.88840066800E+02 0.  0.
          5    1    3    3  502    0 -0.12606265902E+03 -0.40959598315E+02  0.15430352207E+02  0.13351048971E+03  0.41800000000E+01 0.  1.
         -5    1    3    3    0  502  0.22315597836E+02 -0.35077248183E+02  0.30405045787E+02  0.51675317669E+02  0.41800000000E+01 0.  1.
        -11    1    4    4    0    0  0.99975829829E+02  0.39698167192E+02 -0.14966482573E+02  0.10860527901E+03  0.00000000000E+00 0.  1.
         11    1    4    4    0    0  0.37712313573E+01  0.36338679306E+02 -0.47058368261E+02  0.59575261838E+02  0.00000000000E+00 0. -1.
</event>
<event>
 8    1  0.6862919E-009  0.2810026E+03  0.7561462E-02  0.1095143E+00
          2   -1    0    0  501    0  0.00000000000E+00  0.00000000000E+00  0.88485925092E+02  0.88485925092E+02  0.00000000000E+00 0. -1.
         -2   -1    0    0    0  501 -0.00000000000E+00 -0.00000000000E+00 -0.10378432845E+04  0.10378432845E+04  0.00000000000E+00 0.  1.
         25    2    1    2    0    0 -0.12021849725E+03  0.24263243072E+03 -0.63157029078E+03  0.69846356629E+03  0.12508931899E+03 0.  0.
         23    2    1    2    0    0  0.12021849725E+03 -0.24263243072E+03 -0.31778706860E+03  0.42786564328E+03  0.93581003458E+02 0.  0.
          5    1    3    3  502    0 -0.13950442999E+03  0.21862971473E+03 -0.50000636821E+03  0.56327992934E+03  0.41800000000E+01 0. -1.
         -5    1    3    3    0  502  0.19285932749E+02  0.24002715993E+02 -0.13156392257E+03  0.13518363695E+03  0.41800000000E+01 0. -1.
        -11    1    4    4    0    0  0.25981939362E+02 -0.73226206767E+02 -0.35497227355E+02  0.85423601425E+02  0.00000000000E+00 0.  1.
         11    1    4    4    0    0  0.94236557883E+02 -0.16940622395E+03 -0.28228984125E+03  0.34244204185E+03  0.00000000000E+00 0. -1.
</event>
<event>
 8    1  0.6862919E-009  0.1629289E+03  0.7561462E-02  0.1185429E+00
          1   -1    0    0  501    0  0.00000000000E+00  0.00000000000E+00  0.46874648662E+02  0.46874648662E+02  0.00000000000E+00 0. -1.
         -1   -1    0    0    0  501 -0.00000000000E+00 -0.00000000000E+00 -0.74604314773E+03  0.74604314773E+03  0.00000000000E+00 0.  1.
         25    2    1    2    0    0 -0.94610267383E+02  0.98565274348E+02 -0.51409923822E+03  0.54645411775E+03  0.12509140683E+03 0.  0.
         23    2    1    2    0    0  0.94610267383E+02 -0.98565274348E+02 -0.18506926084E+03  0.24646367864E+03  0.88473146087E+02 0.  0.
          5    1    3    3  502    0  0.19398384641E+02  0.60365313725E+02 -0.21062823240E+03  0.22000452975E+03  0.41800000000E+01 0. -1.
         -5    1    3    3    0  502 -0.11400865202E+03  0.38199960623E+02 -0.30347100583E+03  0.32644958800E+03  0.41800000000E+01 0. -1.
        -11    1    4    4    0    0  0.24515063303E+02 -0.48760390953E+01  0.27838930440E+01  0.25149833926E+02  0.00000000000E+00 0. -1.
         11    1    4    4    0    0  0.70095204080E+02 -0.93689235253E+02 -0.18785315389E+03  0.22131384471E+03  0.00000000000E+00 0.  1.
</event>
<event>
 8    1  0.6862919E-009  0.3368955E+03  0.7561462E-02  0.1068126E+00
          1   -1    0    0  501    0  0.00000000000E+00  0.00000000000E+00  0.87629613600E+03  0.87629613600E+03  0.00000000000E+00 0. -1.
         -1   -1    0    0    0  501 -0.00000000000E+00 -0.00000000000E+00 -0.17989857316E+03  0.17989857316E+03  0.00000000000E+00 0.  1.
         25    2    1    2    0    0  0.32469685491E+03  0.12197597174E+02  0.61873169979E+03  0.70996707884E+03  0.12508999860E+03 0.  0.
         23    2    1    2    0    0 -0.32469685491E+03 -0.12197597174E+02  0.77665863053E+02  0.34622763031E+03  0.90910707518E+02 0.  0.
          5    1    3    3  502    0  0.54781135025E+02  0.51256674349E+02  0.14554159544E+03  0.16379269771E+03  0.41800000000E+01 0. -1.
         -5    1    3    3    0  502  0.26991571989E+03 -0.39059077175E+02  0.47319010435E+03  0.54617438113E+03  0.41800000000E+01 0. -1.
        -11    1    4    4    0    0 -0.50946835017E+02 -0.11098972115E+02  0.48002116169E+02  0.70872916809E+02  0.00000000000E+00 0. -1.
         11    1    4    4    0    0 -0.27375001990E+03 -0.10986250586E+01  0.29663746884E+02  0.27535471351E+03  0.00000000000E+00 0.  1.
</event>
<event>
 8    1  0.6862919E-009  0.6740654E+02  0.7561462E-02  0.1369141E+00
          1   -1    0    0  501    0  0.00000000000E+00  0.00000000000E+00  0.15530099504E+03  0.15530099504E+03  0.00000000000E+00 0. -1.
         -1   -1    0    0    0  501 -0.00000000000E+00 -0.00000000000E+00 -0.80437011014E+02  0.80437011014E+02  0.00000000000E+00 0.  1.
         25    2    1    2    0    0  0.20338088212E+02  0.43769992524E+01  0.59064559473E+02  0.13989147555E+03  0.12509279273E+03 0.  0.
         23    2    1    2    0    0 -0.20338088212E+02 -0.43769992524E+01  0.15799424557E+02  0.95846530505E+02  0.92217892184E+02 0.  0.
          5    1    3    3  502    0 -0.79050451431E+01  0.21177952239E+02  0.91011225919E+02  0.93869649211E+02  0.41800000000E+01 0. -1.
         -5    1    3    3    0  502  0.28243133355E+02 -0.16800952986E+02 -0.31946666446E+02  0.46021826343E+02  0.41800000000E+01 0. -1.
        -11    1    4    4    0    0  0.24513847047E+02 -0.19543155212E+02 -0.19383392046E+02  0.36858913438E+02  0.00000000000E+00 0.  1.
         11    1    4    4    0    0 -0.44851935259E+02  0.15166155959E+02  0.35182816603E+02  0.58987617066E+02  0.00000000000E+00 0. -1.
</event>
<event>
 8    1  0.6862919E-009  0.9060319E+02  0.7561462E-02  0.1301398E+00
          2   -1    0    0  501    0  0.00000000000E+00  0.00000000000E+00  0.72142306706E+02  0.72142306706E+02  0.00000000000E+00 0. -1.
         -2   -1    0    0    0  501 -0.00000000000E+00 -0.00000000000E+00 -0.20148852185E+03  0.20148852185E+03  0.00000000000E+00 0.  1.
         25    2    1    2    0    0 -0.40493418311E+02 -0.27015744487E+02 -0.79316332574E+02  0.15592292255E+03  0.12510519488E+03 0.  0.
         23    2    1    2    0    0  0.40493418311E+02  0.27015744487E+02 -0.50029882575E+02  0.11770790601E+03  0.94776550957E+02 0.  0.
          5    1    3    3  502    0  0.21844799111E+02 -0.58363393496E+01  0.24066045642E+02  0.33285207796E+02  0.41800000000E+01 0. -1.
         -5    1    3    3    0  502 -0.62338217422E+02 -0.21179405137E+02 -0.10338237822E+03  0.12263771475E+03  0.41800000000E+01 0. -1.
        -11    1    4    4    0    0  0.35809667710E+02 -0.22639619265E+02 -0.52871074539E+02  0.67751274416E+02  0.00000000000E+00 0.  1.
         11    1    4    4    0    0  0.46837506004E+01  0.49655363751E+02  0.28411919646E+01  0.49956631599E+02  0.00000000000E+00 0. -1.
</event>
<event>
 8    1  0.6862919E-009  0.2088300E+03  0.7561462E-02  0.1142496E+00
         -1   -1    0    0    0  501 -0.00000000000E+00  0.00000000000E+00  0.36134373418E+02  0.36134373418E+02  0.00000000000E+00 0.  1.
          1   -1    0    0  501    0  0.00000000000E+00 -0.00000000000E+00 -0.15067684121E+04  0.15067684121E+04  0.00000000000E+00 0. -1.
         25    2    1    2    0    0 -0.15810900556E+03  0.11698797503E+03 -0.96424577033E+03  0.99201940016E+03  0.12509172933E+03 0.  0.
         23    2    1    2    0    0  0.15810900556E+03 -0.11698797503E+03 -0.50638826832E+03  0.55088338533E+03  0.91426374742E+02 0.  0.
          5    1    3    3  502    0 -0.12384100908E+03  0.13212502213E+03 -0.62601464446E+03  0.65169427225E+03  0.41800000000E+01 0.  1.
         -5    1    3    3    0  502 -0.34267996483E+02 -0.15137047108E+02 -0.33823112586E+03  0.34032512790E+03  0.41800000000E+01 0.  1.
        -11    1    4    4    0    0  0.10530555163E+03 -0.60265850055E+02 -0.19231208667E+03  0.22738770979E+03  0.00000000000E+00 0.  1.
         11    1    4    4    0    0  0.52803453934E+02 -0.56722124972E+02 -0.31407618165E+03  0.32349567554E+03  0.00000000000E+00 0. -1.
</event>
<event>
 8    1  0.6862919E-009  0.1324054E+03  0.7561462E-02  0.1223930E+00
         -2   -1    0    0    0  501 -0.00000000000E+00  0.00000000000E+00  0.20441336600E+02  0.20441336600E+02  0.00000000000E+00 0. -1.
          2   -1    0    0  501    0  0.00000000000E+00 -0.00000000000E+00 -0.97673567507E+03  0.97673567507E+03  0.00000000000E+00 0.  1.
         25    2    1    2    0    0 -0.38497176747E+02  0.66299401812E+02 -0.69241250385E+03  0.70778584847E+03  0.12509231990E+03 0.  0.
         23    2    1    2    0    0  0.38497176747E+02 -0.66299401812E+02 -0.26388183462E+03  0.28939116320E+03  0.90752296952E+02 0.  0.
          5    1    3    3  502    0 -0.84413181391E+02  0.43034725804E+02 -0.42899874983E+03  0.43935745422E+03  0.41800000000E+01 0.  1.
         -5    1    3    3    0  502  0.45916004644E+02  0.23264676008E+02 -0.26341375402E+03  0.26842839425E+03  0.41800000000E+01 0.  1.
        -11    1    4    4    0    0 -0.28456786780E+02 -0.80336954947E+01 -0.55260094544E+02  0.62673814518E+02  0.00000000000E+00 0. -1.
         11    1    4    4    0    0  0.66953963527E+02 -0.58265706317E+02 -0.20862174007E+03  0.22671734869E+03  0.00000000000E+00 0.  1.
</event>
<event>
 8    1  0.6862919E-009  0.3155937E+03  0.7561462E-02  0.1077695E+00
         -1   -1    0    0    0  501 -0.00000000000E+00  0.00000000000E+00  0.88326499544E+02  0.88326499544E+02  0.00000000000E+00 0.  1.
          1   -1    0    0  501    0  0.00000000000E+00 -0.00000000000E+00 -0.12070977849E+04  0.12070977849E+04  0.00000000000E+00 0. -1.
         25    2    1    2    0    0 -0.28450789714E+03 -0.92469651885E+02 -0.42624745815E+03  0.53556438871E+03  0.12508772449E+03 0.  0.
         23    2    1    2    0    0  0.28450789714E+03  0.92469651885E+02 -0.69252382724E+03  0.75985989577E+03  0.91117670357E+02 0.  0.
          5    1    3    3  502    0 -0.76827678820E+02 -0.79708687892E+02 -0.10397003621E+03  0.15193158983E+03  0.41800000000E+01 0. -1.
         -5    1    3    3    0  502 -0.20768021832E+03 -0.12760963993E+02 -0.32227742194E+03  0.38363279888E+03  0.41800000000E+01 0. -1.
        -11    1    4    4    0    0  0.20557078515E+03  0.10742430881E+03 -0.49630099520E+03  0.54782662190E+03  0.00000000000E+00 0.  1.
         11    1    4    4    0    0  0.78937111994E+02 -0.14954656923E+02 -0.19622283204E+03  0.21203327387E+03  0.00000000000E+00 0. -1.
</event>
<event>
 7    1  0.6862919E-009  0.1739934E+03  0.7561462E-02  0.1173746E+00
         -2   -1    0    0    0  501 -0.00000000000E+00  0.00000000000E+00  0.11198666798E+03  0.11198666798E+03  0.00000000000E+00 0.  1.
          2   -1    0    0  501    0  0.00000000000E+00 -0.00000000000E+00 -0.37238835963E+03  0.37238835963E+03  0.00000000000E+00 0. -1.
         23    2    1    2    0    0 -0.12957460449E+03 -0.65785792521E+02 -0.23492247783E+03  0.29067662402E+03  0.90481934854E+02 0.  0.
          5    1    1    2  502    0  0.92210711588E+01 -0.25230585799E+02  0.22516845525E+02  0.35300019058E+02  0.41800000000E+01 0.  1.
         -5    1    1    2    0  502  0.12035353333E+03  0.91016378320E+02 -0.47996059346E+02  0.15839838453E+03  0.41800000000E+01 0.  1.
        -11    1    3    3    0    0 -0.10860022573E+03 -0.87644518341E+02 -0.20579879267E+03  0.24865380288E+03  0.00000000000E+00 0.  1.
         11    1    3    3    0    0 -0.20974378763E+02  0.21858725821E+02 -0.29123685159E+02  0.42022821136E+02  0.00000000000E+00 0. -1.
</event>
<event>
 8    1  0.6862919E-009  0.1232035E+03  0.7561462E-02  0.1237904E+00
         -1   -1    0    0    0  501 -0.00000000000E+00  0.00000000000E+00  0.10482449511E+03  0.10482449511E+03  0.00000000000E+00 0.  1.
          1   -1    0    0  501    0  0.00000000000E+00 -0.00000000000E+00 -0.16239532339E+03  0.16239532339E+03  0.00000000000E+00 0. -1.
         25    2    1    2    0    0  0.38614033690E+02  0.58302181404E+02 -0.54281655354E+02  0.15324535382E+03  0.12508977738E+03 0.  0.
         23    2    1    2    0    0 -0.38614033690E+02 -0.58302181404E+02 -0.32891729321E+01  0.11397446468E+03  0.89939824253E+02 0.  0.
          5    1    3    3  502    0 -0.44432352505E+02  0.31795157618E+02 -0.30835332979E+02  0.62876515147E+02  0.41800000000E+01 0.  1.
         -5    1    3    3    0  502  0.83046386195E+02  0.26507023785E+02 -0.23446322375E+02  0.90368838672E+02  0.41800000000E+01 0.  1.
        -11    1    4    4    0    0 -0.54837796137E+02 -0.13198695996E+02  0.21065748108E+02  0.60209261783E+02  0.00000000000E+00 0.  1.
         11    1    4    4    0    0  0.16223762446E+02 -0.45103485408E+02 -0.24354921040E+02  0.53765202898E+02  0.00000000000E+00 0. -1.
</event>
<event>
 8    1  0.6862919E-009  0.7710911E+02  0.7561462E-02  0.1337461E+00
          1   -1    0    0  501    0  0.00000000000E+00  0.00000000000E+00  0.77981570392E+03  0.77981570392E+03  0.00000000000E+00 0. -1.
         -1   -1    0    0    0  501 -0.00000000000E+00 -0.00000000000E+00 -0.27269507547E+02  0.27269507547E+02  0.00000000000E+00 0.  1.
         25    2    1    2    0    0  0.34910000960E+02 -0.47775427261E+02  0.64906285307E+03  0.66364972692E+03  0.12508866132E+03 0.  0.
         23    2    1    2    0    0 -0.34910000960E+02  0.47775427261E+02  0.10348334330E+03  0.14343548455E+03  0.79773029704E+02 0.  0.
          5    1    3    3  502    0  0.36268360991E+02 -0.44987649164E+02  0.10797767616E+03  0.12253951826E+03  0.41800000000E+01 0.  1.
         -5    1    3    3    0  502 -0.13583600310E+01 -0.27877780977E+01  0.54108517691E+03  0.54111020866E+03  0.41800000000E+01 0.  1.
        -11    1    4    4    0    0 -0.56068407095E+02  0.38245919759E+02  0.47522582966E+02  0.82854164314E+02  0.00000000000E+00 0.  1.
         11    1    4    4    0    0  0.21158406134E+02  0.95295075026E+01  0.55960760338E+02  0.60581320232E+02  0.00000000000E+00 0. -1.
</event>
<event>
 8    1  0.6862919E-009  0.1244048E+03  0.7561462E-02  0.1236002E+00
         -1   -1    0    0    0  501 -0.00000000000E+00  0.00000000000E+00  0.38397334848E+02  0.38397334848E+02  0.00000000000E+00 0.  1.
          1   -1    0    0  501    0  0.00000000000E+00 -0.00000000000E+00 -0.61708703561E+03  0.61708703561E+03  0.00000000000E+00 0. -1.
         25    2    1    2    0    0  0.16852572014E+02  0.71738166547E+02 -0.41697906751E+03  0.44152004439E+03  0.12505212166E+03 0.  0.
         23    2    1    2    0    0 -0.16852572014E+02 -0.71738166547E+02 -0.16171063325E+03  0.21396432607E+03  0.11916387960E+03 0.  0.
          5    1    3    3  502    0 -0.18133590392E+02  0.89908688468E+02 -0.18901638846E+03  0.21013582957E+03  0.41800000000E+01 0.  1.
         -5    1    3    3    0  502  0.34986162406E+02 -0.18170521921E+02 -0.22796267905E+03  0.23138421482E+03  0.41800000000E+01 0.  1.
        -11    1    4    4    0    0 -0.37118973900E+02  0.54766345542E+01 -0.46861966686E+01  0.37812328527E+02  0.00000000000E+00 0.  1.
         11    1    4    4    0    0  0.20266401886E+02 -0.77214801101E+02 -0.15702443658E+03  0.17615199754E+03  0.00000000000E+00 0. -1.
</event>
<event>
 8    1  0.6862919E-009  0.1179242E+03  0.7561462E-02  0.1246561E+00
         -2   -1    0    0    0  501 -0.00000000000E+00  0.00000000000E+00  0.50629065041E+02  0.50629065041E+02  0.00000000000E+00 0.  1.
          2   -1    0    0  501    0  0.00000000000E+00 -0.00000000000E+00 -0.68016120886E+03  0.68016120886E+03  0.00000000000E+00 0. -1.
         25    2    1    2    0    0  0.63562738010E+01  0.79591483299E+02 -0.57878222397E+03  0.59750436032E+03  0.12508953351E+03 0.  0.
         23    2    1    2    0    0 -0.63562738010E+01 -0.79591483299E+02 -0.50749919853E+02  0.13328591358E+03  0.93884897421E+02 0.  0.
          5    1    3    3  502    0  0.63685908992E+01 -0.20362297073E+02 -0.19061628190E+02  0.28913667381E+02  0.41800000000E+01 0.  1.
         -5    1    3    3    0  502 -0.12317098173E-01  0.99953780372E+02 -0.55972059578E+03  0.56859069294E+03  0.41800000000E+01 0.  1.
        -11    1    4    4    0    0  0.14755989614E+02 -0.89525833373E+02 -0.17089180155E+02  0.92329053656E+02  0.00000000000E+00 0. -1.
         11    1    4    4    0    0 -0.21112263415E+02  0.99343500742E+01 -0.33660739698E+02  0.40956859925E+02  0.00000000000E+00 0.  1.
</event>
<event>
 8    1  0.6862919E-009  0.7868096E+02  0.7561462E-02  0.1332837E+00
         -2   -1    0    0    0  501 -0.00000000000E+00  0.00000000000E+00  0.56770189880E+02  0.56770189880E+02  0.00000000000E+00 0. -1.
          2   -1    0    0  501    0  0.00000000000E+00 -0.00000000000E+00 -0.21493210536E+03  0.21493210536E+03  0.00000000000E+00 0.  1.
         25    2    1    2    0    0  0.18776525340E+02 -0.32032007285E+01 -0.99031780609E+02  0.16067555065E+03  0.12508605281E+03 0.  0.
         23    2    1    2    0    0 -0.18776525340E+02  0.32032007285E+01 -0.59130134867E+02  0.11102674459E+03  0.92020360605E+02 0.  0.
          5    1    3    3  502    0 -0.89802628754E+01  0.36977443069E+02 -0.10456298827E+03  0.11135020132E+03  0.41800000000E+01 0.  1.
         -5    1    3    3    0  502  0.27756788215E+02 -0.40180643797E+02  0.55312076658E+01  0.49325349327E+02  0.41800000000E+01 0.  1.
        -11    1    4    4    0    0 -0.31131915889E+02  0.28313260214E+02 -0.69445916726E+02  0.81200814287E+02  0.00000000000E+00 0.  1.
         11    1    4    4    0    0  0.12355390550E+02 -0.25110059486E+02  0.10315781859E+02  0.29825930302E+02  0.00000000000E+00 0. -1.
</event>
<event>
 8    1  0.6862919E-009  0.1209102E+03  0.7561462E-02  0.1241603E+00
          2   -1    0    0  501    0  0.00000000000E+00  0.00000000000E+00  0.70627316894E+03  0.70627316894E+03  0.00000000000E+00 0. -1.
         -2   -1    0    0    0  501 -0.00000000000E+00 -0.00000000000E+00 -0.26833616861E+02  0.26833616861E+02  0.00000000000E+00 0.  1.
         25    2    1    2    0    0 -0.59520021361E+02 -0.43062850972E+02  0.48417223974E+03  0.50543772997E+03  0.12508996390E+03 0.  0.
         23    2    1    2    0    0  0.59520021361E+02  0.43062850972E+02  0.19526731235E+03  0.22766905584E+03  0.91141832535E+02 0.  0.
          5    1    3    3  502    0  0.32570450157E+02 -0.41329447979E+02  0.16831447426E+03  0.17639782351E+03  0.41800000000E+01 0.  1.
         -5    1    3    3    0  502 -0.92090471518E+02 -0.17334029930E+01  0.31585776547E+03  0.32903990645E+03  0.41800000000E+01 0.  1.
        -11    1    4    4    0    0  0.53168395089E+02 -0.13623928445E+00  0.40433641445E+02  0.66796528039E+02  0.00000000000E+00 0.  1.
         11    1    4    4    0    0  0.63516262716E+01  0.43199090257E+02  0.15483367090E+03  0.16087252780E+03  0.00000000000E+00 0. -1.
</event>
<event>
 8    1  0.6862919E-009  0.1183320E+03  0.7561462E-02  0.1245874E+00
         -2   -1    0    0    0  501 -0.00000000000E+00  0.00000000000E+00  0.13363739109E+03  0.13363739109E+03  0.00000000000E+00 0.  1.
          2   -1    0    0  501    0  0.00000000000E+00 -0.00000000000E+00 -0.13635976858E+03  0.13635976858E+03  0.00000000000E+00 0. -1.
         25    2    1    2    0    0  0.30081041014E+02 -0.74371538644E+02  0.10247097220E+02  0.14895334980E+03  0.12508438203E+03 0.  0.
         23    2    1    2    0    0 -0.30081041014E+02  0.74371538644E+02 -0.12969474709E+02  0.12104380987E+03  0.89707312103E+02 0.  0.
          5    1    3    3  502    0 -0.83356363396E+01 -0.98247072264E+02 -0.10053292959E+02  0.99199350507E+02  0.41800000000E+01 0.  1.
         -5    1    3    3    0  502  0.38416677353E+02  0.23875533620E+02  0.20300390179E+02  0.49753999296E+02  0.41800000000E+01 0.  1.
        -11    1    4    4    0    0 -0.31152458443E+02  0.17621144747E+02 -0.43709841159E+02  0.56493633477E+02  0.00000000000E+00 0. -1.
         11    1    4    4    0    0  0.10714174296E+01  0.56750393897E+02  0.30740366450E+02  0.64550176392E+02  0.00000000000E+00 0.  1.
</event>
<event>
 8    1  0.6862919E-009  0.1090412E+03  0.7561462E-02  0.1262356E+00
          2   -1    0    0  501    0  0.00000000000E+00  0.00000000000E+00  0.61741827787E+03  0.61741827787E+03  0.00000000000E+00 0. -1.
         -2   -1    0    0    0  501 -0.00000000000E+00 -0.00000000000E+00 -0.29550123370E+02  0.29550123370E+02  0.00000000000E+00 0.  1.
         25    2    1    2    0    0 -0.23875287783E+02  0.37335308297E+02  0.16531412099E+03  0.21199142621E+03  0.12509057348E+03 0.  0.
         23    2    1    2    0    0  0.23875287783E+02 -0.37335308297E+02  0.42255403350E+03  0.43497697503E+03  0.93215357971E+02 0.  0.
          5    1    3    3  502    0  0.29221263969E+02  0.53694757405E+02  0.35714327746E+02  0.70922456578E+02  0.41800000000E+01 0. -1.
         -5    1    3    3    0  502 -0.53096551752E+02 -0.16359449109E+02  0.12959979325E+03  0.14106896963E+03  0.41800000000E+01 0. -1.
        -11    1    4    4    0    0  0.58358159914E+02 -0.15884036851E+02  0.20806417886E+03  0.21667644076E+03  0.00000000000E+00 0.  1.
         11    1    4    4    0    0 -0.34482872131E+02 -0.21451271446E+02  0.21448985464E+03  0.21830053427E+03  0.00000000000E+00 0. -1.
</event>
<event>
 8    1  0.6862919E-009  0.6636437E+02  0.7561462E-02  0.1372912E+00
         -2   -1    0    0    0  501 -0.00000000000E+00  0.00000000000E+00  0.10506928142E+03  0.10506928142E+03  0.00000000000E+00 0.  1.
          2   -1    0    0  501    0  0.00000000000E+00 -0.00000000000E+00 -0.11280248685E+03  0.11280248685E+03  0.00000000000E+00 0. -1.
         25    2    1    2    0    0  0.55546873511E+01  0.15113280181E+02 -0.53149083410E+01  0.12623352919E+03  0.12508952734E+03 0.  0.
         23    2    1    2    0    0 -0.55546873511E+01 -0.15113280181E+02 -0.24182970945E+01  0.91638239083E+02  0.90180113728E+02 0.  0.
          5    1    3    3  502    0 -0.10627640954E+02 -0.14451041260E+02  0.54456765963E+02  0.57487312556E+02  0.41800000000E+01 0.  1.
         -5    1    3    3    0  502  0.16182328305E+02  0.29564321442E+02 -0.59771674304E+02  0.68746216629E+02  0.41800000000E+01 0.  1.
        -11    1    4    4    0    0  0.36676881886E+02 -0.75082125785E+01 -0.23113320488E+02  0.43997642039E+02  0.00000000000E+00 0. -1.
         11    1    4    4    0    0 -0.42231569237E+02 -0.76050676027E+01  0.20695023393E+02  0.47640597044E+02  0.00000000000E+00 0.  1.
</event>
<event>
 8    1  0.6862919E-009  0.9693629E+02  0.7561462E-02  0.1286874E+00
          1   -1    0    0  501    0  0.00000000000E+00  0.00000000000E+00  0.16080689014E+03  0.16080689014E+03  0.00000000000E+00 0. -1.
         -1   -1    0    0    0  501 -0.00000000000E+00 -0.00000000000E+00 -0.92683114243E+02  0.92683114243E+02  0.00000000000E+00 0.  1.
         25    2    1    2    0    0  0.48065863708E+02 -0.19065874106E+02  0.47733493106E+02  0.14351357609E+03  0.12507527873E+03 0.  0.
         23    2    1    2    0    0 -0.48065863708E+02  0.19065874106E+02  0.20390282794E+02  0.10997642829E+03  0.94895818338E+02 0.  0.
          5    1    3    3  502    0 -0.36102083450E+02 -0.19656241053E+02 -0.85228662915E+01  0.42188148710E+02  0.41800000000E+01 0. -1.
         -5    1    3    3    0  502  0.84167947157E+02  0.59036694689E+00  0.56256359398E+02  0.10132542738E+03  0.41800000000E+01 0. -1.
        -11    1    4    4    0    0 -0.41026272324E+02 -0.67004983287E+01  0.53298216630E+02  0.67592540968E+02  0.00000000000E+00 0. -1.
         11    1    4    4    0    0 -0.70395913837E+01  0.25766372435E+02 -0.32907933836E+02  0.42383887324E+02  0.00000000000E+00 0.  1.
</event>
<event>
 8    1  0.6862919E-009  0.1720325E+03  0.7561462E-02  0.1175745E+00
          2   -1    0    0  501    0  0.00000000000E+00  0.00000000000E+00  0.91253535330E+03  0.91253535330E+03  0.00000000000E+00 0.  1.
         -2   -1    0    0    0  501 -0.00000000000E+00 -0.00000000000E+00 -0.35940616336E+02  0.35940616336E+02  0.00000000000E+00 0. -1.
         25    2    1    2    0    0  0.13041440076E+03  0.61997251911E+02  0.53634938330E+03  0.56935971873E+03  0.12509297814E+03 0.  0.
         23    2    1    2    0    0 -0.13041440076E+03 -0.61997251911E+02  0.34024535367E+03  0.37911625091E+03  0.84324704802E+02 0.  0.
          5    1    3    3  502    0  0.67649176856E+02 -0.26071803939E+02  0.13068455771E+03  0.14950610728E+03  0.41800000000E+01 0.  1.
         -5    1    3    3    0  502  0.62765223901E+02  0.88069055850E+02  0.40566482558E+03  0.41985361145E+03  0.41800000000E+01 0.  1.
        -11    1    4    4    0    0 -0.56300462711E+02  0.12996690560E+02  0.16230773510E+03  0.17228597430E+03  0.00000000000E+00 0.  1.
         11    1    4    4    0    0 -0.74113938046E+02 -0.74993942471E+02  0.17793761857E+03  0.20683027661E+03  0.00000000000E+00 0. -1.
</event>
<event>
 8    1  0.6862919E-009  0.1131609E+03  0.7561462E-02  0.1254826E+00
          2   -1    0    0  501    0  0.00000000000E+00  0.00000000000E+00  0.27666210419E+03  0.27666210419E+03  0.00000000000E+00 0. -1.
         -2   -1    0    0    0  501 -0.00000000000E+00 -0.00000000000E+00 -0.72081118255E+02  0.72081118255E+02  0.00000000000E+00 0.  1.
         25    2    1    2    0    0 -0.11790596071E+02 -0.26234184449E+02  0.78948896672E+01  0.12859527657E+03  0.12508862972E+03 0.  0.
         23    2    1    2    0    0  0.11790596071E+02  0.26234184449E+02  0.19668609626E+03  0.22014794587E+03  0.94617371641E+02 0.  0.
          5    1    3    3  502    0 -0.51873895819E+02  0.28855500992E+02  0.98194896832E+01  0.60311158027E+02  0.41800000000E+01 0. -1.
         -5    1    3    3    0  502  0.40083299747E+02 -0.55089685441E+02 -0.19246000160E+01  0.68284118548E+02  0.41800000000E+01 0. -1.
        -11    1    4    4    0    0  0.53333620269E+02  0.12224240280E+02  0.11810481062E+03  0.13016394813E+03  0.00000000000E+00 0. -1.
         11    1    4    4    0    0 -0.41543024197E+02  0.14009944169E+02  0.78581285641E+02  0.89983997733E+02  0.00000000000E+00 0.  1.
</event>
<event>
 8    1  0.6862919E-009  0.6276651E+02  0.7561462E-02  0.1386576E+00
         -1   -1    0    0    0  501 -0.00000000000E+00  0.00000000000E+00  0.25690080501E+02  0.25690080501E+02  0.00000000000E+00 0.  1.
          1   -1    0    0  501    0  0.00000000000E+00 -0.00000000000E+00 -0.61452666390E+03  0.61452666390E+03  0.00000000000E+00 0. -1.
         25    2    1    2    0    0 -0.26371580657E+02  0.48082511759E+02 -0.40573462776E+03  0.42810616507E+03  0.12508761808E+03 0.  0.
         23    2    1    2    0    0  0.26371580657E+02 -0.48082511759E+02 -0.18310195563E+03  0.21211057933E+03  0.91962946367E+02 0.  0.
          5    1    3    3  502    0  0.11762540876E+01  0.10452193122E+02 -0.36744887109E+03  0.36762314560E+03  0.41800000000E+01 0.  1.
         -5    1    3    3    0  502 -0.27547834745E+02  0.37630318638E+02 -0.38285756676E+02  0.60483019470E+02  0.41800000000E+01 0.  1.
        -11    1    4    4    0    0  0.28542535721E+02 -0.11543878422E+02 -0.17071379135E+03  0.17346796831E+03  0.00000000000E+00 0. -1.
         11    1    4    4    0    0 -0.21709550638E+01 -0.36538633338E+02 -0.12388164287E+02  0.38642611020E+02  0.00000000000E+00 0.  1.
</event>
<event>
 8    1  0.6862919E-009  0.1402935E+03  0.7561462E-02  0.1212935E+00
          2   -1    0    0  501    0  0.00000000000E+00  0.00000000000E+00  0.10075132077E+04  0.10075132077E+04  0.00000000000E+00 0. -1.
         -2   -1    0    0    0  501 -0.00000000000E+00 -0.00000000000E+00 -0.23765325191E+02  0.23765325191E+02  0.00000000000E+00 0.  1.
         25    2    1    2    0    0  0.12562878413E+02 -0.10392468408E+03  0.63324808398E+03  0.65392035675E+03  0.12510208322E+03 0.  0.
         23    2    1    2    0    0 -0.12562878413E+02  0.10392468408E+03  0.35049979857E+03  0.37735817619E+03  0.92687207648E+02 0.  0.
          5    1    3    3  502    0 -0.25339393971E+02  0.43228866431E+01  0.29457199292E+02  0.39318840597E+02  0.41800000000E+01 0. -1.
         -5    1    3    3    0  502  0.37902272384E+02 -0.10824757073E+03  0.60379088469E+03  0.61460151615E+03  0.41800000000E+01 0. -1.
        -11    1    4    4    0    0 -0.49058548463E+02  0.30459296192E+02  0.14935924223E+03  0.16013336049E+03  0.00000000000E+00 0.  1.
         11    1    4    4    0    0  0.36495670050E+02  0.73465387892E+02  0.20114055634E+03  0.21722481570E+03  0.00000000000E+00 0. -1.
</event>
<event>
 8    1  0.6862919E-009  0.1245613E+03  0.7561462E-02  0.1235756E+00
          1   -1    0    0  501    0  0.00000000000E+00  0.00000000000E+00  0.29991855198E+03  0.29991855198E+03  0.00000000000E+00 0. -1.
         -1   -1    0    0    0  501 -0.00000000000E+00 -0.00000000000E+00 -0.63006782424E+02  0.63006782424E+02  0.00000000000E+00 0.  1.
         25    2    1    2    0    0  0.10377990651E+02 -0.78095753093E+02  0.15964905656E+03  0.21758968422E+03  0.12510315776E+03 0.  0.
         23    2    1    2    0    0 -0.10377990651E+02  0.78095753093E+02  0.77262713000E+02  0.14533565018E+03  0.94584750630E+02 0.  0.
          5    1    3    3  502    0 -0.35430427523E+02  0.16065018228E+02  0.67606675517E+02  0.78112322841E+02  0.41800000000E+01 0. -1.
         -5    1    3    3    0  502  0.45808418174E+02 -0.94160771321E+02  0.92042381039E+02  0.13947736138E+03  0.41800000000E+01 0. -1.
        -11    1    4    4    0    0 -0.38408890547E+02  0.61839974877E+02  0.85109408267E+02  0.11199569966E+03  0.00000000000E+00 0. -1.
         11    1    4    4    0    0  0.28030899895E+02  0.16255778216E+02 -0.78466952664E+01  0.33339950524E+02  0.00000000000E+00 0.  1.
</event>
<event>
 8    1  0.6862919E-009  0.1546420E+03  0.7561462E-02  0.1194882E+00
         -3   -1    0    0    0  501 -0.00000000000E+00  0.00000000000E+00  0.11088216305E+04  0.11088216305E+04  0.00000000000E+00 0.  1.
          3   -1    0    0  501    0  0.00000000000E+00 -0.00000000000E+00 -0.22267103075E+02  0.22267103075E+02  0.00000000000E+00 0. -1.
         25    2    1    2    0    0 -0.10828208829E+03 -0.21092979440E+02  0.52131871150E+03  0.54734913438E+03  0.12509177238E+03 0.  0.
         23    2    1    2    0    0  0.10828208829E+03  0.21092979440E+02  0.56523581590E+03  0.58373959917E+03  0.95343943899E+02 0.  0.
          5    1    3    3  502    0 -0.91953486419E+02  0.39817300775E+02  0.37026721449E+03  0.38360936333E+03  0.41800000000E+01 0.  1.
         -5    1    3    3    0  502 -0.16328601875E+02 -0.60910280215E+02  0.15105149701E+03  0.16373977105E+03  0.41800000000E+01 0.  1.
        -11    1    4    4    0    0  0.93710200182E+02  0.55160971689E+02  0.41777292546E+03  0.43169265880E+03  0.00000000000E+00 0.  1.
         11    1    4    4    0    0  0.14571888111E+02 -0.34067992249E+02  0.14746289044E+03  0.15204694037E+03  0.00000000000E+00 0. -1.
</event>
<event>
 8    1  0.6862919E-009  0.6096178E+02  0.7561462E-02  0.1393839E+00
         -1   -1    0    0    0  501 -0.00000000000E+00  0.00000000000E+00  0.65100498219E+02  0.65100498219E+02  0.00000000000E+00 0.  1.
          1   -1    0    0  501    0  0.00000000000E+00 -0.00000000000E+00 -0.19728930785E+03  0.19728930785E+03  0.00000000000E+00 0. -1.
         25    2    1    2    0    0  0.22449037401E+01 -0.20303038963E+02 -0.10759812429E+03  0.16625920107E+03  0.12509001801E+03 0.  0.
         23    2    1    2    0    0 -0.22449037401E+01  0.20303038963E+02 -0.24590685342E+02  0.96130605002E+02  0.90659464087E+02 0.  0.
          5    1    3    3  502    0 -0.81638806858E+01 -0.60201162324E+01 -0.13387138273E+03  0.13432017816E+03  0.41800000000E+01 0.  1.
         -5    1    3    3    0  502  0.10408784426E+02 -0.14282922731E+02  0.26273258441E+02  0.31939022904E+02  0.41800000000E+01 0.  1.
        -11    1    4    4    0    0  0.14244806502E+02  0.53693785079E+02 -0.17304580931E+02  0.58184066458E+02  0.00000000000E+00 0. -1.
         11    1    4    4    0    0 -0.16489710242E+02 -0.33390746116E+02 -0.72861044111E+01  0.37946538545E+02  0.00000000000E+00 0.  1.
</event>
<event>
 8    1  0.6862919E-009  0.1010046E+03  0.7561462E-02  0.1278197E+00
          1   -1    0    0  501    0  0.00000000000E+00  0.00000000000E+00  0.30927620898E+03  0.30927620898E+03  0.00000000000E+00 0. -1.
         -1   -1    0    0    0  501 -0.00000000000E+00 -0.00000000000E+00 -0.71636324646E+02  0.71636324646E+02  0.00000000000E+00 0.  1.
         25    2    1    2    0    0 -0.70119226820E+02 -0.38967413008E+02  0.20767092805E+03  0.25534777639E+03  0.12506041462E+03 0.  0.
         23    2    1    2    0    0  0.70119226820E+02  0.38967413008E+02  0.29968956289E+02  0.12556475724E+03  0.91832481577E+02 0.  0.
          5    1    3    3  502    0 -0.60833767395E+02 -0.53749242920E+02  0.47442180339E+02  0.94116742641E+02  0.41800000000E+01 0.  1.
         -5    1    3    3    0  502 -0.92854594247E+01  0.14781829911E+02  0.16022874771E+03  0.16123103375E+03  0.41800000000E+01 0.  1.
        -11    1    4    4    0    0  0.15865757640E+02 -0.18075982398E+02 -0.20877356917E+02  0.31848507610E+02  0.00000000000E+00 0.  1.
         11    1    4    4    0    0  0.54253469180E+02  0.57043395406E+02  0.50846313207E+02  0.93716249627E+02  0.00000000000E+00 0. -1.
</event>
<event>
 8    1  0.6862919E-009  0.8885333E+02  0.7561462E-02  0.1305653E+00
         -2   -1    0    0    0  501 -0.00000000000E+00  0.00000000000E+00  0.15845164785E+03  0.15845164785E+03  0.00000000000E+00 0.  1.
          2   -1    0    0  501    0  0.00000000000E+00 -0.00000000000E+00 -0.12932699028E+03  0.12932699028E+03  0.00000000000E+00 0. -1.
         25    2    1    2    0    0  0.52417643304E+02  0.22706608377E+02 -0.57581876751E+02  0.14908771832E+03  0.12509306867E+03 0.  0.
         23    2    1    2    0    0 -0.52417643304E+02 -0.22706608377E+02  0.86706534326E+02  0.13869091982E+03  0.91945357420E+02 0.  0.
          5    1    3    3  502    0  0.51829461198E+02  0.61258331092E+01  0.29666183744E+02  0.60177850886E+02  0.41800000000E+01 0. -1.
         -5    1    3    3    0  502  0.58818210638E+00  0.16580775268E+02 -0.87248060495E+02  0.88909867432E+02  0.41800000000E+01 0. -1.
        -11    1    4    4    0    0  0.11186161304E+02  0.25884896717E+02  0.23238684192E+02  0.36540313706E+02  0.00000000000E+00 0. -1.
         11    1    4    4    0    0 -0.63603804609E+02 -0.48591505094E+02  0.63467850134E+02  0.10215060611E+03  0.00000000000E+00 0.  1.
</event>
<event>
 8    1  0.6862919E-009  0.1157703E+03  0.7561462E-02  0.1250242E+00
          4   -1    0    0  501    0  0.00000000000E+00  0.00000000000E+00  0.72327060849E+03  0.72327060849E+03  0.00000000000E+00 0. -1.
         -4   -1    0    0    0  501 -0.00000000000E+00 -0.00000000000E+00 -0.25495079506E+02  0.25495079506E+02  0.00000000000E+00 0.  1.
         25    2    1    2    0    0 -0.11012701425E+02 -0.69468434049E+02  0.26991663304E+03  0.30569764821E+03  0.12509564505E+03 0.  0.
         23    2    1    2    0    0  0.11012701425E+02  0.69468434049E+02  0.42785889595E+03  0.44306803979E+03  0.91098354083E+02 0.  0.
          5    1    3    3  502    0  0.30744766522E+02 -0.75519644618E+02  0.92920446084E+02  0.12369373101E+03  0.41800000000E+01 0.  1.
         -5    1    3    3    0  502 -0.41757467947E+02  0.60512105691E+01  0.17699618696E+03  0.18200391720E+03  0.41800000000E+01 0.  1.
        -11    1    4    4    0    0  0.43816136566E+02  0.20062572447E+02  0.27341492404E+03  0.27762939564E+03  0.00000000000E+00 0. -1.
         11    1    4    4    0    0 -0.32803435140E+02  0.49405861603E+02  0.15444397191E+03  0.16543864414E+03  0.00000000000E+00 0.  1.
</event>
<event>
 8    1  0.6862919E-009  0.1134675E+03  0.7561462E-02  0.1254280E+00
          2   -1    0    0  501    0  0.00000000000E+00  0.00000000000E+00  0.63519605569E+03  0.63519605569E+03  0.00000000000E+00 0. -1.
         -2   -1    0    0    0  501 -0.00000000000E+00 -0.00000000000E+00 -0.23800903860E+02  0.23800903860E+02  0.00000000000E+00 0.  1.
         25    2    1    2    0    0 -0.48342228914E+02  0.30844003671E+02  0.31324987672E+03  0.34214270622E+03  0.12509125666E+03 0.  0.
         23    2    1    2    0    0  0.48342228914E+02 -0.30844003671E+02  0.29814527510E+03  0.31685425333E+03  0.90651470626E+02 0.  0.
          5    1    3    3  502    0 -0.89538532011E+02  0.77865449526E+01  0.19539188258E+03  0.21511215488E+03  0.41800000000E+01 0. -1.
         -5    1    3    3    0  502  0.41196303096E+02  0.23057458718E+02  0.11785799414E+03  0.12703055135E+03  0.41800000000E+01 0. -1.
        -11    1    4    4    0    0  0.45318708995E+02  0.11788736263E+02  0.24092765082E+03  0.24543612737E+03  0.00000000000E+00 0. -1.
         11    1    4    4    0    0  0.30235199190E+01 -0.42632739934E+02  0.57217624282E+02  0.71418125959E+02  0.00000000000E+00 0.  1.
</event>
<event>
 8    1  0.6862919E-009  0.1392779E+03  0.7561462E-02  0.1214304E+00
          1   -1    0    0  501    0  0.00000000000E+00  0.00000000000E+00  0.22156790489E+03  0.22156790489E+03  0.00000000000E+00 0. -1.
         -1   -1    0    0    0  501 -0.00000000000E+00 -0.00000000000E+00 -0.12236129624E+03  0.12236129624E+03  0.00000000000E+00 0.  1.
         25    2    1    2    0    0  0.11796283218E+03  0.38245931246E+02  0.43479389445E+02  0.18142914088E+03  0.12509234517E+03 0.  0.
         23    2    1    2    0    0 -0.11796283218E+03 -0.38245931246E+02  0.55727219205E+02  0.16250006025E+03  0.89009918479E+02 0.  0.
          5    1    3    3  502    0  0.94627137609E+02  0.54754256769E+02  0.79510574171E+02  0.13524691350E+03  0.41800000000E+01 0.  1.
         -5    1    3    3    0  502  0.23335694571E+02 -0.16508325523E+02 -0.36031184726E+02  0.46182227376E+02  0.41800000000E+01 0.  1.
        -11    1    4    4    0    0 -0.97199163111E+02 -0.52265013391E+00  0.69694473465E+01  0.97450108614E+02  0.00000000000E+00 0.  1.
         11    1    4    4    0    0 -0.20763669070E+02 -0.37723281112E+02  0.48757771859E+02  0.65049951635E+02  0.00000000000E+00 0. -1.
</event>
<event>
 8    1  0.6862919E-009  0.8111546E+02  0.7561462E-02  0.1325915E+00
          1   -1    0    0  501    0  0.00000000000E+00  0.00000000000E+00  0.17393901779E+03  0.17393901779E+03  0.00000000000E+00 0.  1.
         -1   -1    0    0    0  501 -0.00000000000E+00 -0.00000000000E+00 -0.11241185896E+03  0.11241185896E+03  0.00000000000E+00 0. -1.
         25    2    1    2    0    0 -0.30397095575E+01 -0.88454742545E+01 -0.56126536620E+02  0.13742281641E+03  0.12508940846E+03 0.  0.
         23    2    1    2    0    0  0.30397095575E+01  0.88454742545E+01  0.11765369546E+03  0.14892806034E+03  0.90827819818E+02 0.  0.
          5    1    3    3  502    0  0.42936294559E+02  0.24295693034E+01  0.20054183620E+02  0.47634765436E+02  0.41800000000E+01 0. -1.
         -5    1    3    3    0  502 -0.45976004116E+02 -0.11275043558E+02 -0.76180720240E+02  0.89788050976E+02  0.41800000000E+01 0. -1.
        -11    1    4    4    0    0  0.21320569279E+02 -0.25107825083E+02  0.97663061572E+01  0.34356226375E+02  0.00000000000E+00 0. -1.
         11    1    4    4    0    0 -0.18280859722E+02  0.33953299338E+02  0.10788738930E+03  0.11457183397E+03  0.00000000000E+00 0.  1.
</event>
<event>
 7    1  0.6862919E-009  0.1166601E+03  0.7561462E-02  0.1248711E+00
          1   -1    0    0  501    0  0.00000000000E+00  0.00000000000E+00  0.50527031231E+03  0.50527031231E+03  0.00000000000E+00 0. -1.
         -1   -1    0    0    0  501 -0.00000000000E+00 -0.00000000000E+00 -0.35516678466E+02  0.35516678466E+02  0.00000000000E+00 0.  1.
         23    2    1    2    0    0  0.20808487405E+02  0.75210359727E+02  0.25494520071E+03  0.28118055925E+03  0.89307671446E+02 0.  0.
          5    1    1    2  502    0  0.25338987770E+02  0.22644601566E+02  0.30524197905E+02  0.45869830379E+02  0.41800000000E+01 0.  1.
         -5    1    1    2    0  502 -0.46147475175E+02 -0.97854961293E+02  0.18428423524E+03  0.21373660115E+03  0.41800000000E+01 0.  1.
        -11    1    3    3    0    0 -0.14577249605E+02  0.14634408284E+02  0.45602339286E+01  0.21153199411E+02  0.00000000000E+00 0.  1.
         11    1    3    3    0    0  0.35385737009E+02  0.60575951443E+02  0.25038496678E+03  0.26002735984E+03  0.00000000000E+00 0. -1.
</event>
<event>
 8    1  0.6862919E-009  0.1020820E+03  0.7561462E-02  0.1275978E+00
         -1   -1    0    0    0  501 -0.00000000000E+00  0.00000000000E+00  0.31315336163E+02  0.31315336163E+02  0.00000000000E+00 0.  1.
          1   -1    0    0  501    0  0.00000000000E+00 -0.00000000000E+00 -0.57097875466E+03  0.57097875466E+03  0.00000000000E+00 0. -1.
         25    2    1    2    0    0  0.74510991970E+02  0.24870779105E+02 -0.30539409888E+03  0.33923871976E+03  0.12508760841E+03 0.  0.
         23    2    1    2    0    0 -0.74510991970E+02 -0.24870779105E+02 -0.23426931961E+03  0.26305537105E+03  0.90252814647E+02 0.  0.
          5    1    3    3  502    0 -0.13666911672E+01  0.31540464393E+02 -0.88680514597E+01  0.33057275682E+02  0.41800000000E+01 0.  1.
         -5    1    3    3    0  502  0.75877683137E+02 -0.66696852875E+01 -0.29652604742E+03  0.30618144408E+03  0.41800000000E+01 0.  1.
        -11    1    4    4    0    0  0.88856706700E+01 -0.53871626008E+01  0.29895316879E+01  0.10812676073E+02  0.00000000000E+00 0.  1.
         11    1    4    4    0    0 -0.83396662640E+02 -0.19483616504E+02 -0.23725885130E+03  0.25224269498E+03  0.00000000000E+00 0. -1.
</event>
<event>
 8    1  0.6862919E-009  0.9837429E+02  0.7561462E-02  0.1283752E+00
         -4   -1    0    0    0  501 -0.00000000000E+00  0.00000000000E+00  0.25965071674E+03  0.25965071674E+03  0.00000000000E+00 0.  1.
          4   -1    0    0  501    0  0.00000000000E+00 -0.00000000000E+00 -0.64602932731E+02  0.64602932731E+02  0.00000000000E+00 0. -1.
         25    2    1    2    0    0 -0.29066020551E+02  0.64766235761E+02  0.10977112109E+03  0.18093084390E+03  0.12508705930E+03 0.  0.
         23    2    1    2    0    0  0.29066020551E+02 -0.64766235761E+02  0.85276662914E+02  0.14332280556E+03  0.90718347160E+02 0.  0.
          5    1    3    3  502    0 -0.22049423611E+01  0.72421938648E+02  0.12812257602E+03  0.14725035094E+03  0.41800000000E+01 0. -1.
         -5    1    3    3    0  502 -0.26861078190E+02 -0.76557028865E+01 -0.18351454924E+02  0.33680492960E+02  0.41800000000E+01 0. -1.
        -11    1    4    4    0    0  0.18282284014E+02  0.96942545666E+01 -0.91172814683E+01  0.22612945446E+02  0.00000000000E+00 0. -1.
         11    1    4    4    0    0  0.10783736537E+02 -0.74460490328E+02  0.94393944382E+02  0.12070986012E+03  0.00000000000E+00 0.  1.
</event>
<event>
 8    1  0.6862919E-009  0.1044001E+03  0.7561462E-02  0.1271306E+00
         -1   -1    0    0    0  501 -0.00000000000E+00  0.00000000000E+00  0.11366406415E+03  0.11366406415E+03  0.00000000000E+00 0.  1.
          1   -1    0    0  501    0  0.00000000000E+00 -0.00000000000E+00 -0.18459831229E+03  0.18459831229E+03  0.00000000000E+00 0. -1.
         25    2    1    2    0    0 -0.57450017688E+02  0.23368543769E+02  0.37337419680E+02  0.14452760976E+03  0.12509018229E+03 0.  0.
         23    2    1    2    0    0  0.57450017688E+02 -0.23368543769E+02 -0.10827166782E+03  0.15373476668E+03  0.89805517994E+02 0.  0.
          5    1    3    3  502    0 -0.59681642107E+02 -0.38719724900E+02 -0.12440395698E+01  0.71275069522E+02  0.41800000000E+01 0. -1.
         -5    1    3    3    0  502  0.22316244181E+01  0.62088268669E+02  0.38581459250E+02  0.73252540241E+02  0.41800000000E+01 0. -1.
        -11    1    4    4    0    0  0.17518187407E+01 -0.19344602949E+02  0.10795740852E+02  0.22222298546E+02  0.00000000000E+00 0.  1.
         11    1    4    4    0    0  0.55698198948E+02 -0.40239408204E+01 -0.11906740867E+03  0.13151246813E+03  0.00000000000E+00 0. -1.
</event>
<event>
 8    1  0.6862919E-009  0.1416514E+03  0.7561462E-02  0.1211124E+00
          1   -1    0    0  501    0  0.00000000000E+00  0.00000000000E+00  0.47125172498E+02  0.47125172498E+02  0.00000000000E+00 0. -1.
         -1   -1    0    0    0  501 -0.00000000000E+00 -0.00000000000E+00 -0.59215275459E+03  0.59215275459E+03  0.00000000000E+00 0.  1.
         25    2    1    2    0    0  0.74058022496E+02  0.85402041004E+02 -0.18072460567E+03  0.24715784835E+03  0.12509004598E+03 0.  0.
         23    2    1    2    0    0 -0.74058022496E+02 -0.85402041004E+02 -0.36430297642E+03  0.39212007873E+03  0.90903235451E+02 0.  0.
          5    1    3    3  502    0  0.36815305217E+02  0.11388086931E+03 -0.14503715220E+03  0.18808898695E+03  0.41800000000E+01 0.  1.
         -5    1    3    3    0  502  0.37242717279E+02 -0.28478828309E+02 -0.35687453470E+02  0.59068861402E+02  0.41800000000E+01 0.  1.
        -11    1    4    4    0    0 -0.56988375523E+02 -0.80659057386E+02 -0.36078479860E+03  0.37405778883E+03  0.00000000000E+00 0.  1.
         11    1    4    4    0    0 -0.17069646972E+02 -0.47429836175E+01 -0.35181778157E+01  0.18062289902E+02  0.00000000000E+00 0. -1.
</event>
<event>
 8    1  0.6862919E-009  0.1597798E+03  0.7561462E-02  0.1188946E+00
         -2   -1    0    0    0  501 -0.00000000000E+00  0.00000000000E+00  0.11752653498E+03  0.11752653498E+03  0.00000000000E+00 0.  1.
          2   -1    0    0  501    0  0.00000000000E+00 -0.00000000000E+00 -0.28937761334E+03  0.28937761334E+03  0.00000000000E+00 0. -1.
         25    2    1    2    0    0  0.50413966281E+02  0.13822384274E+03 -0.68486281330E+02  0.20490118371E+03  0.12508687244E+03 0.  0.
         23    2    1    2    0    0 -0.50413966281E+02 -0.13822384274E+03 -0.10336479703E+03  0.20200296461E+03  0.92051712353E+02 0.  0.
          5    1    3    3  502    0  0.60228141197E+02  0.37355986055E+02 -0.74985597595E+02  0.10326282454E+03  0.41800000000E+01 0. -1.
         -5    1    3    3    0  502 -0.98141749160E+01  0.10086785669E+03  0.64993162656E+01  0.10163835916E+03  0.41800000000E+01 0. -1.
        -11    1    4    4    0    0 -0.14611741068E+02 -0.41363850172E+02 -0.87020200194E+02  0.97452482369E+02  0.00000000000E+00 0. -1.
         11    1    4    4    0    0 -0.35802225213E+02 -0.96859992569E+02 -0.16344596836E+02  0.10455048224E+03  0.00000000000E+00 0.  1.
</event>
<event>
 8    1  0.6862919E-009  0.6808952E+02  0.7561462E-02  0.1366713E+00
         -1   -1    0    0    0  501 -0.00000000000E+00  0.00000000000E+00  0.39983598961E+02  0.39983598961E+02  0.00000000000E+00 0.  1.
          1   -1    0    0  501    0  0.00000000000E+00 -0.00000000000E+00 -0.44977155008E+03  0.44977155008E+03  0.00000000000E+00 0. -1.
         25    2    1    2    0    0 -0.32584155181E+02 -0.35805012494E+02 -0.34776891225E+03  0.37273533510E+03  0.12507872567E+03 0.  0.
         23    2    1    2    0    0  0.32584155181E+02  0.35805012494E+02 -0.62019038870E+02  0.11701981394E+03  0.86623031486E+02 0.  0.
          5    1    3    3  502    0 -0.13293484225E+02 -0.45552587890E+02 -0.34746909635E+03  0.35071926139E+03  0.41800000000E+01 0. -1.
         -5    1    3    3    0  502 -0.19290670957E+02  0.97475753963E+01 -0.29981589274E+00  0.22016073711E+02  0.41800000000E+01 0. -1.
        -11    1    4    4    0    0  0.37632737908E+01  0.37471109287E+02  0.10391166576E+02  0.39066899079E+02  0.00000000000E+00 0.  1.
         11    1    4    4    0    0  0.28820881391E+02 -0.16660967937E+01 -0.72410205446E+02  0.77952914862E+02  0.00000000000E+00 0. -1.
</event>
<event>
 8    1  0.6862919E-009  0.1554253E+03  0.7561462E-02  0.1193961E+00
          1   -1    0    0  501    0  0.00000000000E+00  0.00000000000E+00  0.88031263876E+02  0.88031263876E+02  0.00000000000E+00 0. -1.
         -1   -1    0    0    0  501 -0.00000000000E+00 -0.00000000000E+00 -0.38237899568E+03  0.38237899568E+03  0.00000000000E+00 0.  1.
         25    2    1    2    0    0  0.14625867617E+02  0.13627254430E+03 -0.22528106053E+03  0.29186577424E+03  0.12509976660E+03 0.  0.
         23    2    1    2    0    0 -0.14625867617E+02 -0.13627254430E+03 -0.69066671270E+02  0.17854448532E+03  0.91234893669E+02 0.  0.
          5    1    3    3  502    0 -0.28895978369E+02  0.15762395031E+02 -0.60068727166E+00  0.33185296266E+02  0.41800000000E+01 0. -1.
         -5    1    3    3    0  502  0.43521845986E+02  0.12051014927E+03 -0.22468037326E+03  0.25868047797E+03  0.41800000000E+01 0. -1.
        -11    1    4    4    0    0  0.20149235921E+02 -0.21139089556E+02  0.13990465342E+02  0.32381876659E+02  0.00000000000E+00 0. -1.
         11    1    4    4    0    0 -0.34775103537E+02 -0.11513345474E+03 -0.83057136612E+02  0.14616260866E+03  0.00000000000E+00 0.  1.
</event>
<event>
 8    1  0.6862919E-009  0.2128521E+03  0.7561462E-02  0.1139327E+00
          3   -1    0    0  501    0  0.00000000000E+00  0.00000000000E+00  0.27303287302E+03  0.27303287302E+03  0.00000000000E+00 0. -1.
         -3   -1    0    0    0  501 -0.00000000000E+00 -0.00000000000E+00 -0.17346703196E+03  0.17346703196E+03  0.00000000000E+00 0.  1.
         25    2    1    2    0    0 -0.99323144435E+02 -0.14916884339E+03  0.75147906680E+02  0.23111416180E+03  0.12510042785E+03 0.  0.
         23    2    1    2    0    0  0.99323144435E+02  0.14916884339E+03  0.24417934386E+02  0.21538574318E+03  0.11695448681E+03 0.  0.
          5    1    3    3  502    0 -0.62579154101E+02 -0.35532460268E+01  0.46529902971E+02  0.78174678483E+02  0.41800000000E+01 0.  1.
         -5    1    3    3    0  502 -0.36743990333E+02 -0.14561559736E+03  0.28618003708E+02  0.15293948332E+03  0.41800000000E+01 0.  1.
        -11    1    4    4    0    0 -0.21259763161E+02  0.57113086608E+02 -0.38749171254E+01  0.61064696629E+02  0.00000000000E+00 0.  1.
         11    1    4    4    0    0  0.12058290760E+03  0.92055756781E+02  0.28292851511E+02  0.15432104655E+03  0.00000000000E+00 0. -1.
</event>
<event>
 8    1  0.6862919E-009  0.1075095E+03  0.7561462E-02  0.1265253E+00
         -2   -1    0    0    0  501 -0.00000000000E+00  0.00000000000E+00  0.27664421526E+02  0.27664421526E+02  0.00000000000E+00 0.  1.
          2   -1    0    0  501    0  0.00000000000E+00 -0.00000000000E+00 -0.84661531982E+03  0.84661531982E+03  0.00000000000E+00 0. -1.
         25    2    1    2    0    0 -0.63312637813E+02  0.72403505268E+02 -0.38455694163E+03  0.41567223019E+03  0.12509438000E+03 0.  0.
         23    2    1    2    0    0  0.63312637813E+02 -0.72403505268E+02 -0.43439395666E+03  0.45860751116E+03  0.11122941170E+03 0.  0.
          5    1    3    3  502    0 -0.58689809358E+02  0.30428235689E+02 -0.63293541180E+02  0.91618316972E+02  0.41800000000E+01 0.  1.
         -5    1    3    3    0  502 -0.46228284548E+01  0.41975269579E+02 -0.32126340045E+03  0.32405391322E+03  0.41800000000E+01 0.  1.
        -11    1    4    4    0    0  0.22702372500E+02  0.70385964733E+00 -0.79864827181E+01  0.24076483168E+02  0.00000000000E+00 0.  1.
         11    1    4    4    0    0  0.40610265313E+02 -0.73107364915E+02 -0.42640747394E+03  0.43453102799E+03  0.00000000000E+00 0. -1.
</event>
<event>
 8    1  0.6862919E-009  0.8538662E+02  0.7561462E-02  0.1314425E+00
          4   -1    0    0  501    0  0.00000000000E+00  0.00000000000E+00  0.34365118249E+03  0.34365118249E+03  0.00000000000E+00 0. -1.
         -4   -1    0    0    0  501 -0.00000000000E+00 -0.00000000000E+00 -0.35155759791E+02  0.35155759791E+02  0.00000000000E+00 0.  1.
         25    2    1    2    0    0 -0.15102539596E+02  0.90326288999E+01  0.15825413436E+03  0.20248714894E+03  0.12508796648E+03 0.  0.
         23    2    1    2    0    0  0.15102539596E+02 -0.90326288999E+01  0.15024128834E+03  0.17631979334E+03  0.90590008913E+02 0.  0.
          5    1    3    3  502    0 -0.22925450232E+02  0.46074669252E+02  0.14295768294E+02  0.53575113683E+02  0.41800000000E+01 0.  1.
         -5    1    3    3    0  502  0.78229106363E+01 -0.37042040352E+02  0.14395836607E+03  0.14891203526E+03  0.41800000000E+01 0.  1.
        -11    1    4    4    0    0 -0.72566207717E+01  0.32813593864E+02  0.10690193341E+03  0.11205986728E+03  0.00000000000E+00 0.  1.
         11    1    4    4    0    0  0.22359160367E+02 -0.41846222764E+02  0.43339354924E+02  0.64259926060E+02  0.00000000000E+00 0. -1.
</event>
<event>
 8    1  0.6862919E-009  0.1354467E+03  0.7561462E-02  0.1219590E+00
          2   -1    0    0  501    0  0.00000000000E+00  0.00000000000E+00  0.36207675714E+03  0.36207675714E+03  0.00000000000E+00 0. -1.
         -2   -1    0    0    0  501 -0.00000000000E+00 -0.00000000000E+00 -0.65343928558E+02  0.65343928558E+02  0.00000000000E+00 0.  1.
         25    2    1    2    0    0 -0.10741635665E+03 -0.16107794918E+02  0.14731740564E+03  0.22169220125E+03  0.12508908569E+03 0.  0.
         23    2    1    2    0    0  0.10741635665E+03  0.16107794918E+02  0.14941542295E+03  0.20572848445E+03  0.90562166323E+02 0.  0.
          5    1    3    3  502    0 -0.10464469835E+03 -0.56561325341E+02  0.13301138939E+03  0.17849145224E+03  0.41800000000E+01 0. -1.
         -5    1    3    3    0  502 -0.27716582947E+01  0.40453530423E+02  0.14306016249E+02  0.43200749002E+02  0.41800000000E+01 0. -1.
        -11    1    4    4    0    0  0.10850649944E+02  0.93139658591E+01 -0.11221846977E+02  0.18177359924E+02  0.00000000000E+00 0.  1.
         11    1    4    4    0    0  0.96565706701E+02  0.67938290589E+01  0.16063726992E+03  0.18755112453E+03  0.00000000000E+00 0. -1.
</event>
<event>
 8    1  0.6862919E-009  0.1177789E+03  0.7561462E-02  0.1246807E+00
          1   -1    0    0  501    0  0.00000000000E+00  0.00000000000E+00  0.10138824700E+03  0.10138824700E+03  0.00000000000E+00 0. -1.
         -1   -1    0    0    0  501 -0.00000000000E+00 -0.00000000000E+00 -0.17192476118E+03  0.17192476118E+03  0.00000000000E+00 0.  1.
         25    2    1    2    0    0  0.73026177442E+02  0.15100092807E+02 -0.35008796093E+02  0.14977511962E+03  0.12508451246E+03 0.  0.
         23    2    1    2    0    0 -0.73026177442E+02 -0.15100092807E+02 -0.35527718083E+02  0.12353788856E+03  0.91861612026E+02 0.  0.
          5    1    3    3  502    0  0.47642555042E+02 -0.39833606418E+02 -0.57834461198E+02  0.84963677847E+02  0.41800000000E+01 0.  1.
         -5    1    3    3    0  502  0.25383622400E+02  0.54933699225E+02  0.22825665105E+02  0.64811441769E+02  0.41800000000E+01 0.  1.
        -11    1    4    4    0    0 -0.87318799070E+02  0.56046134806E+01 -0.10629489194E+02  0.88141763108E+02  0.00000000000E+00 0. -1.
         11    1    4    4    0    0  0.14292621628E+02 -0.20704706288E+02 -0.24898228890E+02  0.35396125456E+02  0.00000000000E+00 0.  1.
</event>
<event>
 8    1  0.6862919E-009  0.1270691E+03  0.7561462E-02  0.1231871E+00
         -2   -1    0    0    0  501 -0.00000000000E+00  0.00000000000E+00  0.42771653315E+03  0.42771653315E+03  0.00000000000E+00 0.  1.
          2   -1    0    0  501    0  0.00000000000E+00 -0.00000000000E+00 -0.54065626829E+02  0.54065626829E+02  0.00000000000E+00 0. -1.
         25    2    1    2    0    0  0.10061614863E+03 -0.23469008924E+02  0.20868320378E+03  0.26433031056E+03  0.12508968700E+03 0.  0.
         23    2    1    2    0    0 -0.10061614863E+03  0.23469008924E+02  0.16496770254E+03  0.21745184942E+03  0.96935856057E+02 0.  0.
          5    1    3    3  502    0  0.57082599963E+01  0.11099029440E+02  0.14337144505E+03  0.14397436001E+03  0.41800000000E+01 0. -1.
         -5    1    3    3    0  502  0.94907888638E+02 -0.34568038365E+02  0.65311758737E+02  0.12035595054E+03  0.41800000000E+01 0. -1.
        -11    1    4    4    0    0 -0.45337633436E+02 -0.36586644073E+02  0.86044192833E+02  0.10391191775E+03  0.00000000000E+00 0.  1.
         11    1    4    4    0    0 -0.55278515199E+02  0.60055652998E+02  0.78923509705E+02  0.11353993167E+03  0.00000000000E+00 0. -1.
</event>
<event>
 8    1  0.6862919E-009  0.8026091E+02  0.7561462E-02  0.1328313E+00
         -1   -1    0    0    0  501 -0.00000000000E+00  0.00000000000E+00  0.12790644098E+03  0.12790644098E+03  0.00000000000E+00 0.  1.
          1   -1    0    0  501    0  0.00000000000E+00 -0.00000000000E+00 -0.13243257466E+03  0.13243257466E+03  0.00000000000E+00 0. -1.
         25    2    1    2    0    0 -0.22129057755E+01 -0.11492687179E+02  0.69613349658E+02  0.14361192519E+03  0.12506553400E+03 0.  0.
         23    2    1    2    0    0  0.22129057755E+01  0.11492687179E+02 -0.74139483341E+02  0.11672709045E+03  0.89395591868E+02 0.  0.
          5    1    3    3  502    0  0.84056786346E+01 -0.40838780032E+02  0.94567490658E+02  0.10343570021E+03  0.41800000000E+01 0. -1.
         -5    1    3    3    0  502 -0.10618584410E+02  0.29346092853E+02 -0.24954140999E+02  0.40176224980E+02  0.41800000000E+01 0. -1.
        -11    1    4    4    0    0  0.28979456515E+02  0.39106547256E+02 -0.26228761323E+02  0.55290856918E+02  0.00000000000E+00 0.  1.
         11    1    4    4    0    0 -0.26766550739E+02 -0.27613860077E+02 -0.47910722018E+02  0.61436233537E+02  0.00000000000E+00 0. -1.
</event>
<event>
 8    1  0.6862919E-009  0.2786727E+03  0.7561462E-02  0.1096416E+00
         -2   -1    0    0    0  501 -0.00000000000E+00  0.00000000000E+00  0.17050752884E+03  0.17050752884E+03  0.00000000000E+00 0.  1.
          2   -1    0    0  501    0  0.00000000000E+00 -0.00000000000E+00 -0.67362226615E+03  0.67362226615E+03  0.00000000000E+00 0. -1.
         25    2    1    2    0    0 -0.18273027119E+03  0.18886208316E+03 -0.48299493000E+03  0.56390690845E+03  0.12509060929E+03 0.  0.
         23    2    1    2    0    0  0.18273027119E+03 -0.18886208316E+03 -0.20119807315E+02  0.28022288655E+03  0.95188345058E+02 0.  0.
          5    1    3    3  502    0  0.10881476371E+02  0.12273686520E+02 -0.32403413626E+01  0.17234329721E+02  0.41800000000E+01 0. -1.
         -5    1    3    3    0  502 -0.19361174756E+03  0.17658839664E+03 -0.47975458863E+03  0.54667257873E+03  0.41800000000E+01 0. -1.
        -11    1    4    4    0    0  0.16310794141E+03 -0.10918387618E+03 -0.25046096071E+01  0.19629465718E+03  0.00000000000E+00 0. -1.
         11    1    4    4    0    0  0.19622329770E+02 -0.79678206982E+02 -0.17615197708E+02  0.83928229362E+02  0.00000000000E+00 0.  1.
</event>
<event>
 8    1  0.6862919E-009  0.1299155E+03  0.7561462E-02  0.1227581E+00
          1   -1    0    0  501    0  0.00000000000E+00  0.00000000000E+00  0.44545945883E+03  0.44545945883E+03  0.00000000000E+00 0. -1.
         -1   -1    0    0    0  501 -0.00000000000E+00 -0.00000000000E+00 -0.40425185711E+02  0.40425185711E+02  0.00000000000E+00 0.  1.
         25    2    1    2    0    0 -0.30899760407E+02 -0.72360844362E+02  0.24148258864E+03  0.28310944784E+03  0.12508489858E+03 0.  0.
         23    2    1    2    0    0  0.30899760407E+02  0.72360844362E+02  0.16355168448E+03  0.20277519670E+03  0.90430857064E+02 0.  0.
          5    1    3    3  502    0 -0.21898468426E+02  0.34084064835E+02  0.72221660289E+02  0.82913852944E+02  0.41800000000E+01 0.  1.
         -5    1    3    3    0  502 -0.90012919809E+01 -0.10644490920E+03  0.16926092835E+03  0.20019559490E+03  0.41800000000E+01 0.  1.
        -11    1    4    4    0    0  0.49073674323E+02  0.13941086101E+02  0.11084598649E+03  0.12202217878E+03  0.00000000000E+00 0. -1.
         11    1    4    4    0    0 -0.18173913916E+02  0.58419758261E+02  0.52705697995E+02  0.80753017922E+02  0.00000000000E+00 0.  1.
</event>
<event>
 8    1  0.6862919E-009  0.1509384E+03  0.7561462E-02  0.1199325E+00
          1   -1    0    0  501    0  0.00000000000E+00  0.00000000000E+00  0.69169458839E+02  0.69169458839E+02  0.00000000000E+00 0. -1.
         -1   -1    0    0    0  501 -0.00000000000E+00 -0.00000000000E+00 -0.52539086273E+03  0.52539086273E+03  0.00000000000E+00 0.  1.
         25    2    1    2    0    0 -0.38915332609E+02 -0.11992718445E+03 -0.94905670860E+02  0.20137381187E+03  0.12508954018E+03 0.  0.
         23    2    1    2    0    0  0.38915332609E+02  0.11992718445E+03 -0.36131573303E+03  0.39318650969E+03  0.90275355383E+02 0.  0.
          5    1    3    3  502    0 -0.25184253353E+02 -0.13124760807E+03 -0.34251343023E+02  0.13802466496E+03  0.41800000000E+01 0.  1.
         -5    1    3    3    0  502 -0.13731079256E+02  0.11320423613E+02 -0.60654327837E+02  0.63349146906E+02  0.41800000000E+01 0.  1.
        -11    1    4    4    0    0 -0.25471011927E+02  0.31664180816E+02 -0.14858051126E+03  0.15403753154E+03  0.00000000000E+00 0.  1.
         11    1    4    4    0    0  0.64386344536E+02  0.88263003636E+02 -0.21273522176E+03  0.23914897816E+03  0.00000000000E+00 0. -1.
</event>
<event>
 8    1  0.6862919E-009  0.1028891E+03  0.7561462E-02  0.1274335E+00
          2   -1    0    0  501    0  0.00000000000E+00  0.00000000000E+00  0.36525657197E+03  0.36525657197E+03  0.00000000000E+00 0. -1.
         -2   -1    0    0    0  501 -0.00000000000E+00 -0.00000000000E+00 -0.36306280035E+02  0.36306280035E+02  0.00000000000E+00 0.  1.
         25    2    1    2    0    0 -0.35717115138E+02  0.11329976721E+02  0.15531282968E+03  0.20291617400E+03  0.12509523540E+03 0.  0.
         23    2    1    2    0    0  0.35717115138E+02 -0.11329976721E+02  0.17363746226E+03  0.19864667801E+03  0.88918241654E+02 0.  0.
          5    1    3    3  502    0 -0.70119800211E+02  0.26091700863E+02  0.14601020258E+03  0.16411585814E+03  0.41800000000E+01 0.  1.
         -5    1    3    3    0  502  0.34402685074E+02 -0.14761724143E+02  0.93026271036E+01  0.38800315862E+02  0.41800000000E+01 0.  1.
        -11    1    4    4    0    0  0.17037298725E+02 -0.48592907503E+02  0.69664731167E+02  0.86629758028E+02  0.00000000000E+00 0.  1.
         11    1    4    4    0    0  0.18679816413E+02  0.37262930783E+02  0.10397273109E+03  0.11201691998E+03  0.00000000000E+00 0. -1.
</event>
<event>
 8    1  0.6862919E-009  0.1435188E+03  0.7561462E-02  0.1208671E+00
          1   -1    0    0  501    0  0.00000000000E+00  0.00000000000E+00  0.35564165144E+03  0.35564165144E+03  0.00000000000E+00 0. -1.
         -1   -1    0    0    0  501 -0.00000000000E+00 -0.00000000000E+00 -0.60943271154E+02  0.60943271154E+02  0.00000000000E+00 0.  1.
         25    2    1    2    0    0 -0.92536320829E+02 -0.12388526896E+02  0.19207574335E+03  0.24750220872E+03  0.12509119020E+03 0.  0.
         23    2    1    2    0    0  0.92536320829E+02  0.12388526896E+02  0.10262263693E+03  0.16908271387E+03  0.96649429634E+02 0.  0.
          5    1    3    3  502    0 -0.12328100409E+03 -0.16969541942E+02  0.14808605718E+03  0.19347641731E+03  0.41800000000E+01 0. -1.
         -5    1    3    3    0  502  0.30744683263E+02  0.45810150455E+01  0.43989686175E+02  0.54025791411E+02  0.41800000000E+01 0. -1.
        -11    1    4    4    0    0 -0.16267669778E+02  0.15278949055E+02  0.33135449457E+02  0.39950486542E+02  0.00000000000E+00 0. -1.
         11    1    4    4    0    0  0.10880399061E+03 -0.28904221591E+01  0.69487187469E+02  0.12913222733E+03  0.00000000000E+00 0.  1.
</event>
<event>
 8    1  0.6862919E-009  0.1159755E+03  0.7561462E-02  0.1249888E+00
         -1   -1    0    0    0  501 -0.00000000000E+00  0.00000000000E+00  0.25837255779E+03  0.25837255779E+03  0.00000000000E+00 0.  1.
          1   -1    0    0  501    0  0.00000000000E+00 -0.00000000000E+00 -0.87751833193E+02  0.87751833193E+02  0.00000000000E+00 0. -1.
         25    2    1    2    0    0  0.14510324264E+02  0.78908209502E+02  0.17166388402E+03  0.22705268339E+03  0.12508947567E+03 0.  0.
         23    2    1    2    0    0 -0.14510324264E+02 -0.78908209502E+02 -0.10431594143E+01  0.11907170759E+03  0.87976862473E+02 0.  0.
          5    1    3    3  502    0  0.36539845749E+02  0.64392117508E+01  0.13992685103E+03  0.14482271857E+03  0.41800000000E+01 0. -1.
         -5    1    3    3    0  502 -0.22029521485E+02  0.72468997751E+02  0.31737032984E+02  0.82229964821E+02  0.41800000000E+01 0. -1.
        -11    1    4    4    0    0  0.34471947152E+02 -0.13459535646E+02 -0.43200542689E+01  0.37257712076E+02  0.00000000000E+00 0. -1.
         11    1    4    4    0    0 -0.48982271416E+02 -0.65448673855E+02  0.32768948545E+01  0.81813995517E+02  0.00000000000E+00 0.  1.
</event>
<event>
 8    1  0.6862919E-009  0.1274335E+03  0.7561462E-02  0.1231314E+00
          1   -1    0    0  501    0  0.00000000000E+00  0.00000000000E+00  0.20098911200E+04  0.20098911200E+04  0.00000000000E+00 0. -1.
         -1   -1    0    0    0  501 -0.00000000000E+00 -0.00000000000E+00 -0.13569745451E+02  0.13569745451E+02  0.00000000000E+00 0.  1.
         25    2    1    2    0    0 -0.59265539387E+02 -0.66379642831E+02  0.16039389450E+04  0.16112683449E+04  0.12508748395E+03 0.  0.
         23    2    1    2    0    0  0.59265539387E+02  0.66379642831E+02  0.39238242945E+03  0.41219252052E+03  0.89554686573E+02 0.  0.
          5    1    3    3  502    0 -0.87450975026E+02 -0.40693356916E+02  0.14248267400E+04  0.14280939513E+04  0.41800000000E+01 0.  1.
         -5    1    3    3    0  502  0.28185435640E+02 -0.25686285915E+02  0.17911220503E+03  0.18317439356E+03  0.41800000000E+01 0.  1.
        -11    1    4    4    0    0 -0.13147664307E+02 -0.86078134140E+01  0.19670517579E+02  0.25177068739E+02  0.00000000000E+00 0.  1.
         11    1    4    4    0    0  0.72413203694E+02  0.74987456245E+02  0.37271191187E+03  0.38701545178E+03  0.00000000000E+00 0. -1.
</event>
<event>
 8    1  0.6862919E-009  0.2563528E+03  0.7561462E-02  0.1109355E+00
          4   -1    0    0  501    0  0.00000000000E+00  0.00000000000E+00  0.29589643016E+03  0.29589643016E+03  0.00000000000E+00 0. -1.
         -4   -1    0    0    0  501 -0.00000000000E+00 -0.00000000000E+00 -0.24724123989E+03  0.24724123989E+03  0.00000000000E+00 0.  1.
         25    2    1    2    0    0  0.23917671341E+03 -0.12459100731E+02 -0.37363354022E+02  0.27276980191E+03  0.12508643084E+03 0.  0.
         23    2    1    2    0    0 -0.23917671341E+03  0.12459100731E+02  0.86018544291E+02  0.27036786813E+03  0.91317384569E+02 0.  0.
          5    1    3    3  502    0 -0.79194850039E+01  0.10365657912E+02 -0.19652471465E+02  0.23955315513E+02  0.41800000000E+01 0.  1.
         -5    1    3    3    0  502  0.24709619842E+03 -0.22824758643E+02 -0.17710882557E+02  0.24881448640E+03  0.41800000000E+01 0.  1.
        -11    1    4    4    0    0 -0.10199480333E+03 -0.31538128133E+02  0.93384353814E+01  0.10716715826E+03  0.00000000000E+00 0.  1.
         11    1    4    4    0    0 -0.13718191008E+03  0.43997228864E+02  0.76680108910E+02  0.16320070987E+03  0.00000000000E+00 0. -1.
</event>
<event>
 8    1  0.6862919E-009  0.1192596E+03  0.7561462E-02  0.1244323E+00
         -2   -1    0    0    0  501 -0.00000000000E+00  0.00000000000E+00  0.60249088864E+02  0.60249088864E+02  0.00000000000E+00 0. -1.
          2   -1    0    0  501    0  0.00000000000E+00 -0.00000000000E+00 -0.27381434663E+03  0.27381434663E+03  0.00000000000E+00 0.  1.
         25    2    1    2    0    0  0.63773996917E+02 -0.10091212306E+02 -0.80923714426E+02  0.16240228771E+03  0.12512753593E+03 0.  0.
         23    2    1    2    0    0 -0.63773996917E+02  0.10091212306E+02 -0.13264154334E+03  0.17166114779E+03  0.87777077824E+02 0.  0.
          5    1    3    3  502    0  0.51862561490E+02 -0.59677242363E+02 -0.78014030237E+02  0.11115196739E+03  0.41800000000E+01 0. -1.
         -5    1    3    3    0  502  0.11911435427E+02  0.49586030057E+02 -0.29096841893E+01  0.51250320319E+02  0.41800000000E+01 0. -1.
        -11    1    4    4    0    0  0.21839796635E+02  0.50450961161E+01 -0.19653247009E+02  0.29810733467E+02  0.00000000000E+00 0. -1.
         11    1    4    4    0    0 -0.85613793552E+02  0.50461161903E+01 -0.11298829633E+03  0.14185041432E+03  0.00000000000E+00 0.  1.
</event>
<event>
 8    1  0.6862919E-009  0.8591256E+02  0.7561462E-02  0.1313063E+00
         -4   -1    0    0    0  501 -0.00000000000E+00  0.00000000000E+00  0.64279775750E+02  0.64279775750E+02  0.00000000000E+00 0.  1.
          4   -1    0    0  501    0  0.00000000000E+00 -0.00000000000E+00 -0.19607970485E+03  0.19607970485E+03  0.00000000000E+00 0. -1.
         25    2    1    2    0    0  0.27058387156E+02  0.61589182991E+01 -0.58995416228E+02  0.14106813064E+03  0.12509864011E+03 0.  0.
         23    2    1    2    0    0 -0.27058387156E+02 -0.61589182991E+01 -0.72804512872E+02  0.11929134996E+03  0.90331835417E+02 0.  0.
          5    1    3    3  502    0 -0.20730453172E+02  0.18204550655E+02 -0.81928186807E+02  0.86549740304E+02  0.41800000000E+01 0.  1.
         -5    1    3    3    0  502  0.47788840328E+02 -0.12045632356E+02  0.22932770579E+02  0.54518390340E+02  0.41800000000E+01 0.  1.
        -11    1    4    4    0    0 -0.25545073425E+02  0.40442553590E+02 -0.35184359830E+02  0.59380889972E+02  0.00000000000E+00 0.  1.
         11    1    4    4    0    0 -0.15133137311E+01 -0.46601471889E+02 -0.37620153042E+02  0.59910459985E+02  0.00000000000E+00 0. -1.
</event>
<event>
 8    1  0.6862919E-009  0.1088095E+03  0.7561462E-02  0.1262791E+00
          2   -1    0    0  501    0  0.00000000000E+00  0.00000000000E+00  0.28408338563E+03  0.28408338563E+03  0.00000000000E+00 0.  1.
         -2   -1    0    0    0  501 -0.00000000000E+00 -0.00000000000E+00 -0.66732849191E+02  0.66732849191E+02  0.00000000000E+00 0. -1.
         25    2    1    2    0    0 -0.15804328216E+02 -0.79750102834E+02  0.15424345888E+03  0.21458666041E+03  0.12508610843E+03 0.  0.
         23    2    1    2    0    0  0.15804328216E+02  0.79750102834E+02  0.63107077559E+02  0.13622957442E+03  0.89253224121E+02 0.  0.
          5    1    3    3  502    0  0.12172384963E+01 -0.10176689060E+03  0.64570982442E+02  0.12060209727E+03  0.41800000000E+01 0.  1.
         -5    1    3    3    0  502 -0.17021566713E+02  0.22016787766E+02  0.89672476442E+02  0.93984563137E+02  0.41800000000E+01 0.  1.
        -11    1    4    4    0    0 -0.59875588994E+01  0.51951225093E+02  0.81169425141E+02  0.96557010248E+02  0.00000000000E+00 0.  1.
         11    1    4    4    0    0  0.21791887116E+02  0.27798877741E+02 -0.18062347583E+02  0.39672564171E+02  0.00000000000E+00 0. -1.
</event>
<event>
 8    1  0.6862919E-009  0.9868700E+02  0.7561462E-02  0.1283081E+00
         -2   -1    0    0    0  501 -0.00000000000E+00  0.00000000000E+00  0.22305278754E+02  0.22305278754E+02  0.00000000000E+00 0.  1.
          2   -1    0    0  501    0  0.00000000000E+00 -0.00000000000E+00 -0.61756160103E+03  0.61756160103E+03  0.00000000000E+00 0. -1.
         25    2    1    2    0    0  0.40734778396E+02  0.15143722122E+02 -0.28265563156E+03  0.31212585621E+03  0.12505874449E+03 0.  0.
         23    2    1    2    0    0 -0.40734778396E+02 -0.15143722122E+02 -0.31260069071E+03  0.32774102357E+03  0.88353450441E+02 0.  0.
          5    1    3    3  502    0  0.32235200638E+02 -0.39058048952E+02 -0.44023377117E+02  0.67232205682E+02  0.41800000000E+01 0. -1.
         -5    1    3    3    0  502  0.84995777582E+01  0.54201771074E+02 -0.23863225444E+03  0.24489365053E+03  0.41800000000E+01 0. -1.
        -11    1    4    4    0    0  0.15062140671E+02  0.20416461733E+02 -0.41148675479E+02  0.48341633040E+02  0.00000000000E+00 0.  1.
         11    1    4    4    0    0 -0.55796919067E+02 -0.35560183856E+02 -0.27145201523E+03  0.27939939053E+03  0.00000000000E+00 0. -1.
</event>
<event>
 8    1  0.6862919E-009  0.1323262E+03  0.7561462E-02  0.1224044E+00
          1   -1    0    0  501    0  0.00000000000E+00  0.00000000000E+00  0.32697543573E+03  0.32697543573E+03  0.00000000000E+00 0. -1.
         -1   -1    0    0    0  501 -0.00000000000E+00 -0.00000000000E+00 -0.57823563667E+02  0.57823563667E+02  0.00000000000E+00 0.  1.
         25    2    1    2    0    0 -0.78201897714E+02  0.92341107406E+01  0.10185480302E+03  0.17950719018E+03  0.12509046655E+03 0.  0.
         23    2    1    2    0    0  0.78201897714E+02 -0.92341107406E+01  0.16729706905E+03  0.20529180922E+03  0.89194237549E+02 0.  0.
          5    1    3    3  502    0 -0.68472148814E+02  0.62857936455E+02  0.67478759174E+02  0.11493655066E+03  0.41800000000E+01 0.  1.
         -5    1    3    3    0  502 -0.97297488999E+01 -0.53623825714E+02  0.34376043845E+02  0.64570639522E+02  0.41800000000E+01 0.  1.
        -11    1    4    4    0    0  0.97216117642E+02 -0.11082910703E+02  0.15222007893E+03  0.18095512391E+03  0.00000000000E+00 0. -1.
         11    1    4    4    0    0 -0.19014219928E+02  0.18487999621E+01  0.15076990120E+02  0.24336685309E+02  0.00000000000E+00 0.  1.
</event>
<event>
 8    1  0.6862919E-009  0.1181044E+03  0.7561462E-02  0.1246257E+00
         -2   -1    0    0    0  501 -0.00000000000E+00  0.00000000000E+00  0.43675102234E+02  0.43675102234E+02  0.00000000000E+00 0.  1.
          2   -1    0    0  501    0  0.00000000000E+00 -0.00000000000E+00 -0.42799901229E+03  0.42799901229E+03  0.00000000000E+00 0. -1.
         25    2    1    2    0    0 -0.23627452468E+01  0.69226986131E+02 -0.13247151932E+03  0.19492011217E+03  0.12508872261E+03 0.  0.
         23    2    1    2    0    0  0.23627452468E+01 -0.69226986131E+02 -0.25185239074E+03  0.27675400236E+03  0.91461428625E+02 0.  0.
          5    1    3    3  502    0 -0.55834479851E+02  0.27644415490E+02 -0.10403727669E+03  0.12133808219E+03  0.41800000000E+01 0.  1.
         -5    1    3    3    0  502  0.53471734604E+02  0.41582570641E+02 -0.28434242637E+02  0.73582029987E+02  0.41800000000E+01 0.  1.
        -11    1    4    4    0    0 -0.36628419565E+02 -0.16127559625E+02 -0.15160144693E+03  0.15679521042E+03  0.00000000000E+00 0.  1.
         11    1    4    4    0    0  0.38991164812E+02 -0.53099426506E+02 -0.10025094381E+03  0.11995879194E+03  0.00000000000E+00 0. -1.
</event>
<event>
 8    1  0.6862919E-009  0.2479183E+03  0.7561462E-02  0.1114628E+00
          2   -1    0    0  501    0  0.00000000000E+00  0.00000000000E+00  0.58236619435E+03  0.58236619435E+03  0.00000000000E+00 0. -1.
         -2   -1    0    0    0  501 -0.00000000000E+00 -0.00000000000E+00 -0.11845090476E+03  0.11845090476E+03  0.00000000000E+00 0.  1.
         25    2    1    2    0    0  0.17317909825E+03 -0.15626594732E+03  0.17237861000E+03  0.31586546715E+03  0.12508621742E+03 0.  0.
         23    2    1    2    0    0 -0.17317909825E+03  0.15626594732E+03  0.29153667960E+03  0.38495163196E+03  0.93723407109E+02 0.  0.
          5    1    3    3  502    0  0.48750338260E+02  0.72206370374E-01  0.84283968560E+02  0.97456967172E+02  0.41800000000E+01 0. -1.
         -5    1    3    3    0  502  0.12442875999E+03 -0.15633815369E+03  0.88094641437E+02  0.21840849997E+03  0.41800000000E+01 0. -1.
        -11    1    4    4    0    0 -0.98226844858E+02  0.34579438229E+02  0.88518891770E+02  0.13667422873E+03  0.00000000000E+00 0.  1.
         11    1    4    4    0    0 -0.74952253395E+02  0.12168650909E+03  0.20301778783E+03  0.24827740323E+03  0.00000000000E+00 0. -1.
</event>
<event>
 8    1  0.6862919E-009  0.1075119E+03  0.7561462E-02  0.1265248E+00
          1   -1    0    0  501    0  0.00000000000E+00  0.00000000000E+00  0.70462168120E+03  0.70462168120E+03  0.00000000000E+00 0. -1.
         -1   -1    0    0    0  501 -0.00000000000E+00 -0.00000000000E+00 -0.26270342232E+02  0.26270342232E+02  0.00000000000E+00 0.  1.
         25    2    1    2    0    0 -0.47251020568E+02 -0.52761041301E+02  0.26027928073E+03  0.29733708260E+03  0.12509056833E+03 0.  0.
         23    2    1    2    0    0  0.47251020568E+02  0.52761041301E+02  0.41807205823E+03  0.43355494083E+03  0.90383927884E+02 0.  0.
          5    1    3    3  502    0  0.27435299111E+02 -0.14450717802E+02  0.17437205030E+03  0.17715700158E+03  0.41800000000E+01 0.  1.
         -5    1    3    3    0  502 -0.74686319679E+02 -0.38310323499E+02  0.85907230437E+02  0.12018008102E+03  0.41800000000E+01 0.  1.
        -11    1    4    4    0    0 -0.31776741981E+01 -0.14939679631E+02  0.13870678773E+02  0.20632192574E+02  0.00000000000E+00 0.  1.
         11    1    4    4    0    0  0.50428694766E+02  0.67700720932E+02  0.40420137946E+03  0.41292274825E+03  0.00000000000E+00 0. -1.
</event>
<event>
 8    1  0.6862919E-009  0.1775089E+03  0.7561462E-02  0.1170236E+00
         -1   -1    0    0    0  501 -0.00000000000E+00  0.00000000000E+00  0.14619391500E+03  0.14619391500E+03  0.00000000000E+00 0.  1.
          1   -1    0    0  501    0  0.00000000000E+00 -0.00000000000E+00 -0.47563358159E+03  0.47563358159E+03  0.00000000000E+00 0. -1.
         25    2    1    2    0    0  0.12360454844E+03  0.10512068137E+03 -0.37697190238E+03  0.42905013156E+03  0.12509099952E+03 0.  0.
         23    2    1    2    0    0 -0.12360454844E+03 -0.10512068137E+03  0.47532235790E+02  0.19277736503E+03  0.92603223394E+02 0.  0.
          5    1    3    3  502    0 -0.33819241991E+01  0.49477614844E+02 -0.37440748757E+02  0.62279642335E+02  0.41800000000E+01 0.  1.
         -5    1    3    3    0  502  0.12698647264E+03  0.55643066528E+02 -0.33953115362E+03  0.36677048922E+03  0.41800000000E+01 0.  1.
        -11    1    4    4    0    0 -0.66887819140E+02 -0.80636554247E+02  0.71147034495E+02  0.12664175752E+03  0.00000000000E+00 0.  1.
         11    1    4    4    0    0 -0.56716729297E+02 -0.24484127124E+02 -0.23614798704E+02  0.66135607513E+02  0.00000000000E+00 0. -1.
</event>
<event>
 8    1  0.6862919E-009  0.5751439E+02  0.7561462E-02  0.1408569E+00
         -1   -1    0    0    0  501 -0.00000000000E+00  0.00000000000E+00  0.55868381245E+02  0.55868381245E+02  0.00000000000E+00 0.  1.
          1   -1    0    0  501    0  0.00000000000E+00 -0.00000000000E+00 -0.23246381906E+03  0.23246381906E+03  0.00000000000E+00 0. -1.
         25    2    1    2    0    0 -0.62774626775E+01  0.93866205322E+01 -0.59487435752E+02  0.13897726341E+03  0.12509360315E+03 0.  0.
         23    2    1    2    0    0  0.62774626775E+01 -0.93866205322E+01 -0.11710800206E+03  0.14935493690E+03  0.92005966359E+02 0.  0.
          5    1    3    3  502    0  0.15396187627E+02  0.21063737969E+02  0.33516278432E+02  0.42679467787E+02  0.41800000000E+01 0.  1.
         -5    1    3    3    0  502 -0.21673650305E+02 -0.11677117437E+02 -0.93003714184E+02  0.96297795620E+02  0.41800000000E+01 0.  1.
        -11    1    4    4    0    0 -0.79962952954E+01 -0.34137839439E+02 -0.71995761231E+01  0.35793389283E+02  0.00000000000E+00 0.  1.
         11    1    4    4    0    0  0.14273757973E+02  0.24751218907E+02 -0.10990842594E+03  0.11356154761E+03  0.00000000000E+00 0. -1.
</event>
<event>
 8    1  0.6862919E-009  0.1552753E+03  0.7561462E-02  0.1194137E+00
          2   -1    0    0  501    0  0.00000000000E+00  0.00000000000E+00  0.42002003103E+03  0.42002003103E+03  0.00000000000E+00 0. -1.
         -2   -1    0    0    0  501 -0.00000000000E+00 -0.00000000000E+00 -0.65756813706E+02  0.65756813706E+02  0.00000000000E+00 0.  1.
         25    2    1    2    0    0 -0.11745042602E+03  0.44143815285E+02  0.18817614098E+03  0.25846030994E+03  0.12509273672E+03 0.  0.
         23    2    1    2    0    0  0.11745042602E+03 -0.44143815285E+02  0.16608707634E+03  0.22731653479E+03  0.91348842713E+02 0.  0.
          5    1    3    3  502    0 -0.12321075736E+03  0.75786451780E+02  0.15186745678E+03  0.20977529366E+03  0.41800000000E+01 0. -1.
         -5    1    3    3    0  502  0.57603313397E+01 -0.31642636496E+02  0.36308684205E+02  0.48685016281E+02  0.41800000000E+01 0. -1.
        -11    1    4    4    0    0  0.77819663148E+02 -0.51197053262E+02  0.16197955620E+03  0.18685399344E+03  0.00000000000E+00 0. -1.
         11    1    4    4    0    0  0.39630762869E+02  0.70532379774E+01  0.41075201354E+01  0.40462541359E+02  0.00000000000E+00 0.  1.
</event>
<event>
 8    1  0.6862919E-009  0.1387309E+03  0.7561462E-02  0.1215047E+00
         -2   -1    0    0    0  501 -0.00000000000E+00  0.00000000000E+00  0.32341609799E+02  0.32341609799E+02  0.00000000000E+00 0.  1.
          2   -1    0    0  501    0  0.00000000000E+00 -0.00000000000E+00 -0.70927970128E+03  0.70927970128E+03  0.00000000000E+00 0. -1.
         25    2    1    2    0    0 -0.12787126670E+02  0.96565915742E+02 -0.26641057144E+03  0.31001746459E+03  0.12509096322E+03 0.  0.
         23    2    1    2    0    0  0.12787126670E+02 -0.96565915742E+02 -0.41052752004E+03  0.43160384650E+03  0.90887561898E+02 0.  0.
          5    1    3    3  502    0 -0.62986924548E+02  0.83847352534E+02 -0.19821006473E+03  0.22428203974E+03  0.41800000000E+01 0.  1.
         -5    1    3    3    0  502  0.50199797878E+02  0.12718563208E+02 -0.68200506711E+02  0.85735424842E+02  0.41800000000E+01 0.  1.
        -11    1    4    4    0    0 -0.19922326412E+02 -0.82633374970E+02 -0.35949792639E+03  0.36941025003E+03  0.00000000000E+00 0. -1.
         11    1    4    4    0    0  0.32709453082E+02 -0.13932540771E+02 -0.51029593654E+02  0.62193596469E+02  0.00000000000E+00 0.  1.
</event>
<event>
 8    1  0.6862919E-009  0.7962347E+02  0.7561462E-02  0.1330123E+00
          2   -1    0    0  501    0  0.00000000000E+00  0.00000000000E+00  0.19026465813E+03  0.19026465813E+03  0.00000000000E+00 0. -1.
         -2   -1    0    0    0  501 -0.00000000000E+00 -0.00000000000E+00 -0.10471222506E+03  0.10471222506E+03  0.00000000000E+00 0.  1.
         25    2    1    2    0    0 -0.27475029981E+02  0.28675261276E+02  0.13051062508E+03  0.18508908398E+03  0.12509115823E+03 0.  0.
         23    2    1    2    0    0  0.27475029981E+02 -0.28675261276E+02 -0.44958192007E+02  0.10988779921E+03  0.92070307395E+02 0.  0.
          5    1    3    3  502    0 -0.28323818970E+02  0.49802839469E+02  0.49131973105E+01  0.57655645413E+02  0.41800000000E+01 0.  1.
         -5    1    3    3    0  502  0.84878898877E+00 -0.21127578192E+02  0.12559742777E+03  0.12743343856E+03  0.41800000000E+01 0.  1.
        -11    1    4    4    0    0  0.64447655127E+01 -0.49931494834E+02  0.61044038899E+01  0.50714425223E+02  0.00000000000E+00 0. -1.
         11    1    4    4    0    0  0.21030264469E+02  0.21256233557E+02 -0.51062595897E+02  0.59173373982E+02  0.00000000000E+00 0.  1.
</event>
<event>
 8    1  0.6862919E-009  0.2120005E+03  0.7561462E-02  0.1139992E+00
          1   -1    0    0  501    0  0.00000000000E+00  0.00000000000E+00  0.38609862471E+03  0.38609862471E+03  0.00000000000E+00 0. -1.
         -1   -1    0    0    0  501 -0.00000000000E+00 -0.00000000000E+00 -0.23422149100E+03  0.23422149100E+03  0.00000000000E+00 0.  1.
         25    2    1    2    0    0  0.71903297410E+02  0.17096663212E+03 -0.14101851397E+03  0.26444820788E+03  0.12508780874E+03 0.  0.
         23    2    1    2    0    0 -0.71903297410E+02 -0.17096663212E+03  0.29289564768E+03  0.35587190783E+03  0.80357207964E+02 0.  0.
          5    1    3    3  502    0 -0.31523501505E+02  0.73971518310E+02 -0.65188420607E+02  0.10359787280E+03  0.41800000000E+01 0.  1.
         -5    1    3    3    0  502  0.10342679891E+03  0.96995113810E+02 -0.75830093360E+02  0.16085033508E+03  0.41800000000E+01 0.  1.
        -11    1    4    4    0    0 -0.18566968232E+02 -0.13731547833E+03  0.18939700652E+03  0.23467317482E+03  0.00000000000E+00 0.  1.
         11    1    4    4    0    0 -0.53336329177E+02 -0.33651153790E+02  0.10349864116E+03  0.12119873301E+03  0.00000000000E+00 0. -1.
</event>
<event>
 8    1  0.6862919E-009  0.9653088E+02  0.7561462E-02  0.1287765E+00
          1   -1    0    0  501    0  0.00000000000E+00  0.00000000000E+00  0.25754493436E+03  0.25754493436E+03  0.00000000000E+00 0. -1.
         -1   -1    0    0    0  501 -0.00000000000E+00 -0.00000000000E+00 -0.71304447112E+02  0.71304447112E+02  0.00000000000E+00 0.  1.
         25    2    1    2    0    0 -0.27796698805E+01  0.39734560172E+02  0.15681159947E+02  0.13220941615E+03  0.12508744583E+03 0.  0.
         23    2    1    2    0    0  0.27796698805E+01 -0.39734560172E+02  0.17055932730E+03  0.19663996531E+03  0.89388086423E+02 0.  0.
          5    1    3    3  502    0 -0.43711195264E+02 -0.27056443220E+02  0.15167263589E+02  0.53760933734E+02  0.41800000000E+01 0.  1.
         -5    1    3    3    0  502  0.40931525384E+02  0.66791003392E+02  0.51389635825E+00  0.78448482419E+02  0.41800000000E+01 0.  1.
        -11    1    4    4    0    0  0.25757511223E+02 -0.18129140099E+02  0.10051699046E+02  0.33062845595E+02  0.00000000000E+00 0.  1.
         11    1    4    4    0    0 -0.22977841342E+02 -0.21605420073E+02  0.16050762825E+03  0.16357711972E+03  0.00000000000E+00 0. -1.
</event>
<event>
 8    1  0.6862919E-009  0.4324410E+03  0.7561462E-02  0.1033092E+00
          2   -1    0    0  501    0  0.00000000000E+00  0.00000000000E+00  0.33083664188E+03  0.33083664188E+03  0.00000000000E+00 0. -1.
         -2   -1    0    0    0  501 -0.00000000000E+00 -0.00000000000E+00 -0.57998201320E+03  0.57998201320E+03  0.00000000000E+00 0.  1.
         25    2    1    2    0    0  0.38385556804E+03 -0.16860539029E+03 -0.55961639572E+02  0.44107466195E+03  0.12506909115E+03 0.  0.
         23    2    1    2    0    0 -0.38385556804E+03  0.16860539029E+03 -0.19318373175E+03  0.46974399313E+03  0.86986148991E+02 0.  0.
          5    1    3    3  502    0  0.22110794528E+03 -0.16135576758E+03 -0.47888424030E+02  0.27791218173E+03  0.41800000000E+01 0. -1.
         -5    1    3    3    0  502  0.16274762275E+03 -0.72496227122E+01 -0.80732155424E+01  0.16316248022E+03  0.41800000000E+01 0. -1.
        -11    1    4    4    0    0 -0.32965779520E+03  0.17561176920E+03 -0.16710735630E+03  0.40919264894E+03  0.00000000000E+00 0. -1.
         11    1    4    4    0    0 -0.54197772840E+02 -0.70063789089E+01 -0.26076375445E+02  0.60551344185E+02  0.00000000000E+00 0.  1.
</event>
<event>
 8    1  0.6862919E-009  0.3145830E+03  0.7561462E-02  0.1078170E+00
         -2   -1    0    0    0  501 -0.00000000000E+00  0.00000000000E+00  0.10258350670E+03  0.10258350670E+03  0.00000000000E+00 0.  1.
          2   -1    0    0  501    0  0.00000000000E+00 -0.00000000000E+00 -0.11864998018E+04  0.11864998018E+04  0.00000000000E+00 0. -1.
         25    2    1    2    0    0 -0.29475668121E+03  0.25175570898E+02 -0.82478797641E+03  0.88512019475E+03  0.12508893893E+03 0.  0.
         23    2    1    2    0    0  0.29475668121E+03 -0.25175570898E+02 -0.25912831867E+03  0.40396311373E+03  0.92322268298E+02 0.  0.
          5    1    3    3  502    0 -0.32652594354E+02 -0.38472325943E+02 -0.15460346107E+03  0.16268378640E+03  0.41800000000E+01 0. -1.
         -5    1    3    3    0  502 -0.26210408686E+03  0.63647896840E+02 -0.67018451533E+03  0.72243640835E+03  0.41800000000E+01 0. -1.
        -11    1    4    4    0    0  0.21123400800E+03  0.22794688964E+02 -0.16202037231E+03  0.26718908104E+03  0.00000000000E+00 0.  1.
         11    1    4    4    0    0  0.83522673210E+02 -0.47970259861E+02 -0.97107946363E+02  0.13677403269E+03  0.00000000000E+00 0. -1.
</event>
<event>
 8    1  0.6862919E-009  0.1023778E+03  0.7561462E-02  0.1275374E+00
          1   -1    0    0  501    0  0.00000000000E+00  0.00000000000E+00  0.74076008222E+03  0.74076008222E+03  0.00000000000E+00 0. -1.
         -1   -1    0    0    0  501 -0.00000000000E+00 -0.00000000000E+00 -0.20617807434E+02  0.20617807434E+02  0.00000000000E+00 0.  1.
         25    2    1    2    0    0  0.59491053831E+02  0.40239817253E+01  0.40835337792E+03  0.43122484472E+03  0.12508799916E+03 0.  0.
         23    2    1    2    0    0 -0.59491053831E+02 -0.40239817253E+01  0.31178889687E+03  0.33015304493E+03  0.90737748221E+02 0.  0.
          5    1    3    3  502    0  0.84811350443E+02 -0.35015584278E+02  0.27200543725E+03  0.28709490870E+03  0.41800000000E+01 0. -1.
         -5    1    3    3    0  502 -0.25320296612E+02  0.39039566004E+02  0.13634794066E+03  0.14412993602E+03  0.41800000000E+01 0. -1.
        -11    1    4    4    0    0 -0.76399313730E+01  0.98930583622E+01 -0.12333094393E+01  0.12560342643E+02  0.00000000000E+00 0.  1.
         11    1    4    4    0    0 -0.51851122458E+02 -0.13917040087E+02  0.31302220631E+03  0.31759270229E+03  0.00000000000E+00 0. -1.
</event>
<event>
 8    1  0.6862919E-009  0.1196684E+03  0.7561462E-02  0.1243645E+00
         -3   -1    0    0    0  501 -0.00000000000E+00  0.00000000000E+00  0.25653475405E+03  0.25653475405E+03  0.00000000000E+00 0.  1.
          3   -1    0    0  501    0  0.00000000000E+00 -0.00000000000E+00 -0.85322130864E+02  0.85322130864E+02  0.00000000000E+00 0. -1.
         25    2    1    2    0    0  0.56676405837E+02  0.74317678970E+02  0.12210477776E+03  0.19822240877E+03  0.12508882525E+03 0.  0.
         23    2    1    2    0    0 -0.56676405837E+02 -0.74317678970E+02  0.49107845434E+02  0.14363447615E+03  0.97385573206E+02 0.  0.
          5    1    3    3  502    0  0.17032053288E+02 -0.27900298656E+02  0.68708416938E+02  0.76202601415E+02  0.41800000000E+01 0.  1.
         -5    1    3    3    0  502  0.39644352549E+02  0.10221797763E+03  0.53396360818E+02  0.12201980736E+03  0.41800000000E+01 0.  1.
        -11    1    4    4    0    0 -0.13505118491E+01 -0.16815882068E+02  0.60700096124E+02  0.63000789212E+02  0.00000000000E+00 0.  1.
         11    1    4    4    0    0 -0.55325893988E+02 -0.57501796902E+02 -0.11592250690E+02  0.80633686934E+02  0.00000000000E+00 0. -1.
</event>
<event>
 8    1  0.6862919E-009  0.1347018E+03  0.7561462E-02  0.1220641E+00
         -2   -1    0    0    0  501 -0.00000000000E+00  0.00000000000E+00  0.10014449034E+03  0.10014449034E+03  0.00000000000E+00 0.  1.
          2   -1    0    0  501    0  0.00000000000E+00 -0.00000000000E+00 -0.27982218866E+03  0.27982218866E+03  0.00000000000E+00 0. -1.
         25    2    1    2    0    0  0.95699292115E+02 -0.75649842245E+02 -0.13337010170E+03  0.21980188193E+03  0.12507609736E+03 0.  0.
         23    2    1    2    0    0 -0.95699292115E+02  0.75649842245E+02 -0.46307596618E+02  0.16016479707E+03  0.92882267272E+02 0.  0.
          5    1    3    3  502    0  0.32007412286E+02 -0.72019205955E+02 -0.13440270189E+03  0.15586147421E+03  0.41800000000E+01 0.  1.
         -5    1    3    3    0  502  0.63691879829E+02 -0.36306362907E+01  0.10326001940E+01  0.63940407718E+02  0.41800000000E+01 0.  1.
        -11    1    4    4    0    0 -0.89770820597E+01  0.23970594096E+02  0.25614877848E+02  0.36211867541E+02  0.00000000000E+00 0. -1.
         11    1    4    4    0    0 -0.86722210055E+02  0.51679248149E+02 -0.71922474466E+02  0.12395292953E+03  0.00000000000E+00 0.  1.
</event>
<event>
 8    1  0.6862919E-009  0.2328437E+03  0.7561462E-02  0.1124654E+00
         -2   -1    0    0    0  501 -0.00000000000E+00  0.00000000000E+00  0.42736449151E+03  0.42736449151E+03  0.00000000000E+00 0.  1.
          2   -1    0    0  501    0  0.00000000000E+00 -0.00000000000E+00 -0.15350452362E+03  0.15350452362E+03  0.00000000000E+00 0. -1.
         25    2    1    2    0    0  0.14349197551E+03 -0.17363331065E+03  0.73234826327E+02  0.26786404434E+03  0.12509729358E+03 0.  0.
         23    2    1    2    0    0 -0.14349197551E+03  0.17363331065E+03  0.20062514156E+03  0.31300497079E+03  0.83565487566E+02 0.  0.
          5    1    3    3  502    0  0.30604936300E+02 -0.33133156718E+02  0.74949422470E+02  0.87574862424E+02  0.41800000000E+01 0. -1.
         -5    1    3    3    0  502  0.11288703921E+03 -0.14050015393E+03 -0.17145961429E+01  0.18028918191E+03  0.41800000000E+01 0. -1.
        -11    1    4    4    0    0 -0.79268541502E+02  0.33688573710E+02  0.77220612876E+02  0.11567819468E+03  0.00000000000E+00 0. -1.
         11    1    4    4    0    0 -0.64223434004E+02  0.13994473694E+03  0.12340452868E+03  0.19732677611E+03  0.00000000000E+00 0.  1.
</event>
<event>
 7    1  0.6862919E-009  0.8143867E+02  0.7561462E-02  0.1325018E+00
         -2   -1    0    0    0  501 -0.00000000000E+00  0.00000000000E+00  0.15644977390E+02  0.15644977390E+02  0.00000000000E+00 0.  1.
          2   -1    0    0  501    0  0.00000000000E+00 -0.00000000000E+00 -0.86747248885E+03  0.86747248885E+03  0.00000000000E+00 0. -1.
         23    2    1    2    0    0 -0.82537236517E+01 -0.82685397216E+01 -0.23727067396E+03  0.25586674908E+03  0.95046977142E+02 0.  0.
          5    1    1    2  502    0 -0.27286008380E+02  0.16890409130E+02 -0.56285460970E+03  0.56378417522E+03  0.41800000000E+01 0. -1.
         -5    1    1    2    0  502  0.35539732031E+02 -0.86218694086E+01 -0.51702227809E+02  0.63466541936E+02  0.41800000000E+01 0. -1.
        -11    1    3    3    0    0 -0.47527206877E+02  0.12688274691E+02 -0.15063731546E+03  0.15846585915E+03  0.00000000000E+00 0.  1.
         11    1    3    3    0    0  0.39273483225E+02 -0.20956814413E+02 -0.86633358494E+02  0.97400889929E+02  0.00000000000E+00 0. -1.
</event>
<event>
 8    1  0.6862919E-009  0.1100306E+03  0.7561462E-02  0.1260513E+00
          3   -1    0    0  501    0  0.00000000000E+00  0.00000000000E+00  0.11145916407E+03  0.11145916407E+03  0.00000000000E+00 0. -1.
         -3   -1    0    0    0  501 -0.00000000000E+00 -0.00000000000E+00 -0.26720347431E+03  0.26720347431E+03  0.00000000000E+00 0.  1.
         25    2    1    2    0    0 -0.55072377694E+02  0.25876622448E+02  0.48140513773E+02  0.14719869980E+03  0.12508949509E+03 0.  0.
         23    2    1    2    0    0  0.55072377694E+02 -0.25876622448E+02 -0.20388482401E+03  0.23146393858E+03  0.91126105088E+02 0.  0.
          5    1    3    3  502    0 -0.58463007901E+02 -0.37570111296E+02  0.46084960713E+02  0.83490913036E+02  0.41800000000E+01 0. -1.
         -5    1    3    3    0  502  0.33906302066E+01  0.63446733744E+02  0.20555530596E+01  0.63707786764E+02  0.41800000000E+01 0. -1.
        -11    1    4    4    0    0  0.33523377788E+02  0.17878782464E+02 -0.16433582869E+03  0.16867048441E+03  0.00000000000E+00 0.  1.
         11    1    4    4    0    0  0.21548999906E+02 -0.43755404911E+02 -0.39548995321E+02  0.62793454172E+02  0.00000000000E+00 0. -1.
</event>
<event>
 8    1  0.6862919E-009  0.9878561E+02  0.7561462E-02  0.1282871E+00
         -3   -1    0    0    0  501 -0.00000000000E+00  0.00000000000E+00  0.78259143912E+03  0.78259143912E+03  0.00000000000E+00 0.  1.
          3   -1    0    0  501    0  0.00000000000E+00 -0.00000000000E+00 -0.19176006762E+02  0.19176006762E+02  0.00000000000E+00 0. -1.
         25    2    1    2    0    0 -0.59958535363E+01  0.11679456426E+01  0.30114451904E+03  0.32615192882E+03  0.12509894072E+03 0.  0.
         23    2    1    2    0    0  0.59958535363E+01 -0.11679456426E+01  0.46227091331E+03  0.47561551705E+03  0.11170679664E+03 0.  0.
          5    1    3    3  502    0  0.29822463441E+02 -0.26890176990E+02  0.26454959594E+03  0.26761244750E+03  0.41800000000E+01 0.  1.
         -5    1    3    3    0  502 -0.35818316977E+02  0.28058122632E+02  0.36594923104E+02  0.58539481324E+02  0.41800000000E+01 0.  1.
        -11    1    4    4    0    0 -0.45983008915E+02  0.26033863966E+02  0.23833632093E+03  0.24412374128E+03  0.00000000000E+00 0.  1.
         11    1    4    4    0    0  0.51978862451E+02 -0.27201809608E+02  0.22393459238E+03  0.23149177578E+03  0.00000000000E+00 0. -1.
</event>
<event>
 8    1  0.6862919E-009  0.1184242E+03  0.7561462E-02  0.1245720E+00
         -2   -1    0    0    0  501 -0.00000000000E+00  0.00000000000E+00  0.13736358556E+03  0.13736358556E+03  0.00000000000E+00 0.  1.
          2   -1    0    0  501    0  0.00000000000E+00 -0.00000000000E+00 -0.14765705203E+03  0.14765705203E+03  0.00000000000E+00 0. -1.
         25    2    1    2    0    0 -0.44364600650E+02  0.77316432398E+02  0.19262369487E+02  0.15480427276E+03  0.12508907018E+03 0.  0.
         23    2    1    2    0    0  0.44364600650E+02 -0.77316432398E+02 -0.29555835960E+02  0.13021636483E+03  0.90203690165E+02 0.  0.
          5    1    3    3  502    0 -0.78803041169E+02  0.43084057672E+02 -0.20133335660E+02  0.92135655030E+02  0.41800000000E+01 0.  1.
         -5    1    3    3    0  502  0.34438440519E+02  0.34232374725E+02  0.39395705147E+02  0.62668617735E+02  0.41800000000E+01 0.  1.
        -11    1    4    4    0    0  0.37903663746E+02 -0.24814484754E+02 -0.55216076247E+02  0.71423115691E+02  0.00000000000E+00 0.  1.
         11    1    4    4    0    0  0.64609369044E+01 -0.52501947644E+02  0.25660240287E+02  0.58793249134E+02  0.00000000000E+00 0. -1.
</event>
<event>
 8    1  0.6862919E-009  0.1254191E+03  0.7561462E-02  0.1234416E+00
          1   -1    0    0  501    0  0.00000000000E+00  0.00000000000E+00  0.43999041759E+02  0.43999041759E+02  0.00000000000E+00 0. -1.
         -1   -1    0    0    0  501 -0.00000000000E+00 -0.00000000000E+00 -0.72351306401E+03  0.72351306401E+03  0.00000000000E+00 0.  1.
         25    2    1    2    0    0 -0.26611887841E+02 -0.10975658998E+03 -0.17699363385E+03  0.24439697061E+03  0.12509368970E+03 0.  0.
         23    2    1    2    0    0  0.26611887841E+02  0.10975658998E+03 -0.50252038841E+03  0.52311513516E+03  0.91476785294E+02 0.  0.
          5    1    3    3  502    0 -0.33564164757E+00 -0.98790628810E+01 -0.13070474348E+03  0.13114461830E+03  0.41800000000E+01 0.  1.
         -5    1    3    3    0  502 -0.26276246194E+02 -0.99877527104E+02 -0.46288890362E+02  0.11325235232E+03  0.41800000000E+01 0.  1.
        -11    1    4    4    0    0  0.11772861410E+01  0.11126012004E+03 -0.46231792523E+03  0.47551873181E+03  0.00000000000E+00 0.  1.
         11    1    4    4    0    0  0.25434601700E+02 -0.15035300513E+01 -0.40202463180E+02  0.47596403352E+02  0.00000000000E+00 0. -1.
</event>
<event>
 8    1  0.6862919E-009  0.8309850E+02  0.7561462E-02  0.1320481E+00
          2   -1    0    0  501    0  0.00000000000E+00  0.00000000000E+00  0.45952948995E+03  0.45952948995E+03  0.00000000000E+00 0. -1.
         -2   -1    0    0    0  501 -0.00000000000E+00 -0.00000000000E+00 -0.36249752281E+02  0.36249752281E+02  0.00000000000E+00 0.  1.
         25    2    1    2    0    0 -0.47840572683E+02 -0.37205488818E+02  0.30190578717E+03  0.33236787324E+03  0.12509328536E+03 0.  0.
         23    2    1    2    0    0  0.47840572683E+02  0.37205488818E+02  0.12137395051E+03  0.16341136900E+03  0.91097040916E+02 0.  0.
          5    1    3    3  502    0 -0.36905986195E+02 -0.52457958784E+02  0.30602704567E+03  0.31270419623E+03  0.41800000000E+01 0. -1.
         -5    1    3    3    0  502 -0.10934586488E+02  0.15252469966E+02 -0.41212585056E+01  0.19663677006E+02  0.41800000000E+01 0. -1.
        -11    1    4    4    0    0  0.50734777775E+02  0.56974282897E+01  0.16171335405E+02  0.53553622228E+02  0.00000000000E+00 0.  1.
         11    1    4    4    0    0 -0.28942050917E+01  0.31508060528E+02  0.10520261510E+03  0.10985774677E+03  0.00000000000E+00 0. -1.
</event>
<event>
 8    1  0.6862919E-009  0.1138747E+03  0.7561462E-02  0.1253558E+00
          1   -1    0    0  501    0  0.00000000000E+00  0.00000000000E+00  0.76465762785E+02  0.76465762785E+02  0.00000000000E+00 0. -1.
         -1   -1    0    0    0  501 -0.00000000000E+00 -0.00000000000E+00 -0.20443016120E+03  0.20443016120E+03  0.00000000000E+00 0.  1.
         25    2    1    2    0    0 -0.26991422392E+02  0.36145850051E+02 -0.12402378485E+03  0.18187352495E+03  0.12514399909E+03 0.  0.
         23    2    1    2    0    0  0.26991422392E+02 -0.36145850051E+02 -0.39406135620E+01  0.99022399039E+02  0.88061613190E+02 0.  0.
          5    1    3    3  502    0 -0.68946785022E+02  0.52954010794E+02 -0.73139086049E+02  0.11368634365E+03  0.41800000000E+01 0. -1.
         -5    1    3    3    0  502  0.41955362630E+02 -0.16808160743E+02 -0.50884698805E+02  0.68187181298E+02  0.41800000000E+01 0. -1.
        -11    1    4    4    0    0  0.50920670072E+02 -0.46771658845E+02  0.91601516933E+01  0.69745330243E+02  0.00000000000E+00 0. -1.
         11    1    4    4    0    0 -0.23929247679E+02  0.10625808794E+02 -0.13100765255E+02  0.29277068796E+02  0.00000000000E+00 0.  1.
</event>
<event>
 8    1  0.6862919E-009  0.1273864E+03  0.7561462E-02  0.1231386E+00
         -2   -1    0    0    0  501 -0.00000000000E+00  0.00000000000E+00  0.90450087380E+02  0.90450087380E+02  0.00000000000E+00 0. -1.
          2   -1    0    0  501    0  0.00000000000E+00 -0.00000000000E+00 -0.32106985900E+03  0.32106985900E+03  0.00000000000E+00 0.  1.
         25    2    1    2    0    0 -0.86226013200E+02 -0.86057102829E+02 -0.17874799170E+03  0.24988884209E+03  0.12511130470E+03 0.  0.
         23    2    1    2    0    0  0.86226013200E+02  0.86057102829E+02 -0.51871779927E+02  0.16163110430E+03  0.92699417604E+02 0.  0.
          5    1    3    3  502    0 -0.20187182956E+02 -0.43652969488E+02 -0.16265246201E+03  0.16966555307E+03  0.41800000000E+01 0. -1.
         -5    1    3    3    0  502 -0.66038830244E+02 -0.42404133341E+02 -0.16095529685E+02  0.80223289014E+02  0.41800000000E+01 0. -1.
        -11    1    4    4    0    0  0.10288788941E+01  0.20187335405E+02  0.22886619279E+02  0.30534970845E+02  0.00000000000E+00 0. -1.
         11    1    4    4    0    0  0.85197134306E+02  0.65869767424E+02 -0.74758399205E+02  0.13109613345E+03  0.00000000000E+00 0.  1.
</event>
<event>
 8    1  0.6862919E-009  0.1133599E+03  0.7561462E-02  0.1254471E+00
          2   -1    0    0  501    0  0.00000000000E+00  0.00000000000E+00  0.26571424575E+02  0.26571424575E+02  0.00000000000E+00 0.  1.
         -2   -1    0    0    0  501 -0.00000000000E+00 -0.00000000000E+00 -0.49585065696E+03  0.49585065696E+03  0.00000000000E+00 0. -1.
         25    2    1    2    0    0 -0.20336483516E+02  0.30221105788E+02 -0.24835038512E+03  0.28045397887E+03  0.12509849190E+03 0.  0.
         23    2    1    2    0    0  0.20336483516E+02 -0.30221105788E+02 -0.22092884726E+03  0.24196810267E+03  0.91717606591E+02 0.  0.
          5    1    3    3  502    0  0.53027376718E+02  0.11884626641E+02 -0.10794933790E+03  0.12092840437E+03  0.41800000000E+01 0.  1.
         -5    1    3    3    0  502 -0.73363860233E+02  0.18336479147E+02 -0.14040104722E+03  0.15952557449E+03  0.41800000000E+01 0.  1.
        -11    1    4    4    0    0  0.20138431591E+01 -0.60799402383E+02 -0.11342951333E+03  0.12871238242E+03  0.00000000000E+00 0.  1.
         11    1    4    4    0    0  0.18322640356E+02  0.30578296596E+02 -0.10749933393E+03  0.11325572024E+03  0.00000000000E+00 0. -1.
</event>
<event>
 8    1  0.6862919E-009  0.1197169E+03  0.7561462E-02  0.1243565E+00
          2   -1    0    0  501    0  0.00000000000E+00  0.00000000000E+00  0.33254044398E+03  0.33254044398E+03  0.00000000000E+00 0. -1.
         -2   -1    0    0    0  501 -0.00000000000E+00 -0.00000000000E+00 -0.70431004848E+02  0.70431004848E+02  0.00000000000E+00 0.  1.
         25    2    1    2    0    0  0.48839067629E+02 -0.65072110653E+02  0.49975927141E+02  0.15736437753E+03  0.12508525057E+03 0.  0.
         23    2    1    2    0    0 -0.48839067629E+02  0.65072110653E+02  0.21213351199E+03  0.24560707130E+03  0.93287579288E+02 0.  0.
          5    1    3    3  502    0  0.54135356414E+02  0.24252195365E+02  0.23654910681E+02  0.63998695248E+02  0.41800000000E+01 0. -1.
         -5    1    3    3    0  502 -0.52962887851E+01 -0.89324306018E+02  0.26321016460E+02  0.93365682282E+02  0.41800000000E+01 0. -1.
        -11    1    4    4    0    0 -0.30980617329E+02  0.65572633623E+02  0.21554518791E+03  0.22741877003E+03  0.00000000000E+00 0. -1.
         11    1    4    4    0    0 -0.17858450300E+02 -0.50052296960E+00 -0.34116759203E+01  0.18188301266E+02  0.00000000000E+00 0.  1.
</event>
<event>
 8    1  0.6862919E-009  0.1805398E+03  0.7561462E-02  0.1167282E+00
         -2   -1    0    0    0  501 -0.00000000000E+00  0.00000000000E+00  0.19727402258E+03  0.19727402258E+03  0.00000000000E+00 0. -1.
          2   -1    0    0  501    0  0.00000000000E+00 -0.00000000000E+00 -0.32673900675E+03  0.32673900675E+03  0.00000000000E+00 0.  1.
         25    2    1    2    0    0 -0.75134641574E+02 -0.12769333323E+03  0.11427790209E+03  0.22507192188E+03  0.12508848627E+03 0.  0.
         23    2    1    2    0    0  0.75134641574E+02  0.12769333323E+03 -0.24374288626E+03  0.29894110744E+03  0.89467253237E+02 0.  0.
          5    1    3    3  502    0  0.76540364883E+01 -0.10674815664E+03  0.50540705454E+02  0.11842967756E+03  0.41800000000E+01 0. -1.
         -5    1    3    3    0  502 -0.82788678062E+02 -0.20945176589E+02  0.63737196637E+02  0.10664224432E+03  0.41800000000E+01 0. -1.
        -11    1    4    4    0    0  0.60156919486E+02  0.25746157686E+02 -0.12950550310E+03  0.14509788051E+03  0.00000000000E+00 0.  1.
         11    1    4    4    0    0  0.14977722088E+02  0.10194717554E+03 -0.11423738317E+03  0.15384322693E+03  0.00000000000E+00 0. -1.
</event>
<event>
 8    1  0.6862919E-009  0.1078214E+03  0.7561462E-02  0.1264658E+00
          2   -1    0    0  501    0  0.00000000000E+00  0.00000000000E+00  0.61101215001E+03  0.61101215001E+03  0.00000000000E+00 0. -1.
         -2   -1    0    0    0  501 -0.00000000000E+00 -0.00000000000E+00 -0.26441292997E+02  0.26441292997E+02  0.00000000000E+00 0.  1.
         25    2    1    2    0    0  0.84119056040E+01  0.65834570036E+02  0.36802149970E+03  0.39432291706E+03  0.12508312401E+03 0.  0.
         23    2    1    2    0    0 -0.84119056040E+01 -0.65834570036E+02  0.21654935732E+03  0.24313052595E+03  0.88396140901E+02 0.  0.
          5    1    3    3  502    0  0.49144737583E+02  0.11821289081E+02  0.58311515235E+02  0.77282943245E+02  0.41800000000E+01 0. -1.
         -5    1    3    3    0  502 -0.40732831979E+02  0.54013280955E+02  0.30970998446E+03  0.31703997381E+03  0.41800000000E+01 0. -1.
        -11    1    4    4    0    0 -0.30793177846E+02 -0.68010958677E+02  0.20432193003E+03  0.21753427637E+03  0.00000000000E+00 0. -1.
         11    1    4    4    0    0  0.22381272242E+02  0.21763886411E+01  0.12227427285E+02  0.25596249583E+02  0.00000000000E+00 0.  1.
</event>
<event>
 8    1  0.6862919E-009  0.1014540E+03  0.7561462E-02  0.1277268E+00
         -1   -1    0    0    0  501 -0.00000000000E+00  0.00000000000E+00  0.10000301293E+02  0.10000301293E+02  0.00000000000E+00 0.  1.
          1   -1    0    0  501    0  0.00000000000E+00 -0.00000000000E+00 -0.12791552584E+04  0.12791552584E+04  0.00000000000E+00 0. -1.
         25    2    1    2    0    0 -0.28036275820E+02  0.31479692025E+02 -0.79859026785E+03  0.80942675666E+03  0.12509298425E+03 0.  0.
         23    2    1    2    0    0  0.28036275820E+02 -0.31479692025E+02 -0.47056468926E+03  0.47972880304E+03  0.83256194474E+02 0.  0.
          5    1    3    3  502    0 -0.65431395833E+02  0.10103202476E+02 -0.23518923595E+03  0.24436610110E+03  0.41800000000E+01 0. -1.
         -5    1    3    3    0  502  0.37395120014E+02  0.21376489550E+02 -0.56340103190E+03  0.56506065555E+03  0.41800000000E+01 0. -1.
        -11    1    4    4    0    0  0.31428255410E+02  0.22850513547E+02 -0.19035973269E+03  0.19428512305E+03  0.00000000000E+00 0.  1.
         11    1    4    4    0    0 -0.33919795905E+01 -0.54330205572E+02 -0.28020495656E+03  0.28544367999E+03  0.00000000000E+00 0. -1.
</event>
<event>
 8    1  0.6862919E-009  0.7821789E+02  0.7561462E-02  0.1334186E+00
          3   -1    0    0  501    0  0.00000000000E+00  0.00000000000E+00  0.23500862893E+03  0.23500862893E+03  0.00000000000E+00 0. -1.
         -3   -1    0    0    0  501 -0.00000000000E+00 -0.00000000000E+00 -0.93479282425E+02  0.93479282425E+02  0.00000000000E+00 0.  1.
         25    2    1    2    0    0 -0.23347703476E+01  0.20933330966E+01  0.18863223481E+03  0.22636141996E+03  0.12509012447E+03 0.  0.
         23    2    1    2    0    0  0.23347703476E+01 -0.20933330966E+01 -0.47102888304E+02  0.10212649140E+03  0.90561056546E+02 0.  0.
          5    1    3    3  502    0  0.44756434803E+02  0.10564541766E+02  0.16774922189E+03  0.17398856814E+03  0.41800000000E+01 0. -1.
         -5    1    3    3    0  502 -0.47091205151E+02 -0.84712086696E+01  0.20883012923E+02  0.52372851819E+02  0.41800000000E+01 0. -1.
        -11    1    4    4    0    0  0.37680583574E+01  0.29934440153E+02  0.13895018970E+02  0.33216570010E+02  0.00000000000E+00 0. -1.
         11    1    4    4    0    0 -0.14332880098E+01 -0.32027773250E+02 -0.60997907275E+02  0.68909921388E+02  0.00000000000E+00 0.  1.
</event>
<event>
 8    1  0.6862919E-009  0.1283671E+03  0.7561462E-02  0.1229899E+00
          1   -1    0    0  501    0  0.00000000000E+00  0.00000000000E+00  0.12277463739E+04  0.12277463739E+04  0.00000000000E+00 0. -1.
         -1   -1    0    0    0  501 -0.00000000000E+00 -0.00000000000E+00 -0.19723477662E+02  0.19723477662E+02  0.00000000000E+00 0.  1.
         25    2    1    2    0    0  0.74130167051E+02  0.80522311485E+02  0.72376334057E+03  0.74260368309E+03  0.12509089760E+03 0.  0.
         23    2    1    2    0    0 -0.74130167051E+02 -0.80522311485E+02  0.48425955568E+03  0.50486616850E+03  0.91670096028E+02 0.  0.
          5    1    3    3  502    0  0.58333559168E+02  0.39430584395E+02  0.13621483081E+03  0.15339337549E+03  0.41800000000E+01 0.  1.
         -5    1    3    3    0  502  0.15796607883E+02  0.41091727090E+02  0.58754850976E+03  0.58921030760E+03  0.41800000000E+01 0.  1.
        -11    1    4    4    0    0  0.17089951029E+01 -0.64427948960E+02  0.19368753212E+03  0.20412922713E+03  0.00000000000E+00 0.  1.
         11    1    4    4    0    0 -0.75839162154E+02 -0.16094362525E+02  0.29057202357E+03  0.30073694137E+03  0.00000000000E+00 0. -1.
</event>
<event>
 8    1  0.6862919E-009  0.9142624E+02  0.7561462E-02  0.1299434E+00
          1   -1    0    0  501    0  0.00000000000E+00  0.00000000000E+00  0.20531582074E+03  0.20531582074E+03  0.00000000000E+00 0. -1.
         -1   -1    0    0    0  501 -0.00000000000E+00 -0.00000000000E+00 -0.69448975159E+02  0.69448975159E+02  0.00000000000E+00 0.  1.
         25    2    1    2    0    0 -0.47812581765E+02 -0.75300266880E+01  0.86723777507E+02  0.15972288326E+03  0.12509053351E+03 0.  0.
         23    2    1    2    0    0  0.47812581765E+02  0.75300266880E+01  0.49143068071E+02  0.11504191264E+03  0.92069844397E+02 0.  0.
          5    1    3    3  502    0 -0.96224130187E+01 -0.59673820442E+02  0.13707854614E+02  0.62120313558E+02  0.41800000000E+01 0. -1.
         -5    1    3    3    0  502 -0.38190168746E+02  0.52143793754E+02  0.73015922893E+02  0.97602569699E+02  0.41800000000E+01 0. -1.
        -11    1    4    4    0    0  0.61147568464E+01 -0.10432885566E+02 -0.25188576419E+02  0.27941004537E+02  0.00000000000E+00 0.  1.
         11    1    4    4    0    0  0.41697824918E+02  0.17962912254E+02  0.74331644490E+02  0.87100908102E+02  0.00000000000E+00 0. -1.
</event>
<event>
 8    1  0.6862919E-009  0.8385151E+02  0.7561462E-02  0.1318464E+00
         -2   -1    0    0    0  501 -0.00000000000E+00  0.00000000000E+00  0.90451140496E+02  0.90451140496E+02  0.00000000000E+00 0.  1.
          2   -1    0    0  501    0  0.00000000000E+00 -0.00000000000E+00 -0.20044706703E+03  0.20044706703E+03  0.00000000000E+00 0. -1.
         25    2    1    2    0    0  0.78016498876E+02 -0.18266490693E+02 -0.51443163956E+02  0.15720354160E+03  0.12508523332E+03 0.  0.
         23    2    1    2    0    0 -0.78016498876E+02  0.18266490693E+02 -0.58552762574E+02  0.13369466592E+03  0.89585707077E+02 0.  0.
          5    1    3    3  502    0  0.43754997034E+02 -0.84060056894E+01 -0.92445995459E+02  0.10270781457E+03  0.41800000000E+01 0.  1.
         -5    1    3    3    0  502  0.34261501842E+02 -0.98604850036E+01  0.41002831503E+02  0.54495727027E+02  0.41800000000E+01 0.  1.
        -11    1    4    4    0    0 -0.41206006235E+02 -0.78169104704E+01 -0.74789612108E+02  0.85746866522E+02  0.00000000000E+00 0. -1.
         11    1    4    4    0    0 -0.36810492641E+02  0.26083401163E+02  0.16236849534E+02  0.47947799402E+02  0.00000000000E+00 0.  1.
</event>
<event>
 8    1  0.6862919E-009  0.1740767E+03  0.7561462E-02  0.1173662E+00
          2   -1    0    0  501    0  0.00000000000E+00  0.00000000000E+00  0.17976694468E+04  0.17976694468E+04  0.00000000000E+00 0. -1.
         -2   -1    0    0    0  501 -0.00000000000E+00 -0.00000000000E+00 -0.21440263141E+02  0.21440263141E+02  0.00000000000E+00 0.  1.
         25    2    1    2    0    0  0.63444544888E+02 -0.14486213374E+03  0.11151912440E+04  0.11332736027E+04  0.12508916775E+03 0.  0.
         23    2    1    2    0    0 -0.63444544888E+02  0.14486213374E+03  0.66103793969E+03  0.68583610724E+03  0.91595634279E+02 0.  0.
          5    1    3    3  502    0  0.72948501074E+02 -0.10179889081E+03  0.46539977236E+03  0.48197398114E+03  0.41800000000E+01 0. -1.
         -5    1    3    3    0  502 -0.95039561856E+01 -0.43063242924E+02  0.64979147164E+03  0.65129962160E+03  0.41800000000E+01 0. -1.
        -11    1    4    4    0    0 -0.56602389618E+02  0.15573492060E+03  0.64069975717E+03  0.66178045819E+03  0.00000000000E+00 0. -1.
         11    1    4    4    0    0 -0.68421552699E+01 -0.10872786868E+02  0.20338182525E+02  0.24055649054E+02  0.00000000000E+00 0.  1.
</event>
<event>
 8    1  0.6862919E-009  0.1285131E+03  0.7561462E-02  0.1229679E+00
          2   -1    0    0  501    0  0.00000000000E+00  0.00000000000E+00  0.14875332572E+03  0.14875332572E+03  0.00000000000E+00 0. -1.
         -2   -1    0    0    0  501 -0.00000000000E+00 -0.00000000000E+00 -0.20463406509E+03  0.20463406509E+03  0.00000000000E+00 0.  1.
         25    2    1    2    0    0  0.72176717914E+01 -0.91644507688E+02 -0.13178090321E+03  0.20362675383E+03  0.12508732090E+03 0.  0.
         23    2    1    2    0    0 -0.72176717914E+01  0.91644507688E+02  0.75900163838E+02  0.14976063698E+03  0.90645479439E+02 0.  0.
          5    1    3    3  502    0 -0.41552682089E+02 -0.37503343060E+02 -0.11612379702E+03  0.12897803985E+03  0.41800000000E+01 0.  1.
         -5    1    3    3    0  502  0.48770353880E+02 -0.54141164628E+02 -0.15657106190E+02  0.74648713982E+02  0.41800000000E+01 0.  1.
        -11    1    4    4    0    0  0.40923642740E+02  0.45977032350E+02  0.46706818593E+02  0.77266803622E+02  0.00000000000E+00 0.  1.
         11    1    4    4    0    0 -0.48141314531E+02  0.45667475338E+02  0.29193345246E+02  0.72493833359E+02  0.00000000000E+00 0. -1.
</event>
<event>
 8    1  0.6862919E-009  0.9805076E+02  0.7561462E-02  0.1284449E+00
          1   -1    0    0  501    0  0.00000000000E+00  0.00000000000E+00  0.16980599636E+03  0.16980599636E+03  0.00000000000E+00 0.  1.
         -1   -1    0    0    0  501 -0.00000000000E+00 -0.00000000000E+00 -0.96602166322E+02  0.96602166322E+02  0.00000000000E+00 0. -1.
         25    2    1    2    0    0  0.37678915880E+02 -0.30924969034E+02 -0.11254780502E+02  0.13472513508E+03  0.12509251586E+03 0.  0.
         23    2    1    2    0    0 -0.37678915880E+02  0.30924969034E+02  0.84458610541E+02  0.13168302761E+03  0.88493550351E+02 0.  0.
          5    1    3    3  502    0 -0.38375691977E+02 -0.40479476953E+02 -0.14855800312E+02  0.57874424334E+02  0.41800000000E+01 0.  1.
         -5    1    3    3    0  502  0.76054607857E+02  0.95545079188E+01  0.36010198096E+01  0.76850710742E+02  0.41800000000E+01 0.  1.
        -11    1    4    4    0    0  0.79645875593E+01  0.11039747716E+02  0.80605697587E+02  0.81747104953E+02  0.00000000000E+00 0.  1.
         11    1    4    4    0    0 -0.45643503440E+02  0.19885221318E+02  0.38529129534E+01  0.49935922654E+02  0.00000000000E+00 0. -1.
</event>
<event>
 8    1  0.6862919E-009  0.1133504E+03  0.7561462E-02  0.1254488E+00
          2   -1    0    0  501    0  0.00000000000E+00  0.00000000000E+00  0.66584499435E+03  0.66584499435E+03  0.00000000000E+00 0. -1.
         -2   -1    0    0    0  501 -0.00000000000E+00 -0.00000000000E+00 -0.20452823932E+02  0.20452823932E+02  0.00000000000E+00 0.  1.
         25    2    1    2    0    0 -0.30219693733E+02 -0.26971875472E+02  0.40149569646E+03  0.42247785713E+03  0.12509210020E+03 0.  0.
         23    2    1    2    0    0  0.30219693733E+02  0.26971875472E+02  0.24389647395E+03  0.26381996115E+03  0.92058513664E+02 0.  0.
          5    1    3    3  502    0  0.10828592375E+02 -0.68187311670E+02  0.16528242766E+03  0.17917176445E+03  0.41800000000E+01 0. -1.
         -5    1    3    3    0  502 -0.41048286108E+02  0.41215436199E+02  0.23621326881E+03  0.24330609268E+03  0.41800000000E+01 0. -1.
        -11    1    4    4    0    0 -0.17612725997E+02 -0.23702201693E+02  0.93760641259E+02  0.98300866382E+02  0.00000000000E+00 0. -1.
         11    1    4    4    0    0  0.47832419730E+02  0.50674077165E+02  0.15013583270E+03  0.16551909477E+03  0.00000000000E+00 0.  1.
</event>
<event>
 8    1  0.6862919E-009  0.1434692E+03  0.7561462E-02  0.1208736E+00
          2   -1    0    0  501    0  0.00000000000E+00  0.00000000000E+00  0.70382078068E+03  0.70382078068E+03  0.00000000000E+00 0. -1.
         -2   -1    0    0    0  501 -0.00000000000E+00 -0.00000000000E+00 -0.42886290339E+02  0.42886290339E+02  0.00000000000E+00 0.  1.
         25    2    1    2    0    0 -0.99531372569E+02 -0.82783519941E+02  0.25781449687E+03  0.31444475453E+03  0.12509030162E+03 0.  0.
         23    2    1    2    0    0  0.99531372569E+02  0.82783519941E+02  0.40311999347E+03  0.43226231648E+03  0.87094063036E+02 0.  0.
          5    1    3    3  502    0 -0.10386095002E+03 -0.90736457803E+02  0.26721781477E+03  0.30073748460E+03  0.41800000000E+01 0. -1.
         -5    1    3    3    0  502  0.43295774503E+01  0.79529378615E+01 -0.94033179002E+01  0.13707269935E+02  0.41800000000E+01 0. -1.
        -11    1    4    4    0    0  0.21983093235E+02  0.50332611338E+02  0.71539989232E+02  0.90192007471E+02  0.00000000000E+00 0.  1.
         11    1    4    4    0    0  0.77548279333E+02  0.32450908603E+02  0.33158000424E+03  0.34207030901E+03  0.00000000000E+00 0. -1.
</event>
<event>
 8    1  0.6862919E-009  0.8541430E+02  0.7561462E-02  0.1314353E+00
          4   -1    0    0  501    0  0.00000000000E+00  0.00000000000E+00  0.48756301349E+02  0.48756301349E+02  0.00000000000E+00 0. -1.
         -4   -1    0    0    0  501 -0.00000000000E+00 -0.00000000000E+00 -0.62805801476E+03  0.62805801476E+03  0.00000000000E+00 0.  1.
         25    2    1    2    0    0  0.60437348279E+01 -0.35726941097E+02 -0.55835197161E+03  0.57333876324E+03  0.12508985644E+03 0.  0.
         23    2    1    2    0    0 -0.60437348279E+01  0.35726941097E+02 -0.20949741806E+02  0.10347555287E+03  0.94632749668E+02 0.  0.
          5    1    3    3  502    0  0.63213139427E+01 -0.67287401256E+02 -0.16028802481E+03  0.17400366857E+03  0.41800000000E+01 0. -1.
         -5    1    3    3    0  502 -0.27757911472E+00  0.31560460159E+02 -0.39806394680E+03  0.39933509467E+03  0.41800000000E+01 0. -1.
        -11    1    4    4    0    0 -0.55697570870E+01  0.53354569872E+02  0.21280646091E+02  0.57711335267E+02  0.00000000000E+00 0. -1.
         11    1    4    4    0    0 -0.47397774090E+00 -0.17627628775E+02 -0.42230387896E+02  0.45764217605E+02  0.00000000000E+00 0.  1.
</event>
<event>
 8    1  0.6862919E-009  0.3401317E+03  0.7561462E-02  0.1066740E+00
         -2   -1    0    0    0  501 -0.00000000000E+00  0.00000000000E+00  0.95520266079E+02  0.95520266079E+02  0.00000000000E+00 0.  1.
          2   -1    0    0  501    0  0.00000000000E+00 -0.00000000000E+00 -0.12723128126E+04  0.12723128126E+04  0.00000000000E+00 0. -1.
         25    2    1    2    0    0  0.32132248054E+03  0.72444411765E+02 -0.52247504408E+03  0.63017737306E+03  0.12508805114E+03 0.  0.
         23    2    1    2    0    0 -0.32132248054E+03 -0.72444411765E+02 -0.65431750247E+03  0.73765570564E+03  0.86649966735E+02 0.  0.
          5    1    3    3  502    0  0.13309854053E+03 -0.14595248506E+02 -0.13220014668E+03  0.18820891039E+03  0.41800000000E+01 0.  1.
         -5    1    3    3    0  502  0.18822394002E+03  0.87039660271E+02 -0.39027489740E+03  0.44196846267E+03  0.41800000000E+01 0.  1.
        -11    1    4    4    0    0 -0.62666570923E+02  0.17454254203E+02 -0.15677745194E+03  0.16973779643E+03  0.00000000000E+00 0. -1.
         11    1    4    4    0    0 -0.25865590962E+03 -0.89898665967E+02 -0.49754005053E+03  0.56791790922E+03  0.00000000000E+00 0.  1.
</event>
<event>
 8    1  0.6862919E-009  0.1392121E+03  0.7561462E-02  0.1214393E+00
         -2   -1    0    0    0  501 -0.00000000000E+00  0.00000000000E+00  0.35087073545E+02  0.35087073545E+02  0.00000000000E+00 0.  1.
          2   -1    0    0  501    0  0.00000000000E+00 -0.00000000000E+00 -0.64398622247E+03  0.64398622247E+03  0.00000000000E+00 0. -1.
         25    2    1    2    0    0  0.39642172005E+02  0.93169347240E+02 -0.36752550016E+03  0.40121621773E+03  0.12508969195E+03 0.  0.
         23    2    1    2    0    0 -0.39642172005E+02 -0.93169347240E+02 -0.24137364876E+03  0.27785707829E+03  0.93227080669E+02 0.  0.
          5    1    3    3  502    0  0.23805336957E+01  0.10526917839E+03 -0.17163923701E+03  0.20140696845E+03  0.41800000000E+01 0.  1.
         -5    1    3    3    0  502  0.37261638310E+02 -0.12099831155E+02 -0.19588626316E+03  0.19980924928E+03  0.41800000000E+01 0.  1.
        -11    1    4    4    0    0  0.16123236686E+02 -0.72343640961E+02 -0.16612832183E+03  0.18191256269E+03  0.00000000000E+00 0. -1.
         11    1    4    4    0    0 -0.55765408691E+02 -0.20825706280E+02 -0.75245326930E+02  0.95944515598E+02  0.00000000000E+00 0.  1.
</event>
<event>
 7    1  0.6862919E-009  0.1178952E+03  0.7561462E-02  0.1246610E+00
         -4   -1    0    0    0  501 -0.00000000000E+00  0.00000000000E+00  0.50105331596E+03  0.50105331596E+03  0.00000000000E+00 0.  1.
          4   -1    0    0  501    0  0.00000000000E+00 -0.00000000000E+00 -0.46395472803E+02  0.46395472803E+02  0.00000000000E+00 0. -1.
         23    2    1    2    0    0 -0.81574220879E+02  0.42320503138E+02  0.30837105876E+03  0.33422954995E+03  0.90395263589E+02 0.  0.
          5    1    1    2  502    0  0.77089231307E+02 -0.73396310140E+01  0.15784901878E+03  0.17587042076E+03  0.41800000000E+01 0. -1.
         -5    1    1    2    0  502  0.44849895722E+01 -0.34980872124E+02 -0.11562234388E+02  0.37348818055E+02  0.41800000000E+01 0. -1.
        -11    1    3    3    0    0 -0.59309406690E+02 -0.15047646833E+02  0.20491155509E+03  0.21385224527E+03  0.00000000000E+00 0.  1.
         11    1    3    3    0    0 -0.22264814190E+02  0.57368149971E+02  0.10345950367E+03  0.12037730468E+03  0.00000000000E+00 0. -1.
</event>
<event>
 8    1  0.6862919E-009  0.7860359E+02  0.7561462E-02  0.1333062E+00
          2   -1    0    0  501    0  0.00000000000E+00  0.00000000000E+00  0.11256806526E+04  0.11256806526E+04  0.00000000000E+00 0. -1.
         -2   -1    0    0    0  501 -0.00000000000E+00 -0.00000000000E+00 -0.12055742826E+02  0.12055742826E+02  0.00000000000E+00 0.  1.
         25    2    1    2    0    0  0.23736664881E+02 -0.12303538225E+02  0.79648457979E+03  0.80668985815E+03  0.12508411203E+03 0.  0.
         23    2    1    2    0    0 -0.23736664881E+02  0.12303538225E+02  0.31714032993E+03  0.33104653723E+03  0.91098927699E+02 0.  0.
          5    1    3    3  502    0  0.20763919678E+02 -0.42638889267E+02  0.74635656575E+03  0.74787352599E+03  0.41800000000E+01 0.  1.
         -5    1    3    3    0  502  0.29727452038E+01  0.30335351042E+02  0.50128014042E+02  0.58816332160E+02  0.41800000000E+01 0.  1.
        -11    1    4    4    0    0 -0.18169282517E+01 -0.30599408501E+02  0.43607789552E+02  0.53303511502E+02  0.00000000000E+00 0.  1.
         11    1    4    4    0    0 -0.21919736630E+02  0.42902946726E+02  0.27353254038E+03  0.27774302573E+03  0.00000000000E+00 0. -1.
</event>
<event>
 8    1  0.6862919E-009  0.1343898E+03  0.7561462E-02  0.1221084E+00
         -1   -1    0    0    0  501 -0.00000000000E+00  0.00000000000E+00  0.16669844736E+02  0.16669844736E+02  0.00000000000E+00 0.  1.
          1   -1    0    0  501    0  0.00000000000E+00 -0.00000000000E+00 -0.15638997191E+04  0.15638997191E+04  0.00000000000E+00 0. -1.
         25    2    1    2    0    0  0.35572243262E+02  0.76401215006E+02 -0.12488085401E+04  0.12578847136E+04  0.12509457570E+03 0.  0.
         23    2    1    2    0    0 -0.35572243262E+02 -0.76401215006E+02 -0.29842133430E+03  0.32268485022E+03  0.89261916017E+02 0.  0.
          5    1    3    3  502    0  0.59870546547E+02  0.10003352070E+03 -0.97578700364E+03  0.98273543565E+03  0.41800000000E+01 0.  1.
         -5    1    3    3    0  502 -0.24298303285E+02 -0.23632305693E+02 -0.27302153641E+03  0.27514927795E+03  0.41800000000E+01 0.  1.
        -11    1    4    4    0    0  0.26694791558E+02 -0.31000825613E+02 -0.14963414058E+03  0.15512588151E+03  0.00000000000E+00 0. -1.
         11    1    4    4    0    0 -0.62267034820E+02 -0.45400389394E+02 -0.14878719372E+03  0.16755896871E+03  0.00000000000E+00 0.  1.
</event>
<event>
 8    1  0.6862919E-009  0.5904519E+02  0.7561462E-02  0.1401883E+00
         -4   -1    0    0    0  501 -0.00000000000E+00  0.00000000000E+00  0.65589082017E+02  0.65589082017E+02  0.00000000000E+00 0.  1.
          4   -1    0    0  501    0  0.00000000000E+00 -0.00000000000E+00 -0.18192621471E+03  0.18192621471E+03  0.00000000000E+00 0. -1.
         25    2    1    2    0    0  0.23933694878E+01  0.10184333918E+02 -0.88818537237E+02  0.15376912287E+03  0.12508701658E+03 0.  0.
         23    2    1    2    0    0 -0.23933694878E+01 -0.10184333918E+02 -0.27518595460E+02  0.93746173858E+02  0.89003500729E+02 0.  0.
          5    1    3    3  502    0  0.16021558652E+02  0.16686203003E+02 -0.11817662146E+03  0.12049193323E+03  0.41800000000E+01 0. -1.
         -5    1    3    3    0  502 -0.13628189164E+02 -0.65018690846E+01  0.29358084225E+02  0.33277189648E+02  0.41800000000E+01 0. -1.
        -11    1    4    4    0    0 -0.20180009454E+02 -0.39654381601E+02  0.69500476057E+01  0.45033386764E+02  0.00000000000E+00 0.  1.
         11    1    4    4    0    0  0.17786639966E+02  0.29470047683E+02 -0.34468643065E+02  0.48712787094E+02  0.00000000000E+00 0. -1.
</event>
<event>
 8    1  0.6862919E-009  0.1086856E+03  0.7561462E-02  0.1263023E+00
          1   -1    0    0  501    0  0.00000000000E+00  0.00000000000E+00  0.33993144704E+03  0.33993144704E+03  0.00000000000E+00 0. -1.
         -1   -1    0    0    0  501 -0.00000000000E+00 -0.00000000000E+00 -0.38507699760E+02  0.38507699760E+02  0.00000000000E+00 0.  1.
         25    2    1    2    0    0  0.14070121719E+01 -0.21358356695E+02  0.11741083469E+03  0.17289818737E+03  0.12510123903E+03 0.  0.
         23    2    1    2    0    0 -0.14070121719E+01  0.21358356695E+02  0.18401291258E+03  0.20554095943E+03  0.89040299423E+02 0.  0.
          5    1    3    3  502    0 -0.47570139994E+02  0.28644644644E+02  0.63450323670E+02  0.84420671992E+02  0.41800000000E+01 0. -1.
         -5    1    3    3    0  502  0.48977152166E+02 -0.50003001340E+02  0.53960511024E+02  0.88477515377E+02  0.41800000000E+01 0. -1.
        -11    1    4    4    0    0  0.26372811780E+02  0.46915407776E+02  0.10960483922E+03  0.12210569794E+03  0.00000000000E+00 0.  1.
         11    1    4    4    0    0 -0.27779823951E+02 -0.25557051081E+02  0.74408073356E+02  0.83435261486E+02  0.00000000000E+00 0. -1.
</event>
<event>
 8    1  0.6862919E-009  0.7942602E+02  0.7561462E-02  0.1330688E+00
         -2   -1    0    0    0  501 -0.00000000000E+00  0.00000000000E+00  0.12631744266E+03  0.12631744266E+03  0.00000000000E+00 0. -1.
          2   -1    0    0  501    0  0.00000000000E+00 -0.00000000000E+00 -0.11704269360E+03  0.11704269360E+03  0.00000000000E+00 0.  1.
         25    2    1    2    0    0  0.46978029339E+02  0.62441224782E+01  0.21965743391E+02  0.13555655274E+03  0.12508861180E+03 0.  0.
         23    2    1    2    0    0 -0.46978029339E+02 -0.62441224782E+01 -0.12690994327E+02  0.10780358352E+03  0.95992848572E+02 0.  0.
          5    1    3    3  502    0 -0.19569264405E+02  0.13475865356E+01 -0.39778897470E+02  0.44548907762E+02  0.41800000000E+01 0.  1.
         -5    1    3    3    0  502  0.66547293744E+02  0.48965359426E+01  0.61744640861E+02  0.91007644975E+02  0.41800000000E+01 0.  1.
        -11    1    4    4    0    0 -0.17811019333E+02  0.24022394137E+02 -0.45523495529E+02  0.54467389095E+02  0.00000000000E+00 0.  1.
         11    1    4    4    0    0 -0.29167010006E+02 -0.30266516615E+02  0.32832501202E+02  0.53336194426E+02  0.00000000000E+00 0. -1.
</event>
<event>
 8    1  0.6862919E-009  0.1753978E+03  0.7561462E-02  0.1172333E+00
          1   -1    0    0  501    0  0.00000000000E+00  0.00000000000E+00  0.62263744946E+03  0.62263744946E+03  0.00000000000E+00 0. -1.
         -1   -1    0    0    0  501 -0.00000000000E+00 -0.00000000000E+00 -0.66422779497E+02  0.66422779497E+02  0.00000000000E+00 0.  1.
         25    2    1    2    0    0 -0.13135261015E+02  0.16457946253E+03  0.37065161399E+03  0.42460473536E+03  0.12509047835E+03 0.  0.
         23    2    1    2    0    0  0.13135261015E+02 -0.16457946253E+03  0.18556305598E+03  0.26445549359E+03  0.90797168339E+02 0.  0.
          5    1    3    3  502    0  0.23013742768E+02  0.91252714093E+02  0.83064572141E+02  0.12559413096E+03  0.41800000000E+01 0.  1.
         -5    1    3    3    0  502 -0.36149003783E+02  0.73326748441E+02  0.28758704185E+03  0.29901060441E+03  0.41800000000E+01 0.  1.
        -11    1    4    4    0    0  0.26653025686E+02 -0.15697765007E+03  0.19040702882E+03  0.24820798340E+03  0.00000000000E+00 0.  1.
         11    1    4    4    0    0 -0.13517764670E+02 -0.76018124659E+01 -0.48439728477E+01  0.16247510191E+02  0.00000000000E+00 0. -1.
</event>
<event>
 8    1  0.6862919E-009  0.1383158E+03  0.7561462E-02  0.1215613E+00
          4   -1    0    0  501    0  0.00000000000E+00  0.00000000000E+00  0.25699161765E+02  0.25699161765E+02  0.00000000000E+00 0. -1.
         -4   -1    0    0    0  501 -0.00000000000E+00 -0.00000000000E+00 -0.13965152301E+04  0.13965152301E+04  0.00000000000E+00 0.  1.
         25    2    1    2    0    0 -0.52888986030E+02 -0.92376961692E+02 -0.11422999825E+04  0.11540490835E+04  0.12509711921E+03 0.  0.
         23    2    1    2    0    0  0.52888986030E+02  0.92376961692E+02 -0.22851608584E+03  0.26816530836E+03  0.91445520538E+02 0.  0.
          5    1    3    3  502    0 -0.60716334163E+02 -0.19929796514E+02 -0.22749159300E+03  0.23633359327E+03  0.41800000000E+01 0.  1.
         -5    1    3    3    0  502  0.78273481332E+01 -0.72447165178E+02 -0.91480838954E+03  0.91771549028E+03  0.41800000000E+01 0.  1.
        -11    1    4    4    0    0  0.78652869128E+02  0.65297074919E+02 -0.17888643479E+03  0.20603479892E+03  0.00000000000E+00 0. -1.
         11    1    4    4    0    0 -0.25763883098E+02  0.27079886773E+02 -0.49629651055E+02  0.62130509444E+02  0.00000000000E+00 0.  1.
</event>
<event>
 7    1  0.6862919E-009  0.1214704E+03  0.7561462E-02  0.1240691E+00
         -2   -1    0    0    0  501 -0.00000000000E+00  0.00000000000E+00  0.62180193678E+02  0.62180193678E+02  0.00000000000E+00 0. -1.
          2   -1    0    0  501    0  0.00000000000E+00 -0.00000000000E+00 -0.34661045460E+03  0.34661045460E+03  0.00000000000E+00 0.  1.
         23    2    1    2    0    0 -0.22827849150E+02  0.10093399853E+03 -0.86310012956E+02  0.15268820206E+03  0.71801712769E+02 0.  0.
          5    1    1    2  502    0  0.21613806046E+02  0.11170077730E+02 -0.11195191550E+03  0.11464131469E+03  0.41800000000E+01 0.  1.
         -5    1    1    2    0  502  0.12140431040E+01 -0.11210407626E+03 -0.86168332462E+02  0.14146113153E+03  0.41800000000E+01 0.  1.
        -11    1    3    3    0    0 -0.60911919740E+01  0.74700461812E+02 -0.94401256390E+02  0.12053571596E+03  0.00000000000E+00 0.  1.
         11    1    3    3    0    0 -0.16736657176E+02  0.26233536716E+02  0.80912434333E+01  0.32152486099E+02  0.00000000000E+00 0. -1.
</event>
<event>
 8    1  0.6862919E-009  0.1848091E+03  0.7561462E-02  0.1163228E+00
         -2   -1    0    0    0  501 -0.00000000000E+00  0.00000000000E+00  0.53089195520E+02  0.53089195520E+02  0.00000000000E+00 0.  1.
          2   -1    0    0  501    0  0.00000000000E+00 -0.00000000000E+00 -0.81519823575E+03  0.81519823575E+03  0.00000000000E+00 0. -1.
         25    2    1    2    0    0 -0.16379607340E+03  0.67254075883E+02 -0.38319918704E+03  0.44027419200E+03  0.12508989889E+03 0.  0.
         23    2    1    2    0    0  0.16379607340E+03 -0.67254075883E+02 -0.37890985318E+03  0.42801323926E+03  0.90941694302E+02 0.  0.
          5    1    3    3  502    0 -0.69563846929E+02 -0.97531480315E+01 -0.52282667290E+02  0.87665286146E+02  0.41800000000E+01 0.  1.
         -5    1    3    3    0  502 -0.94232226476E+02  0.77007223914E+02 -0.33091651975E+03  0.35260890585E+03  0.41800000000E+01 0.  1.
        -11    1    4    4    0    0  0.10409746081E+03 -0.49014615904E+02 -0.14067746149E+03  0.18173844418E+03  0.00000000000E+00 0.  1.
         11    1    4    4    0    0  0.59698612593E+02 -0.18239459978E+02 -0.23823239169E+03  0.24627479509E+03  0.00000000000E+00 0. -1.
</event>
<event>
 8    1  0.6862919E-009  0.1012328E+03  0.7561462E-02  0.1277725E+00
         -2   -1    0    0    0  501 -0.00000000000E+00  0.00000000000E+00  0.53450310457E+02  0.53450310457E+02  0.00000000000E+00 0. -1.
          2   -1    0    0  501    0  0.00000000000E+00 -0.00000000000E+00 -0.27642807638E+03  0.27642807638E+03  0.00000000000E+00 0.  1.
         25    2    1    2    0    0  0.22962909729E+02 -0.58355642247E+02 -0.71957383685E+02  0.15734194007E+03  0.12508375128E+03 0.  0.
         23    2    1    2    0    0 -0.22962909729E+02  0.58355642247E+02 -0.15102038224E+03  0.17253644676E+03  0.55036291704E+02 0.  0.
          5    1    3    3  502    0  0.80059794135E+01  0.39082483794E+02 -0.11930436356E+02  0.41849061608E+02  0.41800000000E+01 0.  1.
         -5    1    3    3    0  502  0.14956930315E+02 -0.97438126041E+02 -0.60026947329E+02  0.11549287847E+03  0.41800000000E+01 0.  1.
        -11    1    4    4    0    0 -0.20900172938E+02  0.39243688607E+02 -0.14606898119E+03  0.15268605565E+03  0.00000000000E+00 0.  1.
         11    1    4    4    0    0 -0.20627367904E+01  0.19111953640E+02 -0.49514010521E+01  0.19850391115E+02  0.00000000000E+00 0. -1.
</event>
<event>
 8    1  0.6862919E-009  0.8189158E+02  0.7561462E-02  0.1323768E+00
          2   -1    0    0  501    0  0.00000000000E+00  0.00000000000E+00  0.41724500523E+03  0.41724500523E+03  0.00000000000E+00 0. -1.
         -2   -1    0    0    0  501 -0.00000000000E+00 -0.00000000000E+00 -0.35816516660E+02  0.35816516660E+02  0.00000000000E+00 0.  1.
         25    2    1    2    0    0  0.17514229641E+02  0.51825354336E+02  0.20263971794E+03  0.24434687914E+03  0.12509966614E+03 0.  0.
         23    2    1    2    0    0 -0.17514229641E+02 -0.51825354336E+02  0.17878877063E+03  0.20871464275E+03  0.92756466093E+02 0.  0.
          5    1    3    3  502    0  0.51968091977E+01  0.44548304772E+02  0.40806726485E+01  0.45229222557E+02  0.41800000000E+01 0. -1.
         -5    1    3    3    0  502  0.12317420443E+02  0.72770495641E+01  0.19855904529E+03  0.19911765659E+03  0.41800000000E+01 0. -1.
        -11    1    4    4    0    0 -0.32744254049E+02 -0.71683366616E+02  0.15641048211E+03  0.17514259943E+03  0.00000000000E+00 0. -1.
         11    1    4    4    0    0  0.15230024409E+02  0.19858012280E+02  0.22378288521E+02  0.33572043315E+02  0.00000000000E+00 0.  1.
</event>
<event>
 8    1  0.6862919E-009  0.9843319E+02  0.7561462E-02  0.1283626E+00
         -2   -1    0    0    0  501 -0.00000000000E+00  0.00000000000E+00  0.21697755881E+03  0.21697755881E+03  0.00000000000E+00 0.  1.
          2   -1    0    0  501    0  0.00000000000E+00 -0.00000000000E+00 -0.58493866572E+02  0.58493866572E+02  0.00000000000E+00 0. -1.
         25    2    1    2    0    0  0.32220705261E+02  0.26505262933E+02  0.92907837740E+02  0.16130783888E+03  0.12509056623E+03 0.  0.
         23    2    1    2    0    0 -0.32220705261E+02 -0.26505262933E+02  0.65575854502E+02  0.11416358650E+03  0.83620744907E+02 0.  0.
          5    1    3    3  502    0 -0.43643210044E+02  0.15393046080E+01  0.78690521214E+01  0.44570097856E+02  0.41800000000E+01 0. -1.
         -5    1    3    3    0  502  0.75863915305E+02  0.24965958326E+02  0.85038785618E+02  0.11673774103E+03  0.41800000000E+01 0. -1.
        -11    1    4    4    0    0  0.10503074736E+02 -0.28374620296E+02 -0.59430609608E+01  0.30834293075E+02  0.00000000000E+00 0. -1.
         11    1    4    4    0    0 -0.42723779997E+02  0.18693573624E+01  0.71518915463E+02  0.83329293428E+02  0.00000000000E+00 0.  1.
</event>
<event>
 8    1  0.6862919E-009  0.1242445E+03  0.7561462E-02  0.1236255E+00
          2   -1    0    0  501    0  0.00000000000E+00  0.00000000000E+00  0.44599121020E+03  0.44599121020E+03  0.00000000000E+00 0. -1.
         -2   -1    0    0    0  501 -0.00000000000E+00 -0.00000000000E+00 -0.36422162536E+02  0.36422162536E+02  0.00000000000E+00 0.  1.
         25    2    1    2    0    0 -0.24092889260E+01 -0.67979604931E+02  0.23062469352E+03  0.27103868326E+03  0.12508871733E+03 0.  0.
         23    2    1    2    0    0  0.24092889260E+01  0.67979604931E+02  0.17894435415E+03  0.21137468948E+03  0.89616662016E+02 0.  0.
          5    1    3    3  502    0 -0.18562693261E+02 -0.10115052229E+03  0.18938445649E+03  0.21554569469E+03  0.41800000000E+01 0.  1.
         -5    1    3    3    0  502  0.16153404335E+02  0.33170917358E+02  0.41240237026E+02  0.55492988566E+02  0.41800000000E+01 0.  1.
        -11    1    4    4    0    0  0.43239248111E+02  0.40280679051E+02  0.12503047292E+03  0.13829238895E+03  0.00000000000E+00 0. -1.
         11    1    4    4    0    0 -0.40829959185E+02  0.27698925881E+02  0.53913881229E+02  0.73082300532E+02  0.00000000000E+00 0.  1.
</event>
<event>
 8    1  0.6862919E-009  0.1112644E+03  0.7561462E-02  0.1258246E+00
          2   -1    0    0  501    0  0.00000000000E+00  0.00000000000E+00  0.13288487124E+03  0.13288487124E+03  0.00000000000E+00 0. -1.
         -2   -1    0    0    0  501 -0.00000000000E+00 -0.00000000000E+00 -0.19419959909E+03  0.19419959909E+03  0.00000000000E+00 0.  1.
         25    2    1    2    0    0  0.73010163792E+02 -0.12491547882E+02  0.64631918282E+02  0.15909608469E+03  0.12509099295E+03 0.  0.
         23    2    1    2    0    0 -0.73010163792E+02  0.12491547882E+02 -0.12594664613E+03  0.16798838565E+03  0.82891599432E+02 0.  0.
          5    1    3    3  502    0 -0.18621657594E+02  0.26895884907E+02 -0.99932623477E+01  0.34460012316E+02  0.41800000000E+01 0.  1.
         -5    1    3    3    0  502  0.91631821385E+02 -0.39387432789E+02  0.74625180629E+02  0.12463607237E+03  0.41800000000E+01 0.  1.
        -11    1    4    4    0    0 -0.49277364575E+02  0.32207937587E+02 -0.12377059593E+03  0.13705754382E+03  0.00000000000E+00 0.  1.
         11    1    4    4    0    0 -0.23732799217E+02 -0.19716389705E+02 -0.21760502057E+01  0.30930841827E+02  0.00000000000E+00 0. -1.
</event>
<event>
 8    1  0.6862919E-009  0.2475707E+03  0.7561462E-02  0.1114850E+00
         -2   -1    0    0    0  501 -0.00000000000E+00  0.00000000000E+00  0.40338396639E+02  0.40338396639E+02  0.00000000000E+00 0.  1.
          2   -1    0    0  501    0  0.00000000000E+00 -0.00000000000E+00 -0.17635561842E+04  0.17635561842E+04  0.00000000000E+00 0. -1.
         25    2    1    2    0    0 -0.23016880073E+03  0.67106112196E+02 -0.10268447375E+04  0.10618569677E+04  0.12509675314E+03 0.  0.
         23    2    1    2    0    0  0.23016880073E+03 -0.67106112196E+02 -0.69637305006E+03  0.74203761321E+03  0.90573105529E+02 0.  0.
          5    1    3    3  502    0 -0.66995502572E+02 -0.19402096252E+02 -0.47008683668E+03  0.47525145462E+03  0.41800000000E+01 0. -1.
         -5    1    3    3    0  502 -0.16317329816E+03  0.86508208448E+02 -0.55675790086E+03  0.58660551304E+03  0.41800000000E+01 0. -1.
        -11    1    4    4    0    0  0.14080444802E+03 -0.31161821909E+02 -0.28342144411E+03  0.31800104828E+03  0.00000000000E+00 0. -1.
         11    1    4    4    0    0  0.89364352712E+02 -0.35944290287E+02 -0.41295160596E+03  0.42403656494E+03  0.00000000000E+00 0.  1.
</event>
<event>
 8    1  0.6862919E-009  0.1563020E+03  0.7561462E-02  0.1192936E+00
          1   -1    0    0  501    0  0.00000000000E+00  0.00000000000E+00  0.42303738920E+03  0.42303738920E+03  0.00000000000E+00 0. -1.
         -1   -1    0    0    0  501 -0.00000000000E+00 -0.00000000000E+00 -0.63734057338E+02  0.63734057338E+02  0.00000000000E+00 0.  1.
         25    2    1    2    0    0 -0.62687334259E+01  0.12239703584E+03  0.17182569121E+03  0.24534012286E+03  0.12508947327E+03 0.  0.
         23    2    1    2    0    0  0.62687334259E+01 -0.12239703584E+03  0.18747764065E+03  0.24143132367E+03  0.90115963657E+02 0.  0.
          5    1    3    3  502    0 -0.16802419206E+02  0.14530003931E+03  0.16107650607E+03  0.21761786673E+03  0.41800000000E+01 0. -1.
         -5    1    3    3    0  502  0.10533685780E+02 -0.22903003463E+02  0.10749185143E+02  0.27722256131E+02  0.41800000000E+01 0. -1.
        -11    1    4    4    0    0 -0.17312370545E+02 -0.11457848160E+03  0.10889801242E+03  0.15901799812E+03  0.00000000000E+00 0.  1.
         11    1    4    4    0    0  0.23581103971E+02 -0.78185542435E+01  0.78579628230E+02  0.82413325547E+02  0.00000000000E+00 0. -1.
</event>
<event>
 8    1  0.6862919E-009  0.1109666E+03  0.7561462E-02  0.1258790E+00
          2   -1    0    0  501    0  0.00000000000E+00  0.00000000000E+00  0.25877708031E+03  0.25877708031E+03  0.00000000000E+00 0. -1.
         -2   -1    0    0    0  501 -0.00000000000E+00 -0.00000000000E+00 -0.12659273257E+03  0.12659273257E+03  0.00000000000E+00 0.  1.
         25    2    1    2    0    0 -0.62520819315E+02 -0.79882578820E+02 -0.39740075313E+02  0.16588150722E+03  0.12508925456E+03 0.  0.
         23    2    1    2    0    0  0.62520819315E+02  0.79882578820E+02  0.17192442305E+03  0.21948830566E+03  0.91252560696E+02 0.  0.
          5    1    3    3  502    0 -0.69818605479E+02 -0.74296439898E+02 -0.76646131932E+02  0.12761935822E+03  0.41800000000E+01 0. -1.
         -5    1    3    3    0  502  0.72977861640E+01 -0.55861389225E+01  0.36906056620E+02  0.38262149001E+02  0.41800000000E+01 0. -1.
        -11    1    4    4    0    0  0.38053545032E+02  0.15801202432E+02  0.13590276931E+03  0.14201166500E+03  0.00000000000E+00 0.  1.
         11    1    4    4    0    0  0.24467274283E+02  0.64081376389E+02  0.36021653737E+02  0.77476640664E+02  0.00000000000E+00 0. -1.
</event>
<event>
 8    1  0.6862919E-009  0.1392581E+03  0.7561462E-02  0.1214331E+00
         -1   -1    0    0    0  501 -0.00000000000E+00  0.00000000000E+00  0.44067967581E+02  0.44067967581E+02  0.00000000000E+00 0.  1.
          1   -1    0    0  501    0  0.00000000000E+00 -0.00000000000E+00 -0.57503455958E+03  0.57503455958E+03  0.00000000000E+00 0. -1.
         25    2    1    2    0    0 -0.10925076331E+03  0.36325073681E+02 -0.33107227599E+03  0.37217154039E+03  0.12509022060E+03 0.  0.
         23    2    1    2    0    0  0.10925076331E+03 -0.36325073681E+02 -0.19989431601E+03  0.24693098677E+03  0.88101841006E+02 0.  0.
          5    1    3    3  502    0  0.57696612310E+01 -0.21536186612E+02 -0.13938589260E+03  0.14121967207E+03  0.41800000000E+01 0.  1.
         -5    1    3    3    0  502 -0.11502042454E+03  0.57861260293E+02 -0.19168638338E+03  0.23095186832E+03  0.41800000000E+01 0.  1.
        -11    1    4    4    0    0  0.44852762843E+01  0.11128643958E+02  0.41576799075E+01  0.12698453524E+02  0.00000000000E+00 0.  1.
         11    1    4    4    0    0  0.10476548703E+03 -0.47453717639E+02 -0.20405199592E+03  0.23423253324E+03  0.00000000000E+00 0. -1.
</event>
<event>
 8    1  0.6862919E-009  0.9538730E+02  0.7561462E-02  0.1290306E+00
         -1   -1    0    0    0  501 -0.00000000000E+00  0.00000000000E+00  0.41197045425E+03  0.41197045425E+03  0.00000000000E+00 0.  1.
          1   -1    0    0  501    0  0.00000000000E+00 -0.00000000000E+00 -0.60240691473E+02  0.60240691473E+02  0.00000000000E+00 0. -1.
         25    2    1    2    0    0 -0.22002588163E+02 -0.34976616415E+02  0.34608864825E+03  0.37031234317E+03  0.12508557661E+03 0.  0.
         23    2    1    2    0    0  0.22002588163E+02  0.34976616415E+02  0.56411145292E+01  0.10189880255E+03  0.92973470447E+02 0.  0.
          5    1    3    3  502    0 -0.23889938289E+02 -0.61527522989E+02  0.84326593936E+02  0.10716721552E+03  0.41800000000E+01 0. -1.
         -5    1    3    3    0  502  0.18873501260E+01  0.26550906574E+02  0.26176205431E+03  0.26314512766E+03  0.41800000000E+01 0. -1.
        -11    1    4    4    0    0 -0.27791768107E+02 -0.11030475331E+02 -0.11391444746E+02  0.31997168218E+02  0.00000000000E+00 0. -1.
         11    1    4    4    0    0  0.49794356270E+02  0.46007091746E+02  0.17032559275E+02  0.69901634335E+02  0.00000000000E+00 0.  1.
</event>
<event>
 8    1  0.6862919E-009  0.1471129E+03  0.7561462E-02  0.1204066E+00
          1   -1    0    0  501    0  0.00000000000E+00  0.00000000000E+00  0.82405450576E+03  0.82405450576E+03  0.00000000000E+00 0. -1.
         -1   -1    0    0    0  501 -0.00000000000E+00 -0.00000000000E+00 -0.26857596219E+02  0.26857596219E+02  0.00000000000E+00 0.  1.
         25    2    1    2    0    0 -0.52497862212E+02 -0.85890244304E+02  0.41789330103E+03  0.44767809079E+03  0.12509077634E+03 0.  0.
         23    2    1    2    0    0  0.52497862212E+02  0.85890244304E+02  0.37930360852E+03  0.40323401120E+03  0.92699950084E+02 0.  0.
          5    1    3    3  502    0  0.39755151606E+02 -0.36430008523E+02  0.11269191087E+03  0.12499822709E+03  0.41800000000E+01 0. -1.
         -5    1    3    3    0  502 -0.92253013818E+02 -0.49460235781E+02  0.30520139016E+03  0.32267986370E+03  0.41800000000E+01 0. -1.
        -11    1    4    4    0    0  0.78573130178E+02  0.64304856064E+02  0.30799319783E+03  0.32429718039E+03  0.00000000000E+00 0. -1.
         11    1    4    4    0    0 -0.26075267966E+02  0.21585388240E+02  0.71310410693E+02  0.78936830809E+02  0.00000000000E+00 0.  1.
</event>
<event>
 8    1  0.6862919E-009  0.1159776E+03  0.7561462E-02  0.1249884E+00
         -1   -1    0    0    0  501 -0.00000000000E+00  0.00000000000E+00  0.51195127225E+02  0.51195127225E+02  0.00000000000E+00 0.  1.
          1   -1    0    0  501    0  0.00000000000E+00 -0.00000000000E+00 -0.28274400086E+03  0.28274400086E+03  0.00000000000E+00 0. -1.
         25    2    1    2    0    0  0.39793254741E+02  0.13412702528E+02 -0.10869029185E+03  0.17095105587E+03  0.12508908925E+03 0.  0.
         23    2    1    2    0    0 -0.39793254741E+02 -0.13412702528E+02 -0.12285858178E+03  0.16298807221E+03  0.98526528673E+02 0.  0.
          5    1    3    3  502    0 -0.16978974514E+02 -0.42794377872E+02 -0.16971109741E+02  0.49245662944E+02  0.41800000000E+01 0.  1.
         -5    1    3    3    0  502  0.56772229255E+02  0.56207080400E+02 -0.91719182107E+02  0.12170539293E+03  0.41800000000E+01 0.  1.
        -11    1    4    4    0    0 -0.71070680573E+02 -0.19858095096E+02 -0.97109244469E+02  0.12196553177E+03  0.00000000000E+00 0. -1.
         11    1    4    4    0    0  0.31277425833E+02  0.64453925676E+01 -0.25749337314E+02  0.41022540440E+02  0.00000000000E+00 0.  1.
</event>
<event>
 8    1  0.6862919E-009  0.1339300E+03  0.7561462E-02  0.1221738E+00
         -1   -1    0    0    0  501 -0.00000000000E+00  0.00000000000E+00  0.71397672989E+02  0.71397672989E+02  0.00000000000E+00 0.  1.
          1   -1    0    0  501    0  0.00000000000E+00 -0.00000000000E+00 -0.29654336314E+03  0.29654336314E+03  0.00000000000E+00 0. -1.
         25    2    1    2    0    0 -0.76750338405E+02 -0.56329571654E+02 -0.14064834834E+03  0.21093419491E+03  0.12509053363E+03 0.  0.
         23    2    1    2    0    0  0.76750338405E+02  0.56329571654E+02 -0.84497341808E+02  0.15700684121E+03  0.91911437414E+02 0.  0.
          5    1    3    3  502    0 -0.40731306569E+02 -0.94898143098E+02 -0.10345920669E+03  0.14623945004E+03  0.41800000000E+01 0.  1.
         -5    1    3    3    0  502 -0.36019031836E+02  0.38568571444E+02 -0.37189141651E+02  0.64694744875E+02  0.41800000000E+01 0.  1.
        -11    1    4    4    0    0  0.22317837000E+01  0.33580015390E+02 -0.70119550353E+02  0.77777565106E+02  0.00000000000E+00 0. -1.
         11    1    4    4    0    0  0.74518554705E+02  0.22749556264E+02 -0.14377791455E+02  0.79229276109E+02  0.00000000000E+00 0.  1.
</event>
<event>
 8    1  0.6862919E-009  0.9227034E+02  0.7561462E-02  0.1297445E+00
          2   -1    0    0  501    0  0.00000000000E+00  0.00000000000E+00  0.34471419301E+03  0.34471419301E+03  0.00000000000E+00 0. -1.
         -2   -1    0    0    0  501 -0.00000000000E+00 -0.00000000000E+00 -0.46190509788E+02  0.46190509788E+02  0.00000000000E+00 0.  1.
         25    2    1    2    0    0  0.58769684168E+02  0.10682913736E+02  0.21589326793E+03  0.25656493918E+03  0.12509062497E+03 0.  0.
         23    2    1    2    0    0 -0.58769684168E+02 -0.10682913736E+02  0.82630415299E+02  0.13433976363E+03  0.87472202072E+02 0.  0.
          5    1    3    3  502    0 -0.30809139855E+02  0.12826872484E+02  0.12265405338E+03  0.12718184213E+03  0.41800000000E+01 0.  1.
         -5    1    3    3    0  502  0.89578824023E+02 -0.21439587479E+01  0.93239214545E+02  0.12938309705E+03  0.41800000000E+01 0.  1.
        -11    1    4    4    0    0 -0.19204820000E+02  0.27965329824E+01  0.89850655179E+02  0.91922717236E+02  0.00000000000E+00 0. -1.
         11    1    4    4    0    0 -0.39564864168E+02 -0.13479446719E+02 -0.72202398796E+01  0.42417046389E+02  0.00000000000E+00 0.  1.
</event>
<event>
 8    1  0.6862919E-009  0.1108179E+03  0.7561462E-02  0.1259063E+00
          1   -1    0    0  501    0  0.00000000000E+00  0.00000000000E+00  0.11155103662E+04  0.11155103662E+04  0.00000000000E+00 0. -1.
         -1   -1    0    0    0  501 -0.00000000000E+00 -0.00000000000E+00 -0.24027602223E+02  0.24027602223E+02  0.00000000000E+00 0.  1.
         25    2    1    2    0    0 -0.14940841715E+02  0.63030847713E+02  0.94957120911E+03  0.95996257054E+03  0.12508612694E+03 0.  0.
         23    2    1    2    0    0  0.14940841715E+02 -0.63030847713E+02  0.14191155487E+03  0.17957539788E+03  0.88951209129E+02 0.  0.
          5    1    3    3  502    0  0.50551667842E+02  0.30569334162E+02  0.59314341395E+03  0.59609272536E+03  0.41800000000E+01 0. -1.
         -5    1    3    3    0  502 -0.65492509557E+02  0.32461513551E+02  0.35642779516E+03  0.36386984519E+03  0.41800000000E+01 0. -1.
        -11    1    4    4    0    0 -0.23996930839E+02 -0.27325919940E+02  0.11433889123E+03  0.11998308480E+03  0.00000000000E+00 0. -1.
         11    1    4    4    0    0  0.38937772555E+02 -0.35704927773E+02  0.27572663639E+02  0.59592313086E+02  0.00000000000E+00 0.  1.
</event>
<event>
 8    1  0.6862919E-009  0.1435189E+03  0.7561462E-02  0.1208671E+00
         -1   -1    0    0    0  501 -0.00000000000E+00  0.00000000000E+00  0.29300484677E+03  0.29300484677E+03  0.00000000000E+00 0.  1.
          1   -1    0    0  501    0  0.00000000000E+00 -0.00000000000E+00 -0.95641707762E+02  0.95641707762E+02  0.00000000000E+00 0. -1.
         25    2    1    2    0    0  0.51965677416E+02 -0.97145796436E+02  0.17713196270E+03  0.24322961730E+03  0.12508867704E+03 0.  0.
         23    2    1    2    0    0 -0.51965677416E+02  0.97145796436E+02  0.20231176303E+02  0.14541693724E+03  0.92731050604E+02 0.  0.
          5    1    3    3  502    0  0.85982738483E+02 -0.38455240806E+02  0.12971018653E+03  0.16035598446E+03  0.41800000000E+01 0. -1.
         -5    1    3    3    0  502 -0.34017061067E+02 -0.58690555630E+02  0.47421776174E+02  0.82873632835E+02  0.41800000000E+01 0. -1.
        -11    1    4    4    0    0 -0.52630535393E+02  0.36287235273E+02 -0.25973977941E+02  0.69002784216E+02  0.00000000000E+00 0. -1.
         11    1    4    4    0    0  0.66485797757E+00  0.60858561163E+02  0.46205154244E+02  0.76414153020E+02  0.00000000000E+00 0.  1.
</event>
<event>
 8    1  0.6862919E-009  0.1142613E+03  0.7561462E-02  0.1252876E+00
         -1   -1    0    0    0  501 -0.00000000000E+00  0.00000000000E+00  0.11053666682E+03  0.11053666682E+03  0.00000000000E+00 0.  1.
          1   -1    0    0  501    0  0.00000000000E+00 -0.00000000000E+00 -0.28980759691E+03  0.28980759691E+03  0.00000000000E+00 0. -1.
         25    2    1    2    0    0  0.19934850064E+02  0.60910340982E+02  0.46832064700E+02  0.14814794560E+03  0.12508838321E+03 0.  0.
         23    2    1    2    0    0 -0.19934850064E+02 -0.60910340982E+02 -0.22610299480E+03  0.25219631814E+03  0.91503829104E+02 0.  0.
          5    1    3    3  502    0 -0.42175587592E+02  0.30886566977E+02  0.57938820115E+02  0.78148189261E+02  0.41800000000E+01 0. -1.
         -5    1    3    3    0  502  0.62110437656E+02  0.30023774005E+02 -0.11106755415E+02  0.69999756336E+02  0.41800000000E+01 0. -1.
        -11    1    4    4    0    0  0.32600031592E+02 -0.10738351303E+02 -0.41753697664E+02  0.54050397936E+02  0.00000000000E+00 0.  1.
         11    1    4    4    0    0 -0.52534881656E+02 -0.50171989679E+02 -0.18434929713E+03  0.19814592020E+03  0.00000000000E+00 0. -1.
</event>
<event>
 8    1  0.6862919E-009  0.1581510E+03  0.7561462E-02  0.1190800E+00
         -1   -1    0    0    0  501 -0.00000000000E+00  0.00000000000E+00  0.32290302427E+02  0.32290302427E+02  0.00000000000E+00 0.  1.
          1   -1    0    0  501    0  0.00000000000E+00 -0.00000000000E+00 -0.92382933822E+03  0.92382933822E+03  0.00000000000E+00 0. -1.
         25    2    1    2    0    0 -0.13003466138E+03 -0.33668730171E+02 -0.46761190523E+03  0.50234529802E+03  0.12508920008E+03 0.  0.
         23    2    1    2    0    0  0.13003466138E+03  0.33668730171E+02 -0.42392713055E+03  0.45377434262E+03  0.90301414436E+02 0.  0.
          5    1    3    3  502    0 -0.13833033834E+03 -0.62258137393E+02 -0.36156166101E+03  0.39211690258E+03  0.41800000000E+01 0. -1.
         -5    1    3    3    0  502  0.82956769616E+01  0.28589407222E+02 -0.10605024423E+03  0.11022839544E+03  0.41800000000E+01 0. -1.
        -11    1    4    4    0    0  0.99482600108E+02  0.28661847868E+02 -0.40376891689E+03  0.41683045413E+03  0.00000000000E+00 0. -1.
         11    1    4    4    0    0  0.30552061272E+02  0.50068823029E+01 -0.20158213665E+02  0.36943888486E+02  0.00000000000E+00 0.  1.
</event>
<event>
 8    1  0.6862919E-009  0.1022109E+03  0.7561462E-02  0.1275714E+00
          1   -1    0    0  501    0  0.00000000000E+00  0.00000000000E+00  0.35074413338E+03  0.35074413338E+03  0.00000000000E+00 0. -1.
         -1   -1    0    0    0  501 -0.00000000000E+00 -0.00000000000E+00 -0.34189885209E+02  0.34189885209E+02  0.00000000000E+00 0.  1.
         25    2    1    2    0    0  0.65954397819E+01  0.13869309859E+02  0.15926845100E+03  0.20310074674E+03  0.12509043234E+03 0.  0.
         23    2    1    2    0    0 -0.65954397819E+01 -0.13869309859E+02  0.15728579717E+03  0.18183327185E+03  0.89936973351E+02 0.  0.
          5    1    3    3  502    0  0.55546755219E+02  0.32404641278E+02  0.48961603982E+02  0.80933391479E+02  0.41800000000E+01 0.  1.
         -5    1    3    3    0  502 -0.48951315437E+02 -0.18535331419E+02  0.11030684702E+03  0.12216735527E+03  0.41800000000E+01 0.  1.
        -11    1    4    4    0    0 -0.92951626854E+01 -0.50192159050E+02  0.65195147284E+02  0.82801329149E+02  0.00000000000E+00 0.  1.
         11    1    4    4    0    0  0.26997229034E+01  0.36322849191E+02  0.92090649891E+02  0.99031942697E+02  0.00000000000E+00 0. -1.
</event>
<event>
 8    1  0.6862919E-009  0.1800192E+03  0.7561462E-02  0.1167785E+00
         -2   -1    0    0    0  501 -0.00000000000E+00  0.00000000000E+00  0.50219137222E+02  0.50219137222E+02  0.00000000000E+00 0.  1.
          2   -1    0    0  501    0  0.00000000000E+00 -0.00000000000E+00 -0.81863689344E+03  0.81863689344E+03  0.00000000000E+00 0. -1.
         25    2    1    2    0    0 -0.41927352791E+02 -0.16310586770E+03 -0.33674986541E+03  0.39674854666E+03  0.12509000932E+03 0.  0.
         23    2    1    2    0    0  0.41927352791E+02  0.16310586770E+03 -0.43166789081E+03  0.47210748401E+03  0.90481387642E+02 0.  0.
          5    1    3    3  502    0 -0.10456655472E+02 -0.11211274172E+02 -0.16307630824E+03  0.16384867720E+03  0.41800000000E+01 0. -1.
         -5    1    3    3    0  502 -0.31470697318E+02 -0.15189459352E+03 -0.17367355717E+03  0.23289986945E+03  0.41800000000E+01 0. -1.
        -11    1    4    4    0    0  0.61918514184E+02  0.68759024351E+02 -0.17572662513E+03  0.19859897433E+03  0.00000000000E+00 0. -1.
         11    1    4    4    0    0 -0.19991161394E+02  0.94346843345E+02 -0.25594126569E+03  0.27350850967E+03  0.00000000000E+00 0.  1.
</event>
<event>
 8    1  0.6862919E-009  0.1258384E+03  0.7561462E-02  0.1233765E+00
         -2   -1    0    0    0  501 -0.00000000000E+00  0.00000000000E+00  0.22729122879E+02  0.22729122879E+02  0.00000000000E+00 0.  1.
          2   -1    0    0  501    0  0.00000000000E+00 -0.00000000000E+00 -0.10093364375E+04  0.10093364375E+04  0.00000000000E+00 0. -1.
         25    2    1    2    0    0 -0.68432456810E+02  0.54545022709E+02 -0.74189222663E+03  0.75743678954E+03  0.12509297966E+03 0.  0.
         23    2    1    2    0    0  0.68432456810E+02 -0.54545022709E+02 -0.24471508799E+03  0.27462877084E+03  0.88754306019E+02 0.  0.
          5    1    3    3  502    0 -0.89654863732E+01  0.65923258981E+02 -0.17435524815E+03  0.18666408593E+03  0.41800000000E+01 0. -1.
         -5    1    3    3    0  502 -0.59466970437E+02 -0.11378236272E+02 -0.56753697848E+03  0.57077270360E+03  0.41800000000E+01 0. -1.
        -11    1    4    4    0    0  0.83737199088E+02 -0.64818016526E+02 -0.20103803493E+03  0.22722144544E+03  0.00000000000E+00 0.  1.
         11    1    4    4    0    0 -0.15304742278E+02  0.10272993817E+02 -0.43677053050E+02  0.47407325397E+02  0.00000000000E+00 0. -1.
</event>
<event>
 8    1  0.6862919E-009  0.1772890E+03  0.7561462E-02  0.1170453E+00
          1   -1    0    0  501    0  0.00000000000E+00  0.00000000000E+00  0.15404709863E+03  0.15404709863E+03  0.00000000000E+00 0. -1.
         -1   -1    0    0    0  501 -0.00000000000E+00 -0.00000000000E+00 -0.21805623232E+03  0.21805623232E+03  0.00000000000E+00 0.  1.
         25    2    1    2    0    0  0.12375629101E+03 -0.69619477048E+02 -0.71831225019E+02  0.20241047539E+03  0.12509110485E+03 0.  0.
         23    2    1    2    0    0 -0.12375629101E+03  0.69619477048E+02  0.78220913303E+01  0.16969285556E+03  0.92585036408E+02 0.  0.
          5    1    3    3  502    0 -0.48477199609E+01  0.25209933946E+02 -0.24443511366E+02  0.35693119873E+02  0.41800000000E+01 0.  1.
         -5    1    3    3    0  502  0.12860401097E+03 -0.94829410994E+02 -0.47387713653E+02  0.16671735552E+03  0.41800000000E+01 0.  1.
        -11    1    4    4    0    0 -0.30030886260E+02  0.68722474717E+02  0.11588121444E+02  0.75887530065E+02  0.00000000000E+00 0.  1.
         11    1    4    4    0    0 -0.93725404748E+02  0.89700233126E+00 -0.37660301141E+01  0.93805325495E+02  0.00000000000E+00 0. -1.
</event>
<event>
 8    1  0.6862919E-009  0.1331318E+03  0.7561462E-02  0.1222881E+00
         -1   -1    0    0    0  501 -0.00000000000E+00  0.00000000000E+00  0.23375507918E+03  0.23375507918E+03  0.00000000000E+00 0.  1.
          1   -1    0    0  501    0  0.00000000000E+00 -0.00000000000E+00 -0.11035344857E+03  0.11035344857E+03  0.00000000000E+00 0. -1.
         25    2    1    2    0    0  0.10021672366E+03 -0.15593728169E+02  0.13021826604E+03  0.20710122075E+03  0.12509021852E+03 0.  0.
         23    2    1    2    0    0 -0.10021672366E+03  0.15593728169E+02 -0.68166354272E+01  0.13700730699E+03  0.91858475877E+02 0.  0.
          5    1    3    3  502    0  0.32989172749E+02  0.49627065487E+02  0.21383494963E+02  0.63449644635E+02  0.41800000000E+01 0. -1.
         -5    1    3    3    0  502  0.67227550915E+02 -0.65220793656E+02  0.10883477107E+03  0.14365157612E+03  0.41800000000E+01 0. -1.
        -11    1    4    4    0    0 -0.22847083353E+02  0.26099791719E+02  0.34283991699E+02  0.48770692351E+02  0.00000000000E+00 0.  1.
         11    1    4    4    0    0 -0.77369640310E+02 -0.10506063549E+02 -0.41100627127E+02  0.88236614641E+02  0.00000000000E+00 0. -1.
</event>
<event>
 8    1  0.6862919E-009  0.1112825E+03  0.7561462E-02  0.1258213E+00
          3   -1    0    0  501    0  0.00000000000E+00  0.00000000000E+00  0.34539862134E+02  0.34539862134E+02  0.00000000000E+00 0. -1.
         -3   -1    0    0    0  501 -0.00000000000E+00 -0.00000000000E+00 -0.54164180419E+03  0.54164180419E+03  0.00000000000E+00 0.  1.
         25    2    1    2    0    0  0.83366851805E+02  0.31191288997E+02 -0.31225185964E+03  0.34795426862E+03  0.12509204896E+03 0.  0.
         23    2    1    2    0    0 -0.83366851805E+02 -0.31191288997E+02 -0.19485008241E+03  0.22822739770E+03  0.78729041378E+02 0.  0.
          5    1    3    3  502    0 -0.68113136200E+01 -0.41546880522E+01  0.87949523553E+01  0.12588844783E+02  0.41800000000E+01 0.  1.
         -5    1    3    3    0  502  0.90178165425E+02  0.35345977049E+02 -0.32104681199E+03  0.33536542384E+03  0.41800000000E+01 0.  1.
        -11    1    4    4    0    0 -0.49564481286E+02 -0.55922809901E+02 -0.14495940866E+03  0.16308656791E+03  0.00000000000E+00 0.  1.
         11    1    4    4    0    0 -0.33802370519E+02  0.24731520904E+02 -0.49890673752E+02  0.65140829795E+02  0.00000000000E+00 0. -1.
</event>
<event>
 8    1  0.6862919E-009  0.1944008E+03  0.7561462E-02  0.1154551E+00
          1   -1    0    0  501    0  0.00000000000E+00  0.00000000000E+00  0.16698401504E+04  0.16698401504E+04  0.00000000000E+00 0. -1.
         -1   -1    0    0    0  501 -0.00000000000E+00 -0.00000000000E+00 -0.27048115084E+02  0.27048115084E+02  0.00000000000E+00 0.  1.
         25    2    1    2    0    0  0.17351682794E+03 -0.38564167497E+02  0.75111919666E+03  0.78193211174E+03  0.12506996119E+03 0.  0.
         23    2    1    2    0    0 -0.17351682794E+03  0.38564167497E+02  0.89167283868E+03  0.91495615377E+03  0.10231826560E+03 0.  0.
          5    1    3    3  502    0  0.99363569053E+02 -0.62035638087E+02  0.26712273500E+03  0.29170801703E+03  0.41800000000E+01 0.  1.
         -5    1    3    3    0  502  0.74153258890E+02  0.23471470591E+02  0.48399646166E+03  0.49022409471E+03  0.41800000000E+01 0.  1.
        -11    1    4    4    0    0 -0.13064437051E+03 -0.73844280667E+01  0.72734131641E+03  0.73901818103E+03  0.00000000000E+00 0. -1.
         11    1    4    4    0    0 -0.42872457439E+02  0.45948595563E+02  0.16433152227E+03  0.17593797274E+03  0.00000000000E+00 0.  1.
</event>
<event>
 8    1  0.6862919E-009  0.7345724E+02  0.7561462E-02  0.1348716E+00
         -2   -1    0    0    0  501 -0.00000000000E+00  0.00000000000E+00  0.24322079819E+02  0.24322079819E+02  0.00000000000E+00 0.  1.
          2   -1    0    0  501    0  0.00000000000E+00 -0.00000000000E+00 -0.60315087284E+03  0.60315087284E+03  0.00000000000E+00 0. -1.
         25    2    1    2    0    0 -0.38464180122E+02 -0.24533258706E+02 -0.39958043065E+03  0.42118141819E+03  0.12509153662E+03 0.  0.
         23    2    1    2    0    0  0.38464180122E+02  0.24533258706E+02 -0.17924836237E+03  0.20629153447E+03  0.91350138734E+02 0.  0.
          5    1    3    3  502    0 -0.16484962519E+02 -0.35704010567E+02 -0.39345199317E+03  0.39543453781E+03  0.41800000000E+01 0.  1.
         -5    1    3    3    0  502 -0.21979217602E+02  0.11170751861E+02 -0.61284374821E+01  0.25746880384E+02  0.41800000000E+01 0.  1.
        -11    1    4    4    0    0  0.27399802938E+02 -0.21618000401E+02 -0.20225959915E+02  0.40338277069E+02  0.00000000000E+00 0.  1.
         11    1    4    4    0    0  0.11064377184E+02  0.46151259107E+02 -0.15902240246E+03  0.16595325740E+03  0.00000000000E+00 0. -1.
</event>
<event>
 8    1  0.6862919E-009  0.1597688E+03  0.7561462E-02  0.1188958E+00
         -1   -1    0    0    0  501 -0.00000000000E+00  0.00000000000E+00  0.75328356422E+03  0.75328356422E+03  0.00000000000E+00 0.  1.
          1   -1    0    0  501    0  0.00000000000E+00 -0.00000000000E+00 -0.44107444898E+02  0.44107444898E+02  0.00000000000E+00 0. -1.
         25    2    1    2    0    0  0.53635488035E+02  0.12939870253E+03  0.45742092566E+03  0.49447007046E+03  0.12508380216E+03 0.  0.
         23    2    1    2    0    0 -0.53635488035E+02 -0.12939870253E+03  0.25175519366E+03  0.30292093865E+03  0.93592882987E+02 0.  0.
          5    1    3    3  502    0 -0.32663483973E+02  0.60610907329E+02  0.10925363609E+03  0.12920686774E+03  0.41800000000E+01 0. -1.
         -5    1    3    3    0  502  0.86298972008E+02  0.68787795197E+02  0.34816728957E+03  0.36526320273E+03  0.41800000000E+01 0. -1.
        -11    1    4    4    0    0 -0.34978069512E+02 -0.79844906764E+02  0.22947617559E+03  0.24547502856E+03  0.00000000000E+00 0.  1.
         11    1    4    4    0    0 -0.18657418522E+02 -0.49553795762E+02  0.22279018076E+02  0.57445910096E+02  0.00000000000E+00 0. -1.
</event>
<event>
 8    1  0.6862919E-009  0.1118999E+03  0.7561462E-02  0.1257091E+00
         -1   -1    0    0    0  501 -0.00000000000E+00  0.00000000000E+00  0.10241644170E+04  0.10241644170E+04  0.00000000000E+00 0.  1.
          1   -1    0    0  501    0  0.00000000000E+00 -0.00000000000E+00 -0.20433468182E+02  0.20433468182E+02  0.00000000000E+00 0. -1.
         25    2    1    2    0    0  0.83008339079E+02 -0.43744233287E+02  0.48144058856E+03  0.50619704723E+03  0.12508584257E+03 0.  0.
         23    2    1    2    0    0 -0.83008339079E+02  0.43744233287E+02  0.52229036027E+03  0.53840083796E+03  0.91018127780E+02 0.  0.
          5    1    3    3  502    0  0.13139785246E+02  0.40431942742E+01 -0.27629431486E+01  0.14632417131E+02  0.41800000000E+01 0.  1.
         -5    1    3    3    0  502  0.69868553833E+02 -0.47787427562E+02  0.48420353170E+03  0.49156463010E+03  0.41800000000E+01 0.  1.
        -11    1    4    4    0    0 -0.19181503718E+02  0.56433028817E+02  0.33154631196E+03  0.33686135694E+03  0.00000000000E+00 0.  1.
         11    1    4    4    0    0 -0.63826835361E+02 -0.12688795530E+02  0.19074404831E+03  0.20153948102E+03  0.00000000000E+00 0. -1.
</event>
<event>
 8    1  0.6862919E-009  0.9351419E+02  0.7561462E-02  0.1294558E+00
         -1   -1    0    0    0  501 -0.00000000000E+00  0.00000000000E+00  0.68301283423E+02  0.68301283423E+02  0.00000000000E+00 0.  1.
          1   -1    0    0  501    0  0.00000000000E+00 -0.00000000000E+00 -0.25257156089E+03  0.25257156089E+03  0.00000000000E+00 0. -1.
         25    2    1    2    0    0 -0.38337282657E+02 -0.46041520361E+02 -0.15728942042E+03  0.20970571565E+03  0.12508779541E+03 0.  0.
         23    2    1    2    0    0  0.38337282657E+02  0.46041520361E+02 -0.26980857045E+02  0.11116712866E+03  0.89669364945E+02 0.  0.
          5    1    3    3  502    0 -0.42699841495E+02 -0.73911689706E+02 -0.50703386290E+02  0.99370620005E+02  0.41800000000E+01 0. -1.
         -5    1    3    3    0  502  0.43625588380E+01  0.27870169345E+02 -0.10658603413E+03  0.11033509564E+03  0.41800000000E+01 0. -1.
        -11    1    4    4    0    0  0.41265489469E+02  0.18279030608E+02  0.25416262500E+02  0.51797200509E+02  0.00000000000E+00 0.  1.
         11    1    4    4    0    0 -0.29282068116E+01  0.27762489753E+02 -0.52397119546E+02  0.59369928155E+02  0.00000000000E+00 0. -1.
</event>
<event>
 8    1  0.6862919E-009  0.9335774E+02  0.7561462E-02  0.1294918E+00
          1   -1    0    0  501    0  0.00000000000E+00  0.00000000000E+00  0.10258679936E+03  0.10258679936E+03  0.00000000000E+00 0. -1.
         -1   -1    0    0    0  501 -0.00000000000E+00 -0.00000000000E+00 -0.12446062300E+03  0.12446062300E+03  0.00000000000E+00 0.  1.
         25    2    1    2    0    0  0.13086762513E+02 -0.32135774460E+02 -0.78995208508E+01  0.13005226833E+03  0.12508884328E+03 0.  0.
         23    2    1    2    0    0 -0.13086762513E+02  0.32135774460E+02 -0.13974302795E+02  0.96995154035E+02  0.89491940500E+02 0.  0.
          5    1    3    3  502    0 -0.63305672508E+01  0.39953728184E+02  0.25665111549E+02  0.48088947049E+02  0.41800000000E+01 0. -1.
         -5    1    3    3    0  502  0.19417329763E+02 -0.72089502644E+02 -0.33564632400E+02  0.81963321277E+02  0.41800000000E+01 0. -1.
        -11    1    4    4    0    0  0.58899172390E+01 -0.17323510952E+02 -0.35401865955E+02  0.39850812663E+02  0.00000000000E+00 0.  1.
         11    1    4    4    0    0 -0.18976679752E+02  0.49459285412E+02  0.21427563160E+02  0.57144341372E+02  0.00000000000E+00 0. -1.
</event>
<event>
 8    1  0.6862919E-009  0.1557494E+03  0.7561462E-02  0.1193581E+00
          1   -1    0    0  501    0  0.00000000000E+00  0.00000000000E+00  0.45072270238E+03  0.45072270238E+03  0.00000000000E+00 0. -1.
         -1   -1    0    0    0  501 -0.00000000000E+00 -0.00000000000E+00 -0.81728582670E+02  0.81728582670E+02  0.00000000000E+00 0.  1.
         25    2    1    2    0    0  0.36660994356E+02  0.14046184954E+03  0.20570212019E+03  0.28112924035E+03  0.12508688119E+03 0.  0.
         23    2    1    2    0    0 -0.36660994356E+02 -0.14046184954E+03  0.16329199952E+03  0.25132204470E+03  0.12419715521E+03 0.  0.
          5    1    3    3  502    0 -0.16876546203E+02  0.66111538794E+02  0.15685095370E+02  0.70135925104E+02  0.41800000000E+01 0.  1.
         -5    1    3    3    0  502  0.53537540558E+02  0.74350310742E+02  0.19001702482E+03  0.21099331524E+03  0.41800000000E+01 0.  1.
        -11    1    4    4    0    0  0.41072146818E+01 -0.69222217098E+02  0.15378130527E+03  0.16869284040E+03  0.00000000000E+00 0. -1.
         11    1    4    4    0    0 -0.40768209037E+02 -0.71239632439E+02  0.95106942513E+01  0.82629204300E+02  0.00000000000E+00 0.  1.
</event>
<event>
 8    1  0.6862919E-009  0.1034064E+03  0.7561462E-02  0.1273292E+00
         -1   -1    0    0    0  501 -0.00000000000E+00  0.00000000000E+00  0.15665773363E+03  0.15665773363E+03  0.00000000000E+00 0.  1.
          1   -1    0    0  501    0  0.00000000000E+00 -0.00000000000E+00 -0.83632341245E+02  0.83632341245E+02  0.00000000000E+00 0. -1.
         25    2    1    2    0    0 -0.11723076503E+02 -0.14464343579E+02  0.70121784889E+02  0.14460643836E+03  0.12508920634E+03 0.  0.
         23    2    1    2    0    0  0.11723076503E+02  0.14464343579E+02  0.29036074932E+01  0.95683636510E+02  0.93809805466E+02 0.  0.
          5    1    3    3  502    0  0.40632744587E+02  0.25799299099E+02  0.60979076502E+02  0.77798097263E+02  0.41800000000E+01 0.  1.
         -5    1    3    3    0  502 -0.52355821090E+02 -0.40263642678E+02  0.91427083869E+01  0.66808341099E+02  0.41800000000E+01 0.  1.
        -11    1    4    4    0    0  0.48294473807E+02 -0.86414820912E+01  0.14007964468E+02  0.51022097973E+02  0.00000000000E+00 0. -1.
         11    1    4    4    0    0 -0.36571397304E+02  0.23105825670E+02 -0.11104356974E+02  0.44661538537E+02  0.00000000000E+00 0.  1.
</event>
<event>
 8    1  0.6862919E-009  0.1058917E+03  0.7561462E-02  0.1268373E+00
         -1   -1    0    0    0  501 -0.00000000000E+00  0.00000000000E+00  0.55607438939E+02  0.55607438939E+02  0.00000000000E+00 0.  1.
          1   -1    0    0  501    0  0.00000000000E+00 -0.00000000000E+00 -0.30443033623E+03  0.30443033623E+03  0.00000000000E+00 0. -1.
         25    2    1    2    0    0  0.45888155286E+02 -0.36556032838E+02 -0.80554163514E+02  0.15993265286E+03  0.12508962330E+03 0.  0.
         23    2    1    2    0    0 -0.45888155286E+02  0.36556032838E+02 -0.16826873378E+03  0.20010512231E+03  0.91025418844E+02 0.  0.
          5    1    3    3  502    0 -0.21207686679E+02  0.83550243155E+01 -0.75444833389E+02  0.78923809403E+02  0.41800000000E+01 0. -1.
         -5    1    3    3    0  502  0.67095841965E+02 -0.44911057153E+02 -0.51093301254E+01  0.81008843455E+02  0.41800000000E+01 0. -1.
        -11    1    4    4    0    0 -0.60144798563E+02 -0.82814277093E+01 -0.84863709065E+02  0.10434475528E+03  0.00000000000E+00 0. -1.
         11    1    4    4    0    0  0.14256643277E+02  0.44837460547E+02 -0.83405024711E+02  0.95760367025E+02  0.00000000000E+00 0.  1.
</event>
<event>
 8    1  0.6862919E-009  0.1226472E+03  0.7561462E-02  0.1238793E+00
         -1   -1    0    0    0  501 -0.00000000000E+00  0.00000000000E+00  0.30711491588E+03  0.30711491588E+03  0.00000000000E+00 0.  1.
          1   -1    0    0  501    0  0.00000000000E+00 -0.00000000000E+00 -0.71976698079E+02  0.71976698079E+02  0.00000000000E+00 0. -1.
         25    2    1    2    0    0  0.94122198757E+02 -0.32050683515E+02  0.10313101289E+03  0.19018074038E+03  0.12508586483E+03 0.  0.
         23    2    1    2    0    0 -0.94122198757E+02  0.32050683515E+02  0.13200720491E+03  0.18891087357E+03  0.91516017144E+02 0.  0.
          5    1    3    3  502    0  0.27458251060E+01 -0.46211667892E+02  0.83492101780E+02  0.95558679692E+02  0.41800000000E+01 0. -1.
         -5    1    3    3    0  502  0.91376373651E+02  0.14160984377E+02  0.19638911113E+02  0.94622060693E+02  0.41800000000E+01 0. -1.
        -11    1    4    4    0    0 -0.45110664120E+02  0.35081548246E+02  0.12735159126E+03  0.13958551086E+03  0.00000000000E+00 0.  1.
         11    1    4    4    0    0 -0.49011534636E+02 -0.30308647313E+01  0.46556136451E+01  0.49325362713E+02  0.00000000000E+00 0. -1.
</event>
<event>
 8    1  0.6862919E-009  0.1021722E+03  0.7561462E-02  0.1275793E+00
         -1   -1    0    0    0  501 -0.00000000000E+00  0.00000000000E+00  0.12053904835E+03  0.12053904835E+03  0.00000000000E+00 0.  1.
          1   -1    0    0  501    0  0.00000000000E+00 -0.00000000000E+00 -0.18459264216E+03  0.18459264216E+03  0.00000000000E+00 0. -1.
         25    2    1    2    0    0  0.18631023056E+02  0.80425477955E+02 -0.94079650181E+02  0.17695780145E+03  0.12509080858E+03 0.  0.
         23    2    1    2    0    0 -0.18631023056E+02 -0.80425477955E+02  0.30026056370E+02  0.12817388906E+03  0.93336001903E+02 0.  0.
          5    1    3    3  502    0  0.10712514351E+02  0.50189763622E+02  0.22497859130E+02  0.56190714549E+02  0.41800000000E+01 0.  1.
         -5    1    3    3    0  502  0.79185087048E+01  0.30235714333E+02 -0.11657750931E+03  0.12076708690E+03  0.41800000000E+01 0.  1.
        -11    1    4    4    0    0  0.17983759266E+02  0.12192807059E+02 -0.55368198616E+01  0.22421786626E+02  0.00000000000E+00 0.  1.
         11    1    4    4    0    0 -0.36614782321E+02 -0.92618285014E+02  0.35562876231E+02  0.10575210243E+03  0.00000000000E+00 0. -1.
</event>
<event>
 8    1  0.6862919E-009  0.1011760E+03  0.7561462E-02  0.1277842E+00
          1   -1    0    0  501    0  0.00000000000E+00  0.00000000000E+00  0.24691105920E+02  0.24691105920E+02  0.00000000000E+00 0. -1.
         -1   -1    0    0    0  501 -0.00000000000E+00 -0.00000000000E+00 -0.54902906050E+03  0.54902906050E+03  0.00000000000E+00 0.  1.
         25    2    1    2    0    0  0.75652684297E+01  0.42583786298E+02 -0.29074617466E+03  0.31945608095E+03  0.12509291520E+03 0.  0.
         23    2    1    2    0    0 -0.75652684297E+01 -0.42583786298E+02 -0.23359177992E+03  0.25426408547E+03  0.90633842316E+02 0.  0.
          5    1    3    3  502    0 -0.99383424819E+01 -0.34858816492E+02 -0.31209962345E+02  0.48015017318E+02  0.41800000000E+01 0.  1.
         -5    1    3    3    0  502  0.17503610912E+02  0.77442602790E+02 -0.25953621231E+03  0.27144106363E+03  0.41800000000E+01 0.  1.
        -11    1    4    4    0    0 -0.36171495396E+02 -0.44900704445E+02 -0.83623525488E+02  0.10157432921E+03  0.00000000000E+00 0. -1.
         11    1    4    4    0    0  0.28606226966E+02  0.23169181465E+01 -0.14996825443E+03  0.15268975627E+03  0.00000000000E+00 0.  1.
</event>
<event>
 7    1  0.6862919E-009  0.5594459E+02  0.7561462E-02  0.1415684E+00
          2   -1    0    0  501    0  0.00000000000E+00  0.00000000000E+00  0.12305093182E+03  0.12305093182E+03  0.00000000000E+00 0. -1.
         -2   -1    0    0    0  501 -0.00000000000E+00 -0.00000000000E+00 -0.10299080948E+03  0.10299080948E+03  0.00000000000E+00 0.  1.
         23    2    1    2    0    0 -0.25659849425E+02 -0.12116576484E+02  0.84031874946E+01  0.97331309355E+02  0.92722871625E+02 0.  0.
          5    1    1    2  502    0 -0.37054491540E+01  0.15900659776E+02  0.65222108983E+02  0.67364361757E+02  0.41800000000E+01 0. -1.
         -5    1    1    2    0  502  0.29365298579E+02 -0.37840832919E+01 -0.53565174143E+02  0.61346070192E+02  0.41800000000E+01 0. -1.
        -11    1    3    3    0    0 -0.97955532768E+01 -0.35528163144E+02 -0.31459953811E+02  0.48455463409E+02  0.00000000000E+00 0.  1.
         11    1    3    3    0    0 -0.15864296148E+02  0.23411586660E+02  0.39863141305E+02  0.48875845946E+02  0.00000000000E+00 0. -1.
</event>
<event>
 7    1  0.6862919E-009  0.1224090E+03  0.7561462E-02  0.1239175E+00
          2   -1    0    0  501    0  0.00000000000E+00  0.00000000000E+00  0.56852030277E+03  0.56852030277E+03  0.00000000000E+00 0. -1.
         -2   -1    0    0    0  501 -0.00000000000E+00 -0.00000000000E+00 -0.29568025370E+02  0.29568025370E+02  0.00000000000E+00 0.  1.
         23    2    1    2    0    0 -0.31328451355E+02 -0.34436508049E+02  0.27562823595E+03  0.30294543852E+03  0.11678043206E+03 0.  0.
          5    1    1    2  502    0  0.67402063563E+02  0.58823893401E+02  0.17738917273E+03  0.19871507142E+03  0.41800000000E+01 0.  1.
         -5    1    1    2    0  502 -0.36073612208E+02 -0.24387385352E+02  0.85934868715E+02  0.96427818202E+02  0.41800000000E+01 0.  1.
        -11    1    3    3    0    0 -0.19557765194E+02 -0.70717841737E+02  0.10493528953E+03  0.12804270502E+03  0.00000000000E+00 0.  1.
         11    1    3    3    0    0 -0.11770686162E+02  0.36281333689E+02  0.17069294643E+03  0.17490273350E+03  0.00000000000E+00 0. -1.
</event>
<event>
 8    1  0.6862919E-009  0.1225961E+03  0.7561462E-02  0.1238875E+00
         -2   -1    0    0    0  501 -0.00000000000E+00  0.00000000000E+00  0.93877245461E+02  0.93877245461E+02  0.00000000000E+00 0.  1.
          2   -1    0    0  501    0  0.00000000000E+00 -0.00000000000E+00 -0.21998245469E+03  0.21998245469E+03  0.00000000000E+00 0. -1.
         25    2    1    2    0    0 -0.35281637841E+02  0.62897812805E+02 -0.67364901999E+01  0.14454927617E+03  0.12509270210E+03 0.  0.
         23    2    1    2    0    0  0.35281637841E+02 -0.62897812805E+02 -0.11936871903E+03  0.16931042398E+03  0.96001040413E+02 0.  0.
          5    1    3    3  502    0  0.41974846773E+02  0.16007100409E+02  0.21219934100E+02  0.49858530146E+02  0.41800000000E+01 0. -1.
         -5    1    3    3    0  502 -0.77256484613E+02  0.46890712396E+02 -0.27956424300E+02  0.94690746029E+02  0.41800000000E+01 0. -1.
        -11    1    4    4    0    0  0.10349429090E+01 -0.73690636507E+02 -0.44020878342E+02  0.85844153823E+02  0.00000000000E+00 0.  1.
         11    1    4    4    0    0  0.34246694932E+02  0.10792823702E+02 -0.75347840688E+02  0.83466270155E+02  0.00000000000E+00 0. -1.
</event>
<event>
 8    1  0.6862919E-009  0.1422902E+03  0.7561462E-02  0.1210280E+00
         -2   -1    0    0    0  501 -0.00000000000E+00  0.00000000000E+00  0.34784697655E+02  0.34784697655E+02  0.00000000000E+00 0.  1.
          2   -1    0    0  501    0  0.00000000000E+00 -0.00000000000E+00 -0.65203207232E+03  0.65203207232E+03  0.00000000000E+00 0. -1.
         25    2    1    2    0    0 -0.64086507975E+02 -0.68336850718E+02 -0.43458492351E+03  0.46183450544E+03  0.12510015589E+03 0.  0.
         23    2    1    2    0    0  0.64086507975E+02  0.68336850718E+02 -0.18266245116E+03  0.22498226454E+03  0.92056735890E+02 0.  0.
          5    1    3    3  502    0 -0.95587921901E+02 -0.77599316669E+02 -0.34264458958E+03  0.36411741503E+03  0.41800000000E+01 0.  1.
         -5    1    3    3    0  502  0.31501413925E+02  0.92624659505E+01 -0.91940333929E+02  0.97717090408E+02  0.41800000000E+01 0.  1.
        -11    1    4    4    0    0  0.86281836363E+02  0.56495196681E+02 -0.12487753980E+03  0.16195882959E+03  0.00000000000E+00 0.  1.
         11    1    4    4    0    0 -0.22195328388E+02  0.11841654037E+02 -0.57784911353E+02  0.63023434948E+02  0.00000000000E+00 0. -1.
</event>
<event>
 8    1  0.6862919E-009  0.8750076E+02  0.7561462E-02  0.1309019E+00
         -3   -1    0    0    0  501 -0.00000000000E+00  0.00000000000E+00  0.18699888687E+02  0.18699888687E+02  0.00000000000E+00 0.  1.
          3   -1    0    0  501    0  0.00000000000E+00 -0.00000000000E+00 -0.99215871504E+03  0.99215871504E+03  0.00000000000E+00 0. -1.
         25    2    1    2    0    0  0.30382978717E+01  0.59102019712E+02 -0.74771708462E+03  0.76041441205E+03  0.12508780691E+03 0.  0.
         23    2    1    2    0    0 -0.30382978717E+01 -0.59102019712E+02 -0.22574174173E+03  0.25044419167E+03  0.90888278640E+02 0.  0.
          5    1    3    3  502    0  0.11765454459E+02  0.68090680119E+02 -0.18477001032E+03  0.19731243183E+03  0.41800000000E+01 0.  1.
         -5    1    3    3    0  502 -0.87271565877E+01 -0.89886604065E+01 -0.56294707429E+03  0.56310198023E+03  0.41800000000E+01 0.  1.
        -11    1    4    4    0    0 -0.35114460397E+02 -0.15362845050E+02 -0.16328337185E+03  0.16772150089E+03  0.00000000000E+00 0. -1.
         11    1    4    4    0    0  0.32076162526E+02 -0.43739174663E+02 -0.62458369883E+02  0.82722690787E+02  0.00000000000E+00 0.  1.
</event>
<event>
 8    1  0.6862919E-009  0.1056161E+03  0.7561462E-02  0.1268911E+00
          1   -1    0    0  501    0  0.00000000000E+00  0.00000000000E+00  0.31194651228E+03  0.31194651228E+03  0.00000000000E+00 0. -1.
         -1   -1    0    0    0  501 -0.00000000000E+00 -0.00000000000E+00 -0.38627370869E+02  0.38627370869E+02  0.00000000000E+00 0.  1.
         25    2    1    2    0    0  0.17500700774E+02  0.13439034251E+02  0.14757215696E+03  0.19471311369E+03  0.12509505572E+03 0.  0.
         23    2    1    2    0    0 -0.17500700774E+02 -0.13439034251E+02  0.12574698446E+03  0.15586076946E+03  0.89405778267E+02 0.  0.
          5    1    3    3  502    0  0.59684889347E+02 -0.25181232972E+02  0.51645176502E+02  0.82952258356E+02  0.41800000000E+01 0.  1.
         -5    1    3    3    0  502 -0.42184188573E+02  0.38620267223E+02  0.95926980453E+02  0.11176085533E+03  0.41800000000E+01 0.  1.
        -11    1    4    4    0    0  0.13864550478E+02  0.31358120577E+02  0.29815633558E+02  0.45437093773E+02  0.00000000000E+00 0.  1.
         11    1    4    4    0    0 -0.31365251253E+02 -0.44797154828E+02  0.95931350897E+02  0.11042367569E+03  0.00000000000E+00 0. -1.
</event>
<event>
 8    1  0.6862919E-009  0.2602001E+03  0.7561462E-02  0.1107023E+00
          2   -1    0    0  501    0  0.00000000000E+00  0.00000000000E+00  0.15697989868E+04  0.15697989868E+04  0.00000000000E+00 0. -1.
         -2   -1    0    0    0  501 -0.00000000000E+00 -0.00000000000E+00 -0.68143619563E+02  0.68143619563E+02  0.00000000000E+00 0.  1.
         25    2    1    2    0    0  0.19479069880E+03  0.14300704465E+03  0.28439708875E+03  0.39359299821E+03  0.12505723888E+03 0.  0.
         23    2    1    2    0    0 -0.19479069880E+03 -0.14300704465E+03  0.12172582785E+04  0.12443496082E+04  0.91070300292E+02 0.  0.
          5    1    3    3  502    0 -0.12976473851E+02  0.18611084866E+02  0.56518780335E+02  0.61045935852E+02  0.41800000000E+01 0.  1.
         -5    1    3    3    0  502  0.20776717265E+03  0.12439595978E+03  0.22787830841E+03  0.33254706236E+03  0.41800000000E+01 0.  1.
        -11    1    4    4    0    0 -0.96456100485E+02 -0.12033102285E+03  0.63859562151E+03  0.65695334856E+03  0.00000000000E+00 0.  1.
         11    1    4    4    0    0 -0.98334598312E+02 -0.22676021799E+02  0.57866265703E+03  0.58739625963E+03  0.00000000000E+00 0. -1.
</event>
<event>
 8    1  0.6862919E-009  0.8327238E+02  0.7561462E-02  0.1320013E+00
          2   -1    0    0  501    0  0.00000000000E+00  0.00000000000E+00  0.78084358081E+03  0.78084358081E+03  0.00000000000E+00 0.  1.
         -2   -1    0    0    0  501 -0.00000000000E+00 -0.00000000000E+00 -0.20893405553E+02  0.20893405553E+02  0.00000000000E+00 0. -1.
         25    2    1    2    0    0 -0.30227139482E+02  0.18297003685E+02  0.62248993652E+03  0.63591197570E+03  0.12506741967E+03 0.  0.
         23    2    1    2    0    0  0.30227139482E+02 -0.18297003685E+02  0.13746023873E+03  0.16582501066E+03  0.85756379488E+02 0.  0.
          5    1    3    3  502    0  0.25629783663E+02  0.40162218375E+01  0.27191294682E+02  0.37813420302E+02  0.41800000000E+01 0. -1.
         -5    1    3    3    0  502 -0.55856923144E+02  0.14280781847E+02  0.59529864184E+03  0.59809855540E+03  0.41800000000E+01 0. -1.
        -11    1    4    4    0    0 -0.17185954786E+02  0.16364545086E+02  0.80817234224E+02  0.84229334115E+02  0.00000000000E+00 0.  1.
         11    1    4    4    0    0  0.47413094267E+02 -0.34661548771E+02  0.56643004510E+02  0.81595676546E+02  0.00000000000E+00 0. -1.
</event>
<event>
 8    1  0.6862919E-009  0.9780845E+02  0.7561462E-02  0.1284973E+00
          1   -1    0    0  501    0  0.00000000000E+00  0.00000000000E+00  0.70849019290E+02  0.70849019290E+02  0.00000000000E+00 0. -1.
         -1   -1    0    0    0  501 -0.00000000000E+00 -0.00000000000E+00 -0.24145850851E+03  0.24145850851E+03  0.00000000000E+00 0.  1.
         25    2    1    2    0    0 -0.42965421669E+02 -0.41683713493E+02 -0.44972170418E+02  0.14578618335E+03  0.12509019032E+03 0.  0.
         23    2    1    2    0    0  0.42965421669E+02  0.41683713493E+02 -0.12563731880E+03  0.16652134445E+03  0.91438847604E+02 0.  0.
          5    1    3    3  502    0 -0.16078906131E+02 -0.56389155102E+02 -0.79859485628E+02  0.99162885599E+02  0.41800000000E+01 0.  1.
         -5    1    3    3    0  502 -0.26886515538E+02  0.14705441609E+02  0.34887315211E+02  0.46623297752E+02  0.41800000000E+01 0.  1.
        -11    1    4    4    0    0 -0.27182095694E+02  0.12704862867E+02 -0.18586175449E+02  0.35294840765E+02  0.00000000000E+00 0. -1.
         11    1    4    4    0    0  0.70147517363E+02  0.28978850626E+02 -0.10705114335E+03  0.13122650368E+03  0.00000000000E+00 0.  1.
</event>
<event>
 8    1  0.6862919E-009  0.6600906E+02  0.7561462E-02  0.1374216E+00
         -1   -1    0    0    0  501 -0.00000000000E+00  0.00000000000E+00  0.86922771029E+02  0.86922771029E+02  0.00000000000E+00 0.  1.
          1   -1    0    0  501    0  0.00000000000E+00 -0.00000000000E+00 -0.16838682270E+03  0.16838682270E+03  0.00000000000E+00 0. -1.
         25    2    1    2    0    0  0.38131488254E+02 -0.32677504929E+02 -0.46490497221E+02  0.14258147395E+03  0.12508509366E+03 0.  0.
         23    2    1    2    0    0 -0.38131488254E+02  0.32677504929E+02 -0.34973554452E+02  0.11272811978E+03  0.94671272063E+02 0.  0.
          5    1    3    3  502    0 -0.62407000269E+01 -0.22554907541E+02  0.38980808398E+02  0.45657923894E+02  0.41800000000E+01 0.  1.
         -5    1    3    3    0  502  0.44372188280E+02 -0.10122597388E+02 -0.85471305618E+02  0.96923550052E+02  0.41800000000E+01 0.  1.
        -11    1    4    4    0    0 -0.39521453522E+02  0.11280847954E+02 -0.64352170867E+02  0.76357086864E+02  0.00000000000E+00 0. -1.
         11    1    4    4    0    0  0.13899652689E+01  0.21396656975E+02  0.29378616415E+02  0.36371032919E+02  0.00000000000E+00 0.  1.
</event>
<event>
 8    1  0.6862919E-009  0.8780629E+02  0.7561462E-02  0.1308253E+00
          1   -1    0    0  501    0  0.00000000000E+00  0.00000000000E+00  0.11546120947E+03  0.11546120947E+03  0.00000000000E+00 0. -1.
         -1   -1    0    0    0  501 -0.00000000000E+00 -0.00000000000E+00 -0.12970397196E+03  0.12970397196E+03  0.00000000000E+00 0.  1.
         25    2    1    2    0    0  0.24700762677E+02  0.28554814155E+01 -0.50870992650E+02  0.13730628945E+03  0.12508748050E+03 0.  0.
         23    2    1    2    0    0 -0.24700762677E+02 -0.28554814155E+01  0.36628230162E+02  0.10785889199E+03  0.98354623098E+02 0.  0.
          5    1    3    3  502    0  0.11382944409E+02 -0.37536856159E+02  0.27468246969E+02  0.48068326217E+02  0.41800000000E+01 0.  1.
         -5    1    3    3    0  502  0.13317818268E+02  0.40392337575E+02 -0.78339239619E+02  0.89237963234E+02  0.41800000000E+01 0.  1.
        -11    1    4    4    0    0 -0.38718304420E+02  0.35539167125E+02 -0.61904408593E+00  0.52559706170E+02  0.00000000000E+00 0.  1.
         11    1    4    4    0    0  0.14017541743E+02 -0.38394648540E+02  0.37247274248E+02  0.55299185816E+02  0.00000000000E+00 0. -1.
</event>
<event>
 8    1  0.6862919E-009  0.1059043E+03  0.7561462E-02  0.1268348E+00
          2   -1    0    0  501    0  0.00000000000E+00  0.00000000000E+00  0.11257239582E+03  0.11257239582E+03  0.00000000000E+00 0. -1.
         -2   -1    0    0    0  501 -0.00000000000E+00 -0.00000000000E+00 -0.12891775705E+03  0.12891775705E+03  0.00000000000E+00 0.  1.
         25    2    1    2    0    0  0.10553516463E+02 -0.45111490391E+02 -0.33451033609E+02  0.13752371715E+03  0.12508947939E+03 0.  0.
         23    2    1    2    0    0 -0.10553516463E+02  0.45111490391E+02  0.17105672382E+02  0.10396643572E+03  0.91487662849E+02 0.  0.
          5    1    3    3  502    0 -0.45693435149E+02  0.20054415208E+00  0.17420205665E+02  0.49080201701E+02  0.41800000000E+01 0.  1.
         -5    1    3    3    0  502  0.56246951611E+02 -0.45312034543E+02 -0.50871239274E+02  0.88443515451E+02  0.41800000000E+01 0.  1.
        -11    1    4    4    0    0 -0.16964436202E+02  0.67855875339E+02 -0.68970013570E+01  0.70283572344E+02  0.00000000000E+00 0.  1.
         11    1    4    4    0    0  0.64109197395E+01 -0.22744384948E+02  0.24002673739E+02  0.33682863376E+02  0.00000000000E+00 0. -1.
</event>
<event>
 8    1  0.6862919E-009  0.1047356E+03  0.7561462E-02  0.1270642E+00
          2   -1    0    0  501    0  0.00000000000E+00  0.00000000000E+00  0.48328335377E+03  0.48328335377E+03  0.00000000000E+00 0. -1.
         -2   -1    0    0    0  501 -0.00000000000E+00 -0.00000000000E+00 -0.33025856799E+02  0.33025856799E+02  0.00000000000E+00 0.  1.
         25    2    1    2    0    0  0.10261210804E+02 -0.57631596543E+02  0.18564557557E+03  0.23138480684E+03  0.12509178925E+03 0.  0.
         23    2    1    2    0    0 -0.10261210804E+02  0.57631596543E+02  0.26461192140E+03  0.28492440373E+03  0.87953132564E+02 0.  0.
          5    1    3    3  502    0 -0.34861712276E+02 -0.46330241222E+02  0.23594159466E+02  0.62737444922E+02  0.41800000000E+01 0. -1.
         -5    1    3    3    0  502  0.45122923080E+02 -0.11301355322E+02  0.16205141611E+03  0.16864736192E+03  0.41800000000E+01 0. -1.
        -11    1    4    4    0    0  0.37027394962E+02  0.39086259852E+02  0.11636947900E+03  0.12822097851E+03  0.00000000000E+00 0.  1.
         11    1    4    4    0    0 -0.47288605766E+02  0.18545336692E+02  0.14824244240E+03  0.15670342522E+03  0.00000000000E+00 0. -1.
</event>
<event>
 8    1  0.6862919E-009  0.2813330E+03  0.7561462E-02  0.1094963E+00
          2   -1    0    0  501    0  0.00000000000E+00  0.00000000000E+00  0.30760235612E+03  0.30760235612E+03  0.00000000000E+00 0. -1.
         -2   -1    0    0    0  501 -0.00000000000E+00 -0.00000000000E+00 -0.31290868662E+03  0.31290868662E+03  0.00000000000E+00 0.  1.
         25    2    1    2    0    0  0.20588121159E+03  0.17952732464E+03 -0.10090912211E+03  0.31693438870E+03  0.12509045622E+03 0.  0.
         23    2    1    2    0    0 -0.20588121159E+03 -0.17952732464E+03  0.95602791607E+02  0.30357665404E+03  0.91661101556E+02 0.  0.
          5    1    3    3  502    0  0.13031412936E+03  0.94264884767E+02 -0.12081891916E+03  0.20120219790E+03  0.41800000000E+01 0.  1.
         -5    1    3    3    0  502  0.75567082226E+02  0.85262439868E+02  0.19909797053E+02  0.11573219080E+03  0.41800000000E+01 0.  1.
        -11    1    4    4    0    0 -0.95990029433E+02 -0.26880477376E+02  0.25941911872E+02  0.10300305144E+03  0.00000000000E+00 0.  1.
         11    1    4    4    0    0 -0.10989118216E+03 -0.15264684726E+03  0.69660879735E+02  0.20057360260E+03  0.00000000000E+00 0. -1.
</event>
<event>
 8    1  0.6862919E-009  0.1104859E+03  0.7561462E-02  0.1259673E+00
         -2   -1    0    0    0  501 -0.00000000000E+00  0.00000000000E+00  0.29593385868E+03  0.29593385868E+03  0.00000000000E+00 0.  1.
          2   -1    0    0  501    0  0.00000000000E+00 -0.00000000000E+00 -0.70950285225E+02  0.70950285225E+02  0.00000000000E+00 0. -1.
         25    2    1    2    0    0 -0.58760508370E+02 -0.51965291475E+02  0.19313259172E+03  0.24310819686E+03  0.12509279969E+03 0.  0.
         23    2    1    2    0    0  0.58760508370E+02  0.51965291475E+02  0.31850981731E+02  0.12377594704E+03  0.90292918696E+02 0.  0.
          5    1    3    3  502    0  0.16249152419E+02 -0.44010031632E+01  0.13669704874E+03  0.13779317588E+03  0.41800000000E+01 0.  1.
         -5    1    3    3    0  502 -0.75009660789E+02 -0.47564288312E+02  0.56435542982E+02  0.10531502099E+03  0.41800000000E+01 0.  1.
        -11    1    4    4    0    0  0.40874280980E+02 -0.16400511429E+02  0.29616642572E+02  0.53073808400E+02  0.00000000000E+00 0. -1.
         11    1    4    4    0    0  0.17886227389E+02  0.68365802904E+02  0.22343391592E+01  0.70702138641E+02  0.00000000000E+00 0.  1.
</event>
<event>
 8    1  0.6862919E-009  0.9903161E+02  0.7561462E-02  0.1282346E+00
         -1   -1    0    0    0  501 -0.00000000000E+00  0.00000000000E+00  0.15222543705E+02  0.15222543705E+02  0.00000000000E+00 0.  1.
          1   -1    0    0  501    0  0.00000000000E+00 -0.00000000000E+00 -0.15622132604E+04  0.15622132604E+04  0.00000000000E+00 0. -1.
         25    2    1    2    0    0 -0.43633193483E+02  0.22694510888E+02 -0.13241570805E+04  0.13309615689E+04  0.12509127667E+03 0.  0.
         23    2    1    2    0    0  0.43633193483E+02 -0.22694510888E+02 -0.22283363618E+03  0.24647423525E+03  0.93144097127E+02 0.  0.
          5    1    3    3  502    0 -0.64636529499E+02  0.48269979616E+01 -0.32560041537E+03  0.33201548721E+03  0.41800000000E+01 0.  1.
         -5    1    3    3    0  502  0.21003336015E+02  0.17867512927E+02 -0.99855666514E+03  0.99894608164E+03  0.41800000000E+01 0.  1.
        -11    1    4    4    0    0  0.38972352545E+02 -0.57853244919E+02 -0.15296271773E+03  0.16811732578E+03  0.00000000000E+00 0.  1.
         11    1    4    4    0    0  0.46608409383E+01  0.35158734031E+02 -0.69870918450E+02  0.78356909471E+02  0.00000000000E+00 0. -1.
</event>
<event>
 8    1  0.6862919E-009  0.2008986E+03  0.7561462E-02  0.1148983E+00
          2   -1    0    0  501    0  0.00000000000E+00  0.00000000000E+00  0.42882745170E+03  0.42882745170E+03  0.00000000000E+00 0. -1.
         -2   -1    0    0    0  501 -0.00000000000E+00 -0.00000000000E+00 -0.10412892639E+03  0.10412892639E+03  0.00000000000E+00 0.  1.
         25    2    1    2    0    0 -0.30908764685E+01  0.18070730358E+03  0.15966958432E+03  0.27166452412E+03  0.12507019797E+03 0.  0.
         23    2    1    2    0    0  0.30908764685E+01 -0.18070730358E+03  0.16502894099E+03  0.26129185398E+03  0.91510646954E+02 0.  0.
          5    1    3    3  502    0  0.30794948757E+02  0.18275609360E+01  0.50546233160E+02  0.59363818396E+02  0.41800000000E+01 0. -1.
         -5    1    3    3    0  502 -0.33885825226E+02  0.17887974265E+03  0.10912335116E+03  0.21230070572E+03  0.41800000000E+01 0. -1.
        -11    1    4    4    0    0 -0.24852894746E+02 -0.66832084518E+02  0.11161164870E+03  0.13244377684E+03  0.00000000000E+00 0.  1.
         11    1    4    4    0    0  0.27943771214E+02 -0.11387521907E+03  0.53417292292E+02  0.12884807714E+03  0.00000000000E+00 0. -1.
</event>
<event>
 8    1  0.6862919E-009  0.1681058E+03  0.7561462E-02  0.1179838E+00
          1   -1    0    0  501    0  0.00000000000E+00  0.00000000000E+00  0.64886184455E+03  0.64886184455E+03  0.00000000000E+00 0. -1.
         -1   -1    0    0    0  501 -0.00000000000E+00 -0.00000000000E+00 -0.65948498427E+02  0.65948498427E+02  0.00000000000E+00 0.  1.
         25    2    1    2    0    0  0.11885010149E+03 -0.79308916296E+02  0.48095056146E+03  0.51708483375E+03  0.12509209369E+03 0.  0.
         23    2    1    2    0    0 -0.11885010149E+03  0.79308916296E+02  0.10196278467E+03  0.19772550923E+03  0.91014925772E+02 0.  0.
          5    1    3    3  502    0  0.86181278956E+02  0.17083358414E+02  0.23046009597E+03  0.24667464850E+03  0.41800000000E+01 0. -1.
         -5    1    3    3    0  502  0.32668822535E+02 -0.96392274710E+02  0.25049046549E+03  0.27041018525E+03  0.41800000000E+01 0. -1.
        -11    1    4    4    0    0 -0.49091502031E+02  0.51902787462E+02  0.99812917357E+02  0.12274564509E+03  0.00000000000E+00 0. -1.
         11    1    4    4    0    0 -0.69758599460E+02  0.27406128833E+02  0.21498673136E+01  0.74979864135E+02  0.00000000000E+00 0.  1.
</event>
<event>
 8    1  0.6862919E-009  0.1352020E+03  0.7561462E-02  0.1219935E+00
          2   -1    0    0  501    0  0.00000000000E+00  0.00000000000E+00  0.14563969564E+04  0.14563969564E+04  0.00000000000E+00 0. -1.
         -2   -1    0    0    0  501 -0.00000000000E+00 -0.00000000000E+00 -0.18247968875E+02  0.18247968875E+02  0.00000000000E+00 0.  1.
         25    2    1    2    0    0  0.10814111837E+03  0.44591753897E+02  0.95301177372E+03  0.96827744015E+03  0.12508730657E+03 0.  0.
         23    2    1    2    0    0 -0.10814111837E+03 -0.44591753897E+02  0.48513721384E+03  0.50636748515E+03  0.85831158528E+02 0.  0.
          5    1    3    3  502    0  0.79765071620E+02  0.61465550229E+02  0.34668121546E+03  0.36103437242E+03  0.41800000000E+01 0. -1.
         -5    1    3    3    0  502  0.28376046748E+02 -0.16873796332E+02  0.60633055825E+03  0.60724306773E+03  0.41800000000E+01 0. -1.
        -11    1    4    4    0    0 -0.12323815186E+02 -0.38392763327E+02  0.23500796082E+03  0.23844207336E+03  0.00000000000E+00 0.  1.
         11    1    4    4    0    0 -0.95817303182E+02 -0.61989905701E+01  0.25012925301E+03  0.26792541180E+03  0.00000000000E+00 0. -1.
</event>
<event>
 8    1  0.6862919E-009  0.8765692E+02  0.7561462E-02  0.1308627E+00
         -1   -1    0    0    0  501 -0.00000000000E+00  0.00000000000E+00  0.10057173532E+03  0.10057173532E+03  0.00000000000E+00 0.  1.
          1   -1    0    0  501    0  0.00000000000E+00 -0.00000000000E+00 -0.15876317279E+03  0.15876317279E+03  0.00000000000E+00 0. -1.
         25    2    1    2    0    0  0.20129435171E+02 -0.26521609175E+02  0.24242518396E+02  0.13169705367E+03  0.12509126402E+03 0.  0.
         23    2    1    2    0    0 -0.20129435171E+02  0.26521609175E+02 -0.82433955867E+02  0.12763785443E+03  0.91583158332E+02 0.  0.
          5    1    3    3  502    0  0.61421518484E+02 -0.17141209869E+02 -0.23183863520E+02  0.67980790936E+02  0.41800000000E+01 0. -1.
         -5    1    3    3    0  502 -0.41292083313E+02 -0.93803993064E+01  0.47426381917E+02  0.63716262737E+02  0.41800000000E+01 0. -1.
        -11    1    4    4    0    0 -0.26060274101E+02 -0.12840584348E+02  0.68792954817E+01  0.29855371358E+02  0.00000000000E+00 0.  1.
         11    1    4    4    0    0  0.59308389303E+01  0.39362193523E+02 -0.89313251348E+02  0.97782483072E+02  0.00000000000E+00 0. -1.
</event>
<event>
 8    1  0.6862919E-009  0.1076311E+03  0.7561462E-02  0.1265021E+00
         -2   -1    0    0    0  501 -0.00000000000E+00  0.00000000000E+00  0.18705915098E+02  0.18705915098E+02  0.00000000000E+00 0. -1.
          2   -1    0    0  501    0  0.00000000000E+00 -0.00000000000E+00 -0.19543327650E+04  0.19543327650E+04  0.00000000000E+00 0.  1.
         25    2    1    2    0    0  0.65251804318E+02 -0.28182191154E+00 -0.17850380742E+04  0.17906032904E+04  0.12506534323E+03 0.  0.
         23    2    1    2    0    0 -0.65251804318E+02  0.28182191154E+00 -0.15058877577E+03  0.18243538970E+03  0.79673173894E+02 0.  0.
          5    1    3    3  502    0 -0.15831082376E+02 -0.31763352926E+02 -0.19946688759E+03  0.20264265445E+03  0.41800000000E+01 0. -1.
         -5    1    3    3    0  502  0.81082886694E+02  0.31481531014E+02 -0.15855711866E+04  0.15879606360E+04  0.41800000000E+01 0. -1.
        -11    1    4    4    0    0 -0.75034216649E+02 -0.12793404446E+02 -0.14726154997E+03  0.16577022943E+03  0.00000000000E+00 0.  1.
         11    1    4    4    0    0  0.97824123309E+01  0.13075226358E+02 -0.33272257932E+01  0.16665160269E+02  0.00000000000E+00 0. -1.
</event>
<event>
 8    1  0.6862919E-009  0.1905207E+03  0.7561462E-02  0.1157993E+00
          2   -1    0    0  501    0  0.00000000000E+00  0.00000000000E+00  0.33984965266E+03  0.33984965266E+03  0.00000000000E+00 0. -1.
         -2   -1    0    0    0  501 -0.00000000000E+00 -0.00000000000E+00 -0.19770432723E+03  0.19770432723E+03  0.00000000000E+00 0.  1.
         25    2    1    2    0    0 -0.56923652106E+02  0.17452367915E+03 -0.78708283705E+02  0.23567309038E+03  0.12509194559E+03 0.  0.
         23    2    1    2    0    0  0.56923652106E+02 -0.17452367915E+03  0.22085360914E+03  0.30188088952E+03  0.93042667801E+02 0.  0.
          5    1    3    3  502    0 -0.19177537006E+02  0.90046987915E+02  0.26117920905E+02  0.95790689269E+02  0.41800000000E+01 0.  1.
         -5    1    3    3    0  502 -0.37746115100E+02  0.84476691234E+02 -0.10482620461E+03  0.13988240111E+03  0.41800000000E+01 0.  1.
        -11    1    4    4    0    0  0.25831658714E+02 -0.15977003841E+03  0.21130772091E+03  0.26616666335E+03  0.00000000000E+00 0.  1.
         11    1    4    4    0    0  0.31091993392E+02 -0.14753640738E+02  0.95458882321E+01  0.35714226161E+02  0.00000000000E+00 0. -1.
</event>
<event>
 8    1  0.6862919E-009  0.1006900E+03  0.7561462E-02  0.1278852E+00
         -2   -1    0    0    0  501 -0.00000000000E+00  0.00000000000E+00  0.16629930366E+03  0.16629930366E+03  0.00000000000E+00 0. -1.
          2   -1    0    0  501    0  0.00000000000E+00 -0.00000000000E+00 -0.70586017236E+02  0.70586017236E+02  0.00000000000E+00 0.  1.
         25    2    1    2    0    0  0.93256348989E+01  0.13813503798E+02  0.45587959998E+02  0.13418285430E+03  0.12509594693E+03 0.  0.
         23    2    1    2    0    0 -0.93256348989E+01 -0.13813503798E+02  0.50125326425E+02  0.10270246660E+03  0.88076489160E+02 0.  0.
          5    1    3    3  502    0  0.10134476846E+02 -0.49844453363E+02  0.48378599428E+02  0.70321678270E+02  0.41800000000E+01 0.  1.
         -5    1    3    3    0  502 -0.80884194730E+00  0.63657957161E+02 -0.27906394297E+01  0.63861176028E+02  0.41800000000E+01 0.  1.
        -11    1    4    4    0    0 -0.45010363590E+02  0.65084086295E+01  0.12891833335E+02  0.47270409139E+02  0.00000000000E+00 0.  1.
         11    1    4    4    0    0  0.35684728691E+02 -0.20321912428E+02  0.37233493090E+02  0.55432057459E+02  0.00000000000E+00 0. -1.
</event>
<event>
 8    1  0.6862919E-009  0.1248893E+03  0.7561462E-02  0.1235242E+00
         -1   -1    0    0    0  501 -0.00000000000E+00  0.00000000000E+00  0.49041222531E+02  0.49041222531E+02  0.00000000000E+00 0.  1.
          1   -1    0    0  501    0  0.00000000000E+00 -0.00000000000E+00 -0.38227240638E+03  0.38227240638E+03  0.00000000000E+00 0. -1.
         25    2    1    2    0    0  0.18992606035E+02  0.76053164868E+02 -0.17474329589E+03  0.22874431492E+03  0.12507573378E+03 0.  0.
         23    2    1    2    0    0 -0.18992606035E+02 -0.76053164868E+02 -0.15848788796E+03  0.20256931399E+03  0.98848942180E+02 0.  0.
          5    1    3    3  502    0  0.26073729838E+02 -0.21942332515E+02 -0.81437611719E+01  0.35285954570E+02  0.41800000000E+01 0. -1.
         -5    1    3    3    0  502 -0.70811238037E+01  0.97995497383E+02 -0.16659953472E+03  0.19345836035E+03  0.41800000000E+01 0. -1.
        -11    1    4    4    0    0  0.49630340454E+01  0.18712142507E+02 -0.40193489755E+01  0.19771978918E+02  0.00000000000E+00 0.  1.
         11    1    4    4    0    0 -0.23955640080E+02 -0.94765307376E+02 -0.15446853898E+03  0.18279733507E+03  0.00000000000E+00 0. -1.
</event>
<event>
 8    1  0.6862919E-009  0.6412791E+02  0.7561462E-02  0.1381282E+00
         -1   -1    0    0    0  501 -0.00000000000E+00  0.00000000000E+00  0.65551903924E+02  0.65551903924E+02  0.00000000000E+00 0.  1.
          1   -1    0    0  501    0  0.00000000000E+00 -0.00000000000E+00 -0.21032867464E+03  0.21032867464E+03  0.00000000000E+00 0. -1.
         25    2    1    2    0    0  0.39794983451E+02  0.19852676720E+02 -0.94920392992E+02  0.16320436632E+03  0.12509202492E+03 0.  0.
         23    2    1    2    0    0 -0.39794983451E+02 -0.19852676720E+02 -0.49856377723E+02  0.11267621224E+03  0.90733130249E+02 0.  0.
          5    1    3    3  502    0  0.17769808429E+02 -0.78649363451E+01 -0.11869957638E+03  0.12035233753E+03  0.41800000000E+01 0.  1.
         -5    1    3    3    0  502  0.22025175022E+02  0.27717613065E+02  0.23779183390E+02  0.42852028791E+02  0.41800000000E+01 0.  1.
        -11    1    4    4    0    0 -0.99431907832E+00 -0.32043672929E+02  0.15569258718E+02  0.35639689424E+02  0.00000000000E+00 0.  1.
         11    1    4    4    0    0 -0.38800664373E+02  0.12190996209E+02 -0.65425636441E+02  0.77036522819E+02  0.00000000000E+00 0. -1.
</event>
<event>
 8    1  0.6862919E-009  0.1443805E+03  0.7561462E-02  0.1207553E+00
         -2   -1    0    0    0  501 -0.00000000000E+00  0.00000000000E+00  0.38630942711E+02  0.38630942711E+02  0.00000000000E+00 0.  1.
          2   -1    0    0  501    0  0.00000000000E+00 -0.00000000000E+00 -0.10674837182E+04  0.10674837182E+04  0.00000000000E+00 0. -1.
         25    2    1    2    0    0  0.35971713423E+02  0.11198334181E+03 -0.87451957729E+03  0.89121656367E+03  0.12509292262E+03 0.  0.
         23    2    1    2    0    0 -0.35971713423E+02 -0.11198334181E+03 -0.15433319822E+03  0.21489809726E+03  0.92348379106E+02 0.  0.
          5    1    3    3  502    0  0.66336331810E+02  0.11442121521E+03 -0.79540536169E+03  0.80633732719E+03  0.41800000000E+01 0.  1.
         -5    1    3    3    0  502 -0.30364618387E+02 -0.24378733957E+01 -0.79114215597E+02  0.84879236483E+02  0.41800000000E+01 0.  1.
        -11    1    4    4    0    0 -0.22529847434E+02 -0.13446049644E+02  0.53512831651E+01  0.26777350653E+02  0.00000000000E+00 0.  1.
         11    1    4    4    0    0 -0.13441865989E+02 -0.98537292169E+02 -0.15968448139E+03  0.18812074661E+03  0.00000000000E+00 0. -1.
</event>
<event>
 8    1  0.6862919E-009  0.1153079E+03  0.7561462E-02  0.1251045E+00
         -2   -1    0    0    0  501 -0.00000000000E+00  0.00000000000E+00  0.42877256905E+02  0.42877256905E+02  0.00000000000E+00 0.  1.
          2   -1    0    0  501    0  0.00000000000E+00 -0.00000000000E+00 -0.34414826365E+03  0.34414826365E+03  0.00000000000E+00 0. -1.
         25    2    1    2    0    0  0.32561616079E+02  0.30162376389E+02 -0.22439407313E+03  0.26072053840E+03  0.12510983692E+03 0.  0.
         23    2    1    2    0    0 -0.32561616079E+02 -0.30162376389E+02 -0.76876933611E+02  0.12630498215E+03  0.89849083491E+02 0.  0.
          5    1    3    3  502    0  0.64313591336E+02  0.60673718458E+02 -0.14923305940E+03  0.17350941346E+03  0.41800000000E+01 0. -1.
         -5    1    3    3    0  502 -0.31751975257E+02 -0.30511342069E+02 -0.75161013730E+02  0.87211124935E+02  0.41800000000E+01 0. -1.
        -11    1    4    4    0    0  0.20092245824E+02  0.17650180071E+02 -0.33998942173E+02  0.43256852263E+02  0.00000000000E+00 0. -1.
         11    1    4    4    0    0 -0.52653861903E+02 -0.47812556460E+02 -0.42877991437E+02  0.83048129890E+02  0.00000000000E+00 0.  1.
</event>
<event>
 8    1  0.6862919E-009  0.2319877E+03  0.7561462E-02  0.1125248E+00
         -2   -1    0    0    0  501 -0.00000000000E+00  0.00000000000E+00  0.33476165093E+02  0.33476165093E+02  0.00000000000E+00 0.  1.
          2   -1    0    0  501    0  0.00000000000E+00 -0.00000000000E+00 -0.19748426715E+04  0.19748426715E+04  0.00000000000E+00 0. -1.
         25    2    1    2    0    0  0.12238244730E+03 -0.18816423006E+03 -0.75673773619E+03  0.79917610198E+03  0.12508876740E+03 0.  0.
         23    2    1    2    0    0 -0.12238244730E+03  0.18816423006E+03 -0.11846287702E+04  0.12091427346E+04  0.91091100263E+02 0.  0.
          5    1    3    3  502    0  0.74166510286E+02 -0.93360654059E+02 -0.58565134717E+03  0.59768039604E+03  0.41800000000E+01 0. -1.
         -5    1    3    3    0  502  0.48215937013E+02 -0.94803575999E+02 -0.17108638902E+03  0.20149570594E+03  0.41800000000E+01 0. -1.
        -11    1    4    4    0    0 -0.18183821276E+02  0.10027386210E+03 -0.40106240662E+03  0.41380738608E+03  0.00000000000E+00 0.  1.
         11    1    4    4    0    0 -0.10419862602E+03  0.87890367961E+02 -0.78356636360E+03  0.79533534852E+03  0.00000000000E+00 0. -1.
</event>
<event>
 8    1  0.6862919E-009  0.1671826E+03  0.7561462E-02  0.1180818E+00
         -1   -1    0    0    0  501 -0.00000000000E+00  0.00000000000E+00  0.50917196650E+02  0.50917196650E+02  0.00000000000E+00 0.  1.
          1   -1    0    0  501    0  0.00000000000E+00 -0.00000000000E+00 -0.64562643304E+03  0.64562643304E+03  0.00000000000E+00 0. -1.
         25    2    1    2    0    0  0.44109415613E+01 -0.12772562024E+03 -0.18685369800E+03  0.25864040118E+03  0.12508901708E+03 0.  0.
         23    2    1    2    0    0 -0.44109415613E+01  0.12772562024E+03 -0.40785553839E+03  0.43790322851E+03  0.95288020620E+02 0.  0.
          5    1    3    3  502    0 -0.52371487659E+02 -0.10393028122E+03 -0.11129279628E+03  0.16108331689E+03  0.41800000000E+01 0. -1.
         -5    1    3    3    0  502  0.56782429220E+02 -0.23795339018E+02 -0.75560901715E+02  0.97557084290E+02  0.41800000000E+01 0. -1.
        -11    1    4    4    0    0  0.32754571928E+02  0.11047423188E+03 -0.25829729647E+03  0.28283371662E+03  0.00000000000E+00 0.  1.
         11    1    4    4    0    0 -0.37165513490E+02  0.17251388365E+02 -0.14955824192E+03  0.15506951189E+03  0.00000000000E+00 0. -1.
</event>
<event>
 8    1  0.6862919E-009  0.9773544E+02  0.7561462E-02  0.1285131E+00
          2   -1    0    0  501    0  0.00000000000E+00  0.00000000000E+00  0.86322109248E+03  0.86322109248E+03  0.00000000000E+00 0. -1.
         -2   -1    0    0    0  501 -0.00000000000E+00 -0.00000000000E+00 -0.13353903474E+02  0.13353903474E+02  0.00000000000E+00 0.  1.
         25    2    1    2    0    0 -0.19938817971E+02 -0.12396049328E+02  0.52494190209E+03  0.54014926688E+03  0.12508401749E+03 0.  0.
         23    2    1    2    0    0  0.19938817971E+02  0.12396049328E+02  0.32492528691E+03  0.33642572908E+03  0.83991729417E+02 0.  0.
          5    1    3    3  502    0 -0.63443910857E+02 -0.35774516298E+01  0.15561930600E+03  0.16814508255E+03  0.41800000000E+01 0. -1.
         -5    1    3    3    0  502  0.43505092885E+02 -0.88185976985E+01  0.36932259609E+03  0.37200418433E+03  0.41800000000E+01 0. -1.
        -11    1    4    4    0    0  0.50726840509E+02  0.21502606734E+02  0.20758812374E+03  0.21477523964E+03  0.00000000000E+00 0. -1.
         11    1    4    4    0    0 -0.30788022538E+02 -0.91065574055E+01  0.11733716317E+03  0.12165048943E+03  0.00000000000E+00 0.  1.
</event>
<event>
 8    1  0.6862919E-009  0.1118068E+03  0.7561462E-02  0.1257260E+00
         -2   -1    0    0    0  501 -0.00000000000E+00  0.00000000000E+00  0.45206593793E+03  0.45206593793E+03  0.00000000000E+00 0.  1.
          2   -1    0    0  501    0  0.00000000000E+00 -0.00000000000E+00 -0.42800605624E+02  0.42800605624E+02  0.00000000000E+00 0. -1.
         25    2    1    2    0    0 -0.72076129541E+02  0.19291336089E+02  0.14716354600E+03  0.20704931648E+03  0.12508071828E+03 0.  0.
         23    2    1    2    0    0  0.72076129541E+02 -0.19291336089E+02  0.26210178631E+03  0.28781722708E+03  0.92597439058E+02 0.  0.
          5    1    3    3  502    0 -0.60809122338E+02 -0.41669131035E+02  0.11608525210E+03  0.13757661137E+03  0.41800000000E+01 0.  1.
         -5    1    3    3    0  502 -0.11267007203E+02  0.60960467124E+02  0.31078293899E+02  0.69472705108E+02  0.41800000000E+01 0.  1.
        -11    1    4    4    0    0  0.76888451151E+02 -0.10471822394E+02  0.26596436998E+03  0.27705331451E+03  0.00000000000E+00 0.  1.
         11    1    4    4    0    0 -0.48123216105E+01 -0.88195136953E+01 -0.38625836710E+01  0.10763912566E+02  0.00000000000E+00 0. -1.
</event>
<event>
 8    1  0.6862919E-009  0.1044037E+03  0.7561462E-02  0.1271299E+00
         -3   -1    0    0    0  501 -0.00000000000E+00  0.00000000000E+00  0.67491686708E+02  0.67491686708E+02  0.00000000000E+00 0.  1.
          3   -1    0    0  501    0  0.00000000000E+00 -0.00000000000E+00 -0.22872612055E+03  0.22872612055E+03  0.00000000000E+00 0. -1.
         25    2    1    2    0    0 -0.53646632159E+02 -0.30812728946E+02 -0.73455651929E+02  0.15770215886E+03  0.12508738027E+03 0.  0.
         23    2    1    2    0    0  0.53646632159E+02  0.30812728946E+02 -0.87778781912E+02  0.13851564839E+03  0.87487627059E+02 0.  0.
          5    1    3    3  502    0 -0.67796725987E+02  0.31299227960E+01  0.77717505768E+01  0.68440229239E+02  0.41800000000E+01 0. -1.
         -5    1    3    3    0  502  0.14150093828E+02 -0.33942651742E+02 -0.81227402506E+02  0.89261929625E+02  0.41800000000E+01 0. -1.
        -11    1    4    4    0    0 -0.16263227933E+02  0.29722109415E+02 -0.45777946001E+02  0.56951880662E+02  0.00000000000E+00 0. -1.
         11    1    4    4    0    0  0.69909860092E+02  0.10906195309E+01 -0.42000835911E+02  0.81563767730E+02  0.00000000000E+00 0.  1.
</event>
<event>
 8    1  0.6862919E-009  0.1167980E+03  0.7561462E-02  0.1248475E+00
          1   -1    0    0  501    0  0.00000000000E+00  0.00000000000E+00  0.18078678454E+03  0.18078678454E+03  0.00000000000E+00 0. -1.
         -1   -1    0    0    0  501 -0.00000000000E+00 -0.00000000000E+00 -0.15776531709E+03  0.15776531709E+03  0.00000000000E+00 0.  1.
         25    2    1    2    0    0  0.24001888575E+02  0.66178462629E+02  0.12119672778E+03  0.18784224936E+03  0.12506152185E+03 0.  0.
         23    2    1    2    0    0 -0.24001888575E+02 -0.66178462629E+02 -0.98175260335E+02  0.15070985228E+03  0.90107703666E+02 0.  0.
          5    1    3    3  502    0  0.75039456809E+02  0.33684378930E+02  0.77524439002E+02  0.11310644767E+03  0.41800000000E+01 0.  1.
         -5    1    3    3    0  502 -0.51037568234E+02  0.32494083699E+02  0.43672288780E+02  0.74735801688E+02  0.41800000000E+01 0.  1.
        -11    1    4    4    0    0  0.18419376202E+02 -0.12911592613E+02  0.85892542994E+01  0.24078162989E+02  0.00000000000E+00 0. -1.
         11    1    4    4    0    0 -0.42421264777E+02 -0.53266870016E+02 -0.10676451463E+03  0.12663168929E+03  0.00000000000E+00 0.  1.
</event>
<event>
 8    1  0.6862919E-009  0.1061205E+03  0.7561462E-02  0.1267927E+00
          1   -1    0    0  501    0  0.00000000000E+00  0.00000000000E+00  0.10736142931E+04  0.10736142931E+04  0.00000000000E+00 0. -1.
         -1   -1    0    0    0  501 -0.00000000000E+00 -0.00000000000E+00 -0.13515502806E+02  0.13515502806E+02  0.00000000000E+00 0.  1.
         25    2    1    2    0    0  0.36251477586E+02  0.38532899683E+02  0.61158530720E+03  0.62648637837E+03  0.12509852241E+03 0.  0.
         23    2    1    2    0    0 -0.36251477586E+02 -0.38532899683E+02  0.44851348314E+03  0.46064341758E+03  0.90714164399E+02 0.  0.
          5    1    3    3  502    0  0.65727524347E+02 -0.44009006851E+01  0.48607325729E+03  0.49053456477E+03  0.41800000000E+01 0. -1.
         -5    1    3    3    0  502 -0.29476046761E+02  0.42933800368E+02  0.12551204991E+03  0.13595181359E+03  0.41800000000E+01 0. -1.
        -11    1    4    4    0    0  0.21823712027E+02  0.37598431105E+01  0.38766723293E+02  0.44646048669E+02  0.00000000000E+00 0.  1.
         11    1    4    4    0    0 -0.58075189613E+02 -0.42292742793E+02  0.40974675984E+03  0.41599736891E+03  0.00000000000E+00 0. -1.
</event>
<event>
 8    1  0.6862919E-009  0.1267919E+03  0.7561462E-02  0.1232295E+00
          2   -1    0    0  501    0  0.00000000000E+00  0.00000000000E+00  0.16411832534E+03  0.16411832534E+03  0.00000000000E+00 0. -1.
         -2   -1    0    0    0  501 -0.00000000000E+00 -0.00000000000E+00 -0.12362893082E+03  0.12362893082E+03  0.00000000000E+00 0.  1.
         25    2    1    2    0    0  0.80977123235E+02 -0.27555892474E+02 -0.12878188736E+02  0.15208189658E+03  0.12508570592E+03 0.  0.
         23    2    1    2    0    0 -0.80977123235E+02  0.27555892474E+02  0.53367583259E+02  0.13566535957E+03  0.90776479046E+02 0.  0.
          5    1    3    3  502    0 -0.27204210251E+02 -0.22408151757E+02  0.17428428325E+02  0.39540066191E+02  0.41800000000E+01 0.  1.
         -5    1    3    3    0  502  0.10818133349E+03 -0.51477407174E+01 -0.30306617060E+02  0.11254183039E+03  0.41800000000E+01 0.  1.
        -11    1    4    4    0    0 -0.60588561427E+02 -0.15089256416E+02 -0.24936244241E+01  0.62489019817E+02  0.00000000000E+00 0.  1.
         11    1    4    4    0    0 -0.20388561809E+02  0.42645148890E+02  0.55861207683E+02  0.73176339757E+02  0.00000000000E+00 0. -1.
</event>
<event>
 8    1  0.6862919E-009  0.4770080E+03  0.7561462E-02  0.1019961E+00
          1   -1    0    0  501    0  0.00000000000E+00  0.00000000000E+00  0.41950801292E+03  0.41950801292E+03  0.00000000000E+00 0. -1.
         -1   -1    0    0    0  501 -0.00000000000E+00 -0.00000000000E+00 -0.55983565916E+03  0.55983565916E+03  0.00000000000E+00 0.  1.
         25    2    1    2    0    0  0.16347521093E+03 -0.43589477033E+03  0.89382399702E+01  0.48213667654E+03  0.12508991703E+03 0.  0.
         23    2    1    2    0    0 -0.16347521093E+03  0.43589477033E+03 -0.14926588621E+03  0.49720699554E+03  0.90587505994E+02 0.  0.
          5    1    3    3  502    0  0.13914712434E+03 -0.19617837182E+03 -0.67038550071E+01  0.24064556895E+03  0.41800000000E+01 0.  1.
         -5    1    3    3    0  502  0.24328086592E+02 -0.23971639851E+03  0.15642094977E+02  0.24149110759E+03  0.41800000000E+01 0.  1.
        -11    1    4    4    0    0 -0.12161981369E+01  0.94286544948E+02 -0.12828355830E+02  0.95163009670E+02  0.00000000000E+00 0. -1.
         11    1    4    4    0    0 -0.16225901279E+03  0.34160822538E+03 -0.13643753038E+03  0.40204398587E+03  0.00000000000E+00 0.  1.
</event>
<event>
 8    1  0.6862919E-009  0.1425137E+03  0.7561462E-02  0.1209986E+00
         -2   -1    0    0    0  501 -0.00000000000E+00  0.00000000000E+00  0.11265185452E+03  0.11265185452E+03  0.00000000000E+00 0.  1.
          2   -1    0    0  501    0  0.00000000000E+00 -0.00000000000E+00 -0.20819874037E+03  0.20819874037E+03  0.00000000000E+00 0. -1.
         25    2    1    2    0    0  0.93233939753E+02  0.52906279045E+02 -0.41293410356E+02  0.16983715652E+03  0.12509145499E+03 0.  0.
         23    2    1    2    0    0 -0.93233939753E+02 -0.52906279045E+02 -0.54253475492E+02  0.15101343837E+03  0.91487578828E+02 0.  0.
          5    1    3    3  502    0  0.11056377950E+03  0.16518164861E+02  0.16022789322E+00  0.11186910736E+03  0.41800000000E+01 0. -1.
         -5    1    3    3    0  502 -0.17329839749E+02  0.36388114184E+02 -0.41453638249E+02  0.57968049163E+02  0.41800000000E+01 0.  1.
        -11    1    4    4    0    0 -0.13312082630E+02 -0.50983974215E+02  0.28477400230E+01  0.52770131646E+02  0.00000000000E+00 0.  1.
         11    1    4    4    0    0 -0.79921857124E+02 -0.19223048299E+01 -0.57101215515E+02  0.98243306720E+02  0.00000000000E+00 0. -1.
</event>
<event>
 8    1  0.6862919E-009  0.1088380E+03  0.7561462E-02  0.1262737E+00
         -3   -1    0    0    0  501 -0.00000000000E+00  0.00000000000E+00  0.30004266360E+03  0.30004266360E+03  0.00000000000E+00 0.  1.
          3   -1    0    0  501    0  0.00000000000E+00 -0.00000000000E+00 -0.46555806461E+02  0.46555806461E+02  0.00000000000E+00 0. -1.
         25    2    1    2    0    0 -0.42586332788E+02  0.47910690277E+01  0.17085912283E+03  0.21605546140E+03  0.12510224804E+03 0.  0.
         23    2    1    2    0    0  0.42586332788E+02 -0.47910690277E+01  0.82627734315E+02  0.13054300866E+03  0.91529145903E+02 0.  0.
          5    1    3    3  502    0  0.27640274813E+02 -0.39995034221E+02  0.65830418093E+02  0.81943296861E+02  0.41800000000E+01 0.  1.
         -5    1    3    3    0  502 -0.70226607602E+02  0.44786103249E+02  0.10502870473E+03  0.13411216454E+03  0.41800000000E+01 0.  1.
        -11    1    4    4    0    0  0.18113158110E+02 -0.39244068925E+02  0.76465069012E+02  0.87835586305E+02  0.00000000000E+00 0. -1.
         11    1    4    4    0    0  0.24473174678E+02  0.34452999897E+02  0.61626653028E+01  0.42707422357E+02  0.00000000000E+00 0.  1.
</event>
<event>
 8    1  0.6862919E-009  0.6172330E+02  0.7561462E-02  0.1390739E+00
         -2   -1    0    0    0  501 -0.00000000000E+00  0.00000000000E+00  0.41904669834E+02  0.41904669834E+02  0.00000000000E+00 0.  1.
          2   -1    0    0  501    0  0.00000000000E+00 -0.00000000000E+00 -0.31659671205E+03  0.31659671205E+03  0.00000000000E+00 0. -1.
         25    2    1    2    0    0  0.38178935381E+02 -0.99393959545E-01 -0.16194622781E+03  0.20816169909E+03  0.12508825398E+03 0.  0.
         23    2    1    2    0    0 -0.38178935381E+02  0.99393959545E-01 -0.11274581441E+03  0.15033968279E+03  0.91830063535E+02 0.  0.
          5    1    3    3  502    0 -0.16381724049E+01  0.23619793116E+02  0.12861138573E+02  0.27266454135E+02  0.41800000000E+01 0. -1.
         -5    1    3    3    0  502  0.39817107786E+02 -0.23719187076E+02 -0.17480736638E+03  0.18089524496E+03  0.41800000000E+01 0. -1.
        -11    1    4    4    0    0 -0.18027578978E+02  0.18319577739E+02  0.77295050942E+01  0.26839258211E+02  0.00000000000E+00 0.  1.
         11    1    4    4    0    0 -0.20151356403E+02 -0.18220183779E+02 -0.12047531951E+03  0.12350042458E+03  0.00000000000E+00 0. -1.
</event>
<event>
 8    1  0.6862919E-009  0.1353022E+03  0.7561462E-02  0.1219794E+00
          3   -1    0    0  501    0  0.00000000000E+00  0.00000000000E+00  0.26739137873E+03  0.26739137873E+03  0.00000000000E+00 0. -1.
         -3   -1    0    0    0  501 -0.00000000000E+00 -0.00000000000E+00 -0.91794401962E+02  0.91794401962E+02  0.00000000000E+00 0.  1.
         25    2    1    2    0    0  0.43430962911E+02  0.83535746630E+02  0.12710588371E+03  0.20166084394E+03  0.12508685303E+03 0.  0.
         23    2    1    2    0    0 -0.43430962911E+02 -0.83535746630E+02  0.48491093061E+02  0.15752493675E+03  0.11661153497E+03 0.  0.
          5    1    3    3  502    0  0.33474250187E+01 -0.14504117406E+02 -0.16863452757E+02  0.22878442142E+02  0.41800000000E+01 0. -1.
         -5    1    3    3    0  502  0.40083537893E+02  0.98039864036E+02  0.14396933647E+03  0.17878240180E+03  0.41800000000E+01 0. -1.
        -11    1    4    4    0    0 -0.43270686903E+02  0.18534327340E+02  0.22626617056E+02  0.52228703166E+02  0.00000000000E+00 0. -1.
         11    1    4    4    0    0 -0.16027600815E+00 -0.10207007397E+03  0.25864476005E+02  0.10529623359E+03  0.00000000000E+00 0.  1.
</event>
<event>
 8    1  0.6862919E-009  0.9279709E+02  0.7561462E-02  0.1296216E+00
          2   -1    0    0  501    0  0.00000000000E+00  0.00000000000E+00  0.96140148040E+02  0.96140148040E+02  0.00000000000E+00 0. -1.
         -2   -1    0    0    0  501 -0.00000000000E+00 -0.00000000000E+00 -0.16611980080E+03  0.16611980080E+03  0.00000000000E+00 0.  1.
         25    2    1    2    0    0  0.57027148059E+02  0.35416507860E+02 -0.41287536014E+02  0.14785024412E+03  0.12509440199E+03 0.  0.
         23    2    1    2    0    0 -0.57027148059E+02 -0.35416507860E+02 -0.28692116749E+02  0.11440970473E+03  0.88090398610E+02 0.  0.
          5    1    3    3  502    0  0.42319193178E+02  0.77236437540E+01  0.41072667169E+02  0.59623864118E+02  0.41800000000E+01 0.  1.
         -5    1    3    3    0  502  0.14707954881E+02  0.27692864106E+02 -0.82360203183E+02  0.88226379997E+02  0.41800000000E+01 0.  1.
        -11    1    4    4    0    0 -0.18459256715E+02  0.29752283803E+02 -0.99155376654E+01  0.36390389352E+02  0.00000000000E+00 0. -1.
         11    1    4    4    0    0 -0.38567891344E+02 -0.65168791663E+02 -0.18776579083E+02  0.78019315375E+02  0.00000000000E+00 0.  1.
</event>
<event>
 8    1  0.6862919E-009  0.9589236E+02  0.7561462E-02  0.1289179E+00
          2   -1    0    0  501    0  0.00000000000E+00  0.00000000000E+00  0.47507602782E+03  0.47507602782E+03  0.00000000000E+00 0.  1.
         -2   -1    0    0    0  501 -0.00000000000E+00 -0.00000000000E+00 -0.30078681308E+02  0.30078681308E+02  0.00000000000E+00 0. -1.
         25    2    1    2    0    0 -0.11866470096E+02 -0.37706908281E+02  0.21163472373E+03  0.24899945807E+03  0.12509536278E+03 0.  0.
         23    2    1    2    0    0  0.11866470096E+02  0.37706908281E+02  0.23336262279E+03  0.25615525106E+03  0.97952921779E+02 0.  0.
          5    1    3    3  502    0 -0.51358220197E+02  0.22264761509E+02  0.12022479086E+03  0.13268330386E+03  0.41800000000E+01 0. -1.
         -5    1    3    3    0  502  0.39491750101E+02 -0.59971669791E+02  0.91409932870E+02  0.11631615421E+03  0.41800000000E+01 0. -1.
        -11    1    4    4    0    0  0.22353619352E+02 -0.22004510504E+01  0.36380217937E+01  0.22754372888E+02  0.00000000000E+00 0. -1.
         11    1    4    4    0    0 -0.10487149255E+02  0.39907359331E+02  0.22972460099E+03  0.23340087817E+03  0.00000000000E+00 0.  1.
</event>
<event>
 8    1  0.6862919E-009  0.1024737E+03  0.7561462E-02  0.1275179E+00
          1   -1    0    0  501    0  0.00000000000E+00  0.00000000000E+00  0.47492917244E+02  0.47492917244E+02  0.00000000000E+00 0. -1.
         -1   -1    0    0    0  501 -0.00000000000E+00 -0.00000000000E+00 -0.40986214047E+03  0.40986214047E+03  0.00000000000E+00 0.  1.
         25    2    1    2    0    0  0.73591949873E+02  0.42407945006E+02 -0.16693098365E+03  0.22522737977E+03  0.12508881009E+03 0.  0.
         23    2    1    2    0    0 -0.73591949873E+02 -0.42407945006E+02 -0.19543823958E+03  0.23212767794E+03  0.92048598538E+02 0.  0.
          5    1    3    3  502    0  0.62399792845E+02  0.50569641639E+02 -0.27426769628E+02  0.84974836833E+02  0.41800000000E+01 0. -1.
         -5    1    3    3    0  502  0.11192157028E+02 -0.81616966328E+01 -0.13950421402E+03  0.14025254294E+03  0.41800000000E+01 0. -1.
        -11    1    4    4    0    0  0.68915005253E+00 -0.35437313140E+02 -0.18236528798E+02  0.39860369704E+02  0.00000000000E+00 0. -1.
         11    1    4    4    0    0 -0.74281099925E+02 -0.69706318668E+01 -0.17720171078E+03  0.19226730824E+03  0.00000000000E+00 0.  1.
</event>
<event>
 8    1  0.6862919E-009  0.9239651E+02  0.7561462E-02  0.1297150E+00
         -1   -1    0    0    0  501 -0.00000000000E+00  0.00000000000E+00  0.63346488117E+02  0.63346488117E+02  0.00000000000E+00 0.  1.
          1   -1    0    0  501    0  0.00000000000E+00 -0.00000000000E+00 -0.21028331546E+03  0.21028331546E+03  0.00000000000E+00 0. -1.
         25    2    1    2    0    0  0.38320792599E+02  0.14666990347E+01 -0.83159370777E+02  0.15502435431E+03  0.12508571113E+03 0.  0.
         23    2    1    2    0    0 -0.38320792599E+02 -0.14666990347E+01 -0.63777456566E+02  0.11860544927E+03  0.92352879103E+02 0.  0.
          5    1    3    3  502    0 -0.28911192074E+02 -0.33956125891E+01  0.17190490191E+02  0.34064241736E+02  0.41800000000E+01 0.  1.
         -5    1    3    3    0  502  0.67231984673E+02  0.48623116238E+01 -0.10034986097E+03  0.12096011257E+03  0.41800000000E+01 0.  1.
        -11    1    4    4    0    0 -0.56299305092E+02 -0.22098892141E+02 -0.67899696308E+02  0.90930421457E+02  0.00000000000E+00 0. -1.
         11    1    4    4    0    0  0.17978512493E+02  0.20632193106E+02  0.41222397421E+01  0.27675027811E+02  0.00000000000E+00 0.  1.
</event>
<event>
 8    1  0.6862919E-009  0.2715519E+03  0.7561462E-02  0.1100395E+00
         -2   -1    0    0    0  501 -0.00000000000E+00  0.00000000000E+00  0.33388531837E+03  0.33388531837E+03  0.00000000000E+00 0.  1.
          2   -1    0    0  501    0  0.00000000000E+00 -0.00000000000E+00 -0.28181029165E+03  0.28181029165E+03  0.00000000000E+00 0. -1.
         25    2    1    2    0    0 -0.21244575774E+02  0.25716808411E+03  0.15738369157E+03  0.32711462198E+03  0.12509034356E+03 0.  0.
         23    2    1    2    0    0  0.21244575774E+02 -0.25716808411E+03 -0.10530866486E+03  0.28858098804E+03  0.74848622411E+02 0.  0.
          5    1    3    3  502    0 -0.62385975902E+02  0.10054287493E+03  0.10088871467E+03  0.15555347903E+03  0.41800000000E+01 0. -1.
         -5    1    3    3    0  502  0.41141400127E+02  0.15662520918E+03  0.56494976902E+02  0.17156114295E+03  0.41800000000E+01 0. -1.
        -11    1    4    4    0    0 -0.14606588412E+02 -0.12196739836E+03 -0.79572442659E+02  0.14635973599E+03  0.00000000000E+00 0.  1.
         11    1    4    4    0    0  0.35851164186E+02 -0.13520068575E+03 -0.25736222196E+02  0.14222125205E+03  0.00000000000E+00 0. -1.
</event>
<event>
 8    1  0.6862919E-009  0.1110185E+03  0.7561462E-02  0.1258695E+00
         -2   -1    0    0    0  501 -0.00000000000E+00  0.00000000000E+00  0.33327398998E+02  0.33327398998E+02  0.00000000000E+00 0.  1.
          2   -1    0    0  501    0  0.00000000000E+00 -0.00000000000E+00 -0.65524092696E+03  0.65524092696E+03  0.00000000000E+00 0. -1.
         25    2    1    2    0    0  0.51641063902E+02 -0.14696218976E+02 -0.52846786768E+03  0.54571910605E+03  0.12509307418E+03 0.  0.
         23    2    1    2    0    0 -0.51641063902E+02  0.14696218976E+02 -0.93445660282E+02  0.14284921991E+03  0.93760492047E+02 0.  0.
          5    1    3    3  502    0  0.28139696172E+01  0.40265365977E+02 -0.35441286886E+03  0.35672842911E+03  0.41800000000E+01 0. -1.
         -5    1    3    3    0  502  0.48827094284E+02 -0.54961584952E+02 -0.17405499882E+03  0.18899067694E+03  0.41800000000E+01 0. -1.
        -11    1    4    4    0    0  0.17053201074E+02 -0.23643591305E+02 -0.29442870294E+02  0.41433243752E+02  0.00000000000E+00 0. -1.
         11    1    4    4    0    0 -0.68694264976E+02  0.38339810280E+02 -0.64002789988E+02  0.10141597615E+03  0.00000000000E+00 0.  1.
</event>
<event>
 8    1  0.6862919E-009  0.2522572E+03  0.7561462E-02  0.1111887E+00
         -3   -1    0    0    0  501 -0.00000000000E+00  0.00000000000E+00  0.54081697211E+03  0.54081697211E+03  0.00000000000E+00 0. -1.
          3   -1    0    0  501    0  0.00000000000E+00 -0.00000000000E+00 -0.12949258767E+03  0.12949258767E+03  0.00000000000E+00 0.  1.
         25    2    1    2    0    0 -0.16620403722E+03 -0.16222492618E+03  0.12970838287E+03  0.29395994107E+03  0.12508986253E+03 0.  0.
         23    2    1    2    0    0  0.16620403722E+03  0.16222492618E+03  0.28161600157E+03  0.37634961870E+03  0.91601061668E+02 0.  0.
          5    1    3    3  502    0 -0.79527419865E+02 -0.15159917218E+03  0.57718909028E+02  0.18070933671E+03  0.41800000000E+01 0. -1.
         -5    1    3    3    0  502 -0.86676617352E+02 -0.10625753996E+02  0.71989473841E+02  0.11325060436E+03  0.41800000000E+01 0.  1.
        -11    1    4    4    0    0  0.59862353072E+02  0.11466969223E+03  0.18068948794E+03  0.22221910512E+03  0.00000000000E+00 0. -1.
         11    1    4    4    0    0  0.10634168414E+03  0.47555233950E+02  0.10092651363E+03  0.15413051358E+03  0.00000000000E+00 0.  1.
</event>
<event>
 8    1  0.6862919E-009  0.1425744E+03  0.7561462E-02  0.1209906E+00
          1   -1    0    0  501    0  0.00000000000E+00  0.00000000000E+00  0.58421686278E+03  0.58421686278E+03  0.00000000000E+00 0. -1.
         -1   -1    0    0    0  501 -0.00000000000E+00 -0.00000000000E+00 -0.44963444200E+02  0.44963444200E+02  0.00000000000E+00 0.  1.
         25    2    1    2    0    0  0.10200328320E+03  0.45182563160E+02  0.37486526659E+03  0.41063019795E+03  0.12508819921E+03 0.  0.
         23    2    1    2    0    0 -0.10200328320E+03 -0.45182563160E+02  0.16438815199E+03  0.21855010903E+03  0.91074430233E+02 0.  0.
          5    1    3    3  502    0  0.66573587930E+02 -0.37719563051E+02  0.19130527862E+03  0.20608248367E+03  0.41800000000E+01 0. -1.
         -5    1    3    3    0  502  0.35429695271E+02  0.82902126211E+02  0.18355998796E+03  0.20454771428E+03  0.41800000000E+01 0. -1.
        -11    1    4    4    0    0 -0.75019144113E+02 -0.50933123927E+02  0.55704584680E+02  0.10641924568E+03  0.00000000000E+00 0.  1.
         11    1    4    4    0    0 -0.26984139089E+02  0.57505607669E+01  0.10868356731E+03  0.11213086335E+03  0.00000000000E+00 0. -1.
</event>
<event>
 8    1  0.6862919E-009  0.8694444E+02  0.7561462E-02  0.1310425E+00
         -2   -1    0    0    0  501 -0.00000000000E+00  0.00000000000E+00  0.21915250791E+02  0.21915250791E+02  0.00000000000E+00 0.  1.
          2   -1    0    0  501    0  0.00000000000E+00 -0.00000000000E+00 -0.59016802926E+03  0.59016802926E+03  0.00000000000E+00 0. -1.
         25    2    1    2    0    0 -0.32986300596E+01  0.35220547611E+02 -0.34459387371E+03  0.36829988369E+03  0.12509395908E+03 0.  0.
         23    2    1    2    0    0  0.32986300596E+01 -0.35220547611E+02 -0.22365890476E+03  0.24378339635E+03  0.90308752211E+02 0.  0.
          5    1    3    3  502    0  0.39614690460E+02  0.33741974943E+02 -0.56233740801E+02  0.76730375848E+02  0.41800000000E+01 0.  1.
         -5    1    3    3    0  502 -0.42913320520E+02  0.14785726686E+01 -0.28836013291E+03  0.29156950785E+03  0.41800000000E+01 0.  1.
        -11    1    4    4    0    0  0.36736370227E+02 -0.17314473012E+02 -0.42846510265E+02  0.59035373422E+02  0.00000000000E+00 0.  1.
         11    1    4    4    0    0 -0.33437740167E+02 -0.17906074599E+02 -0.18081239449E+03  0.18474802293E+03  0.00000000000E+00 0. -1.
</event>
<event>
 8    1  0.6862919E-009  0.1236642E+03  0.7561462E-02  0.1237172E+00
          2   -1    0    0  501    0  0.00000000000E+00  0.00000000000E+00  0.39711885146E+03  0.39711885146E+03  0.00000000000E+00 0.  1.
         -2   -1    0    0    0  501 -0.00000000000E+00 -0.00000000000E+00 -0.42238395667E+02  0.42238395667E+02  0.00000000000E+00 0. -1.
         25    2    1    2    0    0  0.44058589618E+02 -0.53615845447E+02  0.21317481172E+03  0.25672823016E+03  0.12510022225E+03 0.  0.
         23    2    1    2    0    0 -0.44058589618E+02  0.53615845447E+02  0.14170564407E+03  0.18262901696E+03  0.91962220906E+02 0.  0.
          5    1    3    3  502    0 -0.20558774970E+01 -0.81032654594E+02  0.84070431793E+02  0.11685815181E+03  0.41800000000E+01 0.  1.
         -5    1    3    3    0  502  0.46114467115E+02  0.27416809147E+02  0.12910437993E+03  0.13987007835E+03  0.41800000000E+01 0.  1.
        -11    1    4    4    0    0  0.24332813254E+02  0.32840894062E+02  0.71984109582E+02  0.82778754255E+02  0.00000000000E+00 0.  1.
         11    1    4    4    0    0 -0.68391402872E+02  0.20774951385E+02  0.69721534488E+02  0.99850262710E+02  0.00000000000E+00 0. -1.
</event>
<event>
 8    1  0.6862919E-009  0.2201034E+03  0.7561462E-02  0.1133806E+00
          1   -1    0    0  501    0  0.00000000000E+00  0.00000000000E+00  0.13992153256E+04  0.13992153256E+04  0.00000000000E+00 0. -1.
         -1   -1    0    0    0  501 -0.00000000000E+00 -0.00000000000E+00 -0.43333341270E+02  0.43333341270E+02  0.00000000000E+00 0.  1.
         25    2    1    2    0    0  0.15382475947E+03 -0.13002096406E+03  0.43481733316E+03  0.49526114272E+03  0.12509987428E+03 0.  0.
         23    2    1    2    0    0 -0.15382475947E+03  0.13002096406E+03  0.92106465116E+03  0.94728752415E+03  0.91793540426E+02 0.  0.
          5    1    3    3  502    0  0.67492556680E+02  0.26402587569E+01  0.68993831389E+02  0.96642833895E+02  0.41800000000E+01 0. -1.
         -5    1    3    3    0  502  0.86332202790E+02 -0.13266122282E+03  0.36582350177E+03  0.39861830882E+03  0.41800000000E+01 0. -1.
        -11    1    4    4    0    0 -0.99915265350E+02  0.36730908437E+02  0.33855328597E+03  0.35489512159E+03  0.00000000000E+00 0.  1.
         11    1    4    4    0    0 -0.53909494121E+02  0.93290055622E+02  0.58251136520E+03  0.59239240256E+03  0.00000000000E+00 0. -1.
</event>
<event>
 8    1  0.6862919E-009  0.1495533E+03  0.7561462E-02  0.1201023E+00
          2   -1    0    0  501    0  0.00000000000E+00  0.00000000000E+00  0.63500208125E+03  0.63500208125E+03  0.00000000000E+00 0. -1.
         -2   -1    0    0    0  501 -0.00000000000E+00 -0.00000000000E+00 -0.45491870471E+02  0.45491870471E+02  0.00000000000E+00 0.  1.
         25    2    1    2    0    0 -0.91519190882E+02  0.62808799413E+02  0.17808952834E+03  0.24431669220E+03  0.12511617961E+03 0.  0.
         23    2    1    2    0    0  0.91519190882E+02 -0.62808799413E+02  0.41142068243E+03  0.43617725951E+03  0.93074788208E+02 0.  0.
          5    1    3    3  502    0 -0.14283148175E+02 -0.29988219406E+02  0.59284491382E+01  0.33998831365E+02  0.41800000000E+01 0. -1.
         -5    1    3    3    0  502 -0.77236042707E+02  0.92797018820E+02  0.17216107921E+03  0.21031786084E+03  0.41800000000E+01 0. -1.
        -11    1    4    4    0    0 -0.18720702726E+02 -0.17526715862E+02  0.69259135509E+02  0.73854440157E+02  0.00000000000E+00 0.  1.
         11    1    4    4    0    0  0.11023989361E+03 -0.45282083551E+02  0.34216154692E+03  0.36232281936E+03  0.00000000000E+00 0. -1.
</event>
<event>
 8    1  0.6862919E-009  0.8357619E+02  0.7561462E-02  0.1319198E+00
         -2   -1    0    0    0  501 -0.00000000000E+00  0.00000000000E+00  0.55638540913E+03  0.55638540913E+03  0.00000000000E+00 0.  1.
          2   -1    0    0  501    0  0.00000000000E+00 -0.00000000000E+00 -0.22045664686E+02  0.22045664686E+02  0.00000000000E+00 0. -1.
         25    2    1    2    0    0  0.13522381926E+02 -0.16341591217E+01  0.31742153771E+03  0.34145196080E+03  0.12508990224E+03 0.  0.
         23    2    1    2    0    0 -0.13522381926E+02  0.16341591217E+01  0.21691820673E+03  0.23697911302E+03  0.94446102644E+02 0.  0.
          5    1    3    3  502    0  0.50278400063E+02  0.18768149016E+02  0.60086692244E+02  0.80672448303E+02  0.41800000000E+01 0. -1.
         -5    1    3    3    0  502 -0.36756018138E+02 -0.20402308137E+02  0.25733484546E+03  0.26077951249E+03  0.41800000000E+01 0. -1.
        -11    1    4    4    0    0 -0.42187519207E+02  0.36216140555E+01  0.19823142695E+03  0.20270323504E+03  0.00000000000E+00 0.  1.
         11    1    4    4    0    0  0.28665137281E+02 -0.19874549338E+01  0.18686779787E+02  0.34275877979E+02  0.00000000000E+00 0. -1.
</event>
<event>
 8    1  0.6862919E-009  0.1064388E+03  0.7561462E-02  0.1267310E+00
          2   -1    0    0  501    0  0.00000000000E+00  0.00000000000E+00  0.31605566829E+02  0.31605566829E+02  0.00000000000E+00 0. -1.
         -2   -1    0    0    0  501 -0.00000000000E+00 -0.00000000000E+00 -0.43347130450E+03  0.43347130450E+03  0.00000000000E+00 0.  1.
         25    2    1    2    0    0 -0.41760615465E+02 -0.98858163084E+01 -0.24202499409E+03  0.27579948344E+03  0.12509028313E+03 0.  0.
         23    2    1    2    0    0  0.41760615465E+02  0.98858163084E+01 -0.15984074358E+03  0.18927738789E+03  0.91843278951E+02 0.  0.
          5    1    3    3  502    0  0.12993614535E+02  0.49409866020E+02 -0.87210201634E+02  0.10115957962E+03  0.41800000000E+01 0.  1.
         -5    1    3    3    0  502 -0.54754230000E+02 -0.59295682329E+02 -0.15481479246E+03  0.17463990383E+03  0.41800000000E+01 0.  1.
        -11    1    4    4    0    0  0.71094530778E+01  0.36450511623E+02 -0.18783808283E+02  0.41617491206E+02  0.00000000000E+00 0. -1.
         11    1    4    4    0    0  0.34651162387E+02 -0.26564695315E+02 -0.14105693530E+03  0.14765989668E+03  0.00000000000E+00 0.  1.
</event>
<event>
 8    1  0.6862919E-009  0.1708359E+03  0.7561462E-02  0.1176979E+00
          1   -1    0    0  501    0  0.00000000000E+00  0.00000000000E+00  0.24846644201E+03  0.24846644201E+03  0.00000000000E+00 0. -1.
         -1   -1    0    0    0  501 -0.00000000000E+00 -0.00000000000E+00 -0.12815846116E+03  0.12815846116E+03  0.00000000000E+00 0.  1.
         25    2    1    2    0    0 -0.32327050550E+00 -0.13354075983E+03  0.11329697396E+03  0.21521317471E+03  0.12508903716E+03 0.  0.
         23    2    1    2    0    0  0.32327050550E+00  0.13354075983E+03  0.70110068927E+01  0.16141172847E+03  0.90395535450E+02 0.  0.
          5    1    3    3  502    0  0.50727193519E+02 -0.11560059083E+03  0.94609568829E+02  0.15781377530E+03  0.41800000000E+01 0. -1.
         -5    1    3    3    0  502 -0.51050464025E+02 -0.17940169004E+02  0.18687405133E+02  0.57399399401E+02  0.41800000000E+01 0. -1.
        -11    1    4    4    0    0 -0.43689432106E+02  0.84968719596E+02  0.77953267117E+01  0.95860403223E+02  0.00000000000E+00 0. -1.
         11    1    4    4    0    0  0.44012702612E+02  0.48572040236E+02 -0.78431981908E+00  0.65551325245E+02  0.00000000000E+00 0.  1.
</event>
<event>
 8    1  0.6862919E-009  0.5856038E+02  0.7561462E-02  0.1403974E+00
         -2   -1    0    0    0  501 -0.00000000000E+00  0.00000000000E+00  0.19390796713E+02  0.19390796713E+02  0.00000000000E+00 0. -1.
          2   -1    0    0  501    0  0.00000000000E+00 -0.00000000000E+00 -0.68900822387E+03  0.68900822387E+03  0.00000000000E+00 0.  1.
         25    2    1    2    0    0  0.26694282611E+02 -0.30701485773E+02 -0.37819000973E+03  0.40041117179E+03  0.12508499942E+03 0.  0.
         23    2    1    2    0    0 -0.26694282611E+02  0.30701485773E+02 -0.29142741743E+03  0.30798784880E+03  0.90947289266E+02 0.  0.
          5    1    3    3  502    0  0.31217240929E+01 -0.14712646453E+02  0.48070847140E+01  0.16333633718E+02  0.41800000000E+01 0. -1.
         -5    1    3    3    0  502  0.23572558518E+02 -0.15988839320E+02 -0.38299709444E+03  0.38407753807E+03  0.41800000000E+01 0. -1.
        -11    1    4    4    0    0 -0.36201846715E+02  0.43617569940E+02 -0.28520768520E+03  0.29078598627E+03  0.00000000000E+00 0.  1.
         11    1    4    4    0    0  0.95075641046E+01 -0.12916084166E+02 -0.62197322258E+01  0.17201862526E+02  0.00000000000E+00 0. -1.
</event>
<event>
 8    1  0.6862919E-009  0.1313527E+03  0.7561462E-02  0.1225462E+00
          2   -1    0    0  501    0  0.00000000000E+00  0.00000000000E+00  0.15422605756E+04  0.15422605756E+04  0.00000000000E+00 0. -1.
         -2   -1    0    0    0  501 -0.00000000000E+00 -0.00000000000E+00 -0.15128013372E+02  0.15128013372E+02  0.00000000000E+00 0.  1.
         25    2    1    2    0    0  0.18381946833E+02 -0.10386739714E+03  0.93083787620E+03  0.94511037844E+03  0.12509253979E+03 0.  0.
         23    2    1    2    0    0 -0.18381946833E+02  0.10386739714E+03  0.59629468600E+03  0.61227821051E+03  0.90503714541E+02 0.  0.
          5    1    3    3  502    0  0.42574008340E+02 -0.74857965847E+02  0.86345815496E+03  0.86775210688E+03  0.41800000000E+01 0.  1.
         -5    1    3    3    0  502 -0.24192061507E+02 -0.29009431295E+02  0.67379721245E+02  0.77358271562E+02  0.41800000000E+01 0.  1.
        -11    1    4    4    0    0  0.36303855698E+02  0.33816125198E+02  0.18925843865E+03  0.19565341004E+03  0.00000000000E+00 0. -1.
         11    1    4    4    0    0 -0.54685802531E+02  0.70051271944E+02  0.40703624736E+03  0.41662480046E+03  0.00000000000E+00 0.  1.
</event>
<event>
 8    1  0.6862919E-009  0.1477711E+03  0.7561462E-02  0.1203239E+00
         -3   -1    0    0    0  501 -0.00000000000E+00  0.00000000000E+00  0.17790872358E+02  0.17790872358E+02  0.00000000000E+00 0.  1.
          3   -1    0    0  501    0  0.00000000000E+00 -0.00000000000E+00 -0.19187137572E+04  0.19187137572E+04  0.00000000000E+00 0. -1.
         25    2    1    2    0    0 -0.39269814955E+02 -0.12860161538E+03 -0.13357338678E+04  0.13483000008E+04  0.12508969862E+03 0.  0.
         23    2    1    2    0    0  0.39269814955E+02  0.12860161538E+03 -0.56518901698E+03  0.58820462870E+03  0.92008513027E+02 0.  0.
          5    1    3    3  502    0 -0.24226624021E+02 -0.83667019075E+02 -0.12208019440E+04  0.12239125615E+04  0.41800000000E+01 0.  1.
         -5    1    3    3    0  502 -0.15043190935E+02 -0.44934596307E+02 -0.11493192384E+03  0.12438743931E+03  0.41800000000E+01 0.  1.
        -11    1    4    4    0    0  0.17045654741E+02  0.13621397979E+03 -0.44315639674E+03  0.46393145464E+03  0.00000000000E+00 0.  1.
         11    1    4    4    0    0  0.22224160215E+02 -0.76123644034E+01 -0.12203262024E+03  0.12427317406E+03  0.00000000000E+00 0. -1.
</event>
<event>
 8    1  0.6862919E-009  0.1361043E+03  0.7561462E-02  0.1218669E+00
         -1   -1    0    0    0  501 -0.00000000000E+00  0.00000000000E+00  0.67366124540E+02  0.67366124540E+02  0.00000000000E+00 0.  1.
          1   -1    0    0  501    0  0.00000000000E+00 -0.00000000000E+00 -0.37461310541E+03  0.37461310541E+03  0.00000000000E+00 0. -1.
         25    2    1    2    0    0 -0.97702793765E+02  0.33125999137E+02 -0.95661586239E+02  0.18826362188E+03  0.12509550157E+03 0.  0.
         23    2    1    2    0    0  0.97702793765E+02 -0.33125999137E+02 -0.21158539463E+03  0.25371560807E+03  0.94657608403E+02 0.  0.
          5    1    3    3  502    0 -0.45896595803E+02 -0.37552043252E+02 -0.13611191328E+01  0.59464094242E+02  0.41800000000E+01 0.  1.
         -5    1    3    3    0  502 -0.51806197962E+02  0.70678042390E+02 -0.94300467107E+02  0.12879952764E+03  0.41800000000E+01 0.  1.
        -11    1    4    4    0    0  0.20268592370E+02 -0.42445028667E+02 -0.14058711573E+03  0.14824686643E+03  0.00000000000E+00 0. -1.
         11    1    4    4    0    0  0.77434201395E+02  0.93190295301E+01 -0.70998278893E+02  0.10546874164E+03  0.00000000000E+00 0.  1.
</event>
<event>
 8    1  0.6862919E-009  0.1392148E+03  0.7561462E-02  0.1214389E+00
         -1   -1    0    0    0  501 -0.00000000000E+00  0.00000000000E+00  0.96528282469E+02  0.96528282469E+02  0.00000000000E+00 0.  1.
          1   -1    0    0  501    0  0.00000000000E+00 -0.00000000000E+00 -0.30128713594E+03  0.30128713594E+03  0.00000000000E+00 0. -1.
         25    2    1    2    0    0 -0.59789440494E+02  0.10803533613E+03 -0.68993756803E+02  0.18882375189E+03  0.12509140559E+03 0.  0.
         23    2    1    2    0    0  0.59789440494E+02 -0.10803533613E+03 -0.13576509666E+03  0.20899166652E+03  0.99994720624E+02 0.  0.
          5    1    3    3  502    0  0.13971315128E+02 -0.81873163545E+01  0.19064822996E+02  0.25360790038E+02  0.41800000000E+01 0. -1.
         -5    1    3    3    0  502 -0.73760755622E+02  0.11622265249E+03 -0.88058579798E+02  0.16346296185E+03  0.41800000000E+01 0. -1.
        -11    1    4    4    0    0  0.28765889152E+02 -0.63515476783E+02 -0.80028102162E+01  0.70183595954E+02  0.00000000000E+00 0.  1.
         11    1    4    4    0    0  0.31023551342E+02 -0.44519859350E+02 -0.12776228645E+03  0.13880807056E+03  0.00000000000E+00 0. -1.
</event>
<event>
 8    1  0.6862919E-009  0.1080360E+03  0.7561462E-02  0.1264251E+00
          2   -1    0    0  501    0  0.00000000000E+00  0.00000000000E+00  0.24754668809E+03  0.24754668809E+03  0.00000000000E+00 0.  1.
         -2   -1    0    0    0  501 -0.00000000000E+00 -0.00000000000E+00 -0.74868969104E+02  0.74868969104E+02  0.00000000000E+00 0. -1.
         25    2    1    2    0    0 -0.17973878473E+02 -0.40124319867E+02  0.13088606366E+02  0.13323455015E+03  0.12508841827E+03 0.  0.
         23    2    1    2    0    0  0.17973878473E+02  0.40124319867E+02  0.15958911263E+03  0.18918110704E+03  0.91584851597E+02 0.  0.
          5    1    3    3  502    0 -0.40728943510E+02  0.25508954443E+02 -0.24538797332E+02  0.54121886245E+02  0.41800000000E+01 0.  1.
         -5    1    3    3    0  502  0.22755065037E+02 -0.65633274310E+02  0.37627403698E+02  0.79112663908E+02  0.41800000000E+01 0.  1.
        -11    1    4    4    0    0  0.53720432727E+02  0.27339198922E+02  0.12024529241E+03  0.13450742373E+03  0.00000000000E+00 0.  1.
         11    1    4    4    0    0 -0.35746554254E+02  0.12785120945E+02  0.39343820210E+02  0.54673683316E+02  0.00000000000E+00 0. -1.
</event>
<event>
 8    1  0.6862919E-009  0.7741688E+02  0.7561462E-02  0.1336546E+00
         -2   -1    0    0    0  501 -0.00000000000E+00  0.00000000000E+00  0.40629193650E+02  0.40629193650E+02  0.00000000000E+00 0. -1.
          2   -1    0    0  501    0  0.00000000000E+00 -0.00000000000E+00 -0.36481673470E+03  0.36481673470E+03  0.00000000000E+00 0.  1.
         25    2    1    2    0    0 -0.21829796212E+02 -0.24594224415E+02 -0.11659870833E+03  0.17413782994E+03  0.12508920479E+03 0.  0.
         23    2    1    2    0    0  0.21829796212E+02  0.24594224415E+02 -0.20758883272E+03  0.23130809841E+03  0.96586215584E+02 0.  0.
          5    1    3    3  502    0 -0.36108581420E+02  0.19238465293E+02 -0.12084786465E+03  0.12765432616E+03  0.41800000000E+01 0.  1.
         -5    1    3    3    0  502  0.14278785209E+02 -0.43832689708E+02  0.42491563179E+01  0.46483503778E+02  0.41800000000E+01 0.  1.
        -11    1    4    4    0    0 -0.85579087234E+01  0.34430383189E+02 -0.19292998274E+03  0.19616489830E+03  0.00000000000E+00 0.  1.
         11    1    4    4    0    0  0.30387704935E+02 -0.98361587741E+01 -0.14658849988E+02  0.35143200105E+02  0.00000000000E+00 0. -1.
</event>
<event>
 8    1  0.6862919E-009  0.9577367E+02  0.7561462E-02  0.1289443E+00
         -2   -1    0    0    0  501 -0.00000000000E+00  0.00000000000E+00  0.18700889461E+02  0.18700889461E+02  0.00000000000E+00 0.  1.
          2   -1    0    0  501    0  0.00000000000E+00 -0.00000000000E+00 -0.89538743259E+03  0.89538743259E+03  0.00000000000E+00 0. -1.
         25    2    1    2    0    0 -0.53229653928E+02  0.32737178610E+02 -0.59748032974E+03  0.61362527636E+03  0.12509243162E+03 0.  0.
         23    2    1    2    0    0  0.53229653928E+02 -0.32737178610E+02 -0.27920621340E+03  0.30046304569E+03  0.91743192158E+02 0.  0.
          5    1    3    3  502    0 -0.23443147047E+02  0.69274094117E+02 -0.49918062827E+03  0.50452676173E+03  0.41800000000E+01 0. -1.
         -5    1    3    3    0  502 -0.29786506882E+02 -0.36536915507E+02 -0.98299701462E+02  0.10909851463E+03  0.41800000000E+01 0. -1.
        -11    1    4    4    0    0 -0.22878399887E+01 -0.11183392619E+02  0.31924232119E+01  0.11853018529E+02  0.00000000000E+00 0.  1.
         11    1    4    4    0    0  0.55517493917E+02 -0.21553785991E+02 -0.28239863661E+03  0.28861002716E+03  0.00000000000E+00 0. -1.
</event>
<event>
 8    1  0.6862919E-009  0.1745217E+03  0.7561462E-02  0.1173213E+00
         -2   -1    0    0    0  501 -0.00000000000E+00  0.00000000000E+00  0.13090219147E+03  0.13090219147E+03  0.00000000000E+00 0.  1.
          2   -1    0    0  501    0  0.00000000000E+00 -0.00000000000E+00 -0.24896737463E+03  0.24896737463E+03  0.00000000000E+00 0. -1.
         25    2    1    2    0    0 -0.84186893241E+02  0.11496431826E+03 -0.37142557253E+02  0.19321427325E+03  0.12509179973E+03 0.  0.
         23    2    1    2    0    0  0.84186893241E+02 -0.11496431826E+03 -0.80922625905E+02  0.18665529286E+03  0.89372811868E+02 0.  0.
          5    1    3    3  502    0 -0.39996155972E+02 -0.17713986865E+02 -0.29841382730E+02  0.53117401540E+02  0.41800000000E+01 0. -1.
         -5    1    3    3    0  502 -0.44190737269E+02  0.13267830513E+03 -0.73011745230E+01  0.14009687171E+03  0.41800000000E+01 0. -1.
        -11    1    4    4    0    0 -0.54274842150E+01 -0.59621992780E+02 -0.46636980436E+02  0.75889706497E+02  0.00000000000E+00 0. -1.
         11    1    4    4    0    0  0.89614377456E+02 -0.55342325483E+02 -0.34285645469E+02  0.11076558636E+03  0.00000000000E+00 0.  1.
</event>
<event>
 8    1  0.6862919E-009  0.9309830E+02  0.7561462E-02  0.1295518E+00
          1   -1    0    0  501    0  0.00000000000E+00  0.00000000000E+00  0.46532540604E+03  0.46532540604E+03  0.00000000000E+00 0. -1.
         -1   -1    0    0    0  501 -0.00000000000E+00 -0.00000000000E+00 -0.35880746438E+02  0.35880746438E+02  0.00000000000E+00 0.  1.
         25    2    1    2    0    0  0.16443570407E+01  0.20540296280E+02  0.10865414659E+03  0.16696719207E+03  0.12509081491E+03 0.  0.
         23    2    1    2    0    0 -0.16443570407E+01 -0.20540296280E+02  0.32079051301E+03  0.33423896041E+03  0.91567034103E+02 0.  0.
          5    1    3    3  502    0 -0.20027046721E+02  0.51121944416E+02  0.34094403550E+01  0.55169126192E+02  0.41800000000E+01 0. -1.
         -5    1    3    3    0  502  0.21671403761E+02 -0.30581648136E+02  0.10524470623E+03  0.11179806588E+03  0.41800000000E+01 0. -1.
        -11    1    4    4    0    0  0.37916006797E+02 -0.34703022145E+02  0.16030150664E+03  0.16834041805E+03  0.00000000000E+00 0.  1.
         11    1    4    4    0    0 -0.39560363838E+02  0.14162725864E+02  0.16048900637E+03  0.16589854236E+03  0.00000000000E+00 0. -1.
</event>
<event>
 8    1  0.6862919E-009  0.1401014E+03  0.7561462E-02  0.1213193E+00
          1   -1    0    0  501    0  0.00000000000E+00  0.00000000000E+00  0.10556465439E+04  0.10556465439E+04  0.00000000000E+00 0. -1.
         -1   -1    0    0    0  501 -0.00000000000E+00 -0.00000000000E+00 -0.27052696211E+02  0.27052696211E+02  0.00000000000E+00 0.  1.
         25    2    1    2    0    0  0.98957485943E+02  0.35072064859E+02  0.78898789882E+03  0.80571216374E+03  0.12509017771E+03 0.  0.
         23    2    1    2    0    0 -0.98957485943E+02 -0.35072064859E+02  0.23960594891E+03  0.27698707641E+03  0.91039529804E+02 0.  0.
          5    1    3    3  502    0  0.61464131230E+02 -0.43817391012E+02  0.34305094397E+03  0.35128225936E+03  0.41800000000E+01 0.  1.
         -5    1    3    3    0  502  0.37493354713E+02  0.78889455871E+02  0.44593695485E+03  0.45442990438E+03  0.41800000000E+01 0.  1.
        -11    1    4    4    0    0 -0.25112831625E+02 -0.35289033789E+02  0.24950931640E+02  0.49985189884E+02  0.00000000000E+00 0.  1.
         11    1    4    4    0    0 -0.73844654318E+02  0.21696893053E+00  0.21465501727E+03  0.22700188652E+03  0.00000000000E+00 0. -1.
</event>
<event>
 8    1  0.6862919E-009  0.1018531E+03  0.7561462E-02  0.1276447E+00
          2   -1    0    0  501    0  0.00000000000E+00  0.00000000000E+00  0.10279351108E+04  0.10279351108E+04  0.00000000000E+00 0. -1.
         -2   -1    0    0    0  501 -0.00000000000E+00 -0.00000000000E+00 -0.19700132865E+02  0.19700132865E+02  0.00000000000E+00 0.  1.
         25    2    1    2    0    0  0.33698198598E+02  0.54189350170E+02  0.79407383639E+03  0.80639399244E+03  0.12508380846E+03 0.  0.
         23    2    1    2    0    0 -0.33698198598E+02 -0.54189350170E+02  0.21416114150E+03  0.24124125118E+03  0.90886151216E+02 0.  0.
          5    1    3    3  502    0  0.71672400768E+02 -0.21324276254E+01  0.37238256651E+03  0.37924626369E+03  0.41800000000E+01 0. -1.
         -5    1    3    3    0  502 -0.37974202169E+02  0.56321777796E+02  0.42169126988E+03  0.42714772875E+03  0.41800000000E+01 0. -1.
        -11    1    4    4    0    0 -0.74557911416E+01 -0.12957879464E+02 -0.57103377328E+01  0.16003231510E+02  0.00000000000E+00 0.  1.
         11    1    4    4    0    0 -0.26242407457E+02 -0.41231470707E+02  0.21987147924E+03  0.22523801967E+03  0.00000000000E+00 0. -1.
</event>
<event>
 8    1  0.6862919E-009  0.1044422E+03  0.7561462E-02  0.1271223E+00
          1   -1    0    0  501    0  0.00000000000E+00  0.00000000000E+00  0.15982756634E+02  0.15982756634E+02  0.00000000000E+00 0. -1.
         -1   -1    0    0    0  501 -0.00000000000E+00 -0.00000000000E+00 -0.96105682809E+03  0.96105682809E+03  0.00000000000E+00 0.  1.
         25    2    1    2    0    0 -0.23959450505E+02  0.63256325899E+02 -0.71751338583E+03  0.73147031821E+03  0.12509176447E+03 0.  0.
         23    2    1    2    0    0  0.23959450505E+02 -0.63256325899E+02 -0.22756068563E+03  0.24556926652E+03  0.62809083578E+02 0.  0.
          5    1    3    3  502    0 -0.67568848001E+02  0.63564352420E+02 -0.38283446744E+03  0.39393613439E+03  0.41800000000E+01 0. -1.
         -5    1    3    3    0  502  0.43609397496E+02 -0.30802652112E+00 -0.33467891839E+03  0.33753418382E+03  0.41800000000E+01 0. -1.
        -11    1    4    4    0    0  0.29179434256E+02 -0.49007847774E+02 -0.22231270114E+03  0.22951284411E+03  0.00000000000E+00 0.  1.
         11    1    4    4    0    0 -0.52199837511E+01 -0.14248478125E+02 -0.52479844949E+01  0.16056422406E+02  0.00000000000E+00 0. -1.
</event>
<event>
 8    1  0.6862919E-009  0.1480657E+03  0.7561462E-02  0.1202870E+00
          2   -1    0    0  501    0  0.00000000000E+00  0.00000000000E+00  0.38985573448E+03  0.38985573448E+03  0.00000000000E+00 0. -1.
         -2   -1    0    0    0  501 -0.00000000000E+00 -0.00000000000E+00 -0.68323252593E+02  0.68323252593E+02  0.00000000000E+00 0.  1.
         25    2    1    2    0    0 -0.56445656888E+02  0.84363997579E+02  0.26455340726E+03  0.30974004193E+03  0.12508793713E+03 0.  0.
         23    2    1    2    0    0  0.56445656888E+02 -0.84363997579E+02  0.56979074636E+02  0.14843894515E+03  0.92109224408E+02 0.  0.
          5    1    3    3  502    0 -0.75811066716E+02  0.29285817122E+01  0.10630388263E+03  0.13066706658E+03  0.41800000000E+01 0.  1.
         -5    1    3    3    0  502  0.19365409828E+02  0.81435415866E+02  0.15824952463E+03  0.17907297535E+03  0.41800000000E+01 0.  1.
        -11    1    4    4    0    0 -0.20315297868E+02  0.24413270001E+01  0.14252561977E+02  0.24936056783E+02  0.00000000000E+00 0. -1.
         11    1    4    4    0    0  0.76760954756E+02 -0.86805324579E+02  0.42726512660E+02  0.12350288836E+03  0.00000000000E+00 0.  1.
</event>
<event>
 8    1  0.6862919E-009  0.4342025E+03  0.7561462E-02  0.1032541E+00
         -1   -1    0    0    0  501 -0.00000000000E+00  0.00000000000E+00  0.19114590953E+04  0.19114590953E+04  0.00000000000E+00 0.  1.
          1   -1    0    0  501    0  0.00000000000E+00 -0.00000000000E+00 -0.10634938627E+03  0.10634938627E+03  0.00000000000E+00 0. -1.
         25    2    1    2    0    0  0.24636683307E+03 -0.35183258063E+03  0.10962834135E+04  0.11840468902E+04  0.12508770672E+03 0.  0.
         23    2    1    2    0    0 -0.24636683307E+03  0.35183258063E+03  0.70882629553E+03  0.83376159132E+03  0.90779362665E+02 0.  0.
          5    1    3    3  502    0  0.11167857844E+03 -0.15040187278E+03  0.32011342456E+03  0.37092169686E+03  0.41800000000E+01 0.  1.
         -5    1    3    3    0  502  0.13468825463E+03 -0.20143070786E+03  0.77616998894E+03  0.81312519339E+03  0.41800000000E+01 0.  1.
        -11    1    4    4    0    0 -0.19582518316E+03  0.20549064126E+03  0.44320447766E+03  0.52631180399E+03  0.00000000000E+00 0.  1.
         11    1    4    4    0    0 -0.50541649905E+02  0.14634193937E+03  0.26562181788E+03  0.30744978732E+03  0.00000000000E+00 0. -1.
</event>
<event>
 8    1  0.6862919E-009  0.8302609E+02  0.7561462E-02  0.1320677E+00
         -2   -1    0    0    0  501 -0.00000000000E+00  0.00000000000E+00  0.32989641750E+02  0.32989641750E+02  0.00000000000E+00 0.  1.
          2   -1    0    0  501    0  0.00000000000E+00 -0.00000000000E+00 -0.51296939542E+03  0.51296939542E+03  0.00000000000E+00 0. -1.
         25    2    1    2    0    0 -0.56176131603E+02  0.29869681323E+02 -0.33682521624E+03  0.36489346242E+03  0.12509219398E+03 0.  0.
         23    2    1    2    0    0  0.56176131603E+02 -0.29869681323E+02 -0.14315453743E+03  0.18106557476E+03  0.90794081029E+02 0.  0.
          5    1    3    3  502    0 -0.45675526051E+02  0.21100300837E+01 -0.33123775777E+03  0.33440489003E+03  0.41800000000E+01 0. -1.
         -5    1    3    3    0  502 -0.10500605552E+02  0.27759651239E+02 -0.55874584746E+01  0.30488572385E+02  0.41800000000E+01 0. -1.
        -11    1    4    4    0    0  0.54230328325E+02 -0.47703325261E+02 -0.54148293945E+02  0.90269449364E+02  0.00000000000E+00 0.  1.
         11    1    4    4    0    0  0.19458032780E+01  0.17833643938E+02 -0.89006243486E+02  0.90796125391E+02  0.00000000000E+00 0. -1.
</event>
<event>
 8    1  0.6862919E-009  0.9560341E+02  0.7561462E-02  0.1289823E+00
          1   -1    0    0  501    0  0.00000000000E+00  0.00000000000E+00  0.75772887549E+02  0.75772887549E+02  0.00000000000E+00 0. -1.
         -1   -1    0    0    0  501 -0.00000000000E+00 -0.00000000000E+00 -0.16650057220E+03  0.16650057220E+03  0.00000000000E+00 0.  1.
         25    2    1    2    0    0 -0.23142246854E+02 -0.17084538301E+02 -0.46366006463E+02  0.13647162704E+03  0.12508898191E+03 0.  0.
         23    2    1    2    0    0  0.23142246854E+02  0.17084538301E+02 -0.44361678190E+02  0.10580183271E+03  0.91644008390E+02 0.  0.
          5    1    3    3  502    0 -0.62923894358E+02 -0.25799432712E+02 -0.62508333858E+02  0.92465082118E+02  0.41800000000E+01 0. -1.
         -5    1    3    3    0  502  0.39781647503E+02  0.87148944104E+01  0.16142327395E+02  0.44006544927E+02  0.41800000000E+01 0. -1.
        -11    1    4    4    0    0  0.42566993428E+02 -0.14570934731E+02  0.36064501359E+01  0.45136100308E+02  0.00000000000E+00 0. -1.
         11    1    4    4    0    0 -0.19424746573E+02  0.31655473033E+02 -0.47968128326E+02  0.60665732399E+02  0.00000000000E+00 0.  1.
</event>
<event>
 8    1  0.6862919E-009  0.1443657E+03  0.7561462E-02  0.1207572E+00
          2   -1    0    0  501    0  0.00000000000E+00  0.00000000000E+00  0.39954016781E+03  0.39954016781E+03  0.00000000000E+00 0. -1.
         -2   -1    0    0    0  501 -0.00000000000E+00 -0.00000000000E+00 -0.82516525872E+02  0.82516525872E+02  0.00000000000E+00 0.  1.
         25    2    1    2    0    0  0.93062849714E+02 -0.81806990700E+02  0.66861016943E+02  0.18833624133E+03  0.12508823481E+03 0.  0.
         23    2    1    2    0    0 -0.93062849714E+02  0.81806990700E+02  0.25016262500E+03  0.29372045236E+03  0.91308748005E+02 0.  0.
          5    1    3    3  502    0  0.10848211958E+03 -0.45678660967E+02  0.87976377340E+01  0.11810919171E+03  0.41800000000E+01 0.  1.
         -5    1    3    3    0  502 -0.15419269870E+02 -0.36128329733E+02  0.58063379209E+02  0.70227049616E+02  0.41800000000E+01 0.  1.
        -11    1    4    4    0    0 -0.37700942442E+01  0.25733282871E+02  0.45109363972E+01  0.26396287714E+02  0.00000000000E+00 0.  1.
         11    1    4    4    0    0 -0.89292755470E+02  0.56073707829E+02  0.24565168860E+03  0.26732416464E+03  0.00000000000E+00 0. -1.
</event>
<event>
 8    1  0.6862919E-009  0.1048181E+03  0.7561462E-02  0.1270478E+00
         -3   -1    0    0    0  501 -0.00000000000E+00  0.00000000000E+00  0.24464941591E+03  0.24464941591E+03  0.00000000000E+00 0. -1.
          3   -1    0    0  501    0  0.00000000000E+00 -0.00000000000E+00 -0.70283695281E+02  0.70283695281E+02  0.00000000000E+00 0.  1.
         25    2    1    2    0    0  0.31198326968E+02  0.56331531604E+02  0.13927047178E+03  0.19796649684E+03  0.12509153649E+03 0.  0.
         23    2    1    2    0    0 -0.31198326968E+02 -0.56331531604E+02  0.35095248848E+02  0.11696661435E+03  0.91120444044E+02 0.  0.
          5    1    3    3  502    0 -0.35649498682E+02  0.29378675199E+02  0.11123103396E+03  0.12051476519E+03  0.41800000000E+01 0.  1.
         -5    1    3    3    0  502  0.66847825650E+02  0.26952856405E+02  0.28039437822E+02  0.77451731652E+02  0.41800000000E+01 0.  1.
        -11    1    4    4    0    0  0.20025193033E+02 -0.12253680818E+02  0.42936590946E+02  0.48935793564E+02  0.00000000000E+00 0. -1.
         11    1    4    4    0    0 -0.51223520002E+02 -0.44077850786E+02 -0.78413420981E+01  0.68030820789E+02  0.00000000000E+00 0.  1.
</event>
<event>
 8    1  0.6862919E-009  0.1299619E+03  0.7561462E-02  0.1227512E+00
         -2   -1    0    0    0  501 -0.00000000000E+00  0.00000000000E+00  0.43239345747E+02  0.43239345747E+02  0.00000000000E+00 0.  1.
          2   -1    0    0  501    0  0.00000000000E+00 -0.00000000000E+00 -0.43220210689E+03  0.43220210689E+03  0.00000000000E+00 0. -1.
         25    2    1    2    0    0  0.37892924614E+01  0.82154466746E+02 -0.22717482605E+03  0.27206401187E+03  0.12508680914E+03 0.  0.
         23    2    1    2    0    0 -0.37892924614E+01 -0.82154466746E+02 -0.16178793510E+03  0.20337744077E+03  0.91778713917E+02 0.  0.
          5    1    3    3  502    0  0.61768603276E+02  0.22488861341E+02 -0.89024548765E+02  0.11074272851E+03  0.41800000000E+01 0.  1.
         -5    1    3    3    0  502 -0.57979310814E+02  0.59665605406E+02 -0.13815027728E+03  0.16132128336E+03  0.41800000000E+01 0.  1.
        -11    1    4    4    0    0  0.34676461871E+02 -0.48650284917E+02 -0.13052551169E+03  0.14354865528E+03  0.00000000000E+00 0. -1.
         11    1    4    4    0    0 -0.38465754332E+02 -0.33504181829E+02 -0.31262423409E+02  0.59828785494E+02  0.00000000000E+00 0.  1.
</event>
<event>
 8    1  0.6862919E-009  0.8464753E+02  0.7561462E-02  0.1316357E+00
          2   -1    0    0  501    0  0.00000000000E+00  0.00000000000E+00  0.90406058109E+02  0.90406058109E+02  0.00000000000E+00 0. -1.
         -2   -1    0    0    0  501 -0.00000000000E+00 -0.00000000000E+00 -0.14384459653E+03  0.14384459653E+03  0.00000000000E+00 0.  1.
         25    2    1    2    0    0 -0.14874732034E+02 -0.19967488263E+02 -0.63285009248E+02  0.14238027633E+03  0.12508873831E+03 0.  0.
         23    2    1    2    0    0  0.14874732034E+02  0.19967488263E+02  0.98464708295E+01  0.91870378311E+02  0.87882052676E+02 0.  0.
          5    1    3    3  502    0 -0.42722550888E+02 -0.42590976133E+02 -0.81851476104E+02  0.10176612473E+03  0.41800000000E+01 0. -1.
         -5    1    3    3    0  502  0.27847818854E+02  0.22623487870E+02  0.18566466856E+02  0.40614151596E+02  0.41800000000E+01 0. -1.
        -11    1    4    4    0    0  0.31935106355E+02 -0.13862679814E+02  0.32583286212E+02  0.47683282709E+02  0.00000000000E+00 0. -1.
         11    1    4    4    0    0 -0.17060374321E+02  0.33830168076E+02 -0.22736815382E+02  0.44187095602E+02  0.00000000000E+00 0.  1.
</event>
<event>
 8    1  0.6862919E-009  0.1022645E+03  0.7561462E-02  0.1275605E+00
         -1   -1    0    0    0  501 -0.00000000000E+00  0.00000000000E+00  0.12329901528E+02  0.12329901528E+02  0.00000000000E+00 0.  1.
          1   -1    0    0  501    0  0.00000000000E+00 -0.00000000000E+00 -0.15808192153E+04  0.15808192153E+04  0.00000000000E+00 0. -1.
         25    2    1    2    0    0 -0.46983256532E+02  0.21833915591E+02 -0.13170898142E+04  0.13240307268E+04  0.12509052950E+03 0.  0.
         23    2    1    2    0    0  0.46983256532E+02 -0.21833915591E+02 -0.25139949965E+03  0.26911839010E+03  0.80863175829E+02 0.  0.
          5    1    3    3  502    0 -0.19644956312E+01  0.54681554033E+02 -0.27379541335E+03  0.27924063523E+03  0.41800000000E+01 0. -1.
         -5    1    3    3    0  502 -0.45018760900E+02 -0.32847638442E+02 -0.10432944008E+04  0.10447900915E+04  0.41800000000E+01 0. -1.
        -11    1    4    4    0    0  0.55659930283E+01  0.28240848687E+02 -0.10636874092E+03  0.11019453188E+03  0.00000000000E+00 0.  1.
         11    1    4    4    0    0  0.41417263503E+02 -0.50074764278E+02 -0.14503075873E+03  0.15892385822E+03  0.00000000000E+00 0. -1.
</event>
<event>
 8    1  0.6862919E-009  0.1226849E+03  0.7561462E-02  0.1238732E+00
          1   -1    0    0  501    0  0.00000000000E+00  0.00000000000E+00  0.48929854574E+03  0.48929854574E+03  0.00000000000E+00 0. -1.
         -1   -1    0    0    0  501 -0.00000000000E+00 -0.00000000000E+00 -0.33002290899E+02  0.33002290899E+02  0.00000000000E+00 0.  1.
         25    2    1    2    0    0  0.55004619928E+02 -0.34356568084E+02  0.23078050331E+03  0.27039251078E+03  0.12508631898E+03 0.  0.
         23    2    1    2    0    0 -0.55004619928E+02  0.34356568084E+02  0.22551575154E+03  0.25190832586E+03  0.91621877649E+02 0.  0.
          5    1    3    3  502    0  0.87515761854E+02  0.72492749043E+01  0.14604030257E+03  0.17046056123E+03  0.41800000000E+01 0. -1.
         -5    1    3    3    0  502 -0.32511141926E+02 -0.41605842988E+02  0.84740200733E+02  0.99931949548E+02  0.41800000000E+01 0. -1.
        -11    1    4    4    0    0 -0.74356142351E+02  0.12678882207E+02  0.11419876607E+03  0.13686105410E+03  0.00000000000E+00 0.  1.
         11    1    4    4    0    0  0.19351522422E+02  0.21677685877E+02  0.11131698547E+03  0.11504727176E+03  0.00000000000E+00 0. -1.
</event>
<event>
 8    1  0.6862919E-009  0.1339536E+03  0.7561462E-02  0.1221704E+00
          1   -1    0    0  501    0  0.00000000000E+00  0.00000000000E+00  0.10247874529E+03  0.10247874529E+03  0.00000000000E+00 0. -1.
         -1   -1    0    0    0  501 -0.00000000000E+00 -0.00000000000E+00 -0.19467570886E+03  0.19467570886E+03  0.00000000000E+00 0.  1.
         25    2    1    2    0    0 -0.44423924414E+02 -0.85015414116E+02 -0.51458480817E+02  0.16581993398E+03  0.12508864680E+03 0.  0.
         23    2    1    2    0    0  0.44423924414E+02  0.85015414116E+02 -0.40738482750E+02  0.13133452018E+03  0.79925130689E+02 0.  0.
          5    1    3    3  502    0 -0.56430087814E+02  0.12183872891E+02 -0.31075874455E+02  0.65696148612E+02  0.41800000000E+01 0.  1.
         -5    1    3    3    0  502  0.12006163400E+02 -0.97199287007E+02 -0.20382606362E+02  0.10012378537E+03  0.41800000000E+01 0.  1.
        -11    1    4    4    0    0  0.45114506970E+02  0.24230662254E+02  0.99715348780E+01  0.52171594189E+02  0.00000000000E+00 0. -1.
         11    1    4    4    0    0 -0.69058255526E+00  0.60784751862E+02 -0.50710017628E+02  0.79162925988E+02  0.00000000000E+00 0.  1.
</event>
<event>
 8    1  0.6862919E-009  0.8092849E+02  0.7561462E-02  0.1326437E+00
          2   -1    0    0  501    0  0.00000000000E+00  0.00000000000E+00  0.65887772526E+03  0.65887772526E+03  0.00000000000E+00 0.  1.
         -2   -1    0    0    0  501 -0.00000000000E+00 -0.00000000000E+00 -0.20737436231E+02  0.20737436231E+02  0.00000000000E+00 0. -1.
         25    2    1    2    0    0  0.30271162886E+02 -0.30739110720E+02  0.31666243185E+03  0.34319484518E+03  0.12508544994E+03 0.  0.
         23    2    1    2    0    0 -0.30271162886E+02  0.30739110720E+02  0.32147785718E+03  0.33642031630E+03  0.89271385879E+02 0.  0.
          5    1    3    3  502    0  0.42018225849E+02 -0.40025108975E+02  0.51867412036E+02  0.77943835440E+02  0.41800000000E+01 0. -1.
         -5    1    3    3    0  502 -0.11747062963E+02  0.92859982546E+01  0.26479501981E+03  0.26525100974E+03  0.41800000000E+01 0. -1.
        -11    1    4    4    0    0 -0.52288093899E+02  0.38339191344E+02  0.29058572052E+03  0.29773142147E+03  0.00000000000E+00 0.  1.
         11    1    4    4    0    0  0.22016931013E+02 -0.76000806237E+01  0.30892136651E+02  0.38688894835E+02  0.00000000000E+00 0. -1.
</event>
<event>
 8    1  0.6862919E-009  0.1251215E+03  0.7561462E-02  0.1234879E+00
         -3   -1    0    0    0  501 -0.00000000000E+00  0.00000000000E+00  0.25486249792E+03  0.25486249792E+03  0.00000000000E+00 0.  1.
          3   -1    0    0  501    0  0.00000000000E+00 -0.00000000000E+00 -0.65738337836E+02  0.65738337836E+02  0.00000000000E+00 0. -1.
         25    2    1    2    0    0 -0.11965359527E+02 -0.68454755015E+02  0.88389173338E+02  0.16819412568E+03  0.12508954648E+03 0.  0.
         23    2    1    2    0    0  0.11965359527E+02  0.68454755015E+02  0.10073498674E+03  0.15240671007E+03  0.90835259715E+02 0.  0.
          5    1    3    3  502    0 -0.19210129672E+02 -0.10177110422E+03  0.45380194702E+02  0.11315131996E+03  0.41800000000E+01 0.  1.
         -5    1    3    3    0  502  0.72447701450E+01  0.33316349207E+02  0.43008978636E+02  0.55042805726E+02  0.41800000000E+01 0.  1.
        -11    1    4    4    0    0  0.50365488081E+02  0.42385559783E+02  0.44336487922E+02  0.79365875722E+02  0.00000000000E+00 0. -1.
         11    1    4    4    0    0 -0.38400128555E+02  0.26069195232E+02  0.56398498820E+02  0.73040834348E+02  0.00000000000E+00 0.  1.
</event>
<event>
 8    1  0.6862919E-009  0.1450862E+03  0.7561462E-02  0.1206644E+00
         -1   -1    0    0    0  501 -0.00000000000E+00  0.00000000000E+00  0.23500915439E+02  0.23500915439E+02  0.00000000000E+00 0.  1.
          1   -1    0    0  501    0  0.00000000000E+00 -0.00000000000E+00 -0.10288185536E+04  0.10288185536E+04  0.00000000000E+00 0. -1.
         25    2    1    2    0    0 -0.32075007686E+02  0.10245062682E+03 -0.43956579930E+03  0.46945744534E+03  0.12508902436E+03 0.  0.
         23    2    1    2    0    0  0.32075007686E+02 -0.10245062682E+03 -0.56575183883E+03  0.58286202367E+03  0.90155745482E+02 0.  0.
          5    1    3    3  502    0  0.12890182351E+02  0.11167216765E+03 -0.24632071395E+03  0.27079179520E+03  0.41800000000E+01 0. -1.
         -5    1    3    3    0  502 -0.44965190037E+02 -0.92215408335E+01 -0.19324508536E+03  0.19866565014E+03  0.41800000000E+01 0. -1.
        -11    1    4    4    0    0 -0.21634709249E+02 -0.57894888493E+02 -0.16742776616E+03  0.17847110590E+03  0.00000000000E+00 0.  1.
         11    1    4    4    0    0  0.53709716935E+02 -0.44555738328E+02 -0.39832407267E+03  0.40439091777E+03  0.00000000000E+00 0. -1.
</event>
<event>
 8    1  0.6862919E-009  0.1383433E+03  0.7561462E-02  0.1215576E+00
          2   -1    0    0  501    0  0.00000000000E+00  0.00000000000E+00  0.62015140881E+03  0.62015140881E+03  0.00000000000E+00 0. -1.
         -2   -1    0    0    0  501 -0.00000000000E+00 -0.00000000000E+00 -0.37084708447E+02  0.37084708447E+02  0.00000000000E+00 0.  1.
         25    2    1    2    0    0 -0.21011180545E+02 -0.97811095925E+02  0.24181474004E+03  0.29005268231E+03  0.12509080630E+03 0.  0.
         23    2    1    2    0    0  0.21011180545E+02  0.97811095925E+02  0.34125196032E+03  0.36718343494E+03  0.91445580977E+02 0.  0.
          5    1    3    3  502    0 -0.64344030806E+02 -0.51947659614E+02  0.75245094859E+02  0.11188391457E+03  0.41800000000E+01 0. -1.
         -5    1    3    3    0  502  0.43332850261E+02 -0.45863436311E+02  0.16656964518E+03  0.17816876774E+03  0.41800000000E+01 0. -1.
        -11    1    4    4    0    0 -0.19967775244E+02 -0.44723213110E+01  0.98375086333E+02  0.10048070122E+03  0.00000000000E+00 0. -1.
         11    1    4    4    0    0  0.40978955789E+02  0.10228341724E+03  0.24287687399E+03  0.26670273373E+03  0.00000000000E+00 0.  1.
</event>
<event>
 8    1  0.6862919E-009  0.9620518E+02  0.7561462E-02  0.1288485E+00
          1   -1    0    0  501    0  0.00000000000E+00  0.00000000000E+00  0.50906064221E+03  0.50906064221E+03  0.00000000000E+00 0. -1.
         -1   -1    0    0    0  501 -0.00000000000E+00 -0.00000000000E+00 -0.26005784597E+02  0.26005784597E+02  0.00000000000E+00 0.  1.
         25    2    1    2    0    0  0.32937320063E+02  0.17474219245E+02  0.28158624279E+03  0.31036871335E+03  0.12509080983E+03 0.  0.
         23    2    1    2    0    0 -0.32937320063E+02 -0.17474219245E+02  0.20146861482E+03  0.22469771346E+03  0.92245565123E+02 0.  0.
          5    1    3    3  502    0  0.53771625295E+02  0.41199391787E+02  0.26672086062E+03  0.27522039798E+03  0.41800000000E+01 0.  1.
         -5    1    3    3    0  502 -0.20834305232E+02 -0.23725172541E+02  0.14865382172E+02  0.35148315376E+02  0.41800000000E+01 0.  1.
        -11    1    4    4    0    0  0.28564078905E+02 -0.11878573632E+02  0.32837730567E+02  0.45114561552E+02  0.00000000000E+00 0.  1.
         11    1    4    4    0    0 -0.61501398968E+02 -0.55956456139E+01  0.16863088425E+03  0.17958315191E+03  0.00000000000E+00 0. -1.
</event>
<event>
 8    1  0.6862919E-009  0.9009438E+02  0.7561462E-02  0.1302623E+00
          2   -1    0    0  501    0  0.00000000000E+00  0.00000000000E+00  0.35808535273E+02  0.35808535273E+02  0.00000000000E+00 0. -1.
         -2   -1    0    0    0  501 -0.00000000000E+00 -0.00000000000E+00 -0.41741215498E+03  0.41741215498E+03  0.00000000000E+00 0.  1.
         25    2    1    2    0    0  0.27346373888E+02 -0.25493996073E+02 -0.14232652673E+03  0.19314593857E+03  0.12510293911E+03 0.  0.
         23    2    1    2    0    0 -0.27346373888E+02  0.25493996073E+02 -0.23927709298E+03  0.26007475169E+03  0.94802854591E+02 0.  0.
          5    1    3    3  502    0 -0.56227422374E+01 -0.62081871890E+02 -0.12676813162E+03  0.14132729971E+03  0.41800000000E+01 0.  1.
         -5    1    3    3    0  502  0.32969116125E+02  0.36587875817E+02 -0.15558395103E+02  0.51818638858E+02  0.41800000000E+01 0.  1.
        -11    1    4    4    0    0 -0.35623468113E+02  0.38763021968E+02 -0.23868770668E+03  0.24442468098E+03  0.00000000000E+00 0.  1.
         11    1    4    4    0    0  0.82770942252E+01 -0.13269025895E+02 -0.58938630611E+00  0.15650070710E+02  0.00000000000E+00 0. -1.
</event>
<event>
 8    1  0.6862919E-009  0.1045278E+03  0.7561462E-02  0.1271053E+00
          2   -1    0    0  501    0  0.00000000000E+00  0.00000000000E+00  0.74355605481E+02  0.74355605481E+02  0.00000000000E+00 0.  1.
         -2   -1    0    0    0  501 -0.00000000000E+00 -0.00000000000E+00 -0.16633226493E+03  0.16633226493E+03  0.00000000000E+00 0. -1.
         25    2    1    2    0    0 -0.16460890263E+02  0.21082434924E+02 -0.45248774749E+02  0.13568380980E+03  0.12508882705E+03 0.  0.
         23    2    1    2    0    0  0.16460890263E+02 -0.21082434924E+02 -0.46727884702E+02  0.10500406062E+03  0.90149473470E+02 0.  0.
          5    1    3    3  502    0 -0.51494712825E+02  0.48181373854E+02  0.21504212235E+01  0.70677060967E+02  0.41800000000E+01 0.  1.
         -5    1    3    3    0  502  0.35033822563E+02 -0.27098938931E+02 -0.47399195973E+02  0.65006748830E+02  0.41800000000E+01 0.  1.
        -11    1    4    4    0    0 -0.29058537564E+02 -0.35776575324E+02 -0.20386120068E+02  0.50397974549E+02  0.00000000000E+00 0.  1.
         11    1    4    4    0    0  0.45519427826E+02  0.14694140400E+02 -0.26341764634E+02  0.54606086069E+02  0.00000000000E+00 0. -1.
</event>
<event>
 8    1  0.6862919E-009  0.1603632E+03  0.7561462E-02  0.1188287E+00
         -2   -1    0    0    0  501 -0.00000000000E+00  0.00000000000E+00  0.19701955456E+03  0.19701955456E+03  0.00000000000E+00 0.  1.
          2   -1    0    0  501    0  0.00000000000E+00 -0.00000000000E+00 -0.26445494698E+03  0.26445494698E+03  0.00000000000E+00 0. -1.
         25    2    1    2    0    0 -0.10464388365E+03  0.99294402316E+02  0.10540681754E+03  0.21809953066E+03  0.12508831829E+03 0.  0.
         23    2    1    2    0    0  0.10464388365E+03 -0.99294402316E+02 -0.17284220996E+03  0.24337497088E+03  0.92451209790E+02 0.  0.
          5    1    3    3  502    0 -0.68106530663E+02  0.19652467667E+02 -0.11507092124E+02  0.71934724393E+02  0.41800000000E+01 0. -1.
         -5    1    3    3    0  502 -0.36537352984E+02  0.79641934649E+02  0.11691390966E+03  0.14616480626E+03  0.41800000000E+01 0. -1.
        -11    1    4    4    0    0  0.99755788033E+02 -0.48419127775E+02 -0.77782112966E+02  0.13544624867E+03  0.00000000000E+00 0.  1.
         11    1    4    4    0    0  0.48880956137E+01 -0.50875274541E+02 -0.95060096992E+02  0.10792872221E+03  0.00000000000E+00 0. -1.
</event>
<event>
 8    1  0.6862919E-009  0.1021549E+03  0.7561462E-02  0.1275829E+00
          1   -1    0    0  501    0  0.00000000000E+00  0.00000000000E+00  0.22089781047E+03  0.22089781047E+03  0.00000000000E+00 0. -1.
         -1   -1    0    0    0  501 -0.00000000000E+00 -0.00000000000E+00 -0.86390477966E+02  0.86390477966E+02  0.00000000000E+00 0.  1.
         25    2    1    2    0    0  0.18056142388E+02  0.15991843823E+02  0.16542612188E+03  0.20879484624E+03  0.12509085767E+03 0.  0.
         23    2    1    2    0    0 -0.18056142388E+02 -0.15991843823E+02 -0.30918789373E+02  0.98493442193E+02  0.90350557674E+02 0.  0.
          5    1    3    3  502    0 -0.53768649857E+02  0.12505574221E+02  0.71248005324E+02  0.90228641554E+02  0.41800000000E+01 0.  1.
         -5    1    3    3    0  502  0.71824792245E+02  0.34862696018E+01  0.94178116555E+02  0.11856620469E+03  0.41800000000E+01 0.  1.
        -11    1    4    4    0    0 -0.45479569119E+02 -0.62922713964E+00 -0.45060659753E+02  0.64025387085E+02  0.00000000000E+00 0.  1.
         11    1    4    4    0    0  0.27423426731E+02 -0.15362616684E+02  0.14141870380E+02  0.34468055108E+02  0.00000000000E+00 0. -1.
</event>
<event>
 8    1  0.6862919E-009  0.9639762E+02  0.7561462E-02  0.1288059E+00
          2   -1    0    0  501    0  0.00000000000E+00  0.00000000000E+00  0.27014225787E+03  0.27014225787E+03  0.00000000000E+00 0. -1.
         -2   -1    0    0    0  501 -0.00000000000E+00 -0.00000000000E+00 -0.69882680538E+02  0.69882680538E+02  0.00000000000E+00 0.  1.
         25    2    1    2    0    0 -0.62738923438E+02  0.38999693967E+02  0.57053746815E+02  0.15607506485E+03  0.12508855743E+03 0.  0.
         23    2    1    2    0    0  0.62738923438E+02 -0.38999693967E+02  0.14320583052E+03  0.18394987356E+03  0.88727095322E+02 0.  0.
          5    1    3    3  502    0 -0.22431896670E-01  0.39387539931E+01 -0.37112009990E+02  0.37553801029E+02  0.41800000000E+01 0.  1.
         -5    1    3    3    0  502 -0.62716491541E+02  0.35060939974E+02  0.94165756805E+02  0.11852126382E+03  0.41800000000E+01 0.  1.
        -11    1    4    4    0    0 -0.27172700427E+01  0.24045605213E+02  0.24334294244E+02  0.34318108382E+02  0.00000000000E+00 0.  1.
         11    1    4    4    0    0  0.65456193480E+02 -0.63045299180E+02  0.11887153628E+03  0.14963176518E+03  0.00000000000E+00 0. -1.
</event>
<event>
 8    1  0.6862919E-009  0.3033130E+03  0.7561462E-02  0.1083596E+00
         -1   -1    0    0    0  501 -0.00000000000E+00  0.00000000000E+00  0.23425664731E+04  0.23425664731E+04  0.00000000000E+00 0.  1.
          1   -1    0    0  501    0  0.00000000000E+00 -0.00000000000E+00 -0.47991590214E+02  0.47991590214E+02  0.00000000000E+00 0. -1.
         25    2    1    2    0    0 -0.29319232958E+03 -0.33140498943E+02  0.15759757108E+04  0.16082311002E+04  0.12509115008E+03 0.  0.
         23    2    1    2    0    0  0.29319232958E+03  0.33140498943E+02  0.71859917214E+03  0.78232696316E+03  0.92685879725E+02 0.  0.
          5    1    3    3  502    0 -0.26479849052E+03 -0.30802554524E+01  0.14819379714E+04  0.15054186633E+04  0.41800000000E+01 0. -1.
         -5    1    3    3    0  502 -0.28393839066E+02 -0.30060243491E+02  0.94037739428E+02  0.10281243686E+03  0.41800000000E+01 0. -1.
        -11    1    4    4    0    0  0.61104097732E+01  0.10619409296E+02  0.57950216890E+01  0.13553274061E+02  0.00000000000E+00 0. -1.
         11    1    4    4    0    0  0.28708191981E+03  0.22521089647E+02  0.71280415045E+03  0.76877368910E+03  0.00000000000E+00 0.  1.
</event>
<event>
 8    1  0.6862919E-009  0.2595242E+03  0.7561462E-02  0.1107429E+00
          1   -1    0    0  501    0  0.00000000000E+00  0.00000000000E+00  0.18036467664E+03  0.18036467664E+03  0.00000000000E+00 0. -1.
         -1   -1    0    0    0  501 -0.00000000000E+00 -0.00000000000E+00 -0.47035477584E+03  0.47035477584E+03  0.00000000000E+00 0.  1.
         25    2    1    2    0    0 -0.24698013792E+03 -0.45975892907E+02 -0.25921141690E+03  0.38203525816E+03  0.12508960216E+03 0.  0.
         23    2    1    2    0    0  0.24698013792E+03  0.45975892907E+02 -0.30778682295E+02  0.26868419431E+03  0.90171490698E+02 0.  0.
          5    1    3    3  502    0 -0.11328088970E+03 -0.11099568593E+02 -0.20307329142E+03  0.23283469346E+03  0.41800000000E+01 0.  1.
         -5    1    3    3    0  502 -0.13369924822E+03 -0.34876324314E+02 -0.56138125488E+02  0.14920056470E+03  0.41800000000E+01 0.  1.
        -11    1    4    4    0    0  0.15762479917E+03  0.72789617858E+02 -0.19345402691E+02  0.17469444865E+03  0.00000000000E+00 0. -1.
         11    1    4    4    0    0  0.89355338744E+02 -0.26813724951E+02 -0.11433279605E+02  0.93989745666E+02  0.00000000000E+00 0.  1.
</event>
<event>
 8    1  0.6862919E-009  0.1540905E+03  0.7561462E-02  0.1195535E+00
          1   -1    0    0  501    0  0.00000000000E+00  0.00000000000E+00  0.27584150071E+03  0.27584150071E+03  0.00000000000E+00 0. -1.
         -1   -1    0    0    0  501 -0.00000000000E+00 -0.00000000000E+00 -0.13145384370E+03  0.13145384370E+03  0.00000000000E+00 0.  1.
         25    2    1    2    0    0  0.42633235835E+02  0.13052517352E+03  0.15544936466E+03  0.24221527228E+03  0.12509723991E+03 0.  0.
         23    2    1    2    0    0 -0.42633235835E+02 -0.13052517352E+03 -0.11061707639E+02  0.16508007213E+03  0.90965131330E+02 0.  0.
          5    1    3    3  502    0  0.54304521055E+02  0.11388025146E+03  0.17359968726E+03  0.21464392955E+03  0.41800000000E+01 0. -1.
         -5    1    3    3    0  502 -0.11671285220E+02  0.16644922064E+02 -0.18150322599E+02  0.27571342724E+02  0.41800000000E+01 0. -1.
        -11    1    4    4    0    0 -0.20789054480E+02  0.70053547025E+01  0.10232822121E+02  0.24206826087E+02  0.00000000000E+00 0. -1.
         11    1    4    4    0    0 -0.21844181355E+02 -0.13753052823E+03 -0.21294529760E+02  0.14087324604E+03  0.00000000000E+00 0.  1.
</event>
<event>
 8    1  0.6862919E-009  0.3328566E+03  0.7561462E-02  0.1069880E+00
         -2   -1    0    0    0  501 -0.00000000000E+00  0.00000000000E+00  0.88831475571E+02  0.88831475571E+02  0.00000000000E+00 0.  1.
          2   -1    0    0  501    0  0.00000000000E+00 -0.00000000000E+00 -0.13165838228E+04  0.13165838228E+04  0.00000000000E+00 0. -1.
         25    2    1    2    0    0 -0.15484017186E+03  0.28416086055E+03 -0.66166792878E+03  0.74711116370E+03  0.12509104465E+03 0.  0.
         23    2    1    2    0    0  0.15484017186E+03 -0.28416086055E+03 -0.56608441841E+03  0.65830413464E+03  0.90498018884E+02 0.  0.
          5    1    3    3  502    0 -0.55527784142E+02  0.16822083426E+03 -0.46834167867E+03  0.50074243307E+03  0.41800000000E+01 0.  1.
         -5    1    3    3    0  502 -0.99312387722E+02  0.11594002629E+03 -0.19332625010E+03  0.24636873063E+03  0.41800000000E+01 0.  1.
        -11    1    4    4    0    0  0.41229822017E+02 -0.16927838439E+03 -0.28161909987E+03  0.33115613698E+03  0.00000000000E+00 0.  1.
         11    1    4    4    0    0  0.11361034985E+03 -0.11488247616E+03 -0.28446531854E+03  0.32714799766E+03  0.00000000000E+00 0. -1.
</event>
<event>
 8    1  0.6862919E-009  0.1035759E+03  0.7561462E-02  0.1272951E+00
          2   -1    0    0  501    0  0.00000000000E+00  0.00000000000E+00  0.38963385034E+03  0.38963385034E+03  0.00000000000E+00 0. -1.
         -2   -1    0    0    0  501 -0.00000000000E+00 -0.00000000000E+00 -0.46549645201E+02  0.46549645201E+02  0.00000000000E+00 0.  1.
         25    2    1    2    0    0 -0.69032442130E+02  0.11464721980E+02  0.12397556337E+03  0.18951332948E+03  0.12509374013E+03 0.  0.
         23    2    1    2    0    0  0.69032442130E+02 -0.11464721980E+02  0.21910864177E+03  0.24667016607E+03  0.89110358608E+02 0.  0.
          5    1    3    3  502    0 -0.42378135685E+02 -0.40641611635E+02  0.11628373913E+03  0.13033429083E+03  0.41800000000E+01 0.  1.
         -5    1    3    3    0  502 -0.26654306444E+02  0.52106333615E+02  0.76918242379E+01  0.59179038645E+02  0.41800000000E+01 0.  1.
        -11    1    4    4    0    0 -0.39026506364E+00 -0.19696582315E+02  0.34973024780E+01  0.20008467866E+02  0.00000000000E+00 0.  1.
         11    1    4    4    0    0  0.69422707193E+02  0.82318603349E+01  0.21561133930E+03  0.22666169820E+03  0.00000000000E+00 0. -1.
</event>
<event>
 8    1  0.6862919E-009  0.1180798E+03  0.7561462E-02  0.1246299E+00
          3   -1    0    0  501    0  0.00000000000E+00  0.00000000000E+00  0.86771531950E+02  0.86771531950E+02  0.00000000000E+00 0. -1.
         -3   -1    0    0    0  501 -0.00000000000E+00 -0.00000000000E+00 -0.18033879913E+03  0.18033879913E+03  0.00000000000E+00 0.  1.
         25    2    1    2    0    0 -0.27918076168E+02  0.46324173104E+02 -0.21162238158E+02  0.13793735114E+03  0.12511404607E+03 0.  0.
         23    2    1    2    0    0  0.27918076168E+02 -0.46324173104E+02 -0.72405029023E+02  0.12917297995E+03  0.92292050197E+02 0.  0.
          5    1    3    3  502    0  0.49012921420E+02  0.91192231561E+01 -0.10122506361E+01  0.50039222101E+02  0.41800000000E+01 0.  1.
         -5    1    3    3    0  502 -0.76930997588E+02  0.37204949948E+02 -0.20149987522E+02  0.87898129034E+02  0.41800000000E+01 0.  1.
        -11    1    4    4    0    0  0.57623708218E+02 -0.40152490907E+02 -0.28479349560E+02  0.75787780190E+02  0.00000000000E+00 0. -1.
         11    1    4    4    0    0 -0.29705632050E+02 -0.61716821975E+01 -0.43925679464E+02  0.53385199756E+02  0.00000000000E+00 0.  1.
</event>
<event>
 8    1  0.6862919E-009  0.1081291E+03  0.7561462E-02  0.1264074E+00
          1   -1    0    0  501    0  0.00000000000E+00  0.00000000000E+00  0.40213379901E+03  0.40213379901E+03  0.00000000000E+00 0. -1.
         -1   -1    0    0    0  501 -0.00000000000E+00 -0.00000000000E+00 -0.57214551770E+02  0.57214551770E+02  0.00000000000E+00 0.  1.
         25    2    1    2    0    0  0.36203351485E+02  0.89373976237E+02  0.11453114379E+03  0.19510088624E+03  0.12509429494E+03 0.  0.
         23    2    1    2    0    0 -0.36203351485E+02 -0.89373976237E+02  0.23038810345E+03  0.26424746454E+03  0.86311378256E+02 0.  0.
          5    1    3    3  502    0  0.18559790683E+02  0.17697490515E+02 -0.25716898253E+02  0.36558148975E+02  0.41800000000E+01 0.  1.
         -5    1    3    3    0  502  0.17643560802E+02  0.71676485722E+02  0.14024804204E+03  0.15854273727E+03  0.41800000000E+01 0.  1.
        -11    1    4    4    0    0 -0.55337598015E+02 -0.65611880309E+02  0.21177909019E+03  0.22851160065E+03  0.00000000000E+00 0.  1.
         11    1    4    4    0    0  0.19134246530E+02 -0.23762095928E+02  0.18609013264E+02  0.35735863888E+02  0.00000000000E+00 0. -1.
</event>
<event>
 8    1  0.6862919E-009  0.7109182E+02  0.7561462E-02  0.1356419E+00
         -2   -1    0    0    0  501 -0.00000000000E+00  0.00000000000E+00  0.55200772733E+02  0.55200772733E+02  0.00000000000E+00 0.  1.
          2   -1    0    0  501    0  0.00000000000E+00 -0.00000000000E+00 -0.24709438437E+03  0.24709438437E+03  0.00000000000E+00 0. -1.
         25    2    1    2    0    0  0.36939442769E+02 -0.14913444687E+02 -0.12999583279E+03  0.18475050672E+03  0.12508756903E+03 0.  0.
         23    2    1    2    0    0 -0.36939442769E+02  0.14913444687E+02 -0.61897778841E+02  0.11754465038E+03  0.91643202377E+02 0.  0.
          5    1    3    3  502    0  0.30315150671E+02 -0.21123867501E+02  0.14498209231E+02  0.39911108846E+02  0.41800000000E+01 0. -1.
         -5    1    3    3    0  502  0.66242920979E+01  0.62104228141E+01 -0.14449404202E+03  0.14483939788E+03  0.41800000000E+01 0. -1.
        -11    1    4    4    0    0 -0.44565562441E+02 -0.27196042752E+02 -0.15579878164E+02  0.54483453457E+02  0.00000000000E+00 0.  1.
         11    1    4    4    0    0  0.76261196712E+01  0.42109487439E+02 -0.46317900677E+02  0.63061196918E+02  0.00000000000E+00 0. -1.
</event>
<event>
 8    1  0.6862919E-009  0.6390795E+02  0.7561462E-02  0.1382127E+00
          2   -1    0    0  501    0  0.00000000000E+00  0.00000000000E+00  0.10585325468E+04  0.10585325468E+04  0.00000000000E+00 0. -1.
         -2   -1    0    0    0  501 -0.00000000000E+00 -0.00000000000E+00 -0.11109997236E+02  0.11109997236E+02  0.00000000000E+00 0.  1.
         25    2    1    2    0    0 -0.18013710343E+02 -0.39216198404E+02  0.81972171115E+03  0.83033334177E+03  0.12508945098E+03 0.  0.
         23    2    1    2    0    0  0.18013710343E+02  0.39216198404E+02  0.22770083841E+03  0.23930920226E+03  0.59655833720E+02 0.  0.
          5    1    3    3  502    0  0.16071510920E+02 -0.23834887277E+02  0.38619269797E+02  0.48325104391E+02  0.41800000000E+01 0.  1.
         -5    1    3    3    0  502 -0.34085221263E+02 -0.15381311127E+02  0.78110244136E+03  0.78200823738E+03  0.41800000000E+01 0.  1.
        -11    1    4    4    0    0 -0.11587935593E+02  0.26496916262E+02  0.43007438746E+02  0.51826697851E+02  0.00000000000E+00 0.  1.
         11    1    4    4    0    0  0.29601645936E+02  0.12719282142E+02  0.18469339967E+03  0.18748250441E+03  0.00000000000E+00 0. -1.
</event>
<event>
 8    1  0.6862919E-009  0.1122316E+03  0.7561462E-02  0.1256492E+00
          3   -1    0    0  501    0  0.00000000000E+00  0.00000000000E+00  0.58436063794E+02  0.58436063794E+02  0.00000000000E+00 0. -1.
         -3   -1    0    0    0  501 -0.00000000000E+00 -0.00000000000E+00 -0.26459995086E+03  0.26459995086E+03  0.00000000000E+00 0.  1.
         25    2    1    2    0    0  0.45842394268E+02 -0.14969735674E+02 -0.16965325561E+03  0.21623050979E+03  0.12509111929E+03 0.  0.
         23    2    1    2    0    0 -0.45842394268E+02  0.14969735674E+02 -0.36510631462E+02  0.10680550487E+03  0.88027106977E+02 0.  0.
          5    1    3    3  502    0  0.66734385947E+01  0.49023473272E+02 -0.10859035424E+03  0.11940340510E+03  0.41800000000E+01 0. -1.
         -5    1    3    3    0  502  0.39168955673E+02 -0.63993208945E+02 -0.61062901367E+02  0.96827104692E+02  0.41800000000E+01 0. -1.
        -11    1    4    4    0    0 -0.51449548537E+02 -0.26462544415E+02 -0.14915096921E+02  0.59747656169E+02  0.00000000000E+00 0. -1.
         11    1    4    4    0    0  0.56071542696E+01  0.41432280088E+02 -0.21595534542E+02  0.47057848702E+02  0.00000000000E+00 0.  1.
</event>
<event>
 8    1  0.6862919E-009  0.1135733E+03  0.7561462E-02  0.1254092E+00
         -1   -1    0    0    0  501 -0.00000000000E+00  0.00000000000E+00  0.29615505169E+03  0.29615505169E+03  0.00000000000E+00 0.  1.
          1   -1    0    0  501    0  0.00000000000E+00 -0.00000000000E+00 -0.64279188159E+02  0.64279188159E+02  0.00000000000E+00 0. -1.
         25    2    1    2    0    0 -0.74665751624E+02  0.23506779346E+02  0.80064178588E+02  0.16788327333E+03  0.12508787963E+03 0.  0.
         23    2    1    2    0    0  0.74665751624E+02 -0.23506779346E+02  0.15181168494E+03  0.19255096652E+03  0.88890628757E+02 0.  0.
          5    1    3    3  502    0 -0.46838824577E+02 -0.31015245026E+02  0.89554529709E+02  0.10579842675E+03  0.41800000000E+01 0. -1.
         -5    1    3    3    0  502 -0.27826927046E+02  0.54522024372E+02 -0.94903511209E+01  0.62084846580E+02  0.41800000000E+01 0. -1.
        -11    1    4    4    0    0  0.29003346815E+02 -0.49164687986E+02  0.11544535127E+03  0.12878660568E+03  0.00000000000E+00 0.  1.
         11    1    4    4    0    0  0.45662404808E+02  0.25657908640E+02  0.36366333666E+02  0.63764360837E+02  0.00000000000E+00 0. -1.
</event>
<event>
 8    1  0.6862919E-009  0.7218030E+02  0.7561462E-02  0.1352832E+00
          2   -1    0    0  501    0  0.00000000000E+00  0.00000000000E+00  0.15915410446E+04  0.15915410446E+04  0.00000000000E+00 0. -1.
         -2   -1    0    0    0  501 -0.00000000000E+00 -0.00000000000E+00 -0.85306655285E+01  0.85306655285E+01  0.00000000000E+00 0.  1.
         25    2    1    2    0    0  0.34381629419E+02  0.21412810491E+01  0.10384811549E+04  0.10465528649E+04  0.12507241245E+03 0.  0.
         23    2    1    2    0    0 -0.34381629419E+02 -0.21412810491E+01  0.54452922417E+03  0.55351884526E+03  0.93189884403E+02 0.  0.
          5    1    3    3  502    0  0.20780710996E+02  0.14916456059E+02  0.38635254168E+02  0.46524121437E+02  0.41800000000E+01 0.  1.
         -5    1    3    3    0  502  0.13600918423E+02 -0.12775175010E+02  0.99984590073E+03  0.10000287434E+04  0.41800000000E+01 0.  1.
        -11    1    4    4    0    0  0.30879847372E+02  0.10937937349E+02  0.17285437366E+03  0.17593134440E+03  0.00000000000E+00 0.  1.
         11    1    4    4    0    0 -0.65261476791E+02 -0.13079218398E+02  0.37167485051E+03  0.37758750086E+03  0.00000000000E+00 0. -1.
</event>
<event>
 8    1  0.6862919E-009  0.2722724E+03  0.7561462E-02  0.1099986E+00
         -2   -1    0    0    0  501 -0.00000000000E+00  0.00000000000E+00  0.77746551337E+02  0.77746551337E+02  0.00000000000E+00 0.  1.
          2   -1    0    0  501    0  0.00000000000E+00 -0.00000000000E+00 -0.12850650329E+04  0.12850650329E+04  0.00000000000E+00 0. -1.
         25    2    1    2    0    0 -0.17543763626E+03 -0.18709987545E+03 -0.29385336519E+03  0.40961175165E+03  0.12508900528E+03 0.  0.
         23    2    1    2    0    0  0.17543763626E+03  0.18709987545E+03 -0.91346511639E+03  0.95319983261E+03  0.91578788029E+02 0.  0.
          5    1    3    3  502    0 -0.18626000352E+03 -0.19580148419E+03 -0.28416420298E+03  0.39217059652E+03  0.41800000000E+01 0. -1.
         -5    1    3    3    0  502  0.10822367259E+02  0.87016087379E+01 -0.96891622103E+01  0.17441155124E+02  0.41800000000E+01 0. -1.
        -11    1    4    4    0    0  0.88124817477E+02  0.64290254529E+02 -0.53166682795E+03  0.54274196100E+03  0.00000000000E+00 0. -1.
         11    1    4    4    0    0  0.87312818780E+02  0.12280962092E+03 -0.38179828844E+03  0.41045787161E+03  0.00000000000E+00 0.  1.
</event>
<event>
 8    1  0.6862919E-009  0.1759343E+03  0.7561462E-02  0.1171797E+00
         -2   -1    0    0    0  501 -0.00000000000E+00  0.00000000000E+00  0.92903854907E+02  0.92903854907E+02  0.00000000000E+00 0. -1.
          2   -1    0    0  501    0  0.00000000000E+00 -0.00000000000E+00 -0.42644430111E+03  0.42644430111E+03  0.00000000000E+00 0.  1.
         25    2    1    2    0    0 -0.52967754860E+02 -0.14592540102E+03 -0.96637717122E+02  0.22155435073E+03  0.12509067207E+03 0.  0.
         23    2    1    2    0    0  0.52967754860E+02  0.14592540102E+03 -0.23690272908E+03  0.29779380529E+03  0.91969786900E+02 0.  0.
          5    1    3    3  502    0 -0.77870666247E+02 -0.69415454885E+02 -0.12643114525E+02  0.10516495036E+03  0.41800000000E+01 0.  1.
         -5    1    3    3    0  502  0.24902911387E+02 -0.76509946139E+02 -0.83994602598E+02  0.11638940037E+03  0.41800000000E+01 0.  1.
        -11    1    4    4    0    0  0.45140255107E+02  0.38908900897E+02 -0.14406341570E+03  0.15590321659E+03  0.00000000000E+00 0.  1.
         11    1    4    4    0    0  0.78274997523E+01  0.10701650013E+03 -0.92839313384E+02  0.14189058870E+03  0.00000000000E+00 0. -1.
</event>
<event>
 8    1  0.6862919E-009  0.5934517E+02  0.7561462E-02  0.1400600E+00
         -3   -1    0    0    0  501 -0.00000000000E+00  0.00000000000E+00  0.15512473437E+03  0.15512473437E+03  0.00000000000E+00 0.  1.
          3   -1    0    0  501    0  0.00000000000E+00 -0.00000000000E+00 -0.80478617041E+02  0.80478617041E+02  0.00000000000E+00 0. -1.
         25    2    1    2    0    0 -0.10690702773E+02  0.37499599874E+01  0.14687907882E+02  0.12646068894E+03  0.12509283706E+03 0.  0.
         23    2    1    2    0    0  0.10690702773E+02 -0.37499599874E+01  0.59958209442E+02  0.10914266247E+03  0.90491881210E+02 0.  0.
          5    1    3    3  502    0 -0.11294334264E+02 -0.20076223181E+02 -0.51184511799E+02  0.56284486066E+02  0.41800000000E+01 0.  1.
         -5    1    3    3    0  502  0.60363149117E+00  0.23826183169E+02  0.65872419681E+02  0.70176202875E+02  0.41800000000E+01 0.  1.
        -11    1    4    4    0    0 -0.56192379479E+01 -0.35204309894E+02  0.64224279694E+02  0.73455274640E+02  0.00000000000E+00 0.  1.
         11    1    4    4    0    0  0.16309940721E+02  0.31454349907E+02 -0.42660702522E+01  0.35687387825E+02  0.00000000000E+00 0. -1.
</event>
<event>
 8    1  0.6862919E-009  0.1218577E+03  0.7561462E-02  0.1240064E+00
          1   -1    0    0  501    0  0.00000000000E+00  0.00000000000E+00  0.69850430279E+02  0.69850430279E+02  0.00000000000E+00 0. -1.
         -1   -1    0    0    0  501 -0.00000000000E+00 -0.00000000000E+00 -0.29790742408E+03  0.29790742408E+03  0.00000000000E+00 0.  1.
         25    2    1    2    0    0 -0.86499136474E+02 -0.22902248058E+02 -0.84313444800E+02  0.17537985146E+03  0.12507086690E+03 0.  0.
         23    2    1    2    0    0  0.86499136474E+02  0.22902248058E+02 -0.14374354900E+03  0.19237800290E+03  0.91326198557E+02 0.  0.
          5    1    3    3  502    0 -0.77120226089E+02  0.35165005675E+02 -0.18204100782E+02  0.86792675851E+02  0.41800000000E+01 0.  1.
         -5    1    3    3    0  502 -0.93789103851E+01 -0.58067253733E+02 -0.66109344018E+02  0.88587175610E+02  0.41800000000E+01 0.  1.
        -11    1    4    4    0    0  0.10891072922E+02 -0.12346909919E+02 -0.93619932470E+02  0.95056580044E+02  0.00000000000E+00 0.  1.
         11    1    4    4    0    0  0.75608063552E+02  0.35249157976E+02 -0.50123616529E+02  0.97321422853E+02  0.00000000000E+00 0. -1.
</event>
<event>
 8    1  0.6862919E-009  0.1141736E+03  0.7561462E-02  0.1253031E+00
          2   -1    0    0  501    0  0.00000000000E+00  0.00000000000E+00  0.30164287564E+03  0.30164287564E+03  0.00000000000E+00 0. -1.
         -2   -1    0    0    0  501 -0.00000000000E+00 -0.00000000000E+00 -0.86701560893E+02  0.86701560893E+02  0.00000000000E+00 0.  1.
         25    2    1    2    0    0 -0.32509074889E+02 -0.10168528390E+03  0.50483801725E+02  0.17202581677E+03  0.12509008948E+03 0.  0.
         23    2    1    2    0    0  0.32509074889E+02  0.10168528390E+03  0.16445751302E+03  0.21631861977E+03  0.91382354735E+02 0.  0.
          5    1    3    3  502    0 -0.44913085035E+02 -0.71731389789E+02  0.88069190920E+02  0.12221387923E+03  0.41800000000E+01 0. -1.
         -5    1    3    3    0  502  0.12404010146E+02 -0.29953894108E+02 -0.37585389194E+02  0.49811937533E+02  0.41800000000E+01 0. -1.
        -11    1    4    4    0    0  0.37213670496E+02  0.73885042680E+02  0.16861708738E+03  0.18781794100E+03  0.00000000000E+00 0. -1.
         11    1    4    4    0    0 -0.47045956073E+01  0.27800241217E+02 -0.41595743572E+01  0.28500678770E+02  0.00000000000E+00 0.  1.
</event>
<event>
 8    1  0.6862919E-009  0.8845306E+02  0.7561462E-02  0.1306642E+00
         -2   -1    0    0    0  501 -0.00000000000E+00  0.00000000000E+00  0.87787956981E+02  0.87787956981E+02  0.00000000000E+00 0.  1.
          2   -1    0    0  501    0  0.00000000000E+00 -0.00000000000E+00 -0.18499332511E+03  0.18499332511E+03  0.00000000000E+00 0. -1.
         25    2    1    2    0    0 -0.22501113393E+02 -0.61781977986E+02 -0.52242502710E+02  0.15066403187E+03  0.12508820288E+03 0.  0.
         23    2    1    2    0    0  0.22501113393E+02  0.61781977986E+02 -0.44962865415E+02  0.12211725022E+03  0.92561604499E+02 0.  0.
          5    1    3    3  502    0  0.98366071121E+01  0.11427641454E+01  0.35950915610E+02  0.37523399134E+02  0.41800000000E+01 0. -1.
         -5    1    3    3    0  502 -0.32337720505E+02 -0.62924742132E+02 -0.88193418320E+02  0.11314063273E+03  0.41800000000E+01 0. -1.
        -11    1    4    4    0    0  0.70312656804E+01 -0.15209358359E+02 -0.40072901472E+02  0.43435017107E+02  0.00000000000E+00 0. -1.
         11    1    4    4    0    0  0.15469847712E+02  0.76991336345E+02 -0.48899639436E+01  0.78682233114E+02  0.00000000000E+00 0.  1.
</event>
<event>
 8    1  0.6862919E-009  0.1322499E+03  0.7561462E-02  0.1224155E+00
         -3   -1    0    0    0  501 -0.00000000000E+00  0.00000000000E+00  0.47111324368E+03  0.47111324368E+03  0.00000000000E+00 0.  1.
          3   -1    0    0  501    0  0.00000000000E+00 -0.00000000000E+00 -0.43920903843E+02  0.43920903843E+02  0.00000000000E+00 0. -1.
         25    2    1    2    0    0  0.70967831103E+01  0.85279116796E+02  0.30341172313E+03  0.33915961775E+03  0.12509068903E+03 0.  0.
         23    2    1    2    0    0 -0.70967831103E+01 -0.85279116796E+02  0.12378061670E+03  0.17587452977E+03  0.91034702505E+02 0.  0.
          5    1    3    3  502    0 -0.23057722556E+02  0.10792912912E+03  0.19244728803E+03  0.22188687782E+03  0.41800000000E+01 0. -1.
         -5    1    3    3    0  502  0.30154505666E+02 -0.22650012323E+02  0.11096443511E+03  0.11727273992E+03  0.41800000000E+01 0. -1.
        -11    1    4    4    0    0 -0.33707839223E+02 -0.82784116076E+02  0.11882649729E+03  0.14869150869E+03  0.00000000000E+00 0.  1.
         11    1    4    4    0    0  0.26611056113E+02 -0.24950007198E+01  0.49541194162E+01  0.27183021083E+02  0.00000000000E+00 0. -1.
</event>
<event>
 8    1  0.6862919E-009  0.1072255E+03  0.7561462E-02  0.1265796E+00
          1   -1    0    0  501    0  0.00000000000E+00  0.00000000000E+00  0.15065346143E+04  0.15065346143E+04  0.00000000000E+00 0. -1.
         -1   -1    0    0    0  501 -0.00000000000E+00 -0.00000000000E+00 -0.15192018364E+02  0.15192018364E+02  0.00000000000E+00 0.  1.
         25    2    1    2    0    0 -0.15286418544E+02  0.74086955825E+02  0.11716193798E+04  0.11807041616E+04  0.12509114513E+03 0.  0.
         23    2    1    2    0    0  0.15286418544E+02 -0.74086955825E+02  0.31972321614E+03  0.34102247102E+03  0.91382926126E+02 0.  0.
          5    1    3    3  502    0 -0.40025192611E+02 -0.10280761905E+02  0.68000998147E+03  0.68127729847E+03  0.41800000000E+01 0. -1.
         -5    1    3    3    0  502  0.24738774067E+02  0.84367717731E+02  0.49160939829E+03  0.49942686314E+03  0.41800000000E+01 0. -1.
        -11    1    4    4    0    0 -0.18236525700E+01 -0.65905908259E+02  0.31452030279E+03  0.32135639921E+03  0.00000000000E+00 0. -1.
         11    1    4    4    0    0  0.17110071114E+02 -0.81810475660E+01  0.52029133502E+01  0.19666071802E+02  0.00000000000E+00 0.  1.
</event>
<event>
 8    1  0.6862919E-009  0.2074164E+03  0.7561462E-02  0.1143628E+00
         -2   -1    0    0    0  501 -0.00000000000E+00  0.00000000000E+00  0.27114315528E+02  0.27114315528E+02  0.00000000000E+00 0.  1.
          2   -1    0    0  501    0  0.00000000000E+00 -0.00000000000E+00 -0.16685109183E+04  0.16685109183E+04  0.00000000000E+00 0. -1.
         25    2    1    2    0    0 -0.16878063030E+03  0.69458122590E+02 -0.86003782838E+03  0.88804521750E+03  0.12509160694E+03 0.  0.
         23    2    1    2    0    0  0.16878063030E+03 -0.69458122590E+02 -0.78135877435E+03  0.80758001628E+03  0.91392650087E+02 0.  0.
          5    1    3    3  502    0 -0.77540209245E+01  0.57355964956E+02 -0.27902145366E+03  0.28499171139E+03  0.41800000000E+01 0. -1.
         -5    1    3    3    0  502 -0.16102660937E+03  0.12102157634E+02 -0.58101637472E+03  0.60305350612E+03  0.41800000000E+01 0. -1.
        -11    1    4    4    0    0  0.22076796390E+02 -0.39925272302E+02 -0.99028323701E+02  0.10903220259E+03  0.00000000000E+00 0.  1.
         11    1    4    4    0    0  0.14670383391E+03 -0.29532850288E+02 -0.68233045065E+03  0.69854781369E+03  0.00000000000E+00 0. -1.
</event>
<event>
 8    1  0.6862919E-009  0.9712527E+02  0.7561462E-02  0.1286460E+00
         -1   -1    0    0    0  501 -0.00000000000E+00  0.00000000000E+00  0.71845985847E+02  0.71845985847E+02  0.00000000000E+00 0.  1.
          1   -1    0    0  501    0  0.00000000000E+00 -0.00000000000E+00 -0.23713566329E+03  0.23713566329E+03  0.00000000000E+00 0. -1.
         25    2    1    2    0    0 -0.61518511585E+02  0.33417706042E+02 -0.74489297585E+02  0.16154724959E+03  0.12509031958E+03 0.  0.
         23    2    1    2    0    0  0.61518511585E+02 -0.33417706042E+02 -0.90800379854E+02  0.14743439954E+03  0.92687231277E+02 0.  0.
          5    1    3    3  502    0 -0.23806011412E+02  0.41880984326E+02  0.25213155078E+02  0.54533646645E+02  0.41800000000E+01 0.  1.
         -5    1    3    3    0  502 -0.37712500173E+02 -0.84632782841E+01 -0.99702452664E+02  0.10701360295E+03  0.41800000000E+01 0.  1.
        -11    1    4    4    0    0  0.45412981737E+02  0.21170440264E+02 -0.71556147890E+02  0.87354500468E+02  0.00000000000E+00 0. -1.
         11    1    4    4    0    0  0.16105529848E+02 -0.54588146305E+02 -0.19244231964E+02  0.60079899073E+02  0.00000000000E+00 0.  1.
</event>
<event>
 8    1  0.6862919E-009  0.2430371E+03  0.7561462E-02  0.1117786E+00
         -2   -1    0    0    0  501 -0.00000000000E+00  0.00000000000E+00  0.48138271719E+02  0.48138271719E+02  0.00000000000E+00 0. -1.
          2   -1    0    0  501    0  0.00000000000E+00 -0.00000000000E+00 -0.13370118918E+04  0.13370118918E+04  0.00000000000E+00 0.  1.
         25    2    1    2    0    0 -0.18868953462E+03  0.11492606726E+03 -0.51375484090E+03  0.57306503860E+03  0.12509100891E+03 0.  0.
         23    2    1    2    0    0  0.18868953462E+03 -0.11492606726E+03 -0.77511877919E+03  0.81208512492E+03  0.99304515804E+02 0.  0.
          5    1    3    3  502    0 -0.11772678506E+03 -0.18183527794E+00 -0.21657913824E+03  0.24654335219E+03  0.41800000000E+01 0.  1.
         -5    1    3    3    0  502 -0.70962749558E+02  0.11510790254E+03 -0.29717570265E+03  0.32652168641E+03  0.41800000000E+01 0.  1.
        -11    1    4    4    0    0  0.89903597957E+02 -0.12647517879E+02 -0.41700109080E+03  0.42676987519E+03  0.00000000000E+00 0.  1.
         11    1    4    4    0    0  0.98785936661E+02 -0.10227854938E+03 -0.35811768839E+03  0.38531524974E+03  0.00000000000E+00 0. -1.
</event>
<event>
 8    1  0.6862919E-009  0.7087841E+02  0.7561462E-02  0.1357131E+00
         -2   -1    0    0    0  501 -0.00000000000E+00  0.00000000000E+00  0.36976738775E+02  0.36976738775E+02  0.00000000000E+00 0.  1.
          2   -1    0    0  501    0  0.00000000000E+00 -0.00000000000E+00 -0.37495384227E+03  0.37495384227E+03  0.00000000000E+00 0. -1.
         25    2    1    2    0    0 -0.15876344441E+02  0.91500724923E+01 -0.11688449137E+03  0.17217902210E+03  0.12509136336E+03 0.  0.
         23    2    1    2    0    0  0.15876344441E+02 -0.91500724923E+01 -0.22109261212E+03  0.23975155895E+03  0.90901511225E+02 0.  0.
          5    1    3    3  502    0  0.23330738927E+02  0.22753814381E+02 -0.12537914322E+03  0.12961273626E+03  0.41800000000E+01 0.  1.
         -5    1    3    3    0  502 -0.39207083367E+02 -0.13603741888E+02  0.84946518472E+01  0.42566285832E+02  0.41800000000E+01 0.  1.
        -11    1    4    4    0    0  0.25129305352E+02  0.22797813409E+02 -0.28509123161E+02  0.44316953721E+02  0.00000000000E+00 0.  1.
         11    1    4    4    0    0 -0.92529609116E+01 -0.31947885901E+02 -0.19258348896E+03  0.19543460523E+03  0.00000000000E+00 0. -1.
</event>
<event>
 8    1  0.6862919E-009  0.6564386E+02  0.7561462E-02  0.1375566E+00
          2   -1    0    0  501    0  0.00000000000E+00  0.00000000000E+00  0.47193698903E+03  0.47193698903E+03  0.00000000000E+00 0. -1.
         -2   -1    0    0    0  501 -0.00000000000E+00 -0.00000000000E+00 -0.30943026552E+02  0.30943026552E+02  0.00000000000E+00 0.  1.
         25    2    1    2    0    0 -0.50128929131E+02  0.22319568631E+02  0.20976262088E+03  0.25031575353E+03  0.12508615698E+03 0.  0.
         23    2    1    2    0    0  0.50128929131E+02 -0.22319568631E+02  0.23123134160E+03  0.25256426205E+03  0.85496786193E+02 0.  0.
          5    1    3    3  502    0 -0.12101596340E+02 -0.35002217112E+01  0.20327491421E+03  0.20370778908E+03  0.41800000000E+01 0.  1.
         -5    1    3    3    0  502 -0.38027332790E+02  0.25819790342E+02  0.64877066759E+01  0.46607964452E+02  0.41800000000E+01 0.  1.
        -11    1    4    4    0    0  0.53950142416E+02 -0.50644516898E+01  0.22830868447E+03  0.23465106423E+03  0.00000000000E+00 0. -1.
         11    1    4    4    0    0 -0.38212132856E+01 -0.17255116941E+02  0.29226571247E+01  0.17913197824E+02  0.00000000000E+00 0.  1.
</event>
<event>
 8    1  0.6862919E-009  0.1104270E+03  0.7561462E-02  0.1259781E+00
         -2   -1    0    0    0  501 -0.00000000000E+00  0.00000000000E+00  0.96085512077E+02  0.96085512077E+02  0.00000000000E+00 0.  1.
          2   -1    0    0  501    0  0.00000000000E+00 -0.00000000000E+00 -0.31934043430E+03  0.31934043430E+03  0.00000000000E+00 0. -1.
         25    2    1    2    0    0 -0.24738370071E+01  0.82890203569E+02  0.69599733574E+01  0.15023997759E+03  0.12508678555E+03 0.  0.
         23    2    1    2    0    0  0.24738370071E+01 -0.82890203569E+02 -0.23021489558E+03  0.26518596879E+03  0.10221445191E+03 0.  0.
          5    1    3    3  502    0  0.15178856128E+02  0.89984564448E+02  0.49176117533E+02  0.10374672259E+03  0.41800000000E+01 0. -1.
         -5    1    3    3    0  502 -0.17652693136E+02 -0.70943608787E+01 -0.42216144175E+02  0.46493254997E+02  0.41800000000E+01 0. -1.
        -11    1    4    4    0    0 -0.33167884599E+02 -0.23110504006E+02 -0.22813481484E+02  0.46418303519E+02  0.00000000000E+00 0.  1.
         11    1    4    4    0    0  0.35641721607E+02 -0.59779699563E+02 -0.20740141410E+03  0.21876766527E+03  0.00000000000E+00 0. -1.
</event>
<event>
 8    1  0.6862919E-009  0.2048949E+03  0.7561462E-02  0.1145674E+00
          2   -1    0    0  501    0  0.00000000000E+00  0.00000000000E+00  0.13420008321E+04  0.13420008321E+04  0.00000000000E+00 0.  1.
         -2   -1    0    0    0  501 -0.00000000000E+00 -0.00000000000E+00 -0.50154973988E+02  0.50154973988E+02  0.00000000000E+00 0. -1.
         25    2    1    2    0    0 -0.14464163815E+02  0.19142988069E+03  0.10319909407E+04  0.10571217240E+04  0.12508567611E+03 0.  0.
         23    2    1    2    0    0  0.14464163815E+02 -0.19142988069E+03  0.25985491733E+03  0.33503408203E+03  0.88705393309E+02 0.  0.
          5    1    3    3  502    0 -0.43053075305E+02  0.16039021909E+03  0.95392733757E+03  0.96828375358E+03  0.41800000000E+01 0.  1.
         -5    1    3    3    0  502  0.28588911489E+02  0.31039661606E+02  0.78063603156E+02  0.88837970432E+02  0.41800000000E+01 0.  1.
        -11    1    4    4    0    0 -0.22497597119E+02 -0.45956268746E+02  0.11754450594E+03  0.12819840635E+03  0.00000000000E+00 0. -1.
         11    1    4    4    0    0  0.36961760934E+02 -0.14547361195E+03  0.14231041139E+03  0.20683567568E+03  0.00000000000E+00 0.  1.
</event>
<event>
 8    1  0.6862919E-009  0.9574496E+02  0.7561462E-02  0.1289507E+00
         -2   -1    0    0    0  501 -0.00000000000E+00  0.00000000000E+00  0.11826350220E+02  0.11826350220E+02  0.00000000000E+00 0. -1.
          2   -1    0    0  501    0  0.00000000000E+00 -0.00000000000E+00 -0.11147146606E+04  0.11147146606E+04  0.00000000000E+00 0.  1.
         25    2    1    2    0    0 -0.31642052136E+02 -0.26951023439E+02 -0.69458171891E+03  0.70697966121E+03  0.12509556343E+03 0.  0.
         23    2    1    2    0    0  0.31642052136E+02  0.26951023439E+02 -0.40830659149E+03  0.41956134963E+03  0.87119896250E+02 0.  0.
          5    1    3    3  502    0 -0.13034520068E+02 -0.57422599661E+02 -0.14977734944E+03  0.16099062230E+03  0.41800000000E+01 0.  1.
         -5    1    3    3    0  502 -0.18607532069E+02  0.30471576222E+02 -0.54480436948E+03  0.54598903891E+03  0.41800000000E+01 0.  1.
        -11    1    4    4    0    0 -0.93180037644E+01 -0.27120577616E+02 -0.11783670306E+03  0.12127588182E+03  0.00000000000E+00 0.  1.
         11    1    4    4    0    0  0.40960055901E+02  0.54071601055E+02 -0.29046988843E+03  0.29828546780E+03  0.00000000000E+00 0. -1.
</event>
<event>
 8    1  0.6862919E-009  0.2490109E+03  0.7561462E-02  0.1113932E+00
          2   -1    0    0  501    0  0.00000000000E+00  0.00000000000E+00  0.45482001372E+03  0.45482001372E+03  0.00000000000E+00 0. -1.
         -2   -1    0    0    0  501 -0.00000000000E+00 -0.00000000000E+00 -0.15719423383E+03  0.15719423383E+03  0.00000000000E+00 0.  1.
         25    2    1    2    0    0 -0.61994960987E+01 -0.24103790421E+03  0.10731197641E+03  0.29206414180E+03  0.12509155699E+03 0.  0.
         23    2    1    2    0    0  0.61994960987E+01  0.24103790421E+03  0.19031380348E+03  0.31995010574E+03  0.89504309128E+02 0.  0.
          5    1    3    3  502    0 -0.11501474496E+02 -0.21890961949E+03  0.13383282085E+03  0.25687039876E+03  0.41800000000E+01 0.  1.
         -5    1    3    3    0  502  0.53019783974E+01 -0.22128284714E+02 -0.26520844443E+02  0.35193743042E+02  0.41800000000E+01 0.  1.
        -11    1    4    4    0    0 -0.39345464582E+02  0.12165844523E+03  0.11277687991E+03  0.17049184004E+03  0.00000000000E+00 0. -1.
         11    1    4    4    0    0  0.45544960681E+02  0.11937945898E+03  0.77536923576E+02  0.14945826570E+03  0.00000000000E+00 0.  1.
</event>
<event>
 8    1  0.6862919E-009  0.1614390E+03  0.7561462E-02  0.1187082E+00
         -2   -1    0    0    0  501 -0.00000000000E+00  0.00000000000E+00  0.57598674226E+02  0.57598674226E+02  0.00000000000E+00 0.  1.
          2   -1    0    0  501    0  0.00000000000E+00 -0.00000000000E+00 -0.72723522705E+03  0.72723522705E+03  0.00000000000E+00 0. -1.
         25    2    1    2    0    0  0.82392619869E+01  0.12845475125E+03 -0.57106653135E+03  0.59860933549E+03  0.12509054622E+03 0.  0.
         23    2    1    2    0    0 -0.82392619869E+01 -0.12845475125E+03 -0.98570021482E+02  0.18622456579E+03  0.91624402929E+02 0.  0.
          5    1    3    3  502    0 -0.45056119323E+02  0.10781409551E+03 -0.44543213980E+03  0.46052274281E+03  0.41800000000E+01 0. -1.
         -5    1    3    3    0  502  0.53295381310E+02  0.20640655747E+02 -0.12563439154E+03  0.13808659268E+03  0.41800000000E+01 0. -1.
        -11    1    4    4    0    0  0.22248641339E+02 -0.68495708054E+01 -0.43409165365E+02  0.49257225859E+02  0.00000000000E+00 0. -1.
         11    1    4    4    0    0 -0.30487903326E+02 -0.12160518045E+03 -0.55160856117E+02  0.13696733993E+03  0.00000000000E+00 0.  1.
</event>
<event>
 8    1  0.6862919E-009  0.9721556E+02  0.7561462E-02  0.1286263E+00
         -1   -1    0    0    0  501 -0.00000000000E+00  0.00000000000E+00  0.88276013293E+02  0.88276013293E+02  0.00000000000E+00 0.  1.
          1   -1    0    0  501    0  0.00000000000E+00 -0.00000000000E+00 -0.22396290215E+03  0.22396290215E+03  0.00000000000E+00 0. -1.
         25    2    1    2    0    0  0.10980085429E+02 -0.64699568150E+02 -0.13994905691E+03  0.19884435752E+03  0.12508694414E+03 0.  0.
         23    2    1    2    0    0 -0.10980085429E+02  0.64699568150E+02  0.42621680483E+01  0.11339455792E+03  0.92377287767E+02 0.  0.
          5    1    3    3  502    0 -0.99312891421E+01  0.12234435061E+02  0.16504604645E+02  0.23198842208E+02  0.41800000000E+01 0.  1.
         -5    1    3    3    0  502  0.20911374572E+02 -0.76934003211E+02 -0.15645366155E+03  0.17564551531E+03  0.41800000000E+01 0.  1.
        -11    1    4    4    0    0  0.31471881857E+02  0.25393465890E+02  0.29721135067E+02  0.50186186618E+02  0.00000000000E+00 0.  1.
         11    1    4    4    0    0 -0.42451967287E+02  0.39306102260E+02 -0.25458967019E+02  0.63208371305E+02  0.00000000000E+00 0. -1.
</event>
<event>
 8    1  0.6862919E-009  0.1087039E+03  0.7561462E-02  0.1262989E+00
          2   -1    0    0  501    0  0.00000000000E+00  0.00000000000E+00  0.55993412864E+03  0.55993412864E+03  0.00000000000E+00 0. -1.
         -2   -1    0    0    0  501 -0.00000000000E+00 -0.00000000000E+00 -0.22168698284E+02  0.22168698284E+02  0.00000000000E+00 0.  1.
         25    2    1    2    0    0  0.19753161614E+02  0.22168036394E+02  0.32171514646E+03  0.34644302553E+03  0.12506208554E+03 0.  0.
         23    2    1    2    0    0 -0.19753161614E+02 -0.22168036394E+02  0.21605028390E+03  0.23565980140E+03  0.89309616466E+02 0.  0.
          5    1    3    3  502    0 -0.25462868937E+02 -0.42349889956E+02  0.11944805552E+03  0.12933360446E+03  0.41800000000E+01 0. -1.
         -5    1    3    3    0  502  0.45216030551E+02  0.64517926350E+02  0.20226709094E+03  0.21710942107E+03  0.41800000000E+01 0. -1.
        -11    1    4    4    0    0  0.32983241043E+02 -0.44225738638E+01  0.12127580534E+03  0.12575879416E+03  0.00000000000E+00 0. -1.
         11    1    4    4    0    0 -0.52736402657E+02 -0.17745462530E+02  0.94774478560E+02  0.10990100724E+03  0.00000000000E+00 0.  1.
</event>
<event>
 8    1  0.6862919E-009  0.1285149E+03  0.7561462E-02  0.1229676E+00
         -2   -1    0    0    0  501 -0.00000000000E+00  0.00000000000E+00  0.66042735453E+02  0.66042735453E+02  0.00000000000E+00 0.  1.
          2   -1    0    0  501    0  0.00000000000E+00 -0.00000000000E+00 -0.28273427999E+03  0.28273427999E+03  0.00000000000E+00 0. -1.
         25    2    1    2    0    0  0.26153247291E+02  0.78511164367E+02 -0.10708988253E+03  0.18429550389E+03  0.12509434255E+03 0.  0.
         23    2    1    2    0    0 -0.26153247291E+02 -0.78511164367E+02 -0.10960166201E+03  0.16448151156E+03  0.90518771846E+02 0.  0.
          5    1    3    3  502    0  0.71809296333E+02  0.24937584934E+02 -0.74843670297E+02  0.10675910062E+03  0.41800000000E+01 0. -1.
         -5    1    3    3    0  502 -0.45656049042E+02  0.53573579433E+02 -0.32246212237E+02  0.77536403264E+02  0.41800000000E+01 0. -1.
        -11    1    4    4    0    0 -0.23569085998E+02  0.71933633727E+01  0.84728424905E+00  0.24656929695E+02  0.00000000000E+00 0.  1.
         11    1    4    4    0    0 -0.25841612928E+01 -0.85704527740E+02 -0.11044894626E+03  0.13982458187E+03  0.00000000000E+00 0. -1.
</event>
<event>
 7    1  0.6862919E-009  0.1003591E+03  0.7561462E-02  0.1279543E+00
          2   -1    0    0  501    0  0.00000000000E+00  0.00000000000E+00  0.79445720663E+03  0.79445720663E+03  0.00000000000E+00 0.  1.
         -2   -1    0    0    0  501 -0.00000000000E+00 -0.00000000000E+00 -0.17525082209E+02  0.17525082209E+02  0.00000000000E+00 0. -1.
         23    2    1    2    0    0 -0.35715112258E+02 -0.14702992052E+02  0.24413646935E+03  0.26330638887E+03  0.90751812850E+02 0.  0.
          5    1    1    2  502    0  0.67374100895E+02  0.29077995012E+02  0.47818798265E+03  0.48380369823E+03  0.41800000000E+01 0.  1.
         -5    1    1    2    0  502 -0.31658988636E+02 -0.14375002960E+02  0.54607672422E+02  0.64872201742E+02  0.41800000000E+01 0.  1.
        -11    1    3    3    0    0 -0.40678136918E+02 -0.45483375497E+02  0.20116300743E+03  0.21021418560E+03  0.00000000000E+00 0.  1.
         11    1    3    3    0    0  0.49630246598E+01  0.30780383445E+02  0.42973461918E+02  0.53092203270E+02  0.00000000000E+00 0. -1.
</event>
<event>
 8    1  0.6862919E-009  0.1097204E+03  0.7561462E-02  0.1261089E+00
         -2   -1    0    0    0  501 -0.00000000000E+00  0.00000000000E+00  0.61568269895E+02  0.61568269895E+02  0.00000000000E+00 0.  1.
          2   -1    0    0  501    0  0.00000000000E+00 -0.00000000000E+00 -0.29668830243E+03  0.29668830243E+03  0.00000000000E+00 0. -1.
         25    2    1    2    0    0  0.40541817814E+02  0.30111913522E+02 -0.21210593716E+03  0.25136878212E+03  0.12508784799E+03 0.  0.
         23    2    1    2    0    0 -0.40541817814E+02 -0.30111913522E+02 -0.23014095375E+02  0.10688779021E+03  0.91350888243E+02 0.  0.
          5    1    3    3  502    0  0.27269718918E+02  0.72549307409E+02 -0.18100842009E+03  0.19694811530E+03  0.41800000000E+01 0.  1.
         -5    1    3    3    0  502  0.13272098896E+02 -0.42437393887E+02 -0.31097517074E+02  0.54420666821E+02  0.41800000000E+01 0.  1.
        -11    1    4    4    0    0  0.24804988372E+02  0.91949129267E+00 -0.24018700082E+02  0.34540278893E+02  0.00000000000E+00 0.  1.
         11    1    4    4    0    0 -0.65346806186E+02 -0.31031404814E+02  0.10046047064E+01  0.72347511319E+02  0.00000000000E+00 0. -1.
</event>
<event>
 8    1  0.6862919E-009  0.1192655E+03  0.7561462E-02  0.1244314E+00
          1   -1    0    0  501    0  0.00000000000E+00  0.00000000000E+00  0.10857777587E+03  0.10857777587E+03  0.00000000000E+00 0. -1.
         -1   -1    0    0    0  501 -0.00000000000E+00 -0.00000000000E+00 -0.14860467467E+03  0.14860467467E+03  0.00000000000E+00 0.  1.
         25    2    1    2    0    0  0.54062788148E+02 -0.39638163698E+02  0.68938377634E+00  0.14192263838E+03  0.12509033116E+03 0.  0.
         23    2    1    2    0    0 -0.54062788148E+02  0.39638163698E+02 -0.40716282580E+02  0.11525981216E+03  0.84457323834E+02 0.  0.
          5    1    3    3  502    0  0.16687643963E+02  0.39829491523E+02  0.25815221463E+02  0.50485284145E+02  0.41800000000E+01 0.  1.
         -5    1    3    3    0  502  0.37375144185E+02 -0.79467655222E+02 -0.25125837687E+02  0.91437354231E+02  0.41800000000E+01 0.  1.
        -11    1    4    4    0    0 -0.52395268867E+02  0.64054640275E+02 -0.36412571567E+02  0.90410931355E+02  0.00000000000E+00 0.  1.
         11    1    4    4    0    0 -0.16675192805E+01 -0.24416476576E+02 -0.43037110132E+01  0.24848880809E+02  0.00000000000E+00 0. -1.
</event>
<event>
 8    1  0.6862919E-009  0.8335695E+02  0.7561462E-02  0.1319786E+00
         -2   -1    0    0    0  501 -0.00000000000E+00  0.00000000000E+00  0.36174251862E+03  0.36174251862E+03  0.00000000000E+00 0.  1.
          2   -1    0    0  501    0  0.00000000000E+00 -0.00000000000E+00 -0.43151403056E+02  0.43151403056E+02  0.00000000000E+00 0. -1.
         25    2    1    2    0    0 -0.28414627881E+02  0.53159611723E+02  0.14882670879E+03  0.20354428005E+03  0.12509016466E+03 0.  0.
         23    2    1    2    0    0  0.28414627881E+02 -0.53159611723E+02  0.16976440678E+03  0.20134964163E+03  0.89935471205E+02 0.  0.
          5    1    3    3  502    0  0.29640151108E+02  0.32646459636E+02  0.13250016726E+03  0.13970718166E+03  0.41800000000E+01 0. -1.
         -5    1    3    3    0  502 -0.58054778989E+02  0.20513152087E+02  0.16326541536E+02  0.63837098388E+02  0.41800000000E+01 0. -1.
        -11    1    4    4    0    0  0.93687745425E+01 -0.11022793261E+02 -0.87746799578E+01  0.16919542430E+02  0.00000000000E+00 0. -1.
         11    1    4    4    0    0  0.19045853339E+02 -0.42136818462E+02  0.17853908673E+03  0.18443009920E+03  0.00000000000E+00 0.  1.
</event>
<event>
 8    1  0.6862919E-009  0.1116690E+03  0.7561462E-02  0.1257510E+00
         -1   -1    0    0    0  501 -0.00000000000E+00  0.00000000000E+00  0.13416288815E+03  0.13416288815E+03  0.00000000000E+00 0.  1.
          1   -1    0    0  501    0  0.00000000000E+00 -0.00000000000E+00 -0.19895641309E+03  0.19895641309E+03  0.00000000000E+00 0. -1.
         25    2    1    2    0    0 -0.28154226791E+02  0.36779085771E+02 -0.14862847518E+03  0.19970905839E+03  0.12509165732E+03 0.  0.
         23    2    1    2    0    0  0.28154226791E+02 -0.36779085771E+02  0.83834950237E+02  0.13341024286E+03  0.92868898890E+02 0.  0.
          5    1    3    3  502    0 -0.75539488413E+02  0.32598061783E+02 -0.71945787956E+02  0.10937329083E+03  0.41800000000E+01 0.  1.
         -5    1    3    3    0  502  0.47385261622E+02  0.41810239883E+01 -0.76682687223E+02  0.90335767558E+02  0.41800000000E+01 0.  1.
        -11    1    4    4    0    0 -0.16587010178E+02 -0.44781785417E+02  0.13427647860E+02  0.49606843669E+02  0.00000000000E+00 0. -1.
         11    1    4    4    0    0  0.44741236969E+02  0.80026996456E+01  0.70407302377E+02  0.83803399186E+02  0.00000000000E+00 0.  1.
</event>
<event>
 8    1  0.6862919E-009  0.1477010E+03  0.7561462E-02  0.1203327E+00
          2   -1    0    0  501    0  0.00000000000E+00  0.00000000000E+00  0.11492276525E+03  0.11492276525E+03  0.00000000000E+00 0. -1.
         -2   -1    0    0    0  501 -0.00000000000E+00 -0.00000000000E+00 -0.34294109268E+03  0.34294109268E+03  0.00000000000E+00 0.  1.
         25    2    1    2    0    0  0.10156444816E+03 -0.39098123833E+02  0.25024376383E+02  0.16768484610E+03  0.12509191732E+03 0.  0.
         23    2    1    2    0    0 -0.10156444816E+03  0.39098123833E+02 -0.25304270381E+03  0.29017901183E+03  0.91264716827E+02 0.  0.
          5    1    3    3  502    0 -0.14892418957E+01  0.30796277464E+02  0.29690269992E+02  0.43007128238E+02  0.41800000000E+01 0. -1.
         -5    1    3    3    0  502  0.10305369006E+03 -0.69894401296E+02 -0.46658936093E+01  0.12467771786E+03  0.41800000000E+01 0. -1.
        -11    1    4    4    0    0 -0.38455328363E+02 -0.28011137011E+02 -0.11237221041E+03  0.12202847925E+03  0.00000000000E+00 0.  1.
         11    1    4    4    0    0 -0.63109119802E+02  0.67109260843E+02 -0.14067049340E+03  0.16815053258E+03  0.00000000000E+00 0. -1.
</event>
<event>
 8    1  0.6862919E-009  0.8532590E+02  0.7561462E-02  0.1314582E+00
         -2   -1    0    0    0  501 -0.00000000000E+00  0.00000000000E+00  0.71651095779E+02  0.71651095779E+02  0.00000000000E+00 0.  1.
          2   -1    0    0  501    0  0.00000000000E+00 -0.00000000000E+00 -0.28229111922E+03  0.28229111922E+03  0.00000000000E+00 0. -1.
         25    2    1    2    0    0  0.59948827689E+02 -0.19863055444E+02 -0.19928712280E+03  0.24362141777E+03  0.12509050710E+03 0.  0.
         23    2    1    2    0    0 -0.59948827689E+02  0.19863055444E+02 -0.11352900637E+02  0.11032079723E+03  0.89740665452E+02 0.  0.
          5    1    3    3  502    0 -0.10447742643E+02  0.53881052518E+01 -0.15721571164E+03  0.15770998507E+03  0.41800000000E+01 0. -1.
         -5    1    3    3    0  502  0.70396570332E+02 -0.25251160696E+02 -0.42071411167E+02  0.85911432700E+02  0.41800000000E+01 0. -1.
        -11    1    4    4    0    0  0.74504244999E+01  0.13693759604E+02 -0.35251173450E+02  0.38544430297E+02  0.00000000000E+00 0. -1.
         11    1    4    4    0    0 -0.67399252188E+02  0.61692958395E+01  0.23898272813E+02  0.71776366933E+02  0.00000000000E+00 0.  1.
</event>
<event>
 8    1  0.6862919E-009  0.2005955E+03  0.7561462E-02  0.1149238E+00
          1   -1    0    0  501    0  0.00000000000E+00  0.00000000000E+00  0.63312633308E+03  0.63312633308E+03  0.00000000000E+00 0. -1.
         -1   -1    0    0    0  501 -0.00000000000E+00 -0.00000000000E+00 -0.67621387747E+02  0.67621387747E+02  0.00000000000E+00 0.  1.
         25    2    1    2    0    0 -0.13500798781E+00  0.17386109677E+03  0.33762083077E+03  0.39982771351E+03  0.12508667366E+03 0.  0.
         23    2    1    2    0    0  0.13500798781E+00 -0.17386109677E+03  0.22788411457E+03  0.30092000732E+03  0.91618676787E+02 0.  0.
          5    1    3    3  502    0  0.40336326420E+02  0.92107736975E+01  0.42613838633E+02  0.59542163416E+02  0.41800000000E+01 0.  1.
         -5    1    3    3    0  502 -0.40471334408E+02  0.16465032307E+03  0.29500699214E+03  0.34028555010E+03  0.41800000000E+01 0.  1.
        -11    1    4    4    0    0  0.35011420635E+02 -0.12605569279E+03  0.11831471340E+03  0.17639220126E+03  0.00000000000E+00 0.  1.
         11    1    4    4    0    0 -0.34876412647E+02 -0.47805403976E+02  0.10956940117E+03  0.12452780605E+03  0.00000000000E+00 0. -1.
</event>
<event>
 8    1  0.6862919E-009  0.9420009E+02  0.7561462E-02  0.1292988E+00
         -2   -1    0    0    0  501 -0.00000000000E+00  0.00000000000E+00  0.83166300055E+02  0.83166300055E+02  0.00000000000E+00 0. -1.
          2   -1    0    0  501    0  0.00000000000E+00 -0.00000000000E+00 -0.16191720993E+03  0.16191720993E+03  0.00000000000E+00 0.  1.
         25    2    1    2    0    0 -0.46178139602E+01  0.10052709369E+02 -0.25615578260E+02  0.12816331147E+03  0.12508914975E+03 0.  0.
         23    2    1    2    0    0  0.46178139602E+01 -0.10052709369E+02 -0.53135331617E+02  0.11692019852E+03  0.10355958760E+03 0.  0.
          5    1    3    3  502    0 -0.15690806309E+02  0.48819469685E+02  0.29837930526E+02  0.59475343807E+02  0.41800000000E+01 0. -1.
         -5    1    3    3    0  502  0.11072992349E+02 -0.38766760316E+02 -0.55453508785E+02  0.68687967662E+02  0.41800000000E+01 0. -1.
        -11    1    4    4    0    0  0.37672409579E+01 -0.53164389489E+02 -0.50968487410E+02  0.73745719354E+02  0.00000000000E+00 0.  1.
         11    1    4    4    0    0  0.85057300224E+00  0.43111680120E+02 -0.21668442069E+01  0.43174479163E+02  0.00000000000E+00 0. -1.
</event>
<event>
 8    1  0.6862919E-009  0.6162658E+02  0.7561462E-02  0.1391130E+00
          1   -1    0    0  501    0  0.00000000000E+00  0.00000000000E+00  0.11087194676E+03  0.11087194676E+03  0.00000000000E+00 0. -1.
         -1   -1    0    0    0  501 -0.00000000000E+00 -0.00000000000E+00 -0.13860351579E+03  0.13860351579E+03  0.00000000000E+00 0.  1.
         25    2    1    2    0    0  0.44984680924E+02 -0.25564104764E+02  0.16266210905E+02  0.13634177401E+03  0.12508934708E+03 0.  0.
         23    2    1    2    0    0 -0.44984680924E+02  0.25564104764E+02 -0.43997779939E+02  0.11313368854E+03  0.90478073994E+02 0.  0.
          5    1    3    3  502    0  0.47472949012E+02 -0.22085345892E+02 -0.48385056951E+02  0.71414491017E+02  0.41800000000E+01 0. -1.
         -5    1    3    3    0  502 -0.24882680880E+01 -0.34787588719E+01  0.64651267856E+02  0.64927282993E+02  0.41800000000E+01 0. -1.
        -11    1    4    4    0    0 -0.13413934280E+02  0.30003935362E+02 -0.66454269657E+02  0.74137303200E+02  0.00000000000E+00 0.  1.
         11    1    4    4    0    0 -0.31570746644E+02 -0.44398305982E+01  0.22456489718E+02  0.38996385344E+02  0.00000000000E+00 0. -1.
</event>
<event>
 8    1  0.6862919E-009  0.1006431E+03  0.7561462E-02  0.1278949E+00
          2   -1    0    0  501    0  0.00000000000E+00  0.00000000000E+00  0.16891288296E+03  0.16891288296E+03  0.00000000000E+00 0.  1.
         -2   -1    0    0    0  501 -0.00000000000E+00 -0.00000000000E+00 -0.11625776666E+03  0.11625776666E+03  0.00000000000E+00 0. -1.
         25    2    1    2    0    0 -0.62422113646E+02 -0.67412768096E+02  0.31109092427E+02  0.15829559787E+03  0.12509484041E+03 0.  0.
         23    2    1    2    0    0  0.62422113646E+02  0.67412768096E+02  0.21546023875E+02  0.12687505175E+03  0.84805931621E+02 0.  0.
          5    1    3    3  502    0 -0.27714607071E+02 -0.51566498649E+02  0.78053451546E+02  0.97657651652E+02  0.41800000000E+01 0. -1.
         -5    1    3    3    0  502 -0.34707506575E+02 -0.15846269447E+02 -0.46944359119E+02  0.60637946214E+02  0.41800000000E+01 0. -1.
        -11    1    4    4    0    0  0.30971703848E+02  0.12981396321E+01  0.40734692703E+02  0.51188346284E+02  0.00000000000E+00 0.  1.
         11    1    4    4    0    0  0.31450409798E+02  0.66114628464E+02 -0.19188668827E+02  0.75686705469E+02  0.00000000000E+00 0. -1.
</event>
<event>
 8    1  0.6862919E-009  0.1218958E+03  0.7561462E-02  0.1240002E+00
         -3   -1    0    0    0  501 -0.00000000000E+00  0.00000000000E+00  0.14092540535E+03  0.14092540535E+03  0.00000000000E+00 0.  1.
          3   -1    0    0  501    0  0.00000000000E+00 -0.00000000000E+00 -0.17025991490E+03  0.17025991490E+03  0.00000000000E+00 0. -1.
         25    2    1    2    0    0  0.10036259054E+03 -0.44180159511E+02 -0.20392582278E+02  0.16759929882E+03  0.12509648868E+03 0.  0.
         23    2    1    2    0    0 -0.10036259054E+03  0.44180159511E+02 -0.89419272795E+01  0.14358602143E+03  0.92262947118E+02 0.  0.
          5    1    3    3  502    0  0.14629961922E+02 -0.42357734609E+02 -0.58381463848E+02  0.73716220658E+02  0.41800000000E+01 0. -1.
         -5    1    3    3    0  502  0.85732628620E+02 -0.18224249020E+01  0.37988881571E+02  0.93883078164E+02  0.41800000000E+01 0. -1.
        -11    1    4    4    0    0 -0.47851751044E+02  0.64824486421E+01  0.39840967716E+02  0.62602834816E+02  0.00000000000E+00 0. -1.
         11    1    4    4    0    0 -0.52510839497E+02  0.37697710869E+02 -0.48782894995E+02  0.80983186611E+02  0.00000000000E+00 0.  1.
</event>
<event>
 8    1  0.6862919E-009  0.1206260E+03  0.7561462E-02  0.1242068E+00
          1   -1    0    0  501    0  0.00000000000E+00  0.00000000000E+00  0.15983635672E+02  0.15983635672E+02  0.00000000000E+00 0. -1.
         -1   -1    0    0    0  501 -0.00000000000E+00 -0.00000000000E+00 -0.10499623725E+04  0.10499623725E+04  0.00000000000E+00 0.  1.
         25    2    1    2    0    0 -0.87017113080E+01 -0.59906774093E+02 -0.72593698334E+03  0.73912017176E+03  0.12509829395E+03 0.  0.
         23    2    1    2    0    0  0.87017113080E+01  0.59906774093E+02 -0.30804175344E+03  0.32682583638E+03  0.90889295826E+02 0.  0.
          5    1    3    3  502    0  0.32727233433E-01  0.38772908022E+02 -0.24301281845E+03  0.24612200593E+03  0.41800000000E+01 0. -1.
         -5    1    3    3    0  502 -0.87344385414E+01 -0.98679682115E+02 -0.48292416489E+03  0.49299816583E+03  0.41800000000E+01 0. -1.
        -11    1    4    4    0    0  0.13422787579E+02  0.80684512610E+02 -0.18971694708E+03  0.20659787465E+03  0.00000000000E+00 0.  1.
         11    1    4    4    0    0 -0.47210762709E+01 -0.20777738517E+02 -0.11832480637E+03  0.12022796172E+03  0.00000000000E+00 0. -1.
</event>
<event>
 8    1  0.6862919E-009  0.9518921E+02  0.7561462E-02  0.1290751E+00
          1   -1    0    0  501    0  0.00000000000E+00  0.00000000000E+00  0.98486025509E+02  0.98486025509E+02  0.00000000000E+00 0. -1.
         -1   -1    0    0    0  501 -0.00000000000E+00 -0.00000000000E+00 -0.15407212487E+03  0.15407212487E+03  0.00000000000E+00 0.  1.
         25    2    1    2    0    0 -0.92085930906E+01  0.14259835531E+01 -0.90525079104E+02  0.15468989131E+03  0.12508933172E+03 0.  0.
         23    2    1    2    0    0  0.92085930906E+01 -0.14259835531E+01  0.34938979742E+02  0.97868259072E+02  0.90943016293E+02 0.  0.
          5    1    3    3  502    0  0.38636559811E+02  0.24370832645E+02 -0.90501684195E+02  0.10146303997E+03  0.41800000000E+01 0.  1.
         -5    1    3    3    0  502 -0.47845152901E+02 -0.22944849092E+02 -0.23394908397E-01  0.53226851338E+02  0.41800000000E+01 0.  1.
        -11    1    4    4    0    0  0.93191483535E+01  0.44443720755E+02  0.14683649729E+02  0.47725259663E+02  0.00000000000E+00 0.  1.
         11    1    4    4    0    0 -0.11055526284E+00 -0.45869704308E+02  0.20255330013E+02  0.50142999409E+02  0.00000000000E+00 0. -1.
</event>
<event>
 8    1  0.6862919E-009  0.1034050E+03  0.7561462E-02  0.1273294E+00
          1   -1    0    0  501    0  0.00000000000E+00  0.00000000000E+00  0.75948219975E+03  0.75948219975E+03  0.00000000000E+00 0. -1.
         -1   -1    0    0    0  501 -0.00000000000E+00 -0.00000000000E+00 -0.21526344370E+02  0.21526344370E+02  0.00000000000E+00 0.  1.
         25    2    1    2    0    0  0.36306201175E+01 -0.67130872894E+02  0.45504376315E+03  0.47668836103E+03  0.12508889502E+03 0.  0.
         23    2    1    2    0    0 -0.36306201175E+01  0.67130872894E+02  0.28291209222E+03  0.30432018309E+03  0.89731746951E+02 0.  0.
          5    1    3    3  502    0 -0.16401837239E+02  0.29420083246E+02  0.54836121509E+02  0.64490574390E+02  0.41800000000E+01 0. -1.
         -5    1    3    3    0  502  0.20032457356E+02 -0.96550956139E+02  0.40020764164E+03  0.41219778664E+03  0.41800000000E+01 0. -1.
        -11    1    4    4    0    0  0.13339940202E+02  0.19652287234E+02  0.83657387713E+01  0.25182374457E+02  0.00000000000E+00 0.  1.
         11    1    4    4    0    0 -0.16970560319E+02  0.47478585660E+02  0.27454635345E+03  0.27913780863E+03  0.00000000000E+00 0. -1.
</event>
<event>
 8    1  0.6862919E-009  0.1134794E+03  0.7561462E-02  0.1254259E+00
          1   -1    0    0  501    0  0.00000000000E+00  0.00000000000E+00  0.95175327985E+02  0.95175327985E+02  0.00000000000E+00 0. -1.
         -1   -1    0    0    0  501 -0.00000000000E+00 -0.00000000000E+00 -0.16132425145E+03  0.16132425145E+03  0.00000000000E+00 0.  1.
         25    2    1    2    0    0 -0.37777143881E+02 -0.10309069946E+02 -0.84706934480E+02  0.15606697516E+03  0.12509295130E+03 0.  0.
         23    2    1    2    0    0  0.37777143881E+02  0.10309069946E+02  0.18558011020E+02  0.10043260427E+03  0.90603083303E+02 0.  0.
          5    1    3    3  502    0  0.44305971587E+02  0.47466440973E+01 -0.45313406854E+02  0.63689300429E+02  0.41800000000E+01 0. -1.
         -5    1    3    3    0  502 -0.82083115468E+02 -0.15055714044E+02 -0.39393527627E+02  0.92377674734E+02  0.41800000000E+01 0. -1.
        -11    1    4    4    0    0 -0.11174938665E+02  0.39907073885E+02  0.61207753760E+01  0.41891737746E+02  0.00000000000E+00 0.  1.
         11    1    4    4    0    0  0.48952082546E+02 -0.29598003938E+02  0.12437235644E+02  0.58540866522E+02  0.00000000000E+00 0. -1.
</event>
<event>
 8    1  0.6862919E-009  0.1246342E+03  0.7561462E-02  0.1235642E+00
         -2   -1    0    0    0  501 -0.00000000000E+00  0.00000000000E+00  0.38613379555E+02  0.38613379555E+02  0.00000000000E+00 0. -1.
          2   -1    0    0  501    0  0.00000000000E+00 -0.00000000000E+00 -0.56110018959E+03  0.56110018959E+03  0.00000000000E+00 0.  1.
         25    2    1    2    0    0  0.84410608710E+02 -0.36664832499E+01 -0.18042712233E+03  0.23523901792E+03  0.12507939526E+03 0.  0.
         23    2    1    2    0    0 -0.84410608710E+02  0.36664832499E+01 -0.34205968770E+03  0.36447455122E+03  0.93264540823E+02 0.  0.
          5    1    3    3  502    0  0.50385375050E+02 -0.54814184673E+02 -0.14782133403E+03  0.16556539510E+03  0.41800000000E+01 0.  1.
         -5    1    3    3    0  502  0.34025233660E+02  0.51147701423E+02 -0.32605788305E+02  0.69673622825E+02  0.41800000000E+01 0.  1.
        -11    1    4    4    0    0 -0.57894792438E+02  0.38366383867E+02 -0.28067348053E+03  0.28913904800E+03  0.00000000000E+00 0. -1.
         11    1    4    4    0    0 -0.26515816273E+02 -0.34699900617E+02 -0.61386207171E+02  0.75335503226E+02  0.00000000000E+00 0.  1.
</event>
<event>
 8    1  0.6862919E-009  0.1798596E+03  0.7561462E-02  0.1167939E+00
          1   -1    0    0  501    0  0.00000000000E+00  0.00000000000E+00  0.39346184457E+03  0.39346184457E+03  0.00000000000E+00 0. -1.
         -1   -1    0    0    0  501 -0.00000000000E+00 -0.00000000000E+00 -0.13276081846E+03  0.13276081846E+03  0.00000000000E+00 0.  1.
         25    2    1    2    0    0 -0.13573941104E+03 -0.78591433158E+02  0.28014665746E+03  0.34457446847E+03  0.12509042154E+03 0.  0.
         23    2    1    2    0    0  0.13573941104E+03  0.78591433158E+02 -0.19445631350E+02  0.18164819457E+03  0.89532859529E+02 0.  0.
          5    1    3    3  502    0 -0.14545331834E+03 -0.10012345069E+03  0.24712913975E+03  0.30376250148E+03  0.41800000000E+01 0.  1.
         -5    1    3    3    0  502  0.97139072986E+01  0.21532017528E+02  0.33017517709E+02  0.40811966989E+02  0.41800000000E+01 0.  1.
        -11    1    4    4    0    0  0.11863331500E+03  0.78007199473E+02 -0.46699706405E+02  0.14946521058E+03  0.00000000000E+00 0. -1.
         11    1    4    4    0    0  0.17106096043E+02  0.58423368492E+00  0.27254075056E+02  0.32182983982E+02  0.00000000000E+00 0.  1.
</event>
<event>
 8    1  0.6862919E-009  0.1011884E+03  0.7561462E-02  0.1277817E+00
          2   -1    0    0  501    0  0.00000000000E+00  0.00000000000E+00  0.19554865785E+03  0.19554865785E+03  0.00000000000E+00 0. -1.
         -2   -1    0    0    0  501 -0.00000000000E+00 -0.00000000000E+00 -0.10839129940E+03  0.10839129940E+03  0.00000000000E+00 0.  1.
         25    2    1    2    0    0  0.49510875303E+02 -0.74727808774E+02  0.42927076674E+01  0.15395338372E+03  0.12509054658E+03 0.  0.
         23    2    1    2    0    0 -0.49510875303E+02  0.74727808774E+02  0.82864650780E+02  0.14998657352E+03  0.87142697403E+02 0.  0.
          5    1    3    3  502    0 -0.10947989515E+02 -0.41012323966E+02 -0.50113816947E+02  0.65808329568E+02  0.41800000000E+01 0. -1.
         -5    1    3    3    0  502  0.60458864818E+02 -0.33715484808E+02  0.54406524615E+02  0.88145054153E+02  0.41800000000E+01 0. -1.
        -11    1    4    4    0    0 -0.38045846879E+02  0.47706822967E+02 -0.11097164257E+01  0.61029983557E+02  0.00000000000E+00 0.  1.
         11    1    4    4    0    0 -0.11465028423E+02  0.27020985807E+02  0.83974367206E+02  0.88956589966E+02  0.00000000000E+00 0. -1.
</event>
<event>
 8    1  0.6862919E-009  0.9754241E+02  0.7561462E-02  0.1285550E+00
          1   -1    0    0  501    0  0.00000000000E+00  0.00000000000E+00  0.49322837284E+03  0.49322837284E+03  0.00000000000E+00 0. -1.
         -1   -1    0    0    0  501 -0.00000000000E+00 -0.00000000000E+00 -0.56280610792E+02  0.56280610792E+02  0.00000000000E+00 0.  1.
         25    2    1    2    0    0  0.93614423094E+02 -0.21531155541E+02  0.10210169895E+03  0.18788308225E+03  0.12509214523E+03 0.  0.
         23    2    1    2    0    0 -0.93614423094E+02  0.21531155541E+02  0.33484606310E+03  0.36162590138E+03  0.97078090765E+02 0.  0.
          5    1    3    3  502    0  0.24039106242E+02 -0.51621205433E+01  0.11277057886E+03  0.11549546300E+03  0.41800000000E+01 0. -1.
         -5    1    3    3    0  502  0.69575316852E+02 -0.16369034998E+02 -0.10668879912E+02  0.72387619248E+02  0.41800000000E+01 0. -1.
        -11    1    4    4    0    0 -0.78551802139E+02  0.26154605592E+02  0.33578567167E+03  0.34584167810E+03  0.00000000000E+00 0. -1.
         11    1    4    4    0    0 -0.15062620956E+02 -0.46234500509E+01 -0.93960856645E+00  0.15784223284E+02  0.00000000000E+00 0.  1.
</event>
<event>
 8    1  0.6862919E-009  0.1577831E+03  0.7561462E-02  0.1191223E+00
         -1   -1    0    0    0  501 -0.00000000000E+00  0.00000000000E+00  0.11717018841E+03  0.11717018841E+03  0.00000000000E+00 0.  1.
          1   -1    0    0  501    0  0.00000000000E+00 -0.00000000000E+00 -0.30475985173E+03  0.30475985173E+03  0.00000000000E+00 0. -1.
         25    2    1    2    0    0 -0.12005046924E+03 -0.76610339647E+02 -0.16388794833E+03  0.25057619037E+03  0.12509159952E+03 0.  0.
         23    2    1    2    0    0  0.12005046924E+03  0.76610339647E+02 -0.23701714994E+02  0.17135384976E+03  0.92299031577E+02 0.  0.
          5    1    3    3  502    0 -0.75353741190E+01  0.16333689858E+02  0.11973286864E+02  0.22009163678E+02  0.41800000000E+01 0. -1.
         -5    1    3    3    0  502 -0.11251509512E+03 -0.92944029506E+02 -0.17586123519E+03  0.22856702670E+03  0.41800000000E+01 0. -1.
        -11    1    4    4    0    0  0.59431252188E+02  0.86919226547E+01 -0.48275358718E+02  0.77059285718E+02  0.00000000000E+00 0.  1.
         11    1    4    4    0    0  0.60619217049E+02  0.67918416993E+02  0.24573643724E+02  0.94294564044E+02  0.00000000000E+00 0. -1.
</event>
<event>
 8    1  0.6862919E-009  0.1107786E+03  0.7561462E-02  0.1259135E+00
         -1   -1    0    0    0  501 -0.00000000000E+00  0.00000000000E+00  0.30797547732E+02  0.30797547732E+02  0.00000000000E+00 0.  1.
          1   -1    0    0  501    0  0.00000000000E+00 -0.00000000000E+00 -0.63613031639E+03  0.63613031639E+03  0.00000000000E+00 0. -1.
         25    2    1    2    0    0  0.54542598958E+02 -0.64955065318E+02 -0.38816119107E+03  0.41654788557E+03  0.12509586366E+03 0.  0.
         23    2    1    2    0    0 -0.54542598958E+02  0.64955065318E+02 -0.21717157759E+03  0.25037997856E+03  0.91282988219E+02 0.  0.
          5    1    3    3  502    0  0.10642395360E+02  0.23182191628E+02 -0.13540298938E+02  0.29180244739E+02  0.41800000000E+01 0.  1.
         -5    1    3    3    0  502  0.43900203599E+02 -0.88137256946E+02 -0.37462089213E+03  0.38736764083E+03  0.41800000000E+01 0.  1.
        -11    1    4    4    0    0 -0.85400229541E+01 -0.74758903117E+01  0.48589690817E+01  0.12346275088E+02  0.00000000000E+00 0.  1.
         11    1    4    4    0    0 -0.46002576004E+02  0.72430955630E+02 -0.22203054667E+03  0.23803370347E+03  0.00000000000E+00 0. -1.
</event>
<event>
 8    1  0.6862919E-009  0.1598324E+03  0.7561462E-02  0.1188886E+00
          1   -1    0    0  501    0  0.00000000000E+00  0.00000000000E+00  0.19667780297E+03  0.19667780297E+03  0.00000000000E+00 0. -1.
         -1   -1    0    0    0  501 -0.00000000000E+00 -0.00000000000E+00 -0.17422944157E+03  0.17422944157E+03  0.00000000000E+00 0.  1.
         25    2    1    2    0    0  0.84267798516E+02  0.11367073604E+03 -0.40721381708E+02  0.19320215568E+03  0.12508694549E+03 0.  0.
         23    2    1    2    0    0 -0.84267798516E+02 -0.11367073604E+03  0.63169743105E+02  0.17770508886E+03  0.86986114208E+02 0.  0.
          5    1    3    3  502    0  0.79288906349E+02  0.12044598766E+03  0.71304236000E+01  0.14443781345E+03  0.41800000000E+01 0.  1.
         -5    1    3    3    0  502  0.49788921666E+01 -0.67752516228E+01 -0.47851805308E+02  0.48764342229E+02  0.41800000000E+01 0.  1.
        -11    1    4    4    0    0 -0.21173372842E+02  0.12754743235E+02  0.74038869110E+01  0.25803347339E+02  0.00000000000E+00 0.  1.
         11    1    4    4    0    0 -0.63094425673E+02 -0.12642547927E+03  0.55765856194E+02  0.15190174152E+03  0.00000000000E+00 0. -1.
</event>
<event>
 8    1  0.6862919E-009  0.1076521E+03  0.7561462E-02  0.1264981E+00
         -2   -1    0    0    0  501 -0.00000000000E+00  0.00000000000E+00  0.14227832039E+03  0.14227832039E+03  0.00000000000E+00 0.  1.
          2   -1    0    0  501    0  0.00000000000E+00 -0.00000000000E+00 -0.11001271353E+03  0.11001271353E+03  0.00000000000E+00 0. -1.
         25    2    1    2    0    0 -0.21419914052E+02  0.12746626059E+02  0.74354021399E+02  0.14763744454E+03  0.12508799039E+03 0.  0.
         23    2    1    2    0    0  0.21419914052E+02 -0.12746626059E+02 -0.42088414539E+02  0.10465358938E+03  0.92518376219E+02 0.  0.
          5    1    3    3  502    0  0.38712227184E+02  0.38733333844E+02  0.10215061852E+02  0.55863472617E+02  0.41800000000E+01 0. -1.
         -5    1    3    3    0  502 -0.60132141236E+02 -0.25986707785E+02  0.64138959548E+02  0.91773971926E+02  0.41800000000E+01 0. -1.
        -11    1    4    4    0    0  0.70602451749E+01 -0.52242253015E+02 -0.15598699048E+02  0.54976535668E+02  0.00000000000E+00 0. -1.
         11    1    4    4    0    0  0.14359668877E+02  0.39495626957E+02 -0.26489715491E+02  0.49677053714E+02  0.00000000000E+00 0.  1.
</event>
<event>
 8    1  0.6862919E-009  0.1194264E+03  0.7561462E-02  0.1244046E+00
         -1   -1    0    0    0  501 -0.00000000000E+00  0.00000000000E+00  0.21464924390E+02  0.21464924390E+02  0.00000000000E+00 0.  1.
          1   -1    0    0  501    0  0.00000000000E+00 -0.00000000000E+00 -0.67102497824E+03  0.67102497824E+03  0.00000000000E+00 0. -1.
         25    2    1    2    0    0  0.31001644922E+02  0.40669709256E+02 -0.34316742689E+03  0.36881705731E+03  0.12508801560E+03 0.  0.
         23    2    1    2    0    0 -0.31001644922E+02 -0.40669709256E+02 -0.30639262696E+03  0.32367284532E+03  0.90953513964E+02 0.  0.
          5    1    3    3  502    0  0.47304456131E+02 -0.33877208420E+02 -0.16238279318E+03  0.17254280843E+03  0.41800000000E+01 0. -1.
         -5    1    3    3    0  502 -0.16302811209E+02  0.74546917675E+02 -0.18078463371E+03  0.19627424888E+03  0.41800000000E+01 0. -1.
        -11    1    4    4    0    0 -0.49029445424E+02 -0.60118567283E+02 -0.23771181269E+03  0.25005006408E+03  0.00000000000E+00 0. -1.
         11    1    4    4    0    0  0.18027800502E+02  0.19448858027E+02 -0.68680814267E+02  0.73622781243E+02  0.00000000000E+00 0.  1.
</event>
<event>
 8    1  0.6862919E-009  0.1712884E+03  0.7561462E-02  0.1176511E+00
         -1   -1    0    0    0  501 -0.00000000000E+00  0.00000000000E+00  0.16184154750E+03  0.16184154750E+03  0.00000000000E+00 0.  1.
          1   -1    0    0  501    0  0.00000000000E+00 -0.00000000000E+00 -0.23304237540E+03  0.23304237540E+03  0.00000000000E+00 0. -1.
         25    2    1    2    0    0 -0.32346181131E+02 -0.15509025343E+03 -0.32343163559E+02  0.20443198699E+03  0.12508834851E+03 0.  0.
         23    2    1    2    0    0  0.32346181131E+02  0.15509025343E+03 -0.38857664341E+02  0.19045193591E+03  0.98299337080E+02 0.  0.
          5    1    3    3  502    0  0.46678456109E+01 -0.11615014074E+03 -0.72645753451E+02  0.13714051871E+03  0.41800000000E+01 0.  1.
         -5    1    3    3    0  502 -0.37014026741E+02 -0.38940112688E+02  0.40302589893E+02  0.67291468284E+02  0.41800000000E+01 0.  1.
        -11    1    4    4    0    0 -0.20654974076E+02  0.29094838228E+02  0.20811053089E+02  0.41306627752E+02  0.00000000000E+00 0.  1.
         11    1    4    4    0    0  0.53001155207E+02  0.12599541520E+03 -0.59668717429E+02  0.14914530816E+03  0.00000000000E+00 0. -1.
</event>
<event>
 7    1  0.6862919E-009  0.9557071E+02  0.7561462E-02  0.1289896E+00
          2   -1    0    0  501    0  0.00000000000E+00  0.00000000000E+00  0.76875631629E+03  0.76875631629E+03  0.00000000000E+00 0. -1.
         -2   -1    0    0    0  501 -0.00000000000E+00 -0.00000000000E+00 -0.17312860667E+02  0.17312860667E+02  0.00000000000E+00 0.  1.
         23    2    1    2    0    0  0.11082366196E+02  0.81253067750E+01  0.20250118669E+03  0.22286181040E+03  0.92042471026E+02 0.  0.
          5    1    1    2  502    0 -0.59193707543E+02 -0.72029080271E+01  0.15191246271E+03  0.16325025458E+03  0.41800000000E+01 0.  1.
         -5    1    1    2    0  502  0.48111341347E+02 -0.92239874791E+00  0.39702980623E+03  0.39995711198E+03  0.41800000000E+01 0.  1.
        -11    1    3    3    0    0  0.24672237645E+01 -0.37020642161E+02  0.14266962455E+03  0.14741518547E+03  0.00000000000E+00 0. -1.
         11    1    3    3    0    0  0.86151424316E+01  0.45145948936E+02  0.59831562145E+02  0.75446624929E+02  0.00000000000E+00 0.  1.
</event>
<event>
 8    1  0.6862919E-009  0.9170184E+02  0.7561462E-02  0.1298782E+00
          2   -1    0    0  501    0  0.00000000000E+00  0.00000000000E+00  0.72141714881E+02  0.72141714881E+02  0.00000000000E+00 0. -1.
         -2   -1    0    0    0  501 -0.00000000000E+00 -0.00000000000E+00 -0.21634556388E+03  0.21634556388E+03  0.00000000000E+00 0.  1.
         25    2    1    2    0    0 -0.29656091487E+02 -0.14649132999E+02 -0.19866369614E+02  0.13090168939E+03  0.12508596558E+03 0.  0.
         23    2    1    2    0    0  0.29656091487E+02  0.14649132999E+02 -0.12433747939E+03  0.15758558937E+03  0.90990814576E+02 0.  0.
          5    1    3    3  502    0 -0.20413256013E+02  0.55062730107E+02 -0.69642896060E+01  0.59283884805E+02  0.41800000000E+01 0.  1.
         -5    1    3    3    0  502 -0.92428354745E+01 -0.69711863106E+02 -0.12902080008E+02  0.71617804587E+02  0.41800000000E+01 0.  1.
        -11    1    4    4    0    0  0.23993241235E+02 -0.12009326125E+02  0.33343835605E+01  0.27037338121E+02  0.00000000000E+00 0. -1.
         11    1    4    4    0    0  0.56628502517E+01  0.26658459124E+02 -0.12767186295E+03  0.13054825125E+03  0.00000000000E+00 0.  1.
</event>
<event>
 8    1  0.6862919E-009  0.8293078E+02  0.7561462E-02  0.1320934E+00
         -2   -1    0    0    0  501 -0.00000000000E+00  0.00000000000E+00  0.71412617494E+02  0.71412617494E+02  0.00000000000E+00 0.  1.
          2   -1    0    0  501    0  0.00000000000E+00 -0.00000000000E+00 -0.24973559062E+03  0.24973559062E+03  0.00000000000E+00 0. -1.
         25    2    1    2    0    0 -0.29811564157E+02  0.59999348354E+02 -0.16187325870E+03  0.21527956457E+03  0.12511469890E+03 0.  0.
         23    2    1    2    0    0  0.29811564157E+02 -0.59999348354E+02 -0.16449714427E+02  0.10586864354E+03  0.80305201700E+02 0.  0.
          5    1    3    3  502    0 -0.95127575379E+01  0.39024812289E+02 -0.17741138588E+03  0.18194972044E+03  0.41800000000E+01 0. -1.
         -5    1    3    3    0  502 -0.20298806619E+02  0.20974536064E+02  0.15538127182E+02  0.33329844128E+02  0.41800000000E+01 0. -1.
        -11    1    4    4    0    0  0.38138233552E+02 -0.28571615513E+01  0.13826055066E+02  0.40667530405E+02  0.00000000000E+00 0.  1.
         11    1    4    4    0    0 -0.83266693943E+01 -0.57142186802E+02 -0.30275769493E+02  0.65201113136E+02  0.00000000000E+00 0. -1.
</event>
<event>
 8    1  0.6862919E-009  0.1035444E+03  0.7561462E-02  0.1273014E+00
          1   -1    0    0  501    0  0.00000000000E+00  0.00000000000E+00  0.41239506668E+03  0.41239506668E+03  0.00000000000E+00 0. -1.
         -1   -1    0    0    0  501 -0.00000000000E+00 -0.00000000000E+00 -0.37187285552E+02  0.37187285552E+02  0.00000000000E+00 0.  1.
         25    2    1    2    0    0 -0.36627912473E+02 -0.39046935018E+02  0.27387173407E+03  0.30581015175E+03  0.12509138693E+03 0.  0.
         23    2    1    2    0    0  0.36627912473E+02  0.39046935018E+02  0.10133604705E+03  0.14377220048E+03  0.86805438147E+02 0.  0.
          5    1    3    3  502    0 -0.43016651471E+02  0.26023618566E+02  0.44520381024E+02  0.67284454026E+02  0.41800000000E+01 0. -1.
         -5    1    3    3    0  502  0.63887389980E+01 -0.65070553584E+02  0.22935135305E+03  0.23852569773E+03  0.41800000000E+01 0. -1.
        -11    1    4    4    0    0  0.38288281072E+02  0.59416910608E+02  0.10106751951E+03  0.12333290410E+03  0.00000000000E+00 0. -1.
         11    1    4    4    0    0 -0.16603685991E+01 -0.20369975590E+02  0.26852754223E+00  0.20439296379E+02  0.00000000000E+00 0.  1.
</event>
<event>
 8    1  0.6862919E-009  0.5054820E+02  0.7561462E-02  0.1442407E+00
          2   -1    0    0  501    0  0.00000000000E+00  0.00000000000E+00  0.20691677237E+03  0.20691677237E+03  0.00000000000E+00 0.  1.
         -2   -1    0    0    0  501 -0.00000000000E+00 -0.00000000000E+00 -0.69998176777E+02  0.69998176777E+02  0.00000000000E+00 0. -1.
         25    2    1    2    0    0  0.26434735032E+02 -0.30552179390E+02  0.11092657255E+03  0.17200074646E+03  0.12508925375E+03 0.  0.
         23    2    1    2    0    0 -0.26434735032E+02  0.30552179390E+02  0.25992023043E+02  0.10491420268E+03  0.93269361429E+02 0.  0.
          5    1    3    3  502    0 -0.35386488135E+01 -0.37251692974E+01  0.12795034490E+03  0.12812166905E+03  0.41800000000E+01 0.  1.
         -5    1    3    3    0  502  0.29973383845E+02 -0.26827010093E+02 -0.17023772344E+02  0.43879077412E+02  0.41800000000E+01 0.  1.
        -11    1    4    4    0    0 -0.31787436862E+02  0.10809157015E+02 -0.30172559484E+02  0.45140473674E+02  0.00000000000E+00 0. -1.
         11    1    4    4    0    0  0.53527018307E+01  0.19743022376E+02  0.56164582527E+02  0.59773729011E+02  0.00000000000E+00 0.  1.
</event>
<event>
 8    1  0.6862919E-009  0.1015651E+03  0.7561462E-02  0.1277039E+00
          1   -1    0    0  501    0  0.00000000000E+00  0.00000000000E+00  0.13423384254E+04  0.13423384254E+04  0.00000000000E+00 0. -1.
         -1   -1    0    0    0  501 -0.00000000000E+00 -0.00000000000E+00 -0.11176158938E+02  0.11176158938E+02  0.00000000000E+00 0.  1.
         25    2    1    2    0    0 -0.19170962037E+02  0.33901609879E+02  0.90623156363E+03  0.91565276653E+03  0.12508995560E+03 0.  0.
         23    2    1    2    0    0  0.19170962037E+02 -0.33901609879E+02  0.42493070283E+03  0.43786181781E+03  0.98183625666E+02 0.  0.
          5    1    3    3  502    0 -0.49465007026E+02  0.44834343086E+02  0.25549115785E+03  0.26410246000E+03  0.41800000000E+01 0. -1.
         -5    1    3    3    0  502  0.30294044989E+02 -0.10932733208E+02  0.65074040579E+03  0.65155030653E+03  0.41800000000E+01 0. -1.
        -11    1    4    4    0    0  0.54602499502E+02  0.17663502844E+00  0.18233550861E+03  0.19033576083E+03  0.00000000000E+00 0. -1.
         11    1    4    4    0    0 -0.35431537465E+02 -0.34078244907E+02  0.24259519422E+03  0.24752605697E+03  0.00000000000E+00 0.  1.
</event>
<event>
 8    1  0.6862919E-009  0.1870472E+03  0.7561462E-02  0.1161152E+00
          1   -1    0    0  501    0  0.00000000000E+00  0.00000000000E+00  0.39143380309E+03  0.39143380309E+03  0.00000000000E+00 0. -1.
         -1   -1    0    0    0  501 -0.00000000000E+00 -0.00000000000E+00 -0.10520086132E+03  0.10520086132E+03  0.00000000000E+00 0.  1.
         25    2    1    2    0    0  0.15834527138E+02  0.16944261102E+03  0.17668567826E+03  0.27536713269E+03  0.12509075979E+03 0.  0.
         23    2    1    2    0    0 -0.15834527138E+02 -0.16944261102E+03  0.10954726351E+03  0.22126753172E+03  0.89426992395E+02 0.  0.
          5    1    3    3  502    0  0.32552745812E+02  0.10757687230E+02 -0.34233205294E+01  0.34707356826E+02  0.41800000000E+01 0.  1.
         -5    1    3    3    0  502 -0.16718218674E+02  0.15868492379E+03  0.18010899879E+03  0.24065977587E+03  0.41800000000E+01 0.  1.
        -11    1    4    4    0    0 -0.24946792211E+02 -0.25379368230E+02  0.57886221462E+02  0.67950492335E+02  0.00000000000E+00 0. -1.
         11    1    4    4    0    0  0.91122650726E+01 -0.14406324279E+03  0.51661042047E+02  0.15331703938E+03  0.00000000000E+00 0.  1.
</event>
<event>
 8    1  0.6862919E-009  0.2180890E+03  0.7561462E-02  0.1135316E+00
          3   -1    0    0  501    0  0.00000000000E+00  0.00000000000E+00  0.16456209163E+03  0.16456209163E+03  0.00000000000E+00 0. -1.
         -3   -1    0    0    0  501 -0.00000000000E+00 -0.00000000000E+00 -0.87674719666E+03  0.87674719666E+03  0.00000000000E+00 0.  1.
         25    2    1    2    0    0  0.74545031556E+02  0.17517306770E+03 -0.78549828415E+03  0.81786262400E+03  0.12509657052E+03 0.  0.
         23    2    1    2    0    0 -0.74545031556E+02 -0.17517306770E+03  0.73313179119E+02  0.22344666430E+03  0.91164818739E+02 0.  0.
          5    1    3    3  502    0  0.83172926383E+02  0.19149177425E+03 -0.71511869122E+03  0.74498258384E+03  0.41800000000E+01 0.  1.
         -5    1    3    3    0  502 -0.86278948272E+01 -0.16318706557E+02 -0.70379592930E+02  0.72880040161E+02  0.41800000000E+01 0.  1.
        -11    1    4    4    0    0 -0.66647624065E+01 -0.12206844094E+03  0.60204067358E+02  0.13627051427E+03  0.00000000000E+00 0.  1.
         11    1    4    4    0    0 -0.67880269150E+02 -0.53104626757E+02  0.13109111761E+02  0.87176150029E+02  0.00000000000E+00 0. -1.
</event>
<event>
 8    1  0.6862919E-009  0.1212420E+03  0.7561462E-02  0.1241062E+00
         -2   -1    0    0    0  501 -0.00000000000E+00  0.00000000000E+00  0.89910947270E+02  0.89910947270E+02  0.00000000000E+00 0.  1.
          2   -1    0    0  501    0  0.00000000000E+00 -0.00000000000E+00 -0.21528387451E+03  0.21528387451E+03  0.00000000000E+00 0. -1.
         25    2    1    2    0    0 -0.69559365453E+02  0.35697467334E+02 -0.24208112189E+02  0.14948810994E+03  0.12509135790E+03 0.  0.
         23    2    1    2    0    0  0.69559365453E+02 -0.35697467334E+02 -0.10116481505E+03  0.15570671183E+03  0.88867574572E+02 0.  0.
          5    1    3    3  502    0 -0.92344279236E+01  0.58718392028E+02 -0.51983350949E+02  0.79075061792E+02  0.41800000000E+01 0. -1.
         -5    1    3    3    0  502 -0.60324937529E+02 -0.23020924694E+02  0.27775238760E+02  0.70413048150E+02  0.41800000000E+01 0. -1.
        -11    1    4    4    0    0  0.88302595533E+02 -0.42827159169E+02 -0.80758198763E+02  0.12709602908E+03  0.00000000000E+00 0. -1.
         11    1    4    4    0    0 -0.18743230080E+02  0.71296918354E+01 -0.20406616283E+02  0.28610682754E+02  0.00000000000E+00 0.  1.
</event>
<event>
 8    1  0.6862919E-009  0.1006657E+03  0.7561462E-02  0.1278902E+00
         -2   -1    0    0    0  501 -0.00000000000E+00  0.00000000000E+00  0.65923098844E+02  0.65923098844E+02  0.00000000000E+00 0. -1.
          2   -1    0    0  501    0  0.00000000000E+00 -0.00000000000E+00 -0.34839460718E+03  0.34839460718E+03  0.00000000000E+00 0.  1.
         25    2    1    2    0    0 -0.63341254697E+02 -0.59371337434E+02 -0.13465453968E+03  0.20326781765E+03  0.12509552502E+03 0.  0.
         23    2    1    2    0    0  0.63341254697E+02  0.59371337434E+02 -0.14781696866E+03  0.21104988838E+03  0.12310616924E+03 0.  0.
          5    1    3    3  502    0 -0.78310563751E+02 -0.36022288744E+02 -0.14867770070E+03  0.17190893161E+03  0.41800000000E+01 0.  1.
         -5    1    3    3    0  502  0.14969309054E+02 -0.23349048690E+02  0.14023161026E+02  0.31358886036E+02  0.41800000000E+01 0.  1.
        -11    1    4    4    0    0  0.32949675353E+02  0.34556720781E+02  0.96973280196E+01  0.48722543321E+02  0.00000000000E+00 0. -1.
         11    1    4    4    0    0  0.30391579344E+02  0.24814616653E+02 -0.15751429668E+03  0.16232734506E+03  0.00000000000E+00 0.  1.
</event>
<event>
 8    1  0.6862919E-009  0.1437289E+03  0.7561462E-02  0.1208398E+00
         -1   -1    0    0    0  501 -0.00000000000E+00  0.00000000000E+00  0.75681367887E+02  0.75681367887E+02  0.00000000000E+00 0.  1.
          1   -1    0    0  501    0  0.00000000000E+00 -0.00000000000E+00 -0.46940886769E+03  0.46940886769E+03  0.00000000000E+00 0. -1.
         25    2    1    2    0    0  0.86334682766E+02  0.91000169260E+02 -0.79936544650E+02  0.19435003556E+03  0.12508947557E+03 0.  0.
         23    2    1    2    0    0 -0.86334682766E+02 -0.91000169260E+02 -0.31379095515E+03  0.35074020002E+03  0.93910681603E+02 0.  0.
          5    1    3    3  502    0  0.75475787722E+02  0.10538684206E+03 -0.19508615337E+02  0.13115273343E+03  0.41800000000E+01 0.  1.
         -5    1    3    3    0  502  0.10858895044E+02 -0.14386672805E+02 -0.60427929313E+02  0.63197302134E+02  0.41800000000E+01 0.  1.
        -11    1    4    4    0    0 -0.54106517815E+02 -0.14149102254E+02 -0.21166133263E+03  0.21892517465E+03  0.00000000000E+00 0. -1.
         11    1    4    4    0    0 -0.32228164951E+02 -0.76851067006E+02 -0.10212962252E+03  0.13181502537E+03  0.00000000000E+00 0.  1.
</event>
<event>
 8    1  0.6862919E-009  0.1787849E+03  0.7561462E-02  0.1168984E+00
         -2   -1    0    0    0  501 -0.00000000000E+00  0.00000000000E+00  0.23540005410E+04  0.23540005410E+04  0.00000000000E+00 0. -1.
          2   -1    0    0  501    0  0.00000000000E+00 -0.00000000000E+00 -0.14740697712E+02  0.14740697712E+02  0.00000000000E+00 0.  1.
         25    2    1    2    0    0 -0.49962967139E+02 -0.14169675077E+03  0.14142284623E+04  0.14276785600E+04  0.12509860008E+03 0.  0.
         23    2    1    2    0    0  0.49962967139E+02  0.14169675077E+03  0.92503138099E+03  0.94106267874E+03  0.85683383770E+02 0.  0.
          5    1    3    3  502    0 -0.82244592973E+02 -0.77042576735E+02  0.62117501516E+03  0.63132844349E+03  0.41800000000E+01 0. -1.
         -5    1    3    3    0  502  0.32281625835E+02 -0.64654174033E+02  0.79305344716E+03  0.79635011649E+03  0.41800000000E+01 0. -1.
        -11    1    4    4    0    0  0.55899029183E+02  0.35865476753E+02  0.32054230819E+03  0.32735058458E+03  0.00000000000E+00 0. -1.
         11    1    4    4    0    0 -0.59360620446E+01  0.10583127401E+03  0.60448907279E+03  0.61371209416E+03  0.00000000000E+00 0.  1.
</event>
<event>
 8    1  0.6862919E-009  0.2383369E+03  0.7561462E-02  0.1120906E+00
         -2   -1    0    0    0  501 -0.00000000000E+00  0.00000000000E+00  0.64034866511E+03  0.64034866511E+03  0.00000000000E+00 0. -1.
          2   -1    0    0  501    0  0.00000000000E+00 -0.00000000000E+00 -0.93612793853E+02  0.93612793853E+02  0.00000000000E+00 0.  1.
         25    2    1    2    0    0  0.21791758713E+03 -0.22568174192E+02  0.25166246350E+03  0.35634339723E+03  0.12509685826E+03 0.  0.
         23    2    1    2    0    0 -0.21791758713E+03  0.22568174192E+02  0.29507340776E+03  0.37761806173E+03  0.86773770884E+02 0.  0.
          5    1    3    3  502    0  0.13758421599E+03 -0.62675572097E+02  0.20589629396E+03  0.25547680931E+03  0.41800000000E+01 0.  1.
         -5    1    3    3    0  502  0.80333371138E+02  0.40107397905E+02  0.45766169546E+02  0.10086658793E+03  0.41800000000E+01 0.  1.
        -11    1    4    4    0    0 -0.85374515685E+02 -0.33388996191E+02  0.12021806150E+03  0.15118206013E+03  0.00000000000E+00 0.  1.
         11    1    4    4    0    0 -0.13254307145E+03  0.55957170383E+02  0.17485534626E+03  0.22643600160E+03  0.00000000000E+00 0. -1.
</event>
<event>
 8    1  0.6862919E-009  0.6518787E+02  0.7561462E-02  0.1377266E+00
          1   -1    0    0  501    0  0.00000000000E+00  0.00000000000E+00  0.12005862226E+02  0.12005862226E+02  0.00000000000E+00 0. -1.
         -1   -1    0    0    0  501 -0.00000000000E+00 -0.00000000000E+00 -0.10857681677E+04  0.10857681677E+04  0.00000000000E+00 0.  1.
         25    2    1    2    0    0 -0.21507896404E+02  0.90286486497E+01 -0.74514458210E+03  0.75593124234E+03  0.12508992291E+03 0.  0.
         23    2    1    2    0    0  0.21507896404E+02 -0.90286486497E+01 -0.32861772336E+03  0.34184278757E+03  0.91229256282E+02 0.  0.
          5    1    3    3  502    0 -0.19112206653E+02 -0.12740556125E+02 -0.72647752026E+03  0.72685256968E+03  0.41800000000E+01 0. -1.
         -5    1    3    3    0  502 -0.23956897504E+01  0.21769204774E+02 -0.18667061838E+02  0.29078672658E+02  0.41800000000E+01 0. -1.
        -11    1    4    4    0    0  0.51886815555E+02  0.31996112791E+01 -0.26750044414E+03  0.27250498482E+03  0.00000000000E+00 0.  1.
         11    1    4    4    0    0 -0.30378919151E+02 -0.12228259929E+02 -0.61117279227E+02  0.69337802747E+02  0.00000000000E+00 0. -1.
</event>
<event>
 8    1  0.6862919E-009  0.1133550E+03  0.7561462E-02  0.1254480E+00
         -1   -1    0    0    0  501 -0.00000000000E+00  0.00000000000E+00  0.88884897341E+03  0.88884897341E+03  0.00000000000E+00 0.  1.
          1   -1    0    0  501    0  0.00000000000E+00 -0.00000000000E+00 -0.28318626196E+02  0.28318626196E+02  0.00000000000E+00 0. -1.
         25    2    1    2    0    0 -0.10747101541E+03 -0.14946314614E+01  0.57632873247E+03  0.59946159987E+03  0.12508856370E+03 0.  0.
         23    2    1    2    0    0  0.10747101541E+03  0.14946314614E+01  0.28420161474E+03  0.31770599974E+03  0.92813206877E+02 0.  0.
          5    1    3    3  502    0 -0.59094150942E+02 -0.25004753574E+02  0.50965286038E+03  0.51369335880E+03  0.41800000000E+01 0.  1.
         -5    1    3    3    0  502 -0.48376864469E+02  0.23510122113E+02  0.66675872090E+02  0.85768241072E+02  0.41800000000E+01 0.  1.
        -11    1    4    4    0    0  0.58811011434E+02 -0.64137224971E+01  0.47341558722E+02  0.75770007816E+02  0.00000000000E+00 0. -1.
         11    1    4    4    0    0  0.48660003977E+02  0.79083539584E+01  0.23686005602E+03  0.24193599192E+03  0.00000000000E+00 0.  1.
</event>
<event>
 8    1  0.6862919E-009  0.1302943E+03  0.7561462E-02  0.1227020E+00
          1   -1    0    0  501    0  0.00000000000E+00  0.00000000000E+00  0.72892477852E+03  0.72892477852E+03  0.00000000000E+00 0. -1.
         -1   -1    0    0    0  501 -0.00000000000E+00 -0.00000000000E+00 -0.26357388612E+02  0.26357388612E+02  0.00000000000E+00 0.  1.
         25    2    1    2    0    0  0.68743978079E+02  0.26326343358E+02  0.50992856971E+03  0.53018366423E+03  0.12509500682E+03 0.  0.
         23    2    1    2    0    0 -0.68743978079E+02 -0.26326343358E+02  0.19263882019E+03  0.22509850290E+03  0.90226437838E+02 0.  0.
          5    1    3    3  502    0  0.81878514812E+02 -0.29745874588E+02  0.29336902220E+03  0.30605843205E+03  0.41800000000E+01 0. -1.
         -5    1    3    3    0  502 -0.13134536733E+02  0.56072217946E+02  0.21655954751E+03  0.22412523218E+03  0.41800000000E+01 0. -1.
        -11    1    4    4    0    0  0.12405902816E+01  0.27384768469E+02  0.57697389305E+02  0.63878426257E+02  0.00000000000E+00 0. -1.
         11    1    4    4    0    0 -0.69984568361E+02 -0.53711111828E+02  0.13494143089E+03  0.16122007664E+03  0.00000000000E+00 0.  1.
</event>
<event>
 8    1  0.6862919E-009  0.1166625E+03  0.7561462E-02  0.1248707E+00
         -1   -1    0    0    0  501 -0.00000000000E+00  0.00000000000E+00  0.40525281591E+02  0.40525281591E+02  0.00000000000E+00 0.  1.
          1   -1    0    0  501    0  0.00000000000E+00 -0.00000000000E+00 -0.54332222051E+03  0.54332222051E+03  0.00000000000E+00 0. -1.
         25    2    1    2    0    0 -0.56718173021E+02 -0.21837843079E+02 -0.11396742036E+03  0.17980589797E+03  0.12509094890E+03 0.  0.
         23    2    1    2    0    0  0.56718173021E+02  0.21837843079E+02 -0.38882951855E+03  0.40404160413E+03  0.91473388651E+02 0.  0.
          5    1    3    3  502    0 -0.29076537872E+02  0.43524379188E+02 -0.93735467257E+01  0.53339970159E+02  0.41800000000E+01 0. -1.
         -5    1    3    3    0  502 -0.27641635149E+02 -0.65362222267E+02 -0.10459387364E+03  0.12646592781E+03  0.41800000000E+01 0. -1.
        -11    1    4    4    0    0  0.40825644166E+01  0.49906648302E+02 -0.16896405531E+03  0.17622767338E+03  0.00000000000E+00 0. -1.
         11    1    4    4    0    0  0.52635608604E+02 -0.28068805223E+02 -0.21986546324E+03  0.22781393076E+03  0.00000000000E+00 0.  1.
</event>
<event>
 8    1  0.6862919E-009  0.1035051E+03  0.7561462E-02  0.1273093E+00
          2   -1    0    0  501    0  0.00000000000E+00  0.00000000000E+00  0.39853218165E+02  0.39853218165E+02  0.00000000000E+00 0. -1.
         -2   -1    0    0    0  501 -0.00000000000E+00 -0.00000000000E+00 -0.35568130695E+03  0.35568130695E+03  0.00000000000E+00 0.  1.
         25    2    1    2    0    0 -0.27422635238E+01 -0.43396192254E+02 -0.21580917871E+03  0.25320285049E+03  0.12508929758E+03 0.  0.
         23    2    1    2    0    0  0.27422635238E+01  0.43396192254E+02 -0.10001891007E+03  0.14233167462E+03  0.91453669786E+02 0.  0.
          5    1    3    3  502    0 -0.14932883255E+02  0.33739037918E+02 -0.13790745121E+03  0.14281894546E+03  0.41800000000E+01 0.  1.
         -5    1    3    3    0  502  0.12190619731E+02 -0.77135230171E+02 -0.77901727496E+02  0.11038390503E+03  0.41800000000E+01 0.  1.
        -11    1    4    4    0    0  0.35298150611E+01  0.67482436302E+02 -0.96749374840E+02  0.11801178049E+03  0.00000000000E+00 0.  1.
         11    1    4    4    0    0 -0.78755153733E+00 -0.24086244048E+02 -0.32695352349E+01  0.24319894129E+02  0.00000000000E+00 0. -1.
</event>
<event>
 8    1  0.6862919E-009  0.1046064E+03  0.7561462E-02  0.1270897E+00
         -2   -1    0    0    0  501 -0.00000000000E+00  0.00000000000E+00  0.13612218042E+03  0.13612218042E+03  0.00000000000E+00 0.  1.
          2   -1    0    0  501    0  0.00000000000E+00 -0.00000000000E+00 -0.14409229167E+03  0.14409229167E+03  0.00000000000E+00 0. -1.
         25    2    1    2    0    0  0.27800602123E+02 -0.21649283806E+02 -0.86567503581E+02  0.15614937515E+03  0.12508848755E+03 0.  0.
         23    2    1    2    0    0 -0.27800602123E+02  0.21649283806E+02  0.78597392331E+02  0.12406509694E+03  0.89291843025E+02 0.  0.
          5    1    3    3  502    0 -0.18285365741E+02  0.41412250610E+02 -0.97052751958E+01  0.46486491236E+02  0.41800000000E+01 0. -1.
         -5    1    3    3    0  502  0.46085967863E+02 -0.63061534416E+02 -0.76862228385E+02  0.10966288392E+03  0.41800000000E+01 0. -1.
        -11    1    4    4    0    0 -0.22426029340E+02  0.50989769533E+02  0.75854582631E+02  0.94110579082E+02  0.00000000000E+00 0.  1.
         11    1    4    4    0    0 -0.53745727830E+01 -0.29340485727E+02  0.27428096998E+01  0.29954517862E+02  0.00000000000E+00 0. -1.
</event>
<event>
 8    1  0.6862919E-009  0.6225207E+02  0.7561462E-02  0.1388617E+00
         -2   -1    0    0    0  501 -0.00000000000E+00  0.00000000000E+00  0.30422542109E+02  0.30422542109E+02  0.00000000000E+00 0. -1.
          2   -1    0    0  501    0  0.00000000000E+00 -0.00000000000E+00 -0.64720763875E+03  0.64720763875E+03  0.00000000000E+00 0.  1.
         25    2    1    2    0    0 -0.29935217069E+02 -0.62348119860E+01 -0.53941250446E+03  0.55457005237E+03  0.12508838042E+03 0.  0.
         23    2    1    2    0    0  0.29935217069E+02  0.62348119860E+01 -0.77372592177E+02  0.12306012849E+03  0.90676827808E+02 0.  0.
          5    1    3    3  502    0 -0.22546669490E+02  0.19142417952E+02 -0.23612366543E+02  0.38076248816E+02  0.41800000000E+01 0.  1.
         -5    1    3    3    0  502 -0.73885475790E+01 -0.25377229938E+02 -0.51580013792E+03  0.51649380356E+03  0.41800000000E+01 0.  1.
        -11    1    4    4    0    0  0.40170146716E+02  0.24417196598E+02 -0.44590823497E+01  0.47219949092E+02  0.00000000000E+00 0. -1.
         11    1    4    4    0    0 -0.10234929647E+02 -0.18182384612E+02 -0.72913509827E+02  0.75840179393E+02  0.00000000000E+00 0.  1.
</event>
<event>
 8    1  0.6862919E-009  0.1751928E+03  0.7561462E-02  0.1172538E+00
         -3   -1    0    0    0  501 -0.00000000000E+00  0.00000000000E+00  0.64642061258E+02  0.64642061258E+02  0.00000000000E+00 0.  1.
          3   -1    0    0  501    0  0.00000000000E+00 -0.00000000000E+00 -0.53676375740E+03  0.53676375740E+03  0.00000000000E+00 0. -1.
         25    2    1    2    0    0 -0.12737379465E+03  0.78395803383E+02 -0.21659899048E+03  0.29143435113E+03  0.12509545471E+03 0.  0.
         23    2    1    2    0    0  0.12737379465E+03 -0.78395803383E+02 -0.25552270566E+03  0.30997146752E+03  0.91763129970E+02 0.  0.
          5    1    3    3  502    0 -0.10402090083E+03  0.98956760321E+02 -0.11174472366E+03  0.18198116355E+03  0.41800000000E+01 0.  1.
         -5    1    3    3    0  502 -0.23352893824E+02 -0.20560956938E+02 -0.10485426683E+03  0.10945318758E+03  0.41800000000E+01 0.  1.
        -11    1    4    4    0    0  0.57849003321E+02 -0.87858605229E+02 -0.15869621365E+03  0.19039466884E+03  0.00000000000E+00 0. -1.
         11    1    4    4    0    0  0.69524791328E+02  0.94628018457E+01 -0.96826492009E+02  0.11957679868E+03  0.00000000000E+00 0.  1.
</event>
<event>
 8    1  0.6862919E-009  0.9952969E+02  0.7561462E-02  0.1281288E+00
          1   -1    0    0  501    0  0.00000000000E+00  0.00000000000E+00  0.20471254597E+03  0.20471254597E+03  0.00000000000E+00 0. -1.
         -1   -1    0    0    0  501 -0.00000000000E+00 -0.00000000000E+00 -0.11054187780E+03  0.11054187780E+03  0.00000000000E+00 0.  1.
         25    2    1    2    0    0  0.22339296264E+02  0.59894349916E+02  0.13730678851E+03  0.19643440480E+03  0.12508774483E+03 0.  0.
         23    2    1    2    0    0 -0.22339296264E+02 -0.59894349916E+02 -0.43136120335E+02  0.11882001897E+03  0.90394107784E+02 0.  0.
          5    1    3    3  502    0 -0.31648599686E+02 -0.56994516540E+01 -0.27800149752E+01  0.32547173372E+02  0.41800000000E+01 0. -1.
         -5    1    3    3    0  502  0.53987895951E+02  0.65593801570E+02  0.14008680348E+03  0.16388723142E+03  0.41800000000E+01 0. -1.
        -11    1    4    4    0    0  0.15576296912E+02 -0.86158300284E+01 -0.51510010744E+02  0.54498942737E+02  0.00000000000E+00 0.  1.
         11    1    4    4    0    0 -0.37915593176E+02 -0.51278519887E+02  0.83738904098E+01  0.64321076237E+02  0.00000000000E+00 0. -1.
</event>
<event>
 8    1  0.6862919E-009  0.1028706E+03  0.7561462E-02  0.1274373E+00
          4   -1    0    0  501    0  0.00000000000E+00  0.00000000000E+00  0.23766535116E+03  0.23766535116E+03  0.00000000000E+00 0. -1.
         -4   -1    0    0    0  501 -0.00000000000E+00 -0.00000000000E+00 -0.60139418328E+02  0.60139418328E+02  0.00000000000E+00 0.  1.
         25    2    1    2    0    0 -0.38086254331E+02  0.18318687119E+02  0.13243272784E+03  0.18700857231E+03  0.12509053380E+03 0.  0.
         23    2    1    2    0    0  0.38086254331E+02 -0.18318687119E+02  0.45093204989E+02  0.11079619718E+03  0.91957942052E+02 0.  0.
          5    1    3    3  502    0 -0.76464508873E+02 -0.43886589013E+01  0.45414511923E+02  0.89140516811E+02  0.41800000000E+01 0. -1.
         -5    1    3    3    0  502  0.38378254542E+02  0.22707346021E+02  0.87018215920E+02  0.97868055498E+02  0.41800000000E+01 0. -1.
        -11    1    4    4    0    0  0.20180517647E+02 -0.46596273601E+02 -0.44867016794E+01  0.50976430808E+02  0.00000000000E+00 0.  1.
         11    1    4    4    0    0  0.17905736684E+02  0.28277586482E+02  0.49579906668E+02  0.59819766371E+02  0.00000000000E+00 0. -1.
</event>
<event>
 8    1  0.6862919E-009  0.1114849E+03  0.7561462E-02  0.1257845E+00
          2   -1    0    0  501    0  0.00000000000E+00  0.00000000000E+00  0.29801069471E+03  0.29801069471E+03  0.00000000000E+00 0. -1.
         -2   -1    0    0    0  501 -0.00000000000E+00 -0.00000000000E+00 -0.47544397071E+02  0.47544397071E+02  0.00000000000E+00 0.  1.
         25    2    1    2    0    0 -0.48081767473E+02 -0.15027009955E+02  0.15847017035E+03  0.20808157637E+03  0.12508988825E+03 0.  0.
         23    2    1    2    0    0  0.48081767473E+02  0.15027009955E+02  0.91996127285E+02  0.13747351540E+03  0.88870763531E+02 0.  0.
          5    1    3    3  502    0 -0.37720318925E+02 -0.62027168861E+02  0.46973759433E+02  0.86569039569E+02  0.41800000000E+01 0.  1.
         -5    1    3    3    0  502 -0.10361448548E+02  0.47000158905E+02  0.11149641092E+03  0.12151253680E+03  0.41800000000E+01 0.  1.
        -11    1    4    4    0    0  0.69904325213E+02 -0.78303628547E+01  0.67498006589E+02  0.97488000079E+02  0.00000000000E+00 0.  1.
         11    1    4    4    0    0 -0.21822557741E+02  0.22857372810E+02  0.24498120696E+02  0.39985515324E+02  0.00000000000E+00 0. -1.
</event>
<event>
 8    1  0.6862919E-009  0.1120175E+03  0.7561462E-02  0.1256879E+00
          2   -1    0    0  501    0  0.00000000000E+00  0.00000000000E+00  0.38041922751E+03  0.38041922751E+03  0.00000000000E+00 0. -1.
         -2   -1    0    0    0  501 -0.00000000000E+00 -0.00000000000E+00 -0.61377900128E+02  0.61377900128E+02  0.00000000000E+00 0.  1.
         25    2    1    2    0    0 -0.94531364853E+02  0.12841982885E+02  0.24428326413E+03  0.29055607229E+03  0.12508965803E+03 0.  0.
         23    2    1    2    0    0  0.94531364853E+02 -0.12841982885E+02  0.74758063255E+02  0.15124105535E+03  0.90465426193E+02 0.  0.
          5    1    3    3  502    0 -0.82484018982E+01 -0.30367736423E+02  0.15762916469E+03  0.16079384786E+03  0.41800000000E+01 0.  1.
         -5    1    3    3    0  502 -0.86282962955E+02  0.43209719307E+02  0.86654099439E+02  0.12976222443E+03  0.41800000000E+01 0.  1.
        -11    1    4    4    0    0  0.34007984334E+02 -0.94812402602E+00  0.82344018139E+02  0.89095338043E+02  0.00000000000E+00 0. -1.
         11    1    4    4    0    0  0.60523380520E+02 -0.11893858859E+02 -0.75859548847E+01  0.62145717307E+02  0.00000000000E+00 0.  1.
</event>
<event>
 8    1  0.6862919E-009  0.1269236E+03  0.7561462E-02  0.1232093E+00
          2   -1    0    0  501    0  0.00000000000E+00  0.00000000000E+00  0.11915834820E+03  0.11915834820E+03  0.00000000000E+00 0. -1.
         -2   -1    0    0    0  501 -0.00000000000E+00 -0.00000000000E+00 -0.19279307800E+03  0.19279307800E+03  0.00000000000E+00 0.  1.
         25    2    1    2    0    0  0.28247868005E+02 -0.10125416416E+03 -0.19505436052E+02  0.16455514938E+03  0.12509031676E+03 0.  0.
         23    2    1    2    0    0 -0.28247868005E+02  0.10125416416E+03 -0.54129293740E+02  0.14739627681E+03  0.88007580193E+02 0.  0.
          5    1    3    3  502    0  0.64059887894E+02 -0.78800664315E+02  0.23274085817E+02  0.10427065457E+03  0.41800000000E+01 0. -1.
         -5    1    3    3    0  502 -0.35812019889E+02 -0.22453499845E+02 -0.42779521869E+02  0.60284494815E+02  0.41800000000E+01 0. -1.
        -11    1    4    4    0    0 -0.23013175063E+02  0.27789923286E+02  0.21360303008E+02  0.41930282700E+02  0.00000000000E+00 0. -1.
         11    1    4    4    0    0 -0.52346929428E+01  0.73464240874E+02 -0.75489596748E+02  0.10546599411E+03  0.00000000000E+00 0.  1.
</event>
<event>
 8    1  0.6862919E-009  0.1134584E+03  0.7561462E-02  0.1254296E+00
          2   -1    0    0  501    0  0.00000000000E+00  0.00000000000E+00  0.12362613484E+03  0.12362613484E+03  0.00000000000E+00 0. -1.
         -2   -1    0    0    0  501 -0.00000000000E+00 -0.00000000000E+00 -0.19285703573E+03  0.19285703573E+03  0.00000000000E+00 0.  1.
         25    2    1    2    0    0  0.21047914386E+02 -0.93452840089E+02 -0.93516929845E+02  0.18322003554E+03  0.12509083594E+03 0.  0.
         23    2    1    2    0    0 -0.21047914386E+02  0.93452840089E+02  0.24286028955E+02  0.13326313503E+03  0.89402482819E+02 0.  0.
          5    1    3    3  502    0  0.15866998758E+02  0.10990461326E+02 -0.74217551172E+02  0.76800190050E+02  0.41800000000E+01 0. -1.
         -5    1    3    3    0  502  0.51809156278E+01 -0.10444330142E+03 -0.19299378673E+02  0.10641984549E+03  0.41800000000E+01 0. -1.
        -11    1    4    4    0    0  0.65150157127E+01  0.53963023638E+02  0.54046588670E+02  0.76651725987E+02  0.00000000000E+00 0. -1.
         11    1    4    4    0    0 -0.27562930098E+02  0.39489816451E+02 -0.29760559715E+02  0.56611409040E+02  0.00000000000E+00 0.  1.
</event>
<event>
 7    1  0.6862919E-009  0.8842141E+02  0.7561462E-02  0.1306720E+00
         -2   -1    0    0    0  501 -0.00000000000E+00  0.00000000000E+00  0.10945012502E+03  0.10945012502E+03  0.00000000000E+00 0.  1.
          2   -1    0    0  501    0  0.00000000000E+00 -0.00000000000E+00 -0.12267417762E+03  0.12267417762E+03  0.00000000000E+00 0. -1.
         23    2    1    2    0    0 -0.12609375793E+02 -0.39492650988E+02 -0.62469548259E+01  0.10067276202E+03  0.91527671924E+02 0.  0.
          5    1    1    2  502    0  0.46023817686E+02 -0.20284903510E+02 -0.30442415612E+02  0.58939648566E+02  0.41800000000E+01 0.  1.
         -5    1    1    2    0  502 -0.33414441893E+02  0.59777554497E+02  0.23465317842E+02  0.72511892060E+02  0.41800000000E+01 0.  1.
        -11    1    3    3    0    0 -0.25812891816E+02 -0.14780158444E+02  0.38026637963E+02  0.48278190338E+02  0.00000000000E+00 0.  1.
         11    1    3    3    0    0  0.13203516023E+02 -0.24712492544E+02 -0.44273592789E+02  0.52394571680E+02  0.00000000000E+00 0. -1.
</event>
<event>
 8    1  0.6862919E-009  0.4962126E+02  0.7561462E-02  0.1447395E+00
          1   -1    0    0  501    0  0.00000000000E+00  0.00000000000E+00  0.42794086624E+03  0.42794086624E+03  0.00000000000E+00 0. -1.
         -1   -1    0    0    0  501 -0.00000000000E+00 -0.00000000000E+00 -0.29354945038E+02  0.29354945038E+02  0.00000000000E+00 0.  1.
         25    2    1    2    0    0 -0.10310120754E+02  0.18353032260E+02  0.27437346437E+03  0.30227475770E+03  0.12508436676E+03 0.  0.
         23    2    1    2    0    0  0.10310120754E+02 -0.18353032260E+02  0.12421245683E+03  0.15502105358E+03  0.90330837686E+02 0.  0.
          5    1    3    3  502    0 -0.17926294340E+02  0.34988231042E+02  0.15095903825E+02  0.42318873479E+02  0.41800000000E+01 0. -1.
         -5    1    3    3    0  502  0.76161735853E+01 -0.16635198782E+02  0.25927756055E+03  0.25995588422E+03  0.41800000000E+01 0. -1.
        -11    1    4    4    0    0 -0.90940503589E+01  0.51589829850E+01 -0.11723632375E+02  0.15708609532E+02  0.00000000000E+00 0.  1.
         11    1    4    4    0    0  0.19404171113E+02 -0.23512015245E+02  0.13593608920E+03  0.13931244404E+03  0.00000000000E+00 0. -1.
</event>
<event>
 8    1  0.6862919E-009  0.1268162E+03  0.7561462E-02  0.1232258E+00
          1   -1    0    0  501    0  0.00000000000E+00  0.00000000000E+00  0.11996108386E+03  0.11996108386E+03  0.00000000000E+00 0. -1.
         -1   -1    0    0    0  501 -0.00000000000E+00 -0.00000000000E+00 -0.27176192462E+03  0.27176192462E+03  0.00000000000E+00 0.  1.
         25    2    1    2    0    0 -0.69462074231E+02  0.13889572066E+02  0.55450430259E+02  0.15408306437E+03  0.12509572551E+03 0.  0.
         23    2    1    2    0    0  0.69462074231E+02 -0.13889572066E+02 -0.20725127103E+03  0.23763994411E+03  0.92204954996E+02 0.  0.
          5    1    3    3  502    0  0.18839785058E+02 -0.35676991229E+02  0.49905488981E+01  0.40867630008E+02  0.41800000000E+01 0.  1.
         -5    1    3    3    0  502 -0.88301859289E+02  0.49566563295E+02  0.50459881361E+02  0.11321543436E+03  0.41800000000E+01 0.  1.
        -11    1    4    4    0    0  0.55976887084E+02 -0.48822364720E+02 -0.16639106991E+03  0.18221696774E+03  0.00000000000E+00 0.  1.
         11    1    4    4    0    0  0.13485187147E+02  0.34932792655E+02 -0.40860201115E+02  0.55422976375E+02  0.00000000000E+00 0. -1.
</event>
<event>
 8    1  0.6862919E-009  0.1321248E+03  0.7561462E-02  0.1224337E+00
         -1   -1    0    0    0  501 -0.00000000000E+00  0.00000000000E+00  0.10676203267E+03  0.10676203267E+03  0.00000000000E+00 0. -1.
          1   -1    0    0  501    0  0.00000000000E+00 -0.00000000000E+00 -0.26519032944E+03  0.26519032944E+03  0.00000000000E+00 0.  1.
         25    2    1    2    0    0 -0.31831070848E+02  0.11616545356E+03 -0.13367511713E+03  0.21914335343E+03  0.12508853961E+03 0.  0.
         23    2    1    2    0    0  0.31831070848E+02 -0.11616545356E+03 -0.24753179641E+02  0.15280900868E+03  0.90720689803E+02 0.  0.
          5    1    3    3  502    0  0.65516567361E+01  0.43200424478E+02 -0.12922121064E+03  0.13647268796E+03  0.41800000000E+01 0.  1.
         -5    1    3    3    0  502 -0.38382727584E+02  0.72965029086E+02 -0.44539064926E+01  0.82670665471E+02  0.41800000000E+01 0.  1.
        -11    1    4    4    0    0  0.39077085922E+02 -0.25082506699E+02 -0.38615206869E+02  0.60392756089E+02  0.00000000000E+00 0.  1.
         11    1    4    4    0    0 -0.72460150738E+01 -0.91082946866E+02  0.13862027228E+02  0.92416252592E+02  0.00000000000E+00 0. -1.
</event>
<event>
 8    1  0.6862919E-009  0.1404294E+03  0.7561462E-02  0.1212752E+00
         -2   -1    0    0    0  501 -0.00000000000E+00  0.00000000000E+00  0.23108964486E+02  0.23108964486E+02  0.00000000000E+00 0.  1.
          2   -1    0    0  501    0  0.00000000000E+00 -0.00000000000E+00 -0.10401156846E+04  0.10401156846E+04  0.00000000000E+00 0. -1.
         25    2    1    2    0    0  0.60752849967E+02  0.79119876118E+02 -0.45568534446E+03  0.48295712589E+03  0.12509032224E+03 0.  0.
         23    2    1    2    0    0 -0.60752849967E+02 -0.79119876118E+02 -0.56132137570E+03  0.58026752324E+03  0.10806409271E+03 0.  0.
          5    1    3    3  502    0 -0.26487932772E+02  0.41723792202E+02 -0.70313973925E+02  0.86046573130E+02  0.41800000000E+01 0. -1.
         -5    1    3    3    0  502  0.87240782739E+02  0.37396083916E+02 -0.38537137053E+03  0.39691055276E+03  0.41800000000E+01 0. -1.
        -11    1    4    4    0    0 -0.17660153320E+02 -0.90073080411E+02 -0.46773233254E+03  0.47665351749E+03  0.00000000000E+00 0. -1.
         11    1    4    4    0    0 -0.43092696647E+02  0.10953204293E+02 -0.93589043163E+02  0.10361400576E+03  0.00000000000E+00 0.  1.
</event>
<event>
 8    1  0.6862919E-009  0.1126570E+03  0.7561462E-02  0.1255727E+00
         -2   -1    0    0    0  501 -0.00000000000E+00  0.00000000000E+00  0.25987645937E+02  0.25987645937E+02  0.00000000000E+00 0.  1.
          2   -1    0    0  501    0  0.00000000000E+00 -0.00000000000E+00 -0.49828553476E+03  0.49828553476E+03  0.00000000000E+00 0. -1.
         25    2    1    2    0    0 -0.86653824191E+01 -0.40417695220E+02 -0.27643581132E+03  0.30622181673E+03  0.12508542809E+03 0.  0.
         23    2    1    2    0    0  0.86653824191E+01  0.40417695220E+02 -0.19586207750E+03  0.21805136397E+03  0.86462506245E+02 0.  0.
          5    1    3    3  502    0 -0.45160644382E+02 -0.69349847136E+02 -0.20177247889E+03  0.21812494295E+03  0.41800000000E+01 0.  1.
         -5    1    3    3    0  502  0.36495261963E+02  0.28932151916E+02 -0.74663332434E+02  0.88096873783E+02  0.41800000000E+01 0.  1.
        -11    1    4    4    0    0 -0.34622284149E+02 -0.25280378825E+01 -0.65382310182E+02  0.74026616970E+02  0.00000000000E+00 0. -1.
         11    1    4    4    0    0  0.43287666568E+02  0.42945733102E+02 -0.13047976732E+03  0.14402474700E+03  0.00000000000E+00 0.  1.
</event>
<event>
 8    1  0.6862919E-009  0.9056002E+02  0.7561462E-02  0.1301501E+00
         -3   -1    0    0    0  501 -0.00000000000E+00  0.00000000000E+00  0.54878849866E+03  0.54878849866E+03  0.00000000000E+00 0.  1.
          3   -1    0    0  501    0  0.00000000000E+00 -0.00000000000E+00 -0.33102370775E+02  0.33102370775E+02  0.00000000000E+00 0. -1.
         25    2    1    2    0    0  0.34226674326E+02  0.33496000695E+02  0.14663394167E+03  0.19859790619E+03  0.12508464411E+03 0.  0.
         23    2    1    2    0    0 -0.34226674326E+02 -0.33496000695E+02  0.36905218622E+03  0.38329296325E+03  0.91763458035E+02 0.  0.
          5    1    3    3  502    0  0.54835911966E+02  0.41753208072E+02  0.15863872688E+03  0.17301452451E+03  0.41800000000E+01 0.  1.
         -5    1    3    3    0  502 -0.20609237640E+02 -0.82572073768E+01 -0.12004785212E+02  0.25583381672E+02  0.41800000000E+01 0.  1.
        -11    1    4    4    0    0  0.20754311985E+02 -0.27089585054E+02  0.57520653928E+02  0.66882080654E+02  0.00000000000E+00 0. -1.
         11    1    4    4    0    0 -0.54980986311E+02 -0.64064156413E+01  0.31153153229E+03  0.31641088260E+03  0.00000000000E+00 0.  1.
</event>
<event>
 8    1  0.6862919E-009  0.1164511E+03  0.7561462E-02  0.1249069E+00
          1   -1    0    0  501    0  0.00000000000E+00  0.00000000000E+00  0.71097615665E+02  0.71097615665E+02  0.00000000000E+00 0. -1.
         -1   -1    0    0    0  501 -0.00000000000E+00 -0.00000000000E+00 -0.26125402122E+03  0.26125402122E+03  0.00000000000E+00 0.  1.
         25    2    1    2    0    0  0.44154429399E+02 -0.55491146392E+02 -0.54844843983E+02  0.15389471458E+03  0.12508695096E+03 0.  0.
         23    2    1    2    0    0 -0.44154429399E+02  0.55491146392E+02 -0.13531156158E+03  0.17845692231E+03  0.92243013077E+02 0.  0.
          5    1    3    3  502    0  0.66566563026E+02 -0.63402112677E+01 -0.70738519938E+02  0.97430571152E+02  0.41800000000E+01 0. -1.
         -5    1    3    3    0  502 -0.22412133627E+02 -0.49150935124E+02  0.15893675955E+02  0.56464143424E+02  0.41800000000E+01 0. -1.
        -11    1    4    4    0    0  0.86330699226E+01 -0.18741866863E+02 -0.48147895077E+02  0.52383272809E+02  0.00000000000E+00 0. -1.
         11    1    4    4    0    0 -0.52787499322E+02  0.74233013255E+02 -0.87163666500E+02  0.12607364950E+03  0.00000000000E+00 0.  1.
</event>
<event>
 8    1  0.6862919E-009  0.1238308E+03  0.7561462E-02  0.1236908E+00
         -1   -1    0    0    0  501 -0.00000000000E+00  0.00000000000E+00  0.84482910720E+02  0.84482910720E+02  0.00000000000E+00 0.  1.
          1   -1    0    0  501    0  0.00000000000E+00 -0.00000000000E+00 -0.26171179089E+03  0.26171179089E+03  0.00000000000E+00 0. -1.
         25    2    1    2    0    0  0.76697404537E+02 -0.73490698859E+02 -0.73218615650E+02  0.17970075398E+03  0.12509204859E+03 0.  0.
         23    2    1    2    0    0 -0.76697404537E+02  0.73490698859E+02 -0.10401026452E+03  0.16649394764E+03  0.74958153604E+02 0.  0.
          5    1    3    3  502    0  0.78039087829E+02 -0.30251509678E+02  0.11399870209E+02  0.84573533140E+02  0.41800000000E+01 0. -1.
         -5    1    3    3    0  502 -0.13416832924E+01 -0.43239189181E+02 -0.84618485859E+02  0.95127220837E+02  0.41800000000E+01 0. -1.
        -11    1    4    4    0    0 -0.74746016618E+02  0.36189285452E+02 -0.39525595839E+02  0.91972300766E+02  0.00000000000E+00 0.  1.
         11    1    4    4    0    0 -0.19513879195E+01  0.37301413408E+02 -0.64484668683E+02  0.74521646870E+02  0.00000000000E+00 0. -1.
</event>
<event>
 8    1  0.6862919E-009  0.1179416E+03  0.7561462E-02  0.1246532E+00
         -2   -1    0    0    0  501 -0.00000000000E+00  0.00000000000E+00  0.75039794509E+02  0.75039794509E+02  0.00000000000E+00 0.  1.
          2   -1    0    0  501    0  0.00000000000E+00 -0.00000000000E+00 -0.21117693456E+03  0.21117693456E+03  0.00000000000E+00 0. -1.
         25    2    1    2    0    0  0.24497821500E+02 -0.55591383275E+02 -0.61657062355E+02  0.15212908803E+03  0.12510444011E+03 0.  0.
         23    2    1    2    0    0 -0.24497821500E+02  0.55591383275E+02 -0.74480077692E+02  0.13408764103E+03  0.93496889532E+02 0.  0.
          5    1    3    3  502    0  0.68963675776E+02 -0.22628667132E+02 -0.50955371882E+01  0.72879915285E+02  0.41800000000E+01 0.  1.
         -5    1    3    3    0  502 -0.44465854275E+02 -0.32962716143E+02 -0.56561525167E+02  0.79249172748E+02  0.41800000000E+01 0.  1.
        -11    1    4    4    0    0 -0.46273572019E+02 -0.17799992063E+01 -0.15128688275E+02  0.48716414825E+02  0.00000000000E+00 0.  1.
         11    1    4    4    0    0  0.21775750518E+02  0.57371382481E+02 -0.59351389417E+02  0.85371226207E+02  0.00000000000E+00 0. -1.
</event>
<event>
 8    1  0.6862919E-009  0.8593967E+02  0.7561462E-02  0.1312993E+00
          1   -1    0    0  501    0  0.00000000000E+00  0.00000000000E+00  0.57984969591E+02  0.57984969591E+02  0.00000000000E+00 0. -1.
         -1   -1    0    0    0  501 -0.00000000000E+00 -0.00000000000E+00 -0.23263689224E+03  0.23263689224E+03  0.00000000000E+00 0.  1.
         25    2    1    2    0    0 -0.13858401286E+01  0.12205058021E+02 -0.51035715701E+02  0.13565643702E+03  0.12508853119E+03 0.  0.
         23    2    1    2    0    0  0.13858401286E+01 -0.12205058021E+02 -0.12361620695E+03  0.15496542481E+03  0.92641417690E+02 0.  0.
          5    1    3    3  502    0 -0.76356543641E+01 -0.46647491384E+02 -0.59085814622E+02  0.75781907864E+02  0.41800000000E+01 0.  1.
         -5    1    3    3    0  502  0.62498142355E+01  0.58852549405E+02  0.80500989214E+01  0.59874529159E+02  0.41800000000E+01 0.  1.
        -11    1    4    4    0    0 -0.29889287947E+02  0.35093445495E+01 -0.11506424863E+03  0.11893471464E+03  0.00000000000E+00 0.  1.
         11    1    4    4    0    0  0.31275128076E+02 -0.15714402570E+02 -0.85519583180E+01  0.36030710170E+02  0.00000000000E+00 0. -1.
</event>
<event>
 8    1  0.6862919E-009  0.1344677E+03  0.7561462E-02  0.1220973E+00
          1   -1    0    0  501    0  0.00000000000E+00  0.00000000000E+00  0.17849018738E+03  0.17849018738E+03  0.00000000000E+00 0. -1.
         -1   -1    0    0    0  501 -0.00000000000E+00 -0.00000000000E+00 -0.11715081798E+03  0.11715081798E+03  0.00000000000E+00 0.  1.
         25    2    1    2    0    0 -0.70846547085E+02  0.61486834953E+02  0.31826810530E+02  0.15956629597E+03  0.12509433574E+03 0.  0.
         23    2    1    2    0    0  0.70846547085E+02 -0.61486834953E+02  0.29512558864E+02  0.13607470939E+03  0.94050365758E+02 0.  0.
          5    1    3    3  502    0 -0.26245197857E+02 -0.26603064517E+02  0.46343040995E+02  0.59679839987E+02  0.41800000000E+01 0.  1.
         -5    1    3    3    0  502 -0.44601349228E+02  0.88089899470E+02 -0.14516230465E+02  0.99886455982E+02  0.41800000000E+01 0.  1.
        -11    1    4    4    0    0  0.92208844055E+02 -0.35356735159E+02  0.17781921048E+02  0.10034324272E+03  0.00000000000E+00 0.  1.
         11    1    4    4    0    0 -0.21362296971E+02 -0.26130099794E+02  0.11730637817E+02  0.35731466674E+02  0.00000000000E+00 0. -1.
</event>
<event>
 8    1  0.6862919E-009  0.1522300E+03  0.7561462E-02  0.1197759E+00
         -1   -1    0    0    0  501 -0.00000000000E+00  0.00000000000E+00  0.37922494493E+02  0.37922494493E+02  0.00000000000E+00 0. -1.
          1   -1    0    0  501    0  0.00000000000E+00 -0.00000000000E+00 -0.66197069734E+03  0.66197069734E+03  0.00000000000E+00 0.  1.
         25    2    1    2    0    0 -0.10190925629E+03  0.33400317424E+02 -0.42732781594E+03  0.45799297201E+03  0.12508965752E+03 0.  0.
         23    2    1    2    0    0  0.10190925629E+03 -0.33400317424E+02 -0.19672038690E+03  0.24190021981E+03  0.91190613556E+02 0.  0.
          5    1    3    3  502    0 -0.25826163608E+01 -0.40310728291E+02 -0.11984487615E+03  0.12653810281E+03  0.41800000000E+01 0.  1.
         -5    1    3    3    0  502 -0.99326639929E+02  0.73711045715E+02 -0.30748293979E+03  0.33145486921E+03  0.41800000000E+01 0.  1.
        -11    1    4    4    0    0  0.10705397829E+03 -0.76932874441E+00 -0.13972101341E+03  0.17602019124E+03  0.00000000000E+00 0. -1.
         11    1    4    4    0    0 -0.51447220006E+01 -0.32630988679E+02 -0.56999373496E+02  0.65880028579E+02  0.00000000000E+00 0.  1.
</event>
<event>
 8    1  0.6862919E-009  0.1079933E+03  0.7561462E-02  0.1264332E+00
         -1   -1    0    0    0  501 -0.00000000000E+00  0.00000000000E+00  0.26730552799E+03  0.26730552799E+03  0.00000000000E+00 0.  1.
          1   -1    0    0  501    0  0.00000000000E+00 -0.00000000000E+00 -0.48628517166E+02  0.48628517166E+02  0.00000000000E+00 0. -1.
         25    2    1    2    0    0  0.80267647405E+01  0.22284942080E+02  0.16203315616E+03  0.20606395668E+03  0.12508622208E+03 0.  0.
         23    2    1    2    0    0 -0.80267647405E+01 -0.22284942080E+02  0.56643854670E+02  0.10987008847E+03  0.91114556870E+02 0.  0.
          5    1    3    3  502    0  0.71469154221E+01  0.74434739223E+02  0.91538509917E+02  0.11827248201E+03  0.41800000000E+01 0. -1.
         -5    1    3    3    0  502  0.87984931841E+00 -0.52149797143E+02  0.70494646238E+02  0.87791474672E+02  0.41800000000E+01 0. -1.
        -11    1    4    4    0    0 -0.46850763916E+02 -0.15554265635E+02  0.12954520156E+02  0.51036740212E+02  0.00000000000E+00 0. -1.
         11    1    4    4    0    0  0.38823999176E+02 -0.67306764452E+01  0.43689334514E+02  0.58833348262E+02  0.00000000000E+00 0.  1.
</event>
<event>
 8    1  0.6862919E-009  0.1838419E+03  0.7561462E-02  0.1164136E+00
         -2   -1    0    0    0  501 -0.00000000000E+00  0.00000000000E+00  0.55161406255E+03  0.55161406255E+03  0.00000000000E+00 0. -1.
          2   -1    0    0  501    0  0.00000000000E+00 -0.00000000000E+00 -0.10594505418E+03  0.10594505418E+03  0.00000000000E+00 0.  1.
         25    2    1    2    0    0 -0.24955783963E+02  0.17211192762E+03  0.40443813215E+03  0.45767137693E+03  0.12509028634E+03 0.  0.
         23    2    1    2    0    0  0.24955783963E+02 -0.17211192762E+03  0.41230876218E+02  0.19988773981E+03  0.89497578690E+02 0.  0.
          5    1    3    3  502    0 -0.68772060793E+01  0.65165688868E+01 -0.78425883330E+01  0.12990004822E+02  0.41800000000E+01 0.  1.
         -5    1    3    3    0  502 -0.18078577884E+02  0.16559535873E+03  0.41228072049E+03  0.44468137210E+03  0.41800000000E+01 0.  1.
        -11    1    4    4    0    0 -0.28487122687E+02 -0.66041434885E+02  0.37368226874E+02  0.81051660442E+02  0.00000000000E+00 0. -1.
         11    1    4    4    0    0  0.53442906651E+02 -0.10607049273E+03  0.38626493443E+01  0.11883607937E+03  0.00000000000E+00 0.  1.
</event>
<event>
 8    1  0.6862919E-009  0.1005108E+03  0.7561462E-02  0.1279225E+00
          2   -1    0    0  501    0  0.00000000000E+00  0.00000000000E+00  0.46851532054E+03  0.46851532054E+03  0.00000000000E+00 0. -1.
         -2   -1    0    0    0  501 -0.00000000000E+00 -0.00000000000E+00 -0.30457487530E+02  0.30457487530E+02  0.00000000000E+00 0.  1.
         25    2    1    2    0    0 -0.48659304248E+02  0.62657331617E+01  0.24720888246E+03  0.28136596039E+03  0.12509030657E+03 0.  0.
         23    2    1    2    0    0  0.48659304248E+02 -0.62657331617E+01  0.19084895055E+03  0.21760684768E+03  0.92317013211E+02 0.  0.
          5    1    3    3  502    0 -0.35448208558E+02 -0.43384047801E+02  0.21105422567E+03  0.21840354774E+03  0.41800000000E+01 0. -1.
         -5    1    3    3    0  502 -0.13211095691E+02  0.49649780962E+02  0.36154656787E+02  0.62962412647E+02  0.41800000000E+01 0. -1.
        -11    1    4    4    0    0 -0.11690558630E+02  0.23317219322E+02  0.16785056240E+02  0.31017736716E+02  0.00000000000E+00 0.  1.
         11    1    4    4    0    0  0.60349862879E+02 -0.29582952484E+02  0.17406389431E+03  0.18658911096E+03  0.00000000000E+00 0. -1.
</event>
<event>
 8    1  0.6862919E-009  0.9348113E+02  0.7561462E-02  0.1294634E+00
         -1   -1    0    0    0  501 -0.00000000000E+00  0.00000000000E+00  0.86516987057E+02  0.86516987057E+02  0.00000000000E+00 0.  1.
          1   -1    0    0  501    0  0.00000000000E+00 -0.00000000000E+00 -0.17117175931E+03  0.17117175931E+03  0.00000000000E+00 0. -1.
         25    2    1    2    0    0 -0.54271772192E+02  0.68450816738E+01 -0.46473896597E+02  0.14422069970E+03  0.12508999464E+03 0.  0.
         23    2    1    2    0    0  0.54271772192E+02 -0.68450816738E+01 -0.38180875653E+02  0.11346804666E+03  0.91787460728E+02 0.  0.
          5    1    3    3  502    0  0.13507307026E+02  0.49358912467E+02  0.50158817288E+00  0.51346602358E+02  0.41800000000E+01 0. -1.
         -5    1    3    3    0  502 -0.67779079218E+02 -0.42513830794E+02 -0.46975484770E+02  0.92874097346E+02  0.41800000000E+01 0. -1.
        -11    1    4    4    0    0  0.40459735494E+02 -0.91901859895E+01 -0.68490386334E+02  0.80077354695E+02  0.00000000000E+00 0. -1.
         11    1    4    4    0    0  0.13812036698E+02  0.23451043157E+01  0.30309510682E+02  0.33390691963E+02  0.00000000000E+00 0.  1.
</event>
<event>
 8    1  0.6862919E-009  0.1069809E+03  0.7561462E-02  0.1266265E+00
          1   -1    0    0  501    0  0.00000000000E+00  0.00000000000E+00  0.10659614244E+03  0.10659614244E+03  0.00000000000E+00 0. -1.
         -1   -1    0    0    0  501 -0.00000000000E+00 -0.00000000000E+00 -0.14174771819E+03  0.14174771819E+03  0.00000000000E+00 0.  1.
         25    2    1    2    0    0 -0.30397626658E+02 -0.47717082848E+02 -0.15575688592E+02  0.13817244632E+03  0.12509231449E+03 0.  0.
         23    2    1    2    0    0  0.30397626658E+02  0.47717082848E+02 -0.19575887162E+02  0.11017141432E+03  0.92485617650E+02 0.  0.
          5    1    3    3  502    0  0.44472813501E+02 -0.17097417619E+02  0.17153613802E+02  0.50812121550E+02  0.41800000000E+01 0. -1.
         -5    1    3    3    0  502 -0.74870440159E+02 -0.30619665229E+02 -0.32729302394E+02  0.87360324768E+02  0.41800000000E+01 0. -1.
        -11    1    4    4    0    0 -0.72242450155E+01 -0.12321299403E+02  0.23319605535E+02  0.27346080840E+02  0.00000000000E+00 0. -1.
         11    1    4    4    0    0  0.37621871674E+02  0.60038382251E+02 -0.42895492697E+02  0.82825333476E+02  0.00000000000E+00 0.  1.
</event>
<event>
 8    1  0.6862919E-009  0.1181342E+03  0.7561462E-02  0.1246207E+00
          2   -1    0    0  501    0  0.00000000000E+00  0.00000000000E+00  0.61096908675E+03  0.61096908675E+03  0.00000000000E+00 0. -1.
         -2   -1    0    0    0  501 -0.00000000000E+00 -0.00000000000E+00 -0.42167870026E+02  0.42167870026E+02  0.00000000000E+00 0.  1.
         25    2    1    2    0    0 -0.75289423126E+02 -0.87012688530E+02  0.35602473298E+03  0.39451372392E+03  0.12509101753E+03 0.  0.
         23    2    1    2    0    0  0.75289423126E+02  0.87012688530E+02  0.21277648374E+03  0.25862323285E+03  0.91501034632E+02 0.  0.
          5    1    3    3  502    0 -0.59569824994E+02 -0.42768183108E+02  0.60236104752E+02  0.94992327331E+02  0.41800000000E+01 0. -1.
         -5    1    3    3    0  502 -0.15719598132E+02 -0.44244505422E+02  0.29578862823E+03  0.29952139659E+03  0.41800000000E+01 0. -1.
        -11    1    4    4    0    0  0.32878635117E+02  0.47086212466E+02  0.18572305838E+03  0.19439951251E+03  0.00000000000E+00 0.  1.
         11    1    4    4    0    0  0.42410788009E+02  0.39926476064E+02  0.27053425359E+02  0.64223720338E+02  0.00000000000E+00 0. -1.
</event>
<event>
 8    1  0.6862919E-009  0.2385063E+03  0.7561462E-02  0.1120792E+00
          1   -1    0    0  501    0  0.00000000000E+00  0.00000000000E+00  0.53056166797E+03  0.53056166797E+03  0.00000000000E+00 0. -1.
         -1   -1    0    0    0  501 -0.00000000000E+00 -0.00000000000E+00 -0.13247478550E+03  0.13247478550E+03  0.00000000000E+00 0.  1.
         25    2    1    2    0    0 -0.19499300003E+03 -0.12448266207E+03  0.28867000490E+03  0.39050806327E+03  0.12509185639E+03 0.  0.
         23    2    1    2    0    0  0.19499300003E+03  0.12448266207E+03  0.10941687758E+03  0.27252839020E+03  0.93709482706E+02 0.  0.
          5    1    3    3  502    0 -0.14365878354E+03 -0.45039118678E+02  0.24178354334E+03  0.28485631909E+03  0.41800000000E+01 0.  1.
         -5    1    3    3    0  502 -0.51334216494E+02 -0.79443543391E+02  0.46886461557E+02  0.10565174417E+03  0.41800000000E+01 0.  1.
        -11    1    4    4    0    0  0.10582388454E+03  0.75398497704E+02  0.10120111729E+02  0.13033052081E+03  0.00000000000E+00 0.  1.
         11    1    4    4    0    0  0.89169115497E+02  0.49084164364E+02  0.99296765850E+02  0.14219786939E+03  0.00000000000E+00 0. -1.
</event>
<event>
 8    1  0.6862919E-009  0.1301916E+03  0.7561462E-02  0.1227172E+00
          2   -1    0    0  501    0  0.00000000000E+00  0.00000000000E+00  0.18412336433E+03  0.18412336433E+03  0.00000000000E+00 0. -1.
         -2   -1    0    0    0  501 -0.00000000000E+00 -0.00000000000E+00 -0.14127203104E+03  0.14127203104E+03  0.00000000000E+00 0.  1.
         25    2    1    2    0    0  0.54582584629E+02  0.73005378258E+02 -0.38472230060E+02  0.15947401319E+03  0.12507119812E+03 0.  0.
         23    2    1    2    0    0 -0.54582584629E+02 -0.73005378258E+02  0.81323563347E+02  0.16592138218E+03  0.11228240873E+03 0.  0.
          5    1    3    3  502    0 -0.39290522449E+02  0.19579103082E+02 -0.24600555429E+02  0.50495011231E+02  0.41800000000E+01 0.  1.
         -5    1    3    3    0  502  0.93873107078E+02  0.53426275176E+02 -0.13871674631E+02  0.10897900196E+03  0.41800000000E+01 0.  1.
        -11    1    4    4    0    0  0.83990912632E+00 -0.46940231021E+02 -0.17127655537E+02  0.49974466679E+02  0.00000000000E+00 0.  1.
         11    1    4    4    0    0 -0.55422493755E+02 -0.26065147236E+02  0.98451218884E+02  0.11594691550E+03  0.00000000000E+00 0. -1.
</event>
<event>
 8    1  0.6862919E-009  0.1386475E+03  0.7561462E-02  0.1215161E+00
         -2   -1    0    0    0  501 -0.00000000000E+00  0.00000000000E+00  0.18842250198E+03  0.18842250198E+03  0.00000000000E+00 0.  1.
          2   -1    0    0  501    0  0.00000000000E+00 -0.00000000000E+00 -0.11950396647E+03  0.11950396647E+03  0.00000000000E+00 0. -1.
         25    2    1    2    0    0 -0.92926715922E+02  0.30894932784E+02  0.17113846803E+01  0.15886690599E+03  0.12508354639E+03 0.  0.
         23    2    1    2    0    0  0.92926715922E+02 -0.30894932784E+02  0.67207150832E+02  0.14905956247E+03  0.90067089638E+02 0.  0.
          5    1    3    3  502    0 -0.84700290927E+02  0.71765068415E+02 -0.18034781044E+02  0.11254816771E+03  0.41800000000E+01 0. -1.
         -5    1    3    3    0  502 -0.82264249945E+01 -0.40870135630E+02  0.19746165724E+02  0.46318738276E+02  0.41800000000E+01 0. -1.
        -11    1    4    4    0    0  0.72227221571E+02  0.15167454449E+02  0.12936487200E+02  0.74927804662E+02  0.00000000000E+00 0. -1.
         11    1    4    4    0    0  0.20699494350E+02 -0.46062387234E+02  0.54270663632E+02  0.74131757804E+02  0.00000000000E+00 0.  1.
</event>
<event>
 8    1  0.6862919E-009  0.1095477E+03  0.7561462E-02  0.1261410E+00
          2   -1    0    0  501    0  0.00000000000E+00  0.00000000000E+00  0.14019553932E+03  0.14019553932E+03  0.00000000000E+00 0. -1.
         -2   -1    0    0    0  501 -0.00000000000E+00 -0.00000000000E+00 -0.15936938739E+03  0.15936938739E+03  0.00000000000E+00 0.  1.
         25    2    1    2    0    0  0.22288267504E+02  0.37958341553E+02 -0.10271902132E+03  0.16773374247E+03  0.12508320615E+03 0.  0.
         23    2    1    2    0    0 -0.22288267504E+02 -0.37958341553E+02  0.83545173240E+02  0.13183118424E+03  0.91989470079E+02 0.  0.
          5    1    3    3  502    0  0.25042130481E+02 -0.42029393756E+02 -0.57868069094E+02  0.75893109432E+02  0.41800000000E+01 0.  1.
         -5    1    3    3    0  502 -0.27538629777E+01  0.79987735309E+02 -0.44850952223E+02  0.91840633036E+02  0.41800000000E+01 0.  1.
        -11    1    4    4    0    0 -0.10835198858E+02 -0.62147655081E+02  0.25746494000E+02  0.68136733996E+02  0.00000000000E+00 0.  1.
         11    1    4    4    0    0 -0.11453068646E+02  0.24189313528E+02  0.57798679240E+02  0.63694450247E+02  0.00000000000E+00 0. -1.
</event>
<event>
 8    1  0.6862919E-009  0.7781442E+02  0.7561462E-02  0.1335371E+00
         -1   -1    0    0    0  501 -0.00000000000E+00  0.00000000000E+00  0.33190382603E+03  0.33190382603E+03  0.00000000000E+00 0.  1.
          1   -1    0    0  501    0  0.00000000000E+00 -0.00000000000E+00 -0.36972536093E+02  0.36972536093E+02  0.00000000000E+00 0. -1.
         25    2    1    2    0    0 -0.63553882097E+01 -0.21636432031E+02  0.16612559161E+03  0.20917429369E+03  0.12509055440E+03 0.  0.
         23    2    1    2    0    0  0.63553882097E+01  0.21636432031E+02  0.12880569832E+03  0.15970206843E+03  0.91680513692E+02 0.  0.
          5    1    3    3  502    0 -0.22525701124E+01 -0.43137591482E+02  0.17848941575E+03  0.18368960179E+03  0.41800000000E+01 0. -1.
         -5    1    3    3    0  502 -0.41028180973E+01  0.21501159452E+02 -0.12363824134E+02  0.25484691901E+02  0.41800000000E+01 0. -1.
        -11    1    4    4    0    0 -0.39432698577E+02  0.19791647396E+02  0.87562551400E+02  0.98050229124E+02  0.00000000000E+00 0.  1.
         11    1    4    4    0    0  0.45788086787E+02  0.18447846351E+01  0.41243146921E+02  0.61651839307E+02  0.00000000000E+00 0. -1.
</event>
<event>
 8    1  0.6862919E-009  0.4624692E+03  0.7561462E-02  0.1024068E+00
         -2   -1    0    0    0  501 -0.00000000000E+00  0.00000000000E+00  0.42425484570E+03  0.42425484570E+03  0.00000000000E+00 0.  1.
          2   -1    0    0  501    0  0.00000000000E+00 -0.00000000000E+00 -0.52265826928E+03  0.52265826928E+03  0.00000000000E+00 0. -1.
         25    2    1    2    0    0  0.32054599285E+03 -0.32642848053E+03 -0.27411123160E+02  0.47508326709E+03  0.12508978598E+03 0.  0.
         23    2    1    2    0    0 -0.32054599285E+03  0.32642848053E+03 -0.70992300415E+02  0.47182984789E+03  0.90984681160E+02 0.  0.
          5    1    3    3  502    0  0.25940444254E+03 -0.24209173859E+03  0.29921444311E+02  0.35610650083E+03  0.41800000000E+01 0.  1.
         -5    1    3    3    0  502  0.61141550309E+02 -0.84336741940E+02 -0.57332567471E+02  0.11897676625E+03  0.41800000000E+01 0.  1.
        -11    1    4    4    0    0 -0.24969681461E+03  0.19609172354E+03 -0.59673851923E+02  0.32305020023E+03  0.00000000000E+00 0.  1.
         11    1    4    4    0    0 -0.70849178243E+02  0.13033675699E+03 -0.11318448492E+02  0.14877964766E+03  0.00000000000E+00 0. -1.
</event>
<event>
 8    1  0.6862919E-009  0.9750281E+02  0.7561462E-02  0.1285637E+00
          2   -1    0    0  501    0  0.00000000000E+00  0.00000000000E+00  0.12457778940E+04  0.12457778940E+04  0.00000000000E+00 0. -1.
         -2   -1    0    0    0  501 -0.00000000000E+00 -0.00000000000E+00 -0.12902541501E+02  0.12902541501E+02  0.00000000000E+00 0.  1.
         25    2    1    2    0    0  0.68531902659E+01  0.39820217340E+01  0.10128770243E+04  0.10206023553E+04  0.12508588478E+03 0.  0.
         23    2    1    2    0    0 -0.68531902659E+01 -0.39820217340E+01  0.21999832821E+03  0.23807808021E+03  0.90659170244E+02 0.  0.
          5    1    3    3  502    0  0.55102813485E+02  0.93219859237E+01  0.81079215144E+03  0.81272664821E+03  0.41800000000E+01 0. -1.
         -5    1    3    3    0  502 -0.48249623220E+02 -0.53399641898E+01  0.20208487289E+03  0.20787570712E+03  0.41800000000E+01 0. -1.
        -11    1    4    4    0    0  0.33449793150E+01  0.42510561506E+02  0.11943967675E+03  0.12682339338E+03  0.00000000000E+00 0.  1.
         11    1    4    4    0    0 -0.10198169581E+02 -0.46492583240E+02  0.10055865145E+03  0.11125468683E+03  0.00000000000E+00 0. -1.
</event>
<event>
 8    1  0.6862919E-009  0.1279068E+03  0.7561462E-02  0.1230595E+00
         -2   -1    0    0    0  501 -0.00000000000E+00  0.00000000000E+00  0.20335538595E+03  0.20335538595E+03  0.00000000000E+00 0.  1.
          2   -1    0    0  501    0  0.00000000000E+00 -0.00000000000E+00 -0.96491291084E+02  0.96491291084E+02  0.00000000000E+00 0. -1.
         25    2    1    2    0    0 -0.78697321179E+02  0.14721241801E+02  0.78146459328E+02  0.16785979816E+03  0.12514015907E+03 0.  0.
         23    2    1    2    0    0  0.78697321179E+02 -0.14721241801E+02  0.28717635541E+02  0.13198687887E+03  0.10092497353E+03 0.  0.
          5    1    3    3  502    0 -0.59205346116E+02  0.66214007183E+02  0.67467953687E+02  0.11161973361E+03  0.41800000000E+01 0.  1.
         -5    1    3    3    0  502 -0.19491975063E+02 -0.51492765382E+02  0.10678505641E+02  0.56240064556E+02  0.41800000000E+01 0.  1.
        -11    1    4    4    0    0 -0.94756827842E+01  0.15753861774E+02  0.33887201286E+02  0.38552757826E+02  0.00000000000E+00 0.  1.
         11    1    4    4    0    0  0.88173003963E+02 -0.30475103574E+02 -0.51695657454E+01  0.93434121047E+02  0.00000000000E+00 0. -1.
</event>
<event>
 8    1  0.6862919E-009  0.1107094E+03  0.7561462E-02  0.1259262E+00
         -1   -1    0    0    0  501 -0.00000000000E+00  0.00000000000E+00  0.26345430651E+02  0.26345430651E+02  0.00000000000E+00 0.  1.
          1   -1    0    0  501    0  0.00000000000E+00 -0.00000000000E+00 -0.64170253804E+03  0.64170253804E+03  0.00000000000E+00 0. -1.
         25    2    1    2    0    0  0.50029751401E+02  0.47678570106E+02 -0.39786164720E+03  0.42275010396E+03  0.12509011956E+03 0.  0.
         23    2    1    2    0    0 -0.50029751401E+02 -0.47678570106E+02 -0.21749546018E+03  0.24529786472E+03  0.89947457809E+02 0.  0.
          5    1    3    3  502    0 -0.76815467189E+01  0.76258965852E+02 -0.24734193201E+03  0.25897864731E+03  0.41800000000E+01 0. -1.
         -5    1    3    3    0  502  0.57711298120E+02 -0.28580395747E+02 -0.15051971520E+03  0.16377145666E+03  0.41800000000E+01 0. -1.
        -11    1    4    4    0    0 -0.16258724189E+02  0.54695573523E+01  0.16987581709E+01  0.17237979847E+02  0.00000000000E+00 0.  1.
         11    1    4    4    0    0 -0.33771027212E+02 -0.53148127458E+02 -0.21919421835E+03  0.22805988488E+03  0.00000000000E+00 0. -1.
</event>
<event>
 8    1  0.6862919E-009  0.3978783E+03  0.7561462E-02  0.1044517E+00
          2   -1    0    0  501    0  0.00000000000E+00  0.00000000000E+00  0.93665345379E+03  0.93665345379E+03  0.00000000000E+00 0. -1.
         -2   -1    0    0    0  501 -0.00000000000E+00 -0.00000000000E+00 -0.17675176069E+03  0.17675176069E+03  0.00000000000E+00 0.  1.
         25    2    1    2    0    0  0.36485479676E+03  0.12752503390E+03  0.28243651170E+03  0.49477232309E+03  0.12509041354E+03 0.  0.
         23    2    1    2    0    0 -0.36485479676E+03 -0.12752503390E+03  0.47746518140E+03  0.61863289139E+03  0.73157350052E+02 0.  0.
          5    1    3    3  502    0  0.25566283139E+03  0.14186069715E+03  0.23343114090E+03  0.37415973954E+03  0.41800000000E+01 0.  1.
         -5    1    3    3    0  502  0.10919196537E+03 -0.14335663248E+02  0.49005370793E+02  0.12061258355E+03  0.41800000000E+01 0.  1.
        -11    1    4    4    0    0 -0.25313419379E+03 -0.12271526090E+03  0.33205890362E+03  0.43520003539E+03  0.00000000000E+00 0.  1.
         11    1    4    4    0    0 -0.11172060297E+03 -0.48097730003E+01  0.14540627778E+03  0.18343285600E+03  0.00000000000E+00 0. -1.
</event>
<event>
 8    1  0.6862919E-009  0.1898999E+03  0.7561462E-02  0.1158552E+00
         -2   -1    0    0    0  501 -0.00000000000E+00  0.00000000000E+00  0.36866522606E+02  0.36866522606E+02  0.00000000000E+00 0.  1.
          2   -1    0    0  501    0  0.00000000000E+00 -0.00000000000E+00 -0.11958932029E+04  0.11958932029E+04  0.00000000000E+00 0. -1.
         25    2    1    2    0    0  0.15733174224E+03  0.74575037531E+02 -0.70873319548E+03  0.74044885474E+03  0.12508817200E+03 0.  0.
         23    2    1    2    0    0 -0.15733174224E+03 -0.74575037531E+02 -0.45029348483E+03  0.49231087078E+03  0.96390132637E+02 0.  0.
          5    1    3    3  502    0  0.15973455479E+03  0.56003784256E+02 -0.44668519342E+03  0.47769936808E+03  0.41800000000E+01 0. -1.
         -5    1    3    3    0  502 -0.24028125507E+01  0.18571253275E+02 -0.26204800207E+03  0.26274948667E+03  0.41800000000E+01 0. -1.
        -11    1    4    4    0    0 -0.12395005727E+03 -0.17508451928E+02 -0.35420894154E+03  0.37567823579E+03  0.00000000000E+00 0. -1.
         11    1    4    4    0    0 -0.33381684975E+02 -0.57066585603E+02 -0.96084543296E+02  0.11663263499E+03  0.00000000000E+00 0.  1.
</event>
<event>
 8    1  0.6862919E-009  0.1265325E+03  0.7561462E-02  0.1232694E+00
          1   -1    0    0  501    0  0.00000000000E+00  0.00000000000E+00  0.60320005398E+03  0.60320005398E+03  0.00000000000E+00 0. -1.
         -1   -1    0    0    0  501 -0.00000000000E+00 -0.00000000000E+00 -0.31838938550E+02  0.31838938550E+02  0.00000000000E+00 0.  1.
         25    2    1    2    0    0 -0.69400885563E+02  0.36742970989E+02  0.39734866908E+03  0.42391071230E+03  0.12509116016E+03 0.  0.
         23    2    1    2    0    0  0.69400885563E+02 -0.36742970989E+02  0.17401244635E+03  0.21112828023E+03  0.90157031864E+02 0.  0.
          5    1    3    3  502    0  0.29528679654E+02  0.93979588175E+01  0.18950630928E+03  0.19206868097E+03  0.41800000000E+01 0.  1.
         -5    1    3    3    0  502 -0.98929565217E+02  0.27345012171E+02  0.20784235980E+03  0.23184203133E+03  0.41800000000E+01 0.  1.
        -11    1    4    4    0    0  0.98047249279E+01 -0.55682061025E+02  0.73134895450E+02  0.92440994604E+02  0.00000000000E+00 0.  1.
         11    1    4    4    0    0  0.59596160635E+02  0.18939090036E+02  0.10087755090E+03  0.11868728563E+03  0.00000000000E+00 0. -1.
</event>
<event>
 8    1  0.6862919E-009  0.1012342E+03  0.7561462E-02  0.1277722E+00
          1   -1    0    0  501    0  0.00000000000E+00  0.00000000000E+00  0.77337844163E+03  0.77337844163E+03  0.00000000000E+00 0. -1.
         -1   -1    0    0    0  501 -0.00000000000E+00 -0.00000000000E+00 -0.23096310846E+02  0.23096310846E+02  0.00000000000E+00 0.  1.
         25    2    1    2    0    0  0.52622287922E+02  0.59789739127E+02  0.44610009705E+03  0.47010229949E+03  0.12508779840E+03 0.  0.
         23    2    1    2    0    0 -0.52622287922E+02 -0.59789739127E+02  0.30418203374E+03  0.32637245299E+03  0.87454847375E+02 0.  0.
          5    1    3    3  502    0  0.65657870603E+02  0.65677906922E+02  0.17130649392E+03  0.19490492731E+03  0.41800000000E+01 0.  1.
         -5    1    3    3    0  502 -0.13035582681E+02 -0.58881677951E+01  0.27479360312E+03  0.27519737218E+03  0.41800000000E+01 0.  1.
        -11    1    4    4    0    0  0.10147659745E+02 -0.11979256256E+02  0.42918921674E+01  0.16275684843E+02  0.00000000000E+00 0.  1.
         11    1    4    4    0    0 -0.62769947667E+02 -0.47810482871E+02  0.29989014157E+03  0.31009676814E+03  0.00000000000E+00 0. -1.
</event>
<event>
 8    1  0.6862919E-009  0.1538002E+03  0.7561462E-02  0.1195880E+00
          2   -1    0    0  501    0  0.00000000000E+00  0.00000000000E+00  0.91998651665E+03  0.91998651665E+03  0.00000000000E+00 0. -1.
         -2   -1    0    0    0  501 -0.00000000000E+00 -0.00000000000E+00 -0.50222815383E+02  0.50222815383E+02  0.00000000000E+00 0.  1.
         25    2    1    2    0    0 -0.12143654996E+03 -0.15475005365E+02  0.13876003831E+03  0.22336144002E+03  0.12509865387E+03 0.  0.
         23    2    1    2    0    0  0.12143654996E+03  0.15475005365E+02  0.73100366296E+03  0.74684789202E+03  0.91810168744E+02 0.  0.
          5    1    3    3  502    0 -0.54111607684E+02  0.40203172911E+02  0.10851772479E+02  0.68407562186E+02  0.41800000000E+01 0.  1.
         -5    1    3    3    0  502 -0.67324942278E+02 -0.55678178276E+02  0.12790826583E+03  0.15495387783E+03  0.41800000000E+01 0.  1.
        -11    1    4    4    0    0  0.55134995817E+02  0.52942351138E+02  0.39406032408E+03  0.40140540520E+03  0.00000000000E+00 0. -1.
         11    1    4    4    0    0  0.66301554145E+02 -0.37467345773E+02  0.33694333888E+03  0.34544248682E+03  0.00000000000E+00 0.  1.
</event>
<event>
 8    1  0.6862919E-009  0.1073365E+03  0.7561462E-02  0.1265583E+00
          2   -1    0    0  501    0  0.00000000000E+00  0.00000000000E+00  0.30277388085E+03  0.30277388085E+03  0.00000000000E+00 0. -1.
         -2   -1    0    0    0  501 -0.00000000000E+00 -0.00000000000E+00 -0.56634184442E+02  0.56634184442E+02  0.00000000000E+00 0.  1.
         25    2    1    2    0    0  0.52649912024E+02 -0.51129716844E+02  0.10373266377E+03  0.17831162641E+03  0.12509320285E+03 0.  0.
         23    2    1    2    0    0 -0.52649912024E+02  0.51129716844E+02  0.14240703264E+03  0.18109643888E+03  0.84438711794E+02 0.  0.
          5    1    3    3  502    0  0.51030839534E+02 -0.86903442568E+02  0.47443710720E+02  0.11146628639E+03  0.41800000000E+01 0. -1.
         -5    1    3    3    0  502  0.16190724903E+01  0.35773725724E+02  0.56288953048E+02  0.66845340026E+02  0.41800000000E+01 0. -1.
        -11    1    4    4    0    0 -0.26831204096E+02  0.89217293061E+01 -0.21000130147E+01  0.28353497522E+02  0.00000000000E+00 0.  1.
         11    1    4    4    0    0 -0.25818707928E+02  0.42207987538E+02  0.14450704566E+03  0.15274294136E+03  0.00000000000E+00 0. -1.
</event>
<event>
 8    1  0.6862919E-009  0.1534497E+03  0.7561462E-02  0.1196297E+00
         -3   -1    0    0    0  501 -0.00000000000E+00  0.00000000000E+00  0.88619457897E+02  0.88619457897E+02  0.00000000000E+00 0.  1.
          3   -1    0    0  501    0  0.00000000000E+00 -0.00000000000E+00 -0.30414814272E+03  0.30414814272E+03  0.00000000000E+00 0. -1.
         25    2    1    2    0    0 -0.79596985522E+02 -0.93157470666E+02 -0.11501382451E+03  0.20949857235E+03  0.12508987787E+03 0.  0.
         23    2    1    2    0    0  0.79596985522E+02  0.93157470666E+02 -0.10051486031E+03  0.18326902826E+03  0.92034260637E+02 0.  0.
          5    1    3    3  502    0 -0.10274886624E+03 -0.81091934506E+02 -0.12518646055E+03  0.18116940598E+03  0.41800000000E+01 0.  1.
         -5    1    3    3    0  502  0.23151880720E+02 -0.12065536160E+02  0.10172636042E+02  0.28329166380E+02  0.41800000000E+01 0.  1.
        -11    1    4    4    0    0  0.35720245854E+01  0.69907082559E+02 -0.27116929833E+02  0.75067219445E+02  0.00000000000E+00 0.  1.
         11    1    4    4    0    0  0.76024960936E+02  0.23250388107E+02 -0.73397930478E+02  0.10820180882E+03  0.00000000000E+00 0. -1.
</event>
<event>
 8    1  0.6862919E-009  0.1244270E+03  0.7561462E-02  0.1235967E+00
         -3   -1    0    0    0  501 -0.00000000000E+00  0.00000000000E+00  0.72064711175E+02  0.72064711175E+02  0.00000000000E+00 0.  1.
          3   -1    0    0  501    0  0.00000000000E+00 -0.00000000000E+00 -0.25275511203E+03  0.25275511203E+03  0.00000000000E+00 0. -1.
         25    2    1    2    0    0  0.77483786982E+02 -0.97215078881E+01 -0.70370147794E+02  0.16339584081E+03  0.12509195871E+03 0.  0.
         23    2    1    2    0    0 -0.77483786982E+02  0.97215078881E+01 -0.11032025306E+03  0.16142398239E+03  0.88254738655E+02 0.  0.
          5    1    3    3  502    0  0.17435933717E+02  0.55054597550E+02 -0.37874528065E+02  0.69187952507E+02  0.41800000000E+01 0.  1.
         -5    1    3    3    0  502  0.60047853265E+02 -0.64776105438E+02 -0.32495619728E+02  0.94207888306E+02  0.41800000000E+01 0.  1.
        -11    1    4    4    0    0 -0.30452329914E+01  0.26125771909E+02  0.12145107724E+01  0.26330674853E+02  0.00000000000E+00 0.  1.
         11    1    4    4    0    0 -0.74438553991E+02 -0.16404264021E+02 -0.11153476383E+03  0.13509330754E+03  0.00000000000E+00 0. -1.
</event>
<event>
 8    1  0.6862919E-009  0.7255877E+02  0.7561462E-02  0.1351602E+00
         -2   -1    0    0    0  501 -0.00000000000E+00  0.00000000000E+00  0.56056247392E+02  0.56056247392E+02  0.00000000000E+00 0.  1.
          2   -1    0    0  501    0  0.00000000000E+00 -0.00000000000E+00 -0.24749108525E+03  0.24749108525E+03  0.00000000000E+00 0. -1.
         25    2    1    2    0    0  0.39853369734E+02 -0.40726369216E+01 -0.84727554196E+02  0.15630489234E+03  0.12509030130E+03 0.  0.
         23    2    1    2    0    0 -0.39853369734E+02  0.40726369216E+01 -0.10670728366E+03  0.14724244030E+03  0.93214882868E+02 0.  0.
          5    1    3    3  502    0  0.53382252669E+02  0.30458650979E+02 -0.98788899811E+02  0.11642213469E+03  0.41800000000E+01 0. -1.
         -5    1    3    3    0  502 -0.13528882935E+02 -0.34531287901E+02  0.14061345615E+02  0.39882757654E+02  0.41800000000E+01 0. -1.
        -11    1    4    4    0    0 -0.20778982444E+02 -0.94347537827E+01 -0.11876861086E+03  0.12094115766E+03  0.00000000000E+00 0. -1.
         11    1    4    4    0    0 -0.19074387290E+02  0.13507390704E+02  0.12061327207E+02  0.26301282633E+02  0.00000000000E+00 0.  1.
</event>
<event>
 8    1  0.6862919E-009  0.1855298E+03  0.7561462E-02  0.1162556E+00
          2   -1    0    0  501    0  0.00000000000E+00  0.00000000000E+00  0.64326311446E+02  0.64326311446E+02  0.00000000000E+00 0. -1.
         -2   -1    0    0    0  501 -0.00000000000E+00 -0.00000000000E+00 -0.62264204600E+03  0.62264204600E+03  0.00000000000E+00 0.  1.
         25    2    1    2    0    0 -0.77805909824E+02  0.14471450190E+03 -0.23224161370E+03  0.31077178885E+03  0.12508753313E+03 0.  0.
         23    2    1    2    0    0  0.77805909824E+02 -0.14471450190E+03 -0.32607412086E+03  0.37619656860E+03  0.90573060389E+02 0.  0.
          5    1    3    3  502    0  0.19459578117E+02  0.86236837517E+02 -0.13410450240E+03  0.16067656110E+03  0.41800000000E+01 0.  1.
         -5    1    3    3    0  502 -0.97265487941E+02  0.58477664388E+02 -0.98137111300E+02  0.15009522774E+03  0.41800000000E+01 0.  1.
        -11    1    4    4    0    0  0.24909429491E+00 -0.32942189249E+02 -0.14069510443E+02  0.35821795105E+02  0.00000000000E+00 0. -1.
         11    1    4    4    0    0  0.77556815529E+02 -0.11177231266E+03 -0.31200461042E+03  0.34037477350E+03  0.00000000000E+00 0.  1.
</event>
<event>
 8    1  0.6862919E-009  0.1107356E+03  0.7561462E-02  0.1259214E+00
          1   -1    0    0  501    0  0.00000000000E+00  0.00000000000E+00  0.39299146536E+02  0.39299146536E+02  0.00000000000E+00 0. -1.
         -1   -1    0    0    0  501 -0.00000000000E+00 -0.00000000000E+00 -0.47305057094E+03  0.47305057094E+03  0.00000000000E+00 0.  1.
         25    2    1    2    0    0  0.64733292151E+02 -0.40816558997E+02 -0.29043003117E+03  0.32535068965E+03  0.12508827944E+03 0.  0.
         23    2    1    2    0    0 -0.64733292151E+02  0.40816558997E+02 -0.14332139324E+03  0.18699902783E+03  0.92580905408E+02 0.  0.
          5    1    3    3  502    0 -0.23433618677E+02 -0.21130986370E+02 -0.17915839477E+03  0.18196388621E+03  0.41800000000E+01 0. -1.
         -5    1    3    3    0  502  0.88166910828E+02 -0.19685572627E+02 -0.11127163640E+03  0.14338680344E+03  0.41800000000E+01 0. -1.
        -11    1    4    4    0    0 -0.24267199587E+02  0.51863504683E+02 -0.26924430349E+02  0.63274363240E+02  0.00000000000E+00 0. -1.
         11    1    4    4    0    0 -0.40466092565E+02 -0.11046945686E+02 -0.11639696289E+03  0.12372466459E+03  0.00000000000E+00 0.  1.
</event>
<event>
 8    1  0.6862919E-009  0.1144260E+03  0.7561462E-02  0.1252586E+00
         -2   -1    0    0    0  501 -0.00000000000E+00  0.00000000000E+00  0.66182604164E+02  0.66182604164E+02  0.00000000000E+00 0.  1.
          2   -1    0    0  501    0  0.00000000000E+00 -0.00000000000E+00 -0.24117809530E+03  0.24117809530E+03  0.00000000000E+00 0. -1.
         25    2    1    2    0    0  0.31320003068E+02 -0.27958757679E+02 -0.37259173311E+02  0.13711309346E+03  0.12509644151E+03 0.  0.
         23    2    1    2    0    0 -0.31320003068E+02  0.27958757679E+02 -0.13773631782E+03  0.17024760601E+03  0.90831268738E+02 0.  0.
          5    1    3    3  502    0  0.60105426822E+02 -0.62073270046E+02 -0.18205958808E+02  0.88400693005E+02  0.41800000000E+01 0.  1.
         -5    1    3    3    0  502 -0.28785423754E+02  0.34114512367E+02 -0.19053214504E+02  0.48712400450E+02  0.41800000000E+01 0.  1.
        -11    1    4    4    0    0 -0.62356738057E+02  0.17555541910E+02 -0.10845095838E+03  0.12632565142E+03  0.00000000000E+00 0. -1.
         11    1    4    4    0    0  0.31036734989E+02  0.10403215770E+02 -0.29285359442E+02  0.43921954587E+02  0.00000000000E+00 0.  1.
</event>
<event>
 8    1  0.6862919E-009  0.1379832E+03  0.7561462E-02  0.1216069E+00
         -1   -1    0    0    0  501 -0.00000000000E+00  0.00000000000E+00  0.11020499533E+03  0.11020499533E+03  0.00000000000E+00 0.  1.
          1   -1    0    0  501    0  0.00000000000E+00 -0.00000000000E+00 -0.21237992495E+03  0.21237992495E+03  0.00000000000E+00 0. -1.
         25    2    1    2    0    0  0.25643079392E+02  0.96206850742E+02 -0.99005904678E+02  0.18804887591E+03  0.12508750904E+03 0.  0.
         23    2    1    2    0    0 -0.25643079392E+02 -0.96206850742E+02 -0.31690249432E+01  0.13453604438E+03  0.90424437340E+02 0.  0.
          5    1    3    3  502    0  0.85526678345E+01  0.11999175547E+03 -0.49027900470E+02  0.12997067720E+03  0.41800000000E+01 0. -1.
         -5    1    3    3    0  502  0.17090411557E+02 -0.23784904729E+02 -0.49978004207E+02  0.58078198704E+02  0.41800000000E+01 0. -1.
        -11    1    4    4    0    0  0.50483249567E+01 -0.95169940565E+02 -0.22923624324E+02  0.98021914510E+02  0.00000000000E+00 0. -1.
         11    1    4    4    0    0 -0.30691404349E+02 -0.10369101772E+01  0.19754599381E+02  0.36514129872E+02  0.00000000000E+00 0.  1.
</event>
<event>
 8    1  0.6862919E-009  0.1421675E+03  0.7561462E-02  0.1210442E+00
          1   -1    0    0  501    0  0.00000000000E+00  0.00000000000E+00  0.58672599548E+03  0.58672599548E+03  0.00000000000E+00 0. -1.
         -1   -1    0    0    0  501 -0.00000000000E+00 -0.00000000000E+00 -0.43413269492E+02  0.43413269492E+02  0.00000000000E+00 0.  1.
         25    2    1    2    0    0 -0.71694255948E+02 -0.92134191987E+02  0.25717697281E+03  0.30889181361E+03  0.12508149945E+03 0.  0.
         23    2    1    2    0    0  0.71694255948E+02  0.92134191987E+02  0.28613575317E+03  0.32124745135E+03  0.87735284168E+02 0.  0.
          5    1    3    3  502    0  0.28572847491E+02 -0.12621562361E+02  0.14890881050E+02  0.34855733942E+02  0.41800000000E+01 0. -1.
         -5    1    3    3    0  502 -0.10026710344E+03 -0.79512629626E+02  0.24228609176E+03  0.27403607967E+03  0.41800000000E+01 0. -1.
        -11    1    4    4    0    0  0.49473798970E+02  0.27863129142E+02  0.21686706449E+03  0.22417701580E+03  0.00000000000E+00 0. -1.
         11    1    4    4    0    0  0.22220456978E+02  0.64271062845E+02  0.69268688681E+02  0.97070435557E+02  0.00000000000E+00 0.  1.
</event>
<event>
 8    1  0.6862919E-009  0.1111692E+03  0.7561462E-02  0.1258420E+00
         -1   -1    0    0    0  501 -0.00000000000E+00  0.00000000000E+00  0.12655838302E+03  0.12655838302E+03  0.00000000000E+00 0. -1.
          1   -1    0    0  501    0  0.00000000000E+00 -0.00000000000E+00 -0.13802117498E+03  0.13802117498E+03  0.00000000000E+00 0.  1.
         25    2    1    2    0    0  0.64389007040E+02  0.11565137886E+02  0.31679345306E+02  0.14466144885E+03  0.12507460663E+03 0.  0.
         23    2    1    2    0    0 -0.64389007040E+02 -0.11565137886E+02 -0.43142137269E+02  0.11991810915E+03  0.90771208272E+02 0.  0.
          5    1    3    3  502    0  0.28316877826E+02  0.60739277194E+02  0.46606976775E+02  0.81736087795E+02  0.41800000000E+01 0.  1.
         -5    1    3    3    0  502  0.36072129214E+02 -0.49174139307E+02 -0.14927631470E+02  0.62925361056E+02  0.41800000000E+01 0.  1.
        -11    1    4    4    0    0  0.32777036706E+01 -0.24883521158E+02 -0.44331118964E+02  0.50942919775E+02  0.00000000000E+00 0.  1.
         11    1    4    4    0    0 -0.67666710711E+02  0.13318383272E+02  0.11889816951E+01  0.68975189372E+02  0.00000000000E+00 0. -1.
</event>
<event>
 8    1  0.6862919E-009  0.8496184E+02  0.7561462E-02  0.1315532E+00
          2   -1    0    0  501    0  0.00000000000E+00  0.00000000000E+00  0.18561631414E+03  0.18561631414E+03  0.00000000000E+00 0. -1.
         -2   -1    0    0    0  501 -0.00000000000E+00 -0.00000000000E+00 -0.66894574228E+02  0.66894574228E+02  0.00000000000E+00 0.  1.
         25    2    1    2    0    0  0.24021067005E+01 -0.49361908517E+01  0.97281857240E+02  0.15856250229E+03  0.12509265081E+03 0.  0.
         23    2    1    2    0    0 -0.24021067005E+01  0.49361908517E+01  0.21439882669E+02  0.93948386075E+02  0.91304406139E+02 0.  0.
          5    1    3    3  502    0 -0.27429686989E+02 -0.28839653951E+02  0.11079593133E+03  0.11780205502E+03  0.41800000000E+01 0. -1.
         -5    1    3    3    0  502  0.29831793689E+02  0.23903463099E+02 -0.13514074090E+02  0.40760447267E+02  0.41800000000E+01 0. -1.
        -11    1    4    4    0    0  0.20799065431E+02 -0.37615588542E+02  0.11067558448E+02  0.44384957747E+02  0.00000000000E+00 0.  1.
         11    1    4    4    0    0 -0.23201172131E+02  0.42551779394E+02  0.10372324221E+02  0.49563428328E+02  0.00000000000E+00 0. -1.
</event>
<event>
 8    1  0.6862919E-009  0.1019087E+03  0.7561462E-02  0.1276333E+00
         -2   -1    0    0    0  501 -0.00000000000E+00  0.00000000000E+00  0.69659491274E+02  0.69659491274E+02  0.00000000000E+00 0.  1.
          2   -1    0    0  501    0  0.00000000000E+00 -0.00000000000E+00 -0.27433618981E+03  0.27433618981E+03  0.00000000000E+00 0. -1.
         25    2    1    2    0    0  0.44980588174E+02 -0.56634303778E+02 -0.16815182462E+03  0.22170444751E+03  0.12508848166E+03 0.  0.
         23    2    1    2    0    0 -0.44980588174E+02  0.56634303778E+02 -0.36524873920E+02  0.12229123358E+03  0.91599026842E+02 0.  0.
          5    1    3    3  502    0 -0.16494723907E+02 -0.34866329254E+02  0.25906574047E+01  0.38883424981E+02  0.41800000000E+01 0.  1.
         -5    1    3    3    0  502  0.61475312081E+02 -0.21767974524E+02 -0.17074248202E+03  0.18282102253E+03  0.41800000000E+01 0.  1.
        -11    1    4    4    0    0 -0.61447796312E+02  0.56085013925E+02 -0.10774238640E+01  0.83201690492E+02  0.00000000000E+00 0.  1.
         11    1    4    4    0    0  0.16467208138E+02  0.54928985302E+00 -0.35447450056E+02  0.39089543086E+02  0.00000000000E+00 0. -1.
</event>
<event>
 8    1  0.6862919E-009  0.3835776E+03  0.7561462E-02  0.1049619E+00
         -2   -1    0    0    0  501 -0.00000000000E+00  0.00000000000E+00  0.19373556508E+03  0.19373556508E+03  0.00000000000E+00 0.  1.
          2   -1    0    0  501    0  0.00000000000E+00 -0.00000000000E+00 -0.81432134166E+03  0.81432134166E+03  0.00000000000E+00 0. -1.
         25    2    1    2    0    0  0.89015965735E+02 -0.36990743881E+03 -0.35424326998E+03  0.53468781401E+03  0.12508960258E+03 0.  0.
         23    2    1    2    0    0 -0.89015965735E+02  0.36990743881E+03 -0.26634250660E+03  0.47336909274E+03  0.91567525309E+02 0.  0.
          5    1    3    3  502    0  0.36986542841E+02 -0.12554749820E+03 -0.20615599624E+03  0.24422928949E+03  0.41800000000E+01 0. -1.
         -5    1    3    3    0  502  0.52029422894E+02 -0.24435994061E+03 -0.14808727374E+03  0.29045852452E+03  0.41800000000E+01 0. -1.
        -11    1    4    4    0    0 -0.49242467072E+02  0.31332324397E+03 -0.18732390378E+03  0.36835651304E+03  0.00000000000E+00 0.  1.
         11    1    4    4    0    0 -0.39773498662E+02  0.56584194847E+02 -0.79018602824E+02  0.10501257970E+03  0.00000000000E+00 0. -1.
</event>
<event>
 8    1  0.6862919E-009  0.1449028E+03  0.7561462E-02  0.1206880E+00
         -2   -1    0    0    0  501 -0.00000000000E+00  0.00000000000E+00  0.76123204621E+02  0.76123204621E+02  0.00000000000E+00 0.  1.
          2   -1    0    0  501    0  0.00000000000E+00 -0.00000000000E+00 -0.34610628772E+03  0.34610628772E+03  0.00000000000E+00 0. -1.
         25    2    1    2    0    0 -0.10192687036E+02  0.11022230705E+03 -0.20486911411E+03  0.26433279901E+03  0.12509047477E+03 0.  0.
         23    2    1    2    0    0  0.10192687036E+02 -0.11022230705E+03 -0.65113968986E+02  0.15789669332E+03  0.91862337034E+02 0.  0.
          5    1    3    3  502    0  0.27837245143E+02 -0.44097752764E+01 -0.10112473600E+03  0.10506209101E+03  0.41800000000E+01 0.  1.
         -5    1    3    3    0  502 -0.38029932179E+02  0.11463208233E+03 -0.10374437811E+03  0.15927070801E+03  0.41800000000E+01 0.  1.
        -11    1    4    4    0    0  0.48513221606E+02 -0.66694069149E+02 -0.21199906677E+02  0.85153200606E+02  0.00000000000E+00 0. -1.
         11    1    4    4    0    0 -0.38320534570E+02 -0.43528237900E+02 -0.43914062309E+02  0.72743492719E+02  0.00000000000E+00 0.  1.
</event>
<event>
 8    1  0.6862919E-009  0.1851144E+03  0.7561462E-02  0.1162943E+00
          2   -1    0    0  501    0  0.00000000000E+00  0.00000000000E+00  0.11615506552E+04  0.11615506552E+04  0.00000000000E+00 0. -1.
         -2   -1    0    0    0  501 -0.00000000000E+00 -0.00000000000E+00 -0.82376981448E+02  0.82376981448E+02  0.00000000000E+00 0.  1.
         25    2    1    2    0    0  0.18386465756E+03 -0.18883776369E+02  0.99956424737E+03  0.10241842893E+04  0.12514777068E+03 0.  0.
         23    2    1    2    0    0 -0.18386465756E+03  0.18883776369E+02  0.79609426422E+02  0.21974334739E+03  0.88242102421E+02 0.  0.
          5    1    3    3  502    0  0.15136032512E+03 -0.18249280913E+02  0.48133886247E+03  0.50492331813E+03  0.41800000000E+01 0. -1.
         -5    1    3    3    0  502  0.32504332441E+02 -0.63449545597E+00  0.51822538491E+03  0.51926097116E+03  0.41800000000E+01 0. -1.
        -11    1    4    4    0    0 -0.11448579057E+03  0.14792006674E+02  0.18504292581E+01  0.11545225763E+03  0.00000000000E+00 0.  1.
         11    1    4    4    0    0 -0.69378866989E+02  0.40917696945E+01  0.77758997164E+02  0.10429108976E+03  0.00000000000E+00 0. -1.
</event>
<event>
 8    1  0.6862919E-009  0.2183281E+03  0.7561462E-02  0.1135136E+00
         -2   -1    0    0    0  501 -0.00000000000E+00  0.00000000000E+00  0.12855598120E+04  0.12855598120E+04  0.00000000000E+00 0.  1.
          2   -1    0    0  501    0  0.00000000000E+00 -0.00000000000E+00 -0.45749417420E+02  0.45749417420E+02  0.00000000000E+00 0. -1.
         25    2    1    2    0    0 -0.20578773879E+03 -0.55536528453E+01  0.82279138202E+03  0.85732861050E+03  0.12508897452E+03 0.  0.
         23    2    1    2    0    0  0.20578773879E+03  0.55536528453E+01  0.41701901253E+03  0.47398061890E+03  0.91505922105E+02 0.  0.
          5    1    3    3  502    0 -0.99217700968E+02  0.46228398536E+02  0.53453823600E+03  0.54564623627E+03  0.41800000000E+01 0.  1.
         -5    1    3    3    0  502 -0.10657003783E+03 -0.51782051381E+02  0.28825314603E+03  0.31168237422E+03  0.41800000000E+01 0.  1.
        -11    1    4    4    0    0  0.10198539026E+03 -0.13968017954E+02  0.29580944923E+03  0.31320816657E+03  0.00000000000E+00 0.  1.
         11    1    4    4    0    0  0.10380234854E+03  0.19521670799E+02  0.12120956330E+03  0.16077245233E+03  0.00000000000E+00 0. -1.
</event>
<event>
 8    1  0.6862919E-009  0.1367156E+03  0.7561462E-02  0.1217818E+00
         -2   -1    0    0    0  501 -0.00000000000E+00  0.00000000000E+00  0.27757579227E+03  0.27757579227E+03  0.00000000000E+00 0.  1.
          2   -1    0    0  501    0  0.00000000000E+00 -0.00000000000E+00 -0.83840133318E+02  0.83840133318E+02  0.00000000000E+00 0. -1.
         25    2    1    2    0    0  0.32220317342E+02 -0.81279230119E+02  0.31015087450E+02  0.15573608005E+03  0.12508928363E+03 0.  0.
         23    2    1    2    0    0 -0.32220317342E+02  0.81279230119E+02  0.16272057151E+03  0.20567984555E+03  0.90453039607E+02 0.  0.
          5    1    3    3  502    0 -0.42183375891E+02 -0.30263987220E+01  0.20447030689E+02  0.47160892218E+02  0.41800000000E+01 0. -1.
         -5    1    3    3    0  502  0.74403693232E+02 -0.78252831397E+02  0.10568056760E+02  0.10857518783E+03  0.41800000000E+01 0. -1.
        -11    1    4    4    0    0 -0.15577301817E+02 -0.17079800415E+02  0.15453824973E+02  0.27806341370E+02  0.00000000000E+00 0. -1.
         11    1    4    4    0    0 -0.16643015525E+02  0.98359030533E+02  0.14726674653E+03  0.17787350418E+03  0.00000000000E+00 0.  1.
</event>
<event>
 7    1  0.6862919E-009  0.7753358E+02  0.7561462E-02  0.1336200E+00
         -3   -1    0    0    0  501 -0.00000000000E+00  0.00000000000E+00  0.35476355743E+03  0.35476355743E+03  0.00000000000E+00 0.  1.
          3   -1    0    0  501    0  0.00000000000E+00 -0.00000000000E+00 -0.43631837598E+02  0.43631837598E+02  0.00000000000E+00 0. -1.
         23    2    1    2    0    0 -0.22897906130E+02  0.50879449770E+02  0.80319379543E+02  0.13016391786E+03  0.85897673236E+02 0.  0.
          5    1    1    2  502    0  0.23221663218E+02 -0.63307222639E+02  0.43267172544E+02  0.80228241292E+02  0.41800000000E+01 0. -1.
         -5    1    1    2    0  502 -0.32375708779E+00  0.12427772870E+02  0.18754516775E+03  0.18800323588E+03  0.41800000000E+01 0. -1.
        -11    1    3    3    0    0  0.12107374735E+02  0.32859038069E+02 -0.57774417477E+01  0.35492023596E+02  0.00000000000E+00 0.  1.
         11    1    3    3    0    0 -0.35005280865E+02  0.18020411701E+02  0.86096821291E+02  0.94671894259E+02  0.00000000000E+00 0. -1.
</event>
<event>
 8    1  0.6862919E-009  0.1133678E+03  0.7561462E-02  0.1254457E+00
         -1   -1    0    0    0  501 -0.00000000000E+00  0.00000000000E+00  0.30571914413E+02  0.30571914413E+02  0.00000000000E+00 0.  1.
          1   -1    0    0  501    0  0.00000000000E+00 -0.00000000000E+00 -0.57148389950E+03  0.57148389950E+03  0.00000000000E+00 0. -1.
         25    2    1    2    0    0  0.68756694729E+02 -0.19764203826E+02 -0.33457060592E+03  0.36428285016E+03  0.12508556173E+03 0.  0.
         23    2    1    2    0    0 -0.68756694729E+02  0.19764203826E+02 -0.20634137917E+03  0.23777296375E+03  0.94027180708E+02 0.  0.
          5    1    3    3  502    0  0.87469045554E+02 -0.30159806855E+02 -0.13614045189E+03  0.16465765370E+03  0.41800000000E+01 0.  1.
         -5    1    3    3    0  502 -0.18712350825E+02  0.10395603028E+02 -0.19843015403E+03  0.19962519646E+03  0.41800000000E+01 0.  1.
        -11    1    4    4    0    0 -0.46681143255E+02 -0.31620280476E+02 -0.66631828227E+02  0.87285576161E+02  0.00000000000E+00 0. -1.
         11    1    4    4    0    0 -0.22075551474E+02  0.51384484302E+02 -0.13970955094E+03  0.15048738759E+03  0.00000000000E+00 0.  1.
</event>
<event>
 8    1  0.6862919E-009  0.1397917E+03  0.7561462E-02  0.1213610E+00
         -1   -1    0    0    0  501 -0.00000000000E+00  0.00000000000E+00  0.54690826558E+03  0.54690826558E+03  0.00000000000E+00 0.  1.
          1   -1    0    0  501    0  0.00000000000E+00 -0.00000000000E+00 -0.38015634636E+02  0.38015634636E+02  0.00000000000E+00 0. -1.
         25    2    1    2    0    0  0.44553646238E+02  0.73470447532E+02  0.34630210580E+03  0.37809534499E+03  0.12509199564E+03 0.  0.
         23    2    1    2    0    0 -0.44553646238E+02 -0.73470447532E+02  0.16259052515E+03  0.20682855522E+03  0.94654309643E+02 0.  0.
          5    1    3    3  502    0  0.79124856544E+02  0.83904592745E+02  0.26424918889E+03  0.28835018612E+03  0.41800000000E+01 0. -1.
         -5    1    3    3    0  502 -0.34571210306E+02 -0.10434145213E+02  0.82052916909E+02  0.89745158876E+02  0.41800000000E+01 0. -1.
        -11    1    4    4    0    0 -0.58235302937E+02 -0.55022105829E+01  0.73049854744E+02  0.93583685050E+02  0.00000000000E+00 0.  1.
         11    1    4    4    0    0  0.13681656699E+02 -0.67968236949E+02  0.89540670405E+02  0.11324487017E+03  0.00000000000E+00 0. -1.
</event>
<event>
 8    1  0.6862919E-009  0.8840362E+02  0.7561462E-02  0.1306764E+00
          1   -1    0    0  501    0  0.00000000000E+00  0.00000000000E+00  0.71636266373E+02  0.71636266373E+02  0.00000000000E+00 0. -1.
         -1   -1    0    0    0  501 -0.00000000000E+00 -0.00000000000E+00 -0.18725145577E+03  0.18725145577E+03  0.00000000000E+00 0.  1.
         25    2    1    2    0    0 -0.15794262188E+01 -0.44410565700E+02 -0.76706003948E+02  0.15332195540E+03  0.12509603524E+03 0.  0.
         23    2    1    2    0    0  0.15794262188E+01  0.44410565700E+02 -0.38909185448E+02  0.10556576675E+03  0.87495219661E+02 0.  0.
          5    1    3    3  502    0  0.23853695369E+02  0.32641069434E+02  0.13336577752E+01  0.40665578068E+02  0.41800000000E+01 0.  1.
         -5    1    3    3    0  502 -0.25433121588E+02 -0.77051635134E+02 -0.78039661723E+02  0.11265637733E+03  0.41800000000E+01 0.  1.
        -11    1    4    4    0    0 -0.11954242302E+02  0.38196080855E+02  0.20043309600E+02  0.44761353436E+02  0.00000000000E+00 0. -1.
         11    1    4    4    0    0  0.13533668521E+02  0.62144848449E+01 -0.58952495049E+02  0.60804413310E+02  0.00000000000E+00 0.  1.
</event>
<event>
 8    1  0.6862919E-009  0.1123924E+03  0.7561462E-02  0.1256203E+00
         -2   -1    0    0    0  501 -0.00000000000E+00  0.00000000000E+00  0.10998068403E+03  0.10998068403E+03  0.00000000000E+00 0.  1.
          2   -1    0    0  501    0  0.00000000000E+00 -0.00000000000E+00 -0.13588168569E+03  0.13588168569E+03  0.00000000000E+00 0. -1.
         25    2    1    2    0    0  0.44232011630E+02  0.30213064685E+01  0.95081767490E+01  0.13305243753E+03  0.12508775545E+03 0.  0.
         23    2    1    2    0    0 -0.44232011630E+02 -0.30213064685E+01 -0.35409178412E+02  0.11280993219E+03  0.97502162743E+02 0.  0.
          5    1    3    3  502    0 -0.35025058172E+02 -0.28098320428E+02 -0.85761598235E+01  0.45905263622E+02  0.41800000000E+01 0.  1.
         -5    1    3    3    0  502  0.79257069802E+02  0.31119626897E+02  0.18084336572E+02  0.87147173913E+02  0.41800000000E+01 0.  1.
        -11    1    4    4    0    0 -0.15405429303E+02 -0.42699398981E+02  0.94246266490E+01  0.46361508957E+02  0.00000000000E+00 0.  1.
         11    1    4    4    0    0 -0.28826582327E+02  0.39678092512E+02 -0.44833805061E+02  0.66448423234E+02  0.00000000000E+00 0. -1.
</event>
<event>
 8    1  0.6862919E-009  0.1230516E+03  0.7561462E-02  0.1238146E+00
          2   -1    0    0  501    0  0.00000000000E+00  0.00000000000E+00  0.91586612811E+03  0.91586612811E+03  0.00000000000E+00 0. -1.
         -2   -1    0    0    0  501 -0.00000000000E+00 -0.00000000000E+00 -0.20695903082E+02  0.20695903082E+02  0.00000000000E+00 0.  1.
         25    2    1    2    0    0  0.77352849387E+02 -0.28006518299E+02  0.55901272459E+03  0.57871518271E+03  0.12509279781E+03 0.  0.
         23    2    1    2    0    0 -0.77352849387E+02  0.28006518299E+02  0.33615750044E+03  0.35784684849E+03  0.91020181804E+02 0.  0.
          5    1    3    3  502    0  0.65373606708E+02 -0.73952231323E+02  0.31642157608E+03  0.33148563646E+03  0.41800000000E+01 0. -1.
         -5    1    3    3    0  502  0.11979242679E+02  0.45945713024E+02  0.24259114851E+03  0.24722954624E+03  0.41800000000E+01 0. -1.
        -11    1    4    4    0    0 -0.12447959053E+02  0.32282196516E+02  0.33081259543E+02  0.47869213796E+02  0.00000000000E+00 0.  1.
         11    1    4    4    0    0 -0.64904890333E+02 -0.42756782173E+01  0.30307624089E+03  0.30997763469E+03  0.00000000000E+00 0. -1.
</event>
<event>
 8    1  0.6862919E-009  0.7355715E+02  0.7561462E-02  0.1348398E+00
         -2   -1    0    0    0  501 -0.00000000000E+00  0.00000000000E+00  0.14399006155E+02  0.14399006155E+02  0.00000000000E+00 0.  1.
          2   -1    0    0  501    0  0.00000000000E+00 -0.00000000000E+00 -0.13708770830E+04  0.13708770830E+04  0.00000000000E+00 0. -1.
         25    2    1    2    0    0  0.72483545125E+01  0.23994288798E+02 -0.11566651842E+04  0.11636790205E+04  0.12508497118E+03 0.  0.
         23    2    1    2    0    0 -0.72483545125E+01 -0.23994288798E+02 -0.19981289267E+03  0.22159706862E+03  0.92475965553E+02 0.  0.
          5    1    3    3  502    0  0.11830074782E+02  0.46844637751E+02 -0.11125930573E+04  0.11136494755E+04  0.41800000000E+01 0. -1.
         -5    1    3    3    0  502 -0.45817202691E+01 -0.22850348953E+02 -0.44072126866E+02  0.50029545015E+02  0.41800000000E+01 0. -1.
        -11    1    4    4    0    0  0.31865742530E+02 -0.99669871296E+01 -0.24462937229E+02  0.41390840500E+02  0.00000000000E+00 0.  1.
         11    1    4    4    0    0 -0.39114097042E+02 -0.14027301668E+02 -0.17534995544E+03  0.18020622812E+03  0.00000000000E+00 0. -1.
</event>
<event>
 8    1  0.6862919E-009  0.9577518E+02  0.7561462E-02  0.1289440E+00
         -2   -1    0    0    0  501 -0.00000000000E+00  0.00000000000E+00  0.22906394336E+02  0.22906394336E+02  0.00000000000E+00 0.  1.
          2   -1    0    0  501    0  0.00000000000E+00 -0.00000000000E+00 -0.60022015679E+03  0.60022015679E+03  0.00000000000E+00 0. -1.
         25    2    1    2    0    0  0.15944599573E+02 -0.34328251344E+02 -0.39293808718E+03  0.41410114278E+03  0.12508699775E+03 0.  0.
         23    2    1    2    0    0 -0.15944599573E+02  0.34328251344E+02 -0.18437567527E+03  0.20902540834E+03  0.90909694766E+02 0.  0.
          5    1    3    3  502    0 -0.17362099142E+02  0.23953704869E+02 -0.28743183680E+03  0.28898054549E+03  0.41800000000E+01 0.  1.
         -5    1    3    3    0  502  0.33306698716E+02 -0.58281956213E+02 -0.10550625037E+03  0.12512059729E+03  0.41800000000E+01 0.  1.
        -11    1    4    4    0    0 -0.44958004568E+02 -0.53340166475E+01 -0.11839291369E+03  0.12675391876E+03  0.00000000000E+00 0. -1.
         11    1    4    4    0    0  0.29013404995E+02  0.39662267991E+02 -0.65982761579E+02  0.82271489577E+02  0.00000000000E+00 0.  1.
</event>
<event>
 8    1  0.6862919E-009  0.2124830E+03  0.7561462E-02  0.1139615E+00
          3   -1    0    0  501    0  0.00000000000E+00  0.00000000000E+00  0.18586489462E+03  0.18586489462E+03  0.00000000000E+00 0. -1.
         -3   -1    0    0    0  501 -0.00000000000E+00 -0.00000000000E+00 -0.32549708672E+03  0.32549708672E+03  0.00000000000E+00 0.  1.
         25    2    1    2    0    0  0.84796827407E+02 -0.16948805422E+03 -0.18938072446E+03  0.29568410262E+03  0.12508927727E+03 0.  0.
         23    2    1    2    0    0 -0.84796827407E+02  0.16948805422E+03  0.49748532351E+02  0.21567787871E+03  0.90140603691E+02 0.  0.
          5    1    3    3  502    0 -0.80828351504E+01 -0.96539120364E+02 -0.39220823532E+02  0.10459865861E+03  0.41800000000E+01 0. -1.
         -5    1    3    3    0  502  0.92879662558E+02 -0.72948933855E+02 -0.15015990093E+03  0.19108544401E+03  0.41800000000E+01 0. -1.
        -11    1    4    4    0    0 -0.47557909990E+01  0.10998320641E+03  0.24015657501E+02  0.11267508617E+03  0.00000000000E+00 0. -1.
         11    1    4    4    0    0 -0.80041036408E+02  0.59504847814E+02  0.25732874850E+02  0.10300279254E+03  0.00000000000E+00 0.  1.
</event>
<event>
 8    1  0.6862919E-009  0.1076523E+03  0.7561462E-02  0.1264980E+00
         -2   -1    0    0    0  501 -0.00000000000E+00  0.00000000000E+00  0.49917236567E+03  0.49917236567E+03  0.00000000000E+00 0.  1.
          2   -1    0    0  501    0  0.00000000000E+00 -0.00000000000E+00 -0.23950197849E+02  0.23950197849E+02  0.00000000000E+00 0. -1.
         25    2    1    2    0    0  0.19243674536E+02 -0.83860593046E+01  0.29123788580E+03  0.31766005827E+03  0.12509101285E+03 0.  0.
         23    2    1    2    0    0 -0.19243674536E+02  0.83860593046E+01  0.18398428202E+03  0.20546250524E+03  0.89016740172E+02 0.  0.
          5    1    3    3  502    0 -0.27086751786E+02 -0.53332990706E+02  0.11091401466E+03  0.12608525318E+03  0.41800000000E+01 0. -1.
         -5    1    3    3    0  502  0.46330426322E+02  0.44946931402E+02  0.18032387114E+03  0.19157480510E+03  0.41800000000E+01 0. -1.
        -11    1    4    4    0    0  0.72884573676E+01  0.44918260679E+02  0.78769699906E+02  0.90969431001E+02  0.00000000000E+00 0.  1.
         11    1    4    4    0    0 -0.26532131904E+02 -0.36532201374E+02  0.10521458211E+03  0.11449307424E+03  0.00000000000E+00 0. -1.
</event>
<event>
 8    1  0.6862919E-009  0.7683870E+02  0.7561462E-02  0.1338270E+00
         -2   -1    0    0    0  501 -0.00000000000E+00  0.00000000000E+00  0.91006332541E+02  0.91006332541E+02  0.00000000000E+00 0.  1.
          2   -1    0    0  501    0  0.00000000000E+00 -0.00000000000E+00 -0.19904336170E+03  0.19904336170E+03  0.00000000000E+00 0. -1.
         25    2    1    2    0    0  0.50379031837E+02  0.33147341298E+02 -0.46637875057E+01  0.13894360842E+03  0.12508709895E+03 0.  0.
         23    2    1    2    0    0 -0.50379031837E+02 -0.33147341298E+02 -0.10337324165E+03  0.15110608581E+03  0.92250902418E+02 0.  0.
          5    1    3    3  502    0  0.66334538332E+01 -0.20026275067E+02  0.47709071210E+02  0.52332420912E+02  0.41800000000E+01 0. -1.
         -5    1    3    3    0  502  0.43745578004E+02  0.53173616365E+02 -0.52372858715E+02  0.86611187512E+02  0.41800000000E+01 0. -1.
        -11    1    4    4    0    0 -0.19802793046E+02 -0.26089651135E+01  0.15072801769E+02  0.25022922782E+02  0.00000000000E+00 0.  1.
         11    1    4    4    0    0 -0.30576238791E+02 -0.30538376184E+02 -0.11844604342E+03  0.12608316303E+03  0.00000000000E+00 0. -1.
</event>
<event>
 8    1  0.6862919E-009  0.9353452E+02  0.7561462E-02  0.1294511E+00
          3   -1    0    0  501    0  0.00000000000E+00  0.00000000000E+00  0.16532155566E+02  0.16532155566E+02  0.00000000000E+00 0. -1.
         -3   -1    0    0    0  501 -0.00000000000E+00 -0.00000000000E+00 -0.20221918461E+04  0.20221918461E+04  0.00000000000E+00 0.  1.
         25    2    1    2    0    0  0.77815010273E+01 -0.51387388417E+02 -0.18237385869E+04  0.18287618856E+04  0.12508551275E+03 0.  0.
         23    2    1    2    0    0 -0.77815010273E+01  0.51387388417E+02 -0.18192110363E+03  0.20996211604E+03  0.91036183909E+02 0.  0.
          5    1    3    3  502    0 -0.46414740447E+02 -0.33581029576E+01 -0.33327151884E+03  0.33653080491E+03  0.41800000000E+01 0.  1.
         -5    1    3    3    0  502  0.54196241474E+02 -0.48029285459E+02 -0.14904670681E+04  0.14922310807E+04  0.41800000000E+01 0.  1.
        -11    1    4    4    0    0  0.15468971219E+02  0.37887613389E+02 -0.17817805715E+03  0.18281734154E+03  0.00000000000E+00 0.  1.
         11    1    4    4    0    0 -0.23250472246E+02  0.13499775028E+02 -0.37430464740E+01  0.27144774495E+02  0.00000000000E+00 0. -1.
</event>
<event>
 8    1  0.6862919E-009  0.1304693E+03  0.7561462E-02  0.1226761E+00
          1   -1    0    0  501    0  0.00000000000E+00  0.00000000000E+00  0.76822636592E+02  0.76822636592E+02  0.00000000000E+00 0. -1.
         -1   -1    0    0    0  501 -0.00000000000E+00 -0.00000000000E+00 -0.39242168149E+03  0.39242168149E+03  0.00000000000E+00 0.  1.
         25    2    1    2    0    0 -0.89292988814E+02  0.28950265850E+02 -0.36412564837E+02  0.16057632168E+03  0.12509006541E+03 0.  0.
         23    2    1    2    0    0  0.89292988814E+02 -0.28950265850E+02 -0.27918648006E+03  0.30866799639E+03  0.92301059618E+02 0.  0.
          5    1    3    3  502    0  0.27597488782E+02 -0.99051938686E+01  0.60257614243E+01  0.30224434707E+02  0.41800000000E+01 0.  1.
         -5    1    3    3    0  502 -0.11689047760E+03  0.38855459719E+02 -0.42438326262E+02  0.13035188698E+03  0.41800000000E+01 0.  1.
        -11    1    4    4    0    0  0.33058630626E+02 -0.38807041588E+02 -0.46234881001E+02  0.68822407375E+02  0.00000000000E+00 0. -1.
         11    1    4    4    0    0  0.56234358188E+02  0.98567757379E+01 -0.23295159906E+03  0.23984558902E+03  0.00000000000E+00 0.  1.
</event>
<event>
 8    1  0.6862919E-009  0.1139899E+03  0.7561462E-02  0.1253355E+00
          2   -1    0    0  501    0  0.00000000000E+00  0.00000000000E+00  0.10057906966E+04  0.10057906966E+04  0.00000000000E+00 0. -1.
         -2   -1    0    0    0  501 -0.00000000000E+00 -0.00000000000E+00 -0.19073999489E+02  0.19073999489E+02  0.00000000000E+00 0.  1.
         25    2    1    2    0    0 -0.68542356156E+02  0.21331509179E+02  0.66153813865E+03  0.67707798701E+03  0.12509517868E+03 0.  0.
         23    2    1    2    0    0  0.68542356156E+02 -0.21331509179E+02  0.32517855848E+03  0.34778670910E+03  0.10030659131E+03 0.  0.
          5    1    3    3  502    0  0.14553065606E+02  0.14880715336E+02  0.17102291407E+02  0.27261477928E+02  0.41800000000E+01 0.  1.
         -5    1    3    3    0  502 -0.83095421762E+02  0.64507938425E+01  0.64443584724E+03  0.64981650908E+03  0.41800000000E+01 0.  1.
        -11    1    4    4    0    0  0.46669528650E+02 -0.61714495873E+02  0.19938219955E+03  0.21386908473E+03  0.00000000000E+00 0.  1.
         11    1    4    4    0    0  0.21872827506E+02  0.40382986695E+02  0.12579635893E+03  0.13391762437E+03  0.00000000000E+00 0. -1.
</event>
<event>
 8    1  0.6862919E-009  0.9227955E+02  0.7561462E-02  0.1297423E+00
          2   -1    0    0  501    0  0.00000000000E+00  0.00000000000E+00  0.51813385675E+03  0.51813385675E+03  0.00000000000E+00 0.  1.
         -2   -1    0    0    0  501 -0.00000000000E+00 -0.00000000000E+00 -0.27611734718E+02  0.27611734718E+02  0.00000000000E+00 0. -1.
         25    2    1    2    0    0 -0.18108465780E+02  0.36415057069E+02  0.34247575428E+03  0.36686693198E+03  0.12509088932E+03 0.  0.
         23    2    1    2    0    0  0.18108465780E+02 -0.36415057069E+02  0.14804636775E+03  0.17887865949E+03  0.91792564535E+02 0.  0.
          5    1    3    3  502    0 -0.56522342720E+01  0.68874985352E+02  0.98535572917E+02  0.12042608891E+03  0.41800000000E+01 0. -1.
         -5    1    3    3    0  502 -0.12456231508E+02 -0.32459928283E+02  0.24394018137E+03  0.24644084307E+03  0.41800000000E+01 0. -1.
        -11    1    4    4    0    0  0.43441253918E+02 -0.11867859650E+02  0.26356058516E+02  0.52178831485E+02  0.00000000000E+00 0. -1.
         11    1    4    4    0    0 -0.25332788138E+02 -0.24547197419E+02  0.12169030923E+03  0.12669982801E+03  0.00000000000E+00 0.  1.
</event>
<event>
 8    1  0.6862919E-009  0.1307249E+03  0.7561462E-02  0.1226384E+00
          2   -1    0    0  501    0  0.00000000000E+00  0.00000000000E+00  0.14062774376E+04  0.14062774376E+04  0.00000000000E+00 0.  1.
         -2   -1    0    0    0  501 -0.00000000000E+00 -0.00000000000E+00 -0.26142892735E+02  0.26142892735E+02  0.00000000000E+00 0. -1.
         25    2    1    2    0    0  0.14864474436E+02 -0.11438460524E+03  0.11228434132E+04  0.11356625657E+04  0.12508933583E+03 0.  0.
         23    2    1    2    0    0 -0.14864474436E+02  0.11438460524E+03  0.25729113158E+03  0.29675776460E+03  0.92529205891E+02 0.  0.
          5    1    3    3  502    0  0.46326261527E+02 -0.58512285068E+02  0.26284416574E+03  0.27326605694E+03  0.41800000000E+01 0. -1.
         -5    1    3    3    0  502 -0.31461787091E+02 -0.55872320175E+02  0.85999924750E+03  0.86239650876E+03  0.41800000000E+01 0. -1.
        -11    1    4    4    0    0 -0.21677108351E+02  0.26236605601E+02  0.16683705445E+03  0.17027289637E+03  0.00000000000E+00 0.  1.
         11    1    4    4    0    0  0.68126339144E+01  0.88147999643E+02  0.90454077130E+02  0.12648486823E+03  0.00000000000E+00 0. -1.
</event>
<event>
 8    1  0.6862919E-009  0.1141572E+03  0.7561462E-02  0.1253059E+00
         -1   -1    0    0    0  501 -0.00000000000E+00  0.00000000000E+00  0.36244437682E+02  0.36244437682E+02  0.00000000000E+00 0.  1.
          1   -1    0    0  501    0  0.00000000000E+00 -0.00000000000E+00 -0.57097492568E+03  0.57097492568E+03  0.00000000000E+00 0. -1.
         25    2    1    2    0    0 -0.26920174723E+02 -0.86294707140E+01 -0.47059466045E+03  0.48775594804E+03  0.12508943536E+03 0.  0.
         23    2    1    2    0    0  0.26920174723E+02  0.86294707140E+01 -0.64135827551E+02  0.11946341532E+03  0.96741612827E+02 0.  0.
          5    1    3    3  502    0 -0.48859226883E+02  0.47055644465E+02 -0.26608255277E+03  0.27462493517E+03  0.41800000000E+01 0. -1.
         -5    1    3    3    0  502  0.21939052159E+02 -0.55685115179E+02 -0.20451210768E+03  0.21313101287E+03  0.41800000000E+01 0. -1.
        -11    1    4    4    0    0 -0.34254767686E+02  0.17623254610E+02 -0.30061344943E+02  0.48863612966E+02  0.00000000000E+00 0. -1.
         11    1    4    4    0    0  0.61174942409E+02 -0.89937838963E+01 -0.34074482607E+02  0.70599802354E+02  0.00000000000E+00 0.  1.
</event>
<event>
 8    1  0.6862919E-009  0.6488279E+02  0.7561462E-02  0.1378413E+00
         -1   -1    0    0    0  501 -0.00000000000E+00  0.00000000000E+00  0.12091385779E+03  0.12091385779E+03  0.00000000000E+00 0.  1.
          1   -1    0    0  501    0  0.00000000000E+00 -0.00000000000E+00 -0.11406830562E+03  0.11406830562E+03  0.00000000000E+00 0. -1.
         25    2    1    2    0    0  0.20937990942E+02  0.22839137711E+02 -0.34539869136E+01  0.12891731846E+03  0.12509084418E+03 0.  0.
         23    2    1    2    0    0 -0.20937990942E+02 -0.22839137711E+02  0.10299539091E+02  0.10606484495E+03  0.10091404834E+03 0.  0.
          5    1    3    3  502    0 -0.57953521004E+00  0.56049101314E+01 -0.62882401365E+02  0.63272582373E+02  0.41800000000E+01 0. -1.
         -5    1    3    3    0  502  0.21517526152E+02  0.17234227580E+02  0.59428414452E+02  0.65644736089E+02  0.41800000000E+01 0. -1.
        -11    1    4    4    0    0 -0.54406733478E+02 -0.27689749348E+02 -0.16131481599E+02  0.63143008840E+02  0.00000000000E+00 0. -1.
         11    1    4    4    0    0  0.33468742536E+02  0.48506116372E+01  0.26431020690E+02  0.42921836108E+02  0.00000000000E+00 0.  1.
</event>
<event>
 8    1  0.6862919E-009  0.1480624E+03  0.7561462E-02  0.1202874E+00
         -2   -1    0    0    0  501 -0.00000000000E+00  0.00000000000E+00  0.46532626034E+02  0.46532626034E+02  0.00000000000E+00 0.  1.
          2   -1    0    0  501    0  0.00000000000E+00 -0.00000000000E+00 -0.54750731362E+03  0.54750731362E+03  0.00000000000E+00 0. -1.
         25    2    1    2    0    0 -0.86200484189E+02 -0.78424004027E+02 -0.33324079141E+03  0.37453711178E+03  0.12509106748E+03 0.  0.
         23    2    1    2    0    0  0.86200484189E+02  0.78424004027E+02 -0.16773389618E+03  0.21950282787E+03  0.80411340210E+02 0.  0.
          5    1    3    3  502    0 -0.89639877391E+02 -0.10789949992E+03 -0.26125578607E+03  0.29656309254E+03  0.41800000000E+01 0.  1.
         -5    1    3    3    0  502  0.34393932019E+01  0.29475495890E+02 -0.71985005335E+02  0.77974019241E+02  0.41800000000E+01 0.  1.
        -11    1    4    4    0    0 -0.25767696107E+00  0.23255634378E+02 -0.83824837653E+02  0.86991346325E+02  0.00000000000E+00 0. -1.
         11    1    4    4    0    0  0.86458161150E+02  0.55168369649E+02 -0.83909058525E+02  0.13251148155E+03  0.00000000000E+00 0.  1.
</event>
<event>
 8    1  0.6862919E-009  0.1204597E+03  0.7561462E-02  0.1242341E+00
          2   -1    0    0  501    0  0.00000000000E+00  0.00000000000E+00  0.33986802733E+03  0.33986802733E+03  0.00000000000E+00 0. -1.
         -2   -1    0    0    0  501 -0.00000000000E+00 -0.00000000000E+00 -0.62595886035E+02  0.62595886035E+02  0.00000000000E+00 0.  1.
         25    2    1    2    0    0  0.36616829690E+02 -0.52860625066E+02  0.50900748420E+02  0.14957728733E+03  0.12508973098E+03 0.  0.
         23    2    1    2    0    0 -0.36616829690E+02  0.52860625066E+02  0.22637139287E+03  0.25288662603E+03  0.92588337362E+02 0.  0.
          5    1    3    3  502    0 -0.43063680609E+02 -0.39394528921E+02  0.31126479445E+02  0.66277746033E+02  0.41800000000E+01 0. -1.
         -5    1    3    3    0  502  0.79680510300E+02 -0.13466096145E+02  0.19774268975E+02  0.83299541298E+02  0.41800000000E+01 0. -1.
        -11    1    4    4    0    0 -0.94612965769E+01 -0.20870016747E+02  0.15009271072E+02  0.27392552821E+02  0.00000000000E+00 0.  1.
         11    1    4    4    0    0 -0.27155533113E+02  0.73730641813E+02  0.21136212180E+03  0.22549407321E+03  0.00000000000E+00 0. -1.
</event>
<event>
 8    1  0.6862919E-009  0.2407646E+03  0.7561462E-02  0.1119285E+00
          2   -1    0    0  501    0  0.00000000000E+00  0.00000000000E+00  0.17528140939E+03  0.17528140939E+03  0.00000000000E+00 0.  1.
         -2   -1    0    0    0  501 -0.00000000000E+00 -0.00000000000E+00 -0.34719573689E+03  0.34719573689E+03  0.00000000000E+00 0. -1.
         25    2    1    2    0    0 -0.11788964462E+03  0.18857692603E+03 -0.98525025609E+02  0.27352122332E+03  0.12508978216E+03 0.  0.
         23    2    1    2    0    0  0.11788964462E+03 -0.18857692603E+03 -0.73389301895E+02  0.24895592295E+03  0.84462042376E+02 0.  0.
          5    1    3    3  502    0 -0.10069415174E+03  0.19919338125E+03 -0.11110004184E+03  0.24935518247E+03  0.41800000000E+01 0. -1.
         -5    1    3    3    0  502 -0.17195492883E+02 -0.10616455228E+02  0.12575016234E+02  0.24166040850E+02  0.41800000000E+01 0. -1.
        -11    1    4    4    0    0  0.26221688435E+02  0.18774402364E+01 -0.46817255934E+01  0.26702439603E+02  0.00000000000E+00 0.  1.
         11    1    4    4    0    0  0.91667956183E+02 -0.19045436626E+03 -0.68707576301E+02  0.22225348335E+03  0.00000000000E+00 0. -1.
</event>
<event>
 8    1  0.6862919E-009  0.1592065E+03  0.7561462E-02  0.1189595E+00
          1   -1    0    0  501    0  0.00000000000E+00  0.00000000000E+00  0.19593727254E+03  0.19593727254E+03  0.00000000000E+00 0. -1.
         -1   -1    0    0    0  501 -0.00000000000E+00 -0.00000000000E+00 -0.15425626532E+03  0.15425626532E+03  0.00000000000E+00 0.  1.
         25    2    1    2    0    0  0.98928361413E+02  0.84626549192E+02  0.42168991009E+02  0.18540146236E+03  0.12508798872E+03 0.  0.
         23    2    1    2    0    0 -0.98928361413E+02 -0.84626549192E+02 -0.48798379277E+00  0.16479207550E+03  0.10103324452E+03 0.  0.
          5    1    3    3  502    0  0.90937452951E+02  0.11311677813E+03  0.51554080289E+02  0.15407894548E+03  0.41800000000E+01 0. -1.
         -5    1    3    3    0  502  0.79909084627E+01 -0.28490228942E+02 -0.93850892801E+01  0.31322516885E+02  0.41800000000E+01 0. -1.
        -11    1    4    4    0    0 -0.47408858570E+02 -0.78150926563E+02  0.39179131345E+02  0.99449341509E+02  0.00000000000E+00 0. -1.
         11    1    4    4    0    0 -0.51519502843E+02 -0.64756226288E+01 -0.39667115137E+02  0.65342733987E+02  0.00000000000E+00 0.  1.
</event>
<event>
 8    1  0.6862919E-009  0.9948847E+02  0.7561462E-02  0.1281375E+00
          2   -1    0    0  501    0  0.00000000000E+00  0.00000000000E+00  0.11313209015E+04  0.11313209015E+04  0.00000000000E+00 0.  1.
         -2   -1    0    0    0  501 -0.00000000000E+00 -0.00000000000E+00 -0.13365909364E+02  0.13365909364E+02  0.00000000000E+00 0. -1.
         25    2    1    2    0    0  0.40549634749E+02  0.11236826521E+02  0.76506439332E+03  0.77636486830E+03  0.12509333979E+03 0.  0.
         23    2    1    2    0    0 -0.40549634749E+02 -0.11236826521E+02  0.35289059879E+03  0.36832194253E+03  0.96740578303E+02 0.  0.
          5    1    3    3  502    0 -0.33224133990E+02 -0.24020156101E+01  0.49219956652E+03  0.49334318526E+03  0.41800000000E+01 0. -1.
         -5    1    3    3    0  502  0.73773768738E+02  0.13638842131E+02  0.27286482679E+03  0.28302168304E+03  0.41800000000E+01 0. -1.
        -11    1    4    4    0    0 -0.35733179550E+02  0.31271429354E+02  0.27840311410E+03  0.28242354073E+03  0.00000000000E+00 0.  1.
         11    1    4    4    0    0 -0.48164551984E+01 -0.42508255875E+02  0.74487484685E+02  0.85898401807E+02  0.00000000000E+00 0. -1.
</event>
<event>
 8    1  0.6862919E-009  0.1606272E+03  0.7561462E-02  0.1187991E+00
         -1   -1    0    0    0  501 -0.00000000000E+00  0.00000000000E+00  0.51938254608E+03  0.51938254608E+03  0.00000000000E+00 0.  1.
          1   -1    0    0  501    0  0.00000000000E+00 -0.00000000000E+00 -0.10251130530E+03  0.10251130530E+03  0.00000000000E+00 0. -1.
         25    2    1    2    0    0  0.39970706665E+02 -0.12455135359E+03  0.60856840072E+01  0.18109556304E+03  0.12509144787E+03 0.  0.
         23    2    1    2    0    0 -0.39970706665E+02  0.12455135359E+03  0.41078555678E+03  0.44079828834E+03  0.91911154234E+02 0.  0.
          5    1    3    3  502    0  0.55212176630E+02 -0.45078468579E+01 -0.16448065997E+02  0.57937176377E+02  0.41800000000E+01 0. -1.
         -5    1    3    3    0  502 -0.15241469966E+02 -0.12004350673E+03  0.22533750004E+02  0.12315838666E+03  0.41800000000E+01 0. -1.
        -11    1    4    4    0    0 -0.15469018597E+02  0.11833739749E+03  0.39067397948E+03  0.40849625265E+03  0.00000000000E+00 0.  1.
         11    1    4    4    0    0 -0.24501688068E+02  0.62139560988E+01  0.20111577296E+02  0.32302035693E+02  0.00000000000E+00 0. -1.
</event>
<event>
 8    1  0.6862919E-009  0.1111720E+03  0.7561462E-02  0.1258415E+00
          2   -1    0    0  501    0  0.00000000000E+00  0.00000000000E+00  0.30641384689E+03  0.30641384689E+03  0.00000000000E+00 0.  1.
         -2   -1    0    0    0  501 -0.00000000000E+00 -0.00000000000E+00 -0.44384558653E+02  0.44384558653E+02  0.00000000000E+00 0. -1.
         25    2    1    2    0    0 -0.13846789696E+02  0.32294060308E+02  0.11109183979E+03  0.17095041015E+03  0.12509198994E+03 0.  0.
         23    2    1    2    0    0  0.13846789696E+02 -0.32294060308E+02  0.15093744844E+03  0.17984799538E+03  0.91260879824E+02 0.  0.
          5    1    3    3  502    0 -0.49937490911E+02 -0.28259652816E+02  0.35980711369E+02  0.67856060646E+02  0.41800000000E+01 0.  1.
         -5    1    3    3    0  502  0.36090701215E+02  0.60553713123E+02  0.75111128424E+02  0.10309434951E+03  0.41800000000E+01 0.  1.
        -11    1    4    4    0    0 -0.18683406082E+02 -0.52619427296E+02  0.64691475025E+02  0.85456776986E+02  0.00000000000E+00 0.  1.
         11    1    4    4    0    0  0.32530195779E+02  0.20325366988E+02  0.86245973415E+02  0.94391218399E+02  0.00000000000E+00 0. -1.
</event>
<event>
 8    1  0.6862919E-009  0.1761397E+03  0.7561462E-02  0.1171592E+00
          2   -1    0    0  501    0  0.00000000000E+00  0.00000000000E+00  0.66106229484E+03  0.66106229484E+03  0.00000000000E+00 0. -1.
         -2   -1    0    0    0  501 -0.00000000000E+00 -0.00000000000E+00 -0.70128194796E+02  0.70128194796E+02  0.00000000000E+00 0.  1.
         25    2    1    2    0    0 -0.13378449948E+03  0.11163853713E+03  0.41335270751E+03  0.46569348850E+03  0.12509400127E+03 0.  0.
         23    2    1    2    0    0  0.13378449948E+03 -0.11163853713E+03  0.17758139253E+03  0.26549700114E+03  0.92693318887E+02 0.  0.
          5    1    3    3  502    0 -0.73078967487E+02  0.82083672137E+02  0.36841512062E+03  0.38448073843E+03  0.41800000000E+01 0. -1.
         -5    1    3    3    0  502 -0.60705531989E+02  0.29554864991E+02  0.44937586891E+02  0.81212750072E+02  0.41800000000E+01 0. -1.
        -11    1    4    4    0    0  0.80507237322E+02 -0.59511094261E+02  0.37665749834E+02  0.10696585582E+03  0.00000000000E+00 0.  1.
         11    1    4    4    0    0  0.53277262155E+02 -0.52127442867E+02  0.13991564270E+03  0.15853114531E+03  0.00000000000E+00 0. -1.
</event>
<event>
 8    1  0.6862919E-009  0.1072344E+03  0.7561462E-02  0.1265779E+00
         -1   -1    0    0    0  501 -0.00000000000E+00  0.00000000000E+00  0.18360565750E+02  0.18360565750E+02  0.00000000000E+00 0.  1.
          1   -1    0    0  501    0  0.00000000000E+00 -0.00000000000E+00 -0.66046601035E+03  0.66046601035E+03  0.00000000000E+00 0. -1.
         25    2    1    2    0    0 -0.11841007150E+02  0.25235000391E+02 -0.39441610603E+03  0.41471545428E+03  0.12509128119E+03 0.  0.
         23    2    1    2    0    0  0.11841007150E+02 -0.25235000391E+02 -0.24768933857E+03  0.26411112182E+03  0.87336484534E+02 0.  0.
          5    1    3    3  502    0 -0.60152386799E+02 -0.17131526152E+02 -0.16770198796E+03  0.17903415315E+03  0.41800000000E+01 0. -1.
         -5    1    3    3    0  502  0.48311379650E+02  0.42366526543E+02 -0.22671411806E+03  0.23568130113E+03  0.41800000000E+01 0. -1.
        -11    1    4    4    0    0  0.47435243556E+02 -0.19730825470E+02 -0.18295669423E+03  0.19003304915E+03  0.00000000000E+00 0. -1.
         11    1    4    4    0    0 -0.35594236407E+02 -0.55041749207E+01 -0.64732644340E+02  0.74078072668E+02  0.00000000000E+00 0.  1.
</event>
<event>
 8    1  0.6862919E-009  0.1129088E+03  0.7561462E-02  0.1255276E+00
         -2   -1    0    0    0  501 -0.00000000000E+00  0.00000000000E+00  0.88817918517E+02  0.88817918517E+02  0.00000000000E+00 0.  1.
          2   -1    0    0  501    0  0.00000000000E+00 -0.00000000000E+00 -0.47142929348E+03  0.47142929348E+03  0.00000000000E+00 0. -1.
         25    2    1    2    0    0 -0.47678048852E+02 -0.29726295791E+02 -0.42427338821E+03  0.44588628759E+03  0.12509925864E+03 0.  0.
         23    2    1    2    0    0  0.47678048852E+02  0.29726295791E+02  0.41662013251E+02  0.11436092440E+03  0.90475680040E+02 0.  0.
          5    1    3    3  502    0  0.39885787877E+01  0.37833516050E+02 -0.55550693510E+02  0.67458399380E+02  0.41800000000E+01 0. -1.
         -5    1    3    3    0  502 -0.51666627640E+02 -0.67559811842E+02 -0.36872269470E+03  0.37842788821E+03  0.41800000000E+01 0. -1.
        -11    1    4    4    0    0  0.72245289234E+02  0.15121894865E+02  0.43580083164E+02  0.85716259656E+02  0.00000000000E+00 0.  1.
         11    1    4    4    0    0 -0.24567240382E+02  0.14604400926E+02 -0.19180699135E+01  0.28644664749E+02  0.00000000000E+00 0. -1.
</event>
<event>
 8    1  0.6862919E-009  0.1012397E+03  0.7561462E-02  0.1277711E+00
          2   -1    0    0  501    0  0.00000000000E+00  0.00000000000E+00  0.50776388638E+02  0.50776388638E+02  0.00000000000E+00 0. -1.
         -2   -1    0    0    0  501 -0.00000000000E+00 -0.00000000000E+00 -0.25102695513E+03  0.25102695513E+03  0.00000000000E+00 0.  1.
         25    2    1    2    0    0  0.76761178375E+01  0.29383428028E+02 -0.11431142397E+03  0.17215313624E+03  0.12508913637E+03 0.  0.
         23    2    1    2    0    0 -0.76761178375E+01 -0.29383428028E+02 -0.85939142523E+02  0.12965020753E+03  0.92202665189E+02 0.  0.
          5    1    3    3  502    0  0.63756986081E+02 -0.12767359267E+01 -0.47721793703E+02  0.79758543887E+02  0.41800000000E+01 0.  1.
         -5    1    3    3    0  502 -0.56080868243E+02  0.30660163955E+02 -0.66589630270E+02  0.92394592354E+02  0.41800000000E+01 0.  1.
        -11    1    4    4    0    0 -0.33002203980E+02 -0.35496370655E+02 -0.91006784519E+02  0.10310854778E+03  0.00000000000E+00 0.  1.
         11    1    4    4    0    0  0.25326086142E+02  0.61129426271E+01  0.50676419970E+01  0.26541659750E+02  0.00000000000E+00 0. -1.
</event>
<event>
 8    1  0.6862919E-009  0.9167016E+02  0.7561462E-02  0.1298857E+00
          2   -1    0    0  501    0  0.00000000000E+00  0.00000000000E+00  0.57138888158E+03  0.57138888158E+03  0.00000000000E+00 0. -1.
         -2   -1    0    0    0  501 -0.00000000000E+00 -0.00000000000E+00 -0.34419375404E+02  0.34419375404E+02  0.00000000000E+00 0.  1.
         25    2    1    2    0    0 -0.58336256083E+02 -0.63100702945E+02  0.24433209142E+03  0.28763333568E+03  0.12509974984E+03 0.  0.
         23    2    1    2    0    0  0.58336256083E+02  0.63100702945E+02  0.29263741476E+03  0.31817492131E+03  0.90630053226E+02 0.  0.
          5    1    3    3  502    0 -0.49996086807E+02 -0.69293711685E+02  0.63714103242E+02  0.10666858266E+03  0.41800000000E+01 0.  1.
         -5    1    3    3    0  502 -0.83401692754E+01  0.61930087399E+01  0.18061798818E+03  0.18096475302E+03  0.41800000000E+01 0.  1.
        -11    1    4    4    0    0  0.46735130418E+02  0.43669240213E+02  0.28807246252E+03  0.29508798454E+03  0.00000000000E+00 0. -1.
         11    1    4    4    0    0  0.11601125665E+02  0.19431462732E+02  0.45649522392E+01  0.23086936773E+02  0.00000000000E+00 0.  1.
</event>
<event>
 8    1  0.6862919E-009  0.1500405E+03  0.7561462E-02  0.1200423E+00
          2   -1    0    0  501    0  0.00000000000E+00  0.00000000000E+00  0.81030471356E+03  0.81030471356E+03  0.00000000000E+00 0.  1.
         -2   -1    0    0    0  501 -0.00000000000E+00 -0.00000000000E+00 -0.40024629937E+02  0.40024629937E+02  0.00000000000E+00 0. -1.
         25    2    1    2    0    0 -0.40459106684E+02 -0.13278597327E+03  0.50359328556E+03  0.53714333530E+03  0.12509081255E+03 0.  0.
         23    2    1    2    0    0  0.40459106684E+02  0.13278597327E+03  0.26668679806E+03  0.31318600820E+03  0.87718717848E+02 0.  0.
          5    1    3    3  502    0 -0.21826786190E+02  0.35830459216E+01  0.98731525918E+01  0.24580446610E+02  0.41800000000E+01 0. -1.
         -5    1    3    3    0  502 -0.18632320495E+02 -0.13636901919E+03  0.49372013297E+03  0.51256288869E+03  0.41800000000E+01 0. -1.
        -11    1    4    4    0    0  0.15828574889E+02  0.80924502624E+02  0.23174046526E+03  0.24597349888E+03  0.00000000000E+00 0.  1.
         11    1    4    4    0    0  0.24630531795E+02  0.51861470642E+02  0.34946332801E+02  0.67212509326E+02  0.00000000000E+00 0. -1.
</event>
<event>
 8    1  0.6862919E-009  0.9024749E+02  0.7561462E-02  0.1302253E+00
         -1   -1    0    0    0  501 -0.00000000000E+00  0.00000000000E+00  0.23901857007E+03  0.23901857007E+03  0.00000000000E+00 0.  1.
          1   -1    0    0  501    0  0.00000000000E+00 -0.00000000000E+00 -0.68121365093E+02  0.68121365093E+02  0.00000000000E+00 0. -1.
         25    2    1    2    0    0 -0.29097365379E+02 -0.59144737896E+02  0.10943013151E+03  0.17879370062E+03  0.12508987571E+03 0.  0.
         23    2    1    2    0    0  0.29097365379E+02  0.59144737896E+02  0.61467073471E+02  0.12834623455E+03  0.91377229706E+02 0.  0.
          5    1    3    3  502    0  0.80867509876E+01 -0.14276932165E+02  0.11847134714E+03  0.11967522228E+03  0.41800000000E+01 0. -1.
         -5    1    3    3    0  502 -0.37184116367E+02 -0.44867805730E+02 -0.90412156337E+01  0.59118478340E+02  0.41800000000E+01 0. -1.
        -11    1    4    4    0    0  0.10352040532E+01  0.73576711083E+02  0.62833629953E+02  0.96760886283E+02  0.00000000000E+00 0.  1.
         11    1    4    4    0    0  0.28062161326E+02 -0.14431973187E+02 -0.13665564820E+01  0.31585348265E+02  0.00000000000E+00 0. -1.
</event>
<event>
 8    1  0.6862919E-009  0.1311978E+03  0.7561462E-02  0.1225689E+00
          1   -1    0    0  501    0  0.00000000000E+00  0.00000000000E+00  0.13452321072E+03  0.13452321072E+03  0.00000000000E+00 0. -1.
         -1   -1    0    0    0  501 -0.00000000000E+00 -0.00000000000E+00 -0.16370617592E+03  0.16370617592E+03  0.00000000000E+00 0.  1.
         25    2    1    2    0    0  0.48049019061E+02  0.86718593204E+02 -0.35041779923E+02  0.16341495186E+03  0.12509075710E+03 0.  0.
         23    2    1    2    0    0 -0.48049019061E+02 -0.86718593204E+02  0.58588147297E+01  0.13481443478E+03  0.91168983077E+02 0.  0.
          5    1    3    3  502    0  0.67838220189E+02  0.45402958964E+02 -0.68409119251E+02  0.10658673838E+03  0.41800000000E+01 0.  1.
         -5    1    3    3    0  502 -0.19789201128E+02  0.41315634240E+02  0.33367339327E+02  0.56828213483E+02  0.41800000000E+01 0.  1.
        -11    1    4    4    0    0 -0.62613827450E+02 -0.19061746369E+02  0.14448619848E+01  0.65467008399E+02  0.00000000000E+00 0. -1.
         11    1    4    4    0    0  0.14564808389E+02 -0.67656846834E+02  0.44139527449E+01  0.69347426382E+02  0.00000000000E+00 0.  1.
</event>
<event>
 8    1  0.6862919E-009  0.9926617E+02  0.7561462E-02  0.1281847E+00
          1   -1    0    0  501    0  0.00000000000E+00  0.00000000000E+00  0.12984008343E+03  0.12984008343E+03  0.00000000000E+00 0. -1.
         -1   -1    0    0    0  501 -0.00000000000E+00 -0.00000000000E+00 -0.13201354109E+03  0.13201354109E+03  0.00000000000E+00 0.  1.
         25    2    1    2    0    0  0.10609028210E+02 -0.31618548161E+02 -0.65945092347E+02  0.14528846159E+03  0.12509075825E+03 0.  0.
         23    2    1    2    0    0 -0.10609028210E+02  0.31618548161E+02  0.63771634685E+02  0.11656516293E+03  0.91696956059E+02 0.  0.
          5    1    3    3  502    0  0.63450122524E+02 -0.14489439741E+02 -0.93617257590E+01  0.65886085189E+02  0.41800000000E+01 0. -1.
         -5    1    3    3    0  502 -0.52841094314E+02 -0.17129108420E+02 -0.56583366588E+02  0.79402376401E+02  0.41800000000E+01 0. -1.
        -11    1    4    4    0    0  0.77766519242E+01 -0.20722339376E+02  0.56417322522E+02  0.60603679302E+02  0.00000000000E+00 0. -1.
         11    1    4    4    0    0 -0.18385680134E+02  0.52340887537E+02  0.73543121630E+01  0.55961483625E+02  0.00000000000E+00 0.  1.
</event>
<event>
 8    1  0.6862919E-009  0.1044977E+03  0.7561462E-02  0.1271112E+00
         -3   -1    0    0    0  501 -0.00000000000E+00  0.00000000000E+00  0.86113345193E+03  0.86113345193E+03  0.00000000000E+00 0.  1.
          3   -1    0    0  501    0  0.00000000000E+00 -0.00000000000E+00 -0.18978151141E+02  0.18978151141E+02  0.00000000000E+00 0. -1.
         25    2    1    2    0    0  0.49133182686E+02 -0.45905806664E+02  0.48577670318E+03  0.50611070663E+03  0.12509048439E+03 0.  0.
         23    2    1    2    0    0 -0.49133182686E+02  0.45905806664E+02  0.35637859761E+03  0.37400089644E+03  0.91375888394E+02 0.  0.
          5    1    3    3  502    0 -0.10735453664E+02  0.11076534909E+02  0.29606589799E+01  0.16253537848E+02  0.41800000000E+01 0. -1.
         -5    1    3    3    0  502  0.59868636350E+02 -0.56982341573E+02  0.48281604420E+03  0.48985716878E+03  0.41800000000E+01 0. -1.
        -11    1    4    4    0    0 -0.50957734802E+02 -0.11976133336E+02  0.21369858129E+03  0.22001636792E+03  0.00000000000E+00 0.  1.
         11    1    4    4    0    0  0.18245521159E+01  0.57881940000E+02  0.14268001631E+03  0.15398452852E+03  0.00000000000E+00 0. -1.
</event>
<event>
 8    1  0.6862919E-009  0.9106384E+02  0.7561462E-02  0.1300296E+00
         -2   -1    0    0    0  501 -0.00000000000E+00  0.00000000000E+00  0.22959569829E+02  0.22959569829E+02  0.00000000000E+00 0. -1.
          2   -1    0    0  501    0  0.00000000000E+00 -0.00000000000E+00 -0.67372253304E+03  0.67372253304E+03  0.00000000000E+00 0.  1.
         25    2    1    2    0    0  0.69478217330E+01 -0.18521045671E+02 -0.51379464117E+03  0.52917177878E+03  0.12508611753E+03 0.  0.
         23    2    1    2    0    0 -0.69478217330E+01  0.18521045671E+02 -0.13696832205E+03  0.16751032410E+03  0.94382657704E+02 0.  0.
          5    1    3    3  502    0 -0.19110773605E+02 -0.67779482682E+02 -0.27141278318E+03  0.28043118802E+03  0.41800000000E+01 0. -1.
         -5    1    3    3    0  502  0.26058595338E+02  0.49258437011E+02 -0.24238185798E+03  0.24874059075E+03  0.41800000000E+01 0. -1.
        -11    1    4    4    0    0 -0.29623745487E+02  0.79033835074E+01 -0.13904551854E+03  0.14238569448E+03  0.00000000000E+00 0.  1.
         11    1    4    4    0    0  0.22675923754E+02  0.10617662164E+02  0.20771964937E+01  0.25124629613E+02  0.00000000000E+00 0. -1.
</event>
<event>
 8    1  0.6862919E-009  0.3075759E+03  0.7561462E-02  0.1081514E+00
         -1   -1    0    0    0  501 -0.00000000000E+00  0.00000000000E+00  0.77881875790E+02  0.77881875790E+02  0.00000000000E+00 0.  1.
          1   -1    0    0  501    0  0.00000000000E+00 -0.00000000000E+00 -0.13403171273E+04  0.13403171273E+04  0.00000000000E+00 0. -1.
         25    2    1    2    0    0 -0.27357632268E+03 -0.12661678130E+03 -0.55555739962E+03  0.64433471350E+03  0.12508950837E+03 0.  0.
         23    2    1    2    0    0  0.27357632268E+03  0.12661678130E+03 -0.70687785190E+03  0.77386428960E+03  0.91180192885E+02 0.  0.
          5    1    3    3  502    0 -0.16792322193E+03 -0.89988208393E+02 -0.45730782630E+03  0.49542305811E+03  0.41800000000E+01 0.  1.
         -5    1    3    3    0  502 -0.10565310075E+03 -0.36628572911E+02 -0.98249573320E+02  0.14891165539E+03  0.41800000000E+01 0.  1.
        -11    1    4    4    0    0  0.20163696232E+03  0.50309421666E+02 -0.51180998817E+03  0.55239294571E+03  0.00000000000E+00 0. -1.
         11    1    4    4    0    0  0.71939360360E+02  0.76307359637E+02 -0.19506786373E+03  0.22147134389E+03  0.00000000000E+00 0.  1.
</event>
<event>
 8    1  0.6862919E-009  0.1030641E+03  0.7561462E-02  0.1273981E+00
         -1   -1    0    0    0  501 -0.00000000000E+00  0.00000000000E+00  0.44716833888E+03  0.44716833888E+03  0.00000000000E+00 0.  1.
          1   -1    0    0  501    0  0.00000000000E+00 -0.00000000000E+00 -0.42375817874E+02  0.42375817874E+02  0.00000000000E+00 0. -1.
         25    2    1    2    0    0 -0.81459443941E+02 -0.13201157474E+02  0.15771898055E+03  0.21755956861E+03  0.12508787913E+03 0.  0.
         23    2    1    2    0    0  0.81459443941E+02  0.13201157474E+02  0.24707354046E+03  0.27198458814E+03  0.78232795080E+02 0.  0.
          5    1    3    3  502    0 -0.23557183730E+02 -0.23412971815E+02 -0.13790023353E+02  0.36204216586E+02  0.41800000000E+01 0. -1.
         -5    1    3    3    0  502 -0.57902260211E+02  0.10211814341E+02  0.17150900390E+03  0.18135535203E+03  0.41800000000E+01 0. -1.
        -11    1    4    4    0    0  0.42778499940E+01 -0.26549762411E+02  0.59208018758E+02  0.65029065578E+02  0.00000000000E+00 0.  1.
         11    1    4    4    0    0  0.77181593947E+02  0.39750919885E+02  0.18786552170E+03  0.20695552257E+03  0.00000000000E+00 0. -1.
</event>
<event>
 8    1  0.6862919E-009  0.1015128E+03  0.7561462E-02  0.1277146E+00
         -1   -1    0    0    0  501 -0.00000000000E+00  0.00000000000E+00  0.25586122022E+02  0.25586122022E+02  0.00000000000E+00 0.  1.
          1   -1    0    0  501    0  0.00000000000E+00 -0.00000000000E+00 -0.65269382454E+03  0.65269382454E+03  0.00000000000E+00 0. -1.
         25    2    1    2    0    0 -0.31455266400E+02  0.11048466305E+02 -0.50797342755E+03  0.52420910407E+03  0.12508668716E+03 0.  0.
         23    2    1    2    0    0  0.31455266400E+02 -0.11048466305E+02 -0.11913427497E+03  0.15407084249E+03  0.91833254551E+02 0.  0.
          5    1    3    3  502    0  0.30361708561E+02 -0.34376313990E+02 -0.27677196948E+03  0.28057754686E+03  0.41800000000E+01 0.  1.
         -5    1    3    3    0  502 -0.61816974960E+02  0.45424780294E+02 -0.23120145807E+03  0.24363155722E+03  0.41800000000E+01 0.  1.
        -11    1    4    4    0    0 -0.13620504573E+02  0.20863873260E+02 -0.86286696539E+02  0.89812100253E+02  0.00000000000E+00 0. -1.
         11    1    4    4    0    0  0.45075770973E+02 -0.31912339565E+02 -0.32847578431E+02  0.64258742238E+02  0.00000000000E+00 0.  1.
</event>
<event>
 8    1  0.6862919E-009  0.1340637E+03  0.7561462E-02  0.1221547E+00
         -2   -1    0    0    0  501 -0.00000000000E+00  0.00000000000E+00  0.56142147785E+02  0.56142147785E+02  0.00000000000E+00 0. -1.
          2   -1    0    0  501    0  0.00000000000E+00 -0.00000000000E+00 -0.38988537738E+03  0.38988537738E+03  0.00000000000E+00 0.  1.
         25    2    1    2    0    0  0.98925072709E+02 -0.23370842681E+02 -0.12488862297E+03  0.20390504094E+03  0.12509089205E+03 0.  0.
         23    2    1    2    0    0 -0.98925072709E+02  0.23370842681E+02 -0.20885460663E+03  0.24212248423E+03  0.68342405291E+02 0.  0.
          5    1    3    3  502    0  0.66709082314E+02  0.37732839808E+02 -0.10830126190E+03  0.13274224871E+03  0.41800000000E+01 0. -1.
         -5    1    3    3    0  502  0.32215990395E+02 -0.61103682489E+02 -0.16587361070E+02  0.71162792231E+02  0.41800000000E+01 0. -1.
        -11    1    4    4    0    0 -0.12226830280E+01  0.24431045221E+02 -0.49120337451E+02  0.54874205923E+02  0.00000000000E+00 0.  1.
         11    1    4    4    0    0 -0.97702389681E+02 -0.10602025399E+01 -0.15973426918E+03  0.18724827831E+03  0.00000000000E+00 0. -1.
</event>
<event>
 8    1  0.6862919E-009  0.1167505E+03  0.7561462E-02  0.1248556E+00
         -1   -1    0    0    0  501 -0.00000000000E+00  0.00000000000E+00  0.10884176471E+03  0.10884176471E+03  0.00000000000E+00 0.  1.
          1   -1    0    0  501    0  0.00000000000E+00 -0.00000000000E+00 -0.21675788785E+03  0.21675788785E+03  0.00000000000E+00 0. -1.
         25    2    1    2    0    0 -0.57456886322E+02  0.67019977481E+02 -0.12122893617E+03  0.19529745468E+03  0.12510663321E+03 0.  0.
         23    2    1    2    0    0  0.57456886322E+02 -0.67019977481E+02  0.13312813026E+02  0.13030219788E+03  0.94912910684E+02 0.  0.
          5    1    3    3  502    0  0.22602556341E+02  0.42395633532E+02 -0.96472246980E+02  0.10785468063E+03  0.41800000000E+01 0.  1.
         -5    1    3    3    0  502 -0.80059442663E+02  0.24624343949E+02 -0.24756689185E+02  0.87442774051E+02  0.41800000000E+01 0.  1.
        -11    1    4    4    0    0  0.46114924470E+02 -0.74646739178E+02 -0.23666330724E+02  0.90878034413E+02  0.00000000000E+00 0.  1.
         11    1    4    4    0    0  0.11341961852E+02  0.76267616975E+01  0.36979143750E+02  0.39424163468E+02  0.00000000000E+00 0. -1.
</event>
<event>
 8    1  0.6862919E-009  0.9976251E+02  0.7561462E-02  0.1280796E+00
         -1   -1    0    0    0  501 -0.00000000000E+00  0.00000000000E+00  0.16175566637E+02  0.16175566637E+02  0.00000000000E+00 0.  1.
          1   -1    0    0  501    0  0.00000000000E+00 -0.00000000000E+00 -0.92445351767E+03  0.92445351767E+03  0.00000000000E+00 0. -1.
         25    2    1    2    0    0  0.33209250612E+02 -0.38001625642E+02 -0.60110586883E+03  0.61605110534E+03  0.12507486147E+03 0.  0.
         23    2    1    2    0    0 -0.33209250612E+02  0.38001625642E+02 -0.30717208220E+03  0.32457797896E+03  0.91919521682E+02 0.  0.
          5    1    3    3  502    0  0.53360085655E+02  0.20094445412E+02 -0.43752380094E+03  0.44124328241E+03  0.41800000000E+01 0.  1.
         -5    1    3    3    0  502 -0.20150835043E+02 -0.58096071054E+02 -0.16358206789E+03  0.17480782293E+03  0.41800000000E+01 0.  1.
        -11    1    4    4    0    0 -0.18645543797E+02  0.55153174391E+02 -0.29125435310E+03  0.29701620688E+03  0.00000000000E+00 0.  1.
         11    1    4    4    0    0 -0.14563706815E+02 -0.17151548748E+02 -0.15917729099E+02  0.27561772082E+02  0.00000000000E+00 0. -1.
</event>
<event>
 8    1  0.6862919E-009  0.1768095E+03  0.7561462E-02  0.1170927E+00
          2   -1    0    0  501    0  0.00000000000E+00  0.00000000000E+00  0.28401936891E+03  0.28401936891E+03  0.00000000000E+00 0. -1.
         -2   -1    0    0    0  501 -0.00000000000E+00 -0.00000000000E+00 -0.13099203406E+03  0.13099203406E+03  0.00000000000E+00 0.  1.
         25    2    1    2    0    0 -0.54613006428E+02  0.14494412627E+03  0.39145224275E+02  0.20290834372E+03  0.12509223461E+03 0.  0.
         23    2    1    2    0    0  0.54613006428E+02 -0.14494412627E+03  0.11388211058E+03  0.21210305925E+03  0.89594600410E+02 0.  0.
          5    1    3    3  502    0 -0.87164356127E+02  0.14077684412E+03  0.27874252950E+02  0.16795889734E+03  0.41800000000E+01 0.  1.
         -5    1    3    3    0  502  0.32551349699E+02  0.41672821487E+01  0.11270971324E+02  0.34949446381E+02  0.41800000000E+01 0.  1.
        -11    1    4    4    0    0  0.44748121084E+02 -0.12107820596E+03  0.42032858192E+02  0.13575377514E+03  0.00000000000E+00 0.  1.
         11    1    4    4    0    0  0.98648853437E+01 -0.23865920311E+02  0.71849252383E+02  0.76349284104E+02  0.00000000000E+00 0. -1.
</event>
<event>
 7    1  0.6862919E-009  0.1503237E+03  0.7561462E-02  0.1200076E+00
          1   -1    0    0  501    0  0.00000000000E+00  0.00000000000E+00  0.22768155077E+03  0.22768155077E+03  0.00000000000E+00 0. -1.
         -1   -1    0    0    0  501 -0.00000000000E+00 -0.00000000000E+00 -0.12363920502E+03  0.12363920502E+03  0.00000000000E+00 0.  1.
         25    2    1    2    0    0  0.22260740687E+02 -0.63678415100E+01  0.41238967527E+02  0.13373692411E+03  0.12509525349E+03 0.  0.
          5    1    3    3  502    0  0.54792295273E+02 -0.19283653752E+02 -0.21248712694E+02  0.61992218176E+02  0.41800000000E+01 0. -1.
         -5    1    3    3    0  502 -0.32531554586E+02  0.12915812242E+02  0.62487680221E+02  0.71744705930E+02  0.41800000000E+01 0. -1.
        -11    1    1    2    0    0 -0.78082237955E+02 -0.75143421979E+02  0.21370274093E+02  0.11045387438E+03  0.00000000000E+00 0.  1.
         11    1    1    2    0    0  0.55821497268E+02  0.81511263489E+02  0.41433104129E+02  0.10712995730E+03  0.00000000000E+00 0. -1.
</event>
<event>
 8    1  0.6862919E-009  0.8535964E+02  0.7561462E-02  0.1314495E+00
          2   -1    0    0  501    0  0.00000000000E+00  0.00000000000E+00  0.17240523546E+03  0.17240523546E+03  0.00000000000E+00 0.  1.
         -2   -1    0    0    0  501 -0.00000000000E+00 -0.00000000000E+00 -0.76927544868E+02  0.76927544868E+02  0.00000000000E+00 0. -1.
         25    2    1    2    0    0 -0.54871671903E+01 -0.23350439688E+02  0.34849699907E+02  0.13204918891E+03  0.12508850735E+03 0.  0.
         23    2    1    2    0    0  0.54871671903E+01  0.23350439688E+02  0.60627990684E+02  0.11728359142E+03  0.97490181679E+02 0.  0.
          5    1    3    3  502    0 -0.11121196693E+02  0.41475106625E+02  0.49042382676E+02  0.65318398511E+02  0.41800000000E+01 0.  1.
         -5    1    3    3    0  502  0.56340295030E+01 -0.64825546313E+02 -0.14192682770E+02  0.66730790400E+02  0.41800000000E+01 0.  1.
        -11    1    4    4    0    0 -0.25848634145E+02  0.15227660565E+02 -0.16070369134E+02  0.34033664181E+02  0.00000000000E+00 0. -1.
         11    1    4    4    0    0  0.31335801335E+02  0.81227791230E+01  0.76698359818E+02  0.83249927236E+02  0.00000000000E+00 0.  1.
</event>
<event>
 8    1  0.6862919E-009  0.3615160E+03  0.7561462E-02  0.1057985E+00
         -2   -1    0    0    0  501 -0.00000000000E+00  0.00000000000E+00  0.31087424227E+03  0.31087424227E+03  0.00000000000E+00 0. -1.
          2   -1    0    0  501    0  0.00000000000E+00 -0.00000000000E+00 -0.54246788288E+03  0.54246788288E+03  0.00000000000E+00 0.  1.
         25    2    1    2    0    0  0.34964850017E+03 -0.20474139594E+01  0.69465868175E+02  0.37779541446E+03  0.12508238393E+03 0.  0.
         23    2    1    2    0    0 -0.34964850017E+03  0.20474139594E+01 -0.30105950879E+03  0.47554671069E+03  0.11510682273E+03 0.  0.
          5    1    3    3  502    0  0.19477936144E+03 -0.61195669673E+02  0.54091601355E+02  0.21125170618E+03  0.41800000000E+01 0. -1.
         -5    1    3    3    0  502  0.15486913873E+03  0.59148255714E+02  0.15374266820E+02  0.16654370828E+03  0.41800000000E+01 0. -1.
        -11    1    4    4    0    0 -0.19321777225E+03  0.25205010019E+02 -0.97810725552E+02  0.21802600321E+03  0.00000000000E+00 0. -1.
         11    1    4    4    0    0 -0.15643072792E+03 -0.23157596059E+02 -0.20324878323E+03  0.25752070748E+03  0.00000000000E+00 0.  1.
</event>
<event>
 8    1  0.6862919E-009  0.1263538E+03  0.7561462E-02  0.1232968E+00
         -1   -1    0    0    0  501 -0.00000000000E+00  0.00000000000E+00  0.15740158709E+03  0.15740158709E+03  0.00000000000E+00 0.  1.
          1   -1    0    0  501    0  0.00000000000E+00 -0.00000000000E+00 -0.13814664407E+03  0.13814664407E+03  0.00000000000E+00 0. -1.
         25    2    1    2    0    0  0.72601496820E+02  0.42111732786E+02  0.65177980405E+02  0.16413321063E+03  0.12508863387E+03 0.  0.
         23    2    1    2    0    0 -0.72601496820E+02 -0.42111732786E+02 -0.45923037389E+02  0.13141502053E+03  0.90092213200E+02 0.  0.
          5    1    3    3  502    0  0.96375568148E+02  0.94370203736E+01  0.12679571567E+02  0.97752500860E+02  0.41800000000E+01 0. -1.
         -5    1    3    3    0  502 -0.23774071327E+02  0.32674712412E+02  0.52498408838E+02  0.66380709767E+02  0.41800000000E+01 0. -1.
        -11    1    4    4    0    0 -0.58079178150E+02  0.11849558363E+02 -0.30222425040E+00  0.59276422863E+02  0.00000000000E+00 0. -1.
         11    1    4    4    0    0 -0.14522318671E+02 -0.53961291149E+02 -0.45620813138E+02  0.72138597667E+02  0.00000000000E+00 0.  1.
</event>
<event>
 8    1  0.6862919E-009  0.1044795E+03  0.7561462E-02  0.1271149E+00
         -3   -1    0    0    0  501 -0.00000000000E+00  0.00000000000E+00  0.23093132522E+03  0.23093132522E+03  0.00000000000E+00 0.  1.
          3   -1    0    0  501    0  0.00000000000E+00 -0.00000000000E+00 -0.74334823046E+02  0.74334823046E+02  0.00000000000E+00 0. -1.
         25    2    1    2    0    0  0.28149373594E+02 -0.45099231283E+02  0.27381007660E+02  0.13865215678E+03  0.12509345748E+03 0.  0.
         23    2    1    2    0    0 -0.28149373594E+02  0.45099231283E+02  0.12921549452E+03  0.16661399149E+03  0.90759298368E+02 0.  0.
          5    1    3    3  502    0 -0.25999382452E+02 -0.46659258166E+02  0.55782201374E+02  0.77344557990E+02  0.41800000000E+01 0.  1.
         -5    1    3    3    0  502  0.54148756046E+02  0.15600268834E+01 -0.28401193714E+02  0.61307598792E+02  0.41800000000E+01 0.  1.
        -11    1    4    4    0    0  0.22550086616E+02 -0.11290812825E+02  0.14468850293E+02  0.29074670926E+02  0.00000000000E+00 0. -1.
         11    1    4    4    0    0 -0.50699460210E+02  0.56390044108E+02  0.11474664422E+03  0.13753932056E+03  0.00000000000E+00 0.  1.
</event>
<event>
 8    1  0.6862919E-009  0.9895109E+02  0.7561462E-02  0.1282517E+00
         -2   -1    0    0    0  501 -0.00000000000E+00  0.00000000000E+00  0.54540431465E+02  0.54540431465E+02  0.00000000000E+00 0.  1.
          2   -1    0    0  501    0  0.00000000000E+00 -0.00000000000E+00 -0.49919634571E+03  0.49919634571E+03  0.00000000000E+00 0. -1.
         25    2    1    2    0    0  0.86769212773E+01 -0.34432227589E+02 -0.43585874379E+03  0.45484217364E+03  0.12509073158E+03 0.  0.
         23    2    1    2    0    0 -0.86769212773E+01  0.34432227589E+02 -0.87971704550E+01  0.98894603531E+02  0.91879731932E+02 0.  0.
          5    1    3    3  502    0 -0.19542447031E+02  0.33343472072E+02 -0.57524474660E+02  0.69427890294E+02  0.41800000000E+01 0.  1.
         -5    1    3    3    0  502  0.28219368308E+02 -0.67775699661E+02 -0.37833426913E+03  0.38541428335E+03  0.41800000000E+01 0.  1.
        -11    1    4    4    0    0  0.28413122829E+02  0.38860991219E+02 -0.29228376482E+02  0.56318559811E+02  0.00000000000E+00 0. -1.
         11    1    4    4    0    0 -0.37090044106E+02 -0.44287636297E+01  0.20431206027E+02  0.42576043719E+02  0.00000000000E+00 0.  1.
</event>
<event>
 8    1  0.6862919E-009  0.8560659E+02  0.7561462E-02  0.1313854E+00
         -1   -1    0    0    0  501 -0.00000000000E+00  0.00000000000E+00  0.38786916963E+02  0.38786916963E+02  0.00000000000E+00 0.  1.
          1   -1    0    0  501    0  0.00000000000E+00 -0.00000000000E+00 -0.40411119686E+03  0.40411119686E+03  0.00000000000E+00 0. -1.
         25    2    1    2    0    0  0.43801594922E+02  0.60452027248E+01 -0.16726986198E+03  0.21349972737E+03  0.12509117740E+03 0.  0.
         23    2    1    2    0    0 -0.43801594922E+02 -0.60452027248E+01 -0.19805441792E+03  0.22939838646E+03  0.10697169280E+03 0.  0.
          5    1    3    3  502    0  0.93165381937E+01 -0.14361670302E+02 -0.17203107361E+03  0.17293125265E+03  0.41800000000E+01 0. -1.
         -5    1    3    3    0  502  0.34485056728E+02  0.20406873027E+02  0.47612116246E+01  0.40568474711E+02  0.41800000000E+01 0. -1.
        -11    1    4    4    0    0  0.33669189916E+02  0.79093683741E+01 -0.83755989388E+02  0.90615882803E+02  0.00000000000E+00 0.  1.
         11    1    4    4    0    0 -0.77470784838E+02 -0.13954571099E+02 -0.11429842853E+03  0.13878250366E+03  0.00000000000E+00 0. -1.
</event>
<event>
 8    1  0.6862919E-009  0.2001692E+03  0.7561462E-02  0.1149596E+00
         -2   -1    0    0    0  501 -0.00000000000E+00  0.00000000000E+00  0.65215485022E+02  0.65215485022E+02  0.00000000000E+00 0. -1.
          2   -1    0    0  501    0  0.00000000000E+00 -0.00000000000E+00 -0.92208399383E+03  0.92208399383E+03  0.00000000000E+00 0.  1.
         25    2    1    2    0    0 -0.17301939337E+03  0.51175488327E+02 -0.69351778286E+03  0.72743954364E+03  0.12508690348E+03 0.  0.
         23    2    1    2    0    0  0.17301939337E+03 -0.51175488327E+02 -0.16335072595E+03  0.25985993521E+03  0.91044413191E+02 0.  0.
          5    1    3    3  502    0 -0.82057206288E+02 -0.36616100851E+02 -0.22974157910E+03  0.24672411620E+03  0.41800000000E+01 0.  1.
         -5    1    3    3    0  502 -0.90962187081E+02  0.87791589178E+02 -0.46377620376E+03  0.48071542745E+03  0.41800000000E+01 0.  1.
        -11    1    4    4    0    0  0.58791455583E+02 -0.14984291157E+00 -0.10819103917E+03  0.12313309327E+03  0.00000000000E+00 0.  1.
         11    1    4    4    0    0  0.11422793779E+03 -0.51025645415E+02 -0.55159686777E+02  0.13672684194E+03  0.00000000000E+00 0. -1.
</event>
<event>
 8    1  0.6862919E-009  0.1122748E+03  0.7561462E-02  0.1256414E+00
          3   -1    0    0  501    0  0.00000000000E+00  0.00000000000E+00  0.26578001608E+03  0.26578001608E+03  0.00000000000E+00 0. -1.
         -3   -1    0    0    0  501 -0.00000000000E+00 -0.00000000000E+00 -0.51483810937E+02  0.51483810937E+02  0.00000000000E+00 0.  1.
         25    2    1    2    0    0  0.14553989942E+02 -0.38637017218E+02  0.10390655590E+03  0.16779511699E+03  0.12511591108E+03 0.  0.
         23    2    1    2    0    0 -0.14553989942E+02  0.38637017218E+02  0.11038964924E+03  0.14946871002E+03  0.91925964198E+02 0.  0.
          5    1    3    3  502    0 -0.92144187019E-01  0.45744573535E+02  0.38902441965E+02  0.60195073630E+02  0.41800000000E+01 0.  1.
         -5    1    3    3    0  502  0.14646134129E+02 -0.84381590754E+02  0.65004113939E+02  0.10760004336E+03  0.41800000000E+01 0.  1.
        -11    1    4    4    0    0 -0.47771898168E+02  0.35470984146E+02  0.40366387839E+02  0.71901253383E+02  0.00000000000E+00 0.  1.
         11    1    4    4    0    0  0.33217908227E+02  0.31660330722E+01  0.70023261398E+02  0.77567456637E+02  0.00000000000E+00 0. -1.
</event>
<event>
 8    1  0.6862919E-009  0.1340587E+03  0.7561462E-02  0.1221555E+00
          3   -1    0    0  501    0  0.00000000000E+00  0.00000000000E+00  0.48100978723E+03  0.48100978723E+03  0.00000000000E+00 0. -1.
         -3   -1    0    0    0  501 -0.00000000000E+00 -0.00000000000E+00 -0.45116011716E+02  0.45116011716E+02  0.00000000000E+00 0.  1.
         25    2    1    2    0    0  0.56092950187E+02 -0.76117033885E+02  0.30919896252E+03  0.34668710777E+03  0.12509088842E+03 0.  0.
         23    2    1    2    0    0 -0.56092950187E+02  0.76117033885E+02  0.12669481300E+03  0.17943869117E+03  0.84890790676E+02 0.  0.
          5    1    3    3  502    0 -0.25262337311E+02 -0.48896320747E+02  0.53184892380E+02  0.76649468664E+02  0.41800000000E+01 0. -1.
         -5    1    3    3    0  502  0.81355287498E+02 -0.27220713138E+02  0.25601407014E+03  0.27003763911E+03  0.41800000000E+01 0. -1.
        -11    1    4    4    0    0  0.14837779027E+02  0.48828435707E+02  0.48766931238E+02  0.70587459243E+02  0.00000000000E+00 0.  1.
         11    1    4    4    0    0 -0.70930729213E+02  0.27288598178E+02  0.77927881760E+02  0.10885123193E+03  0.00000000000E+00 0. -1.
</event>
<event>
 8    1  0.6862919E-009  0.1756594E+03  0.7561462E-02  0.1172071E+00
         -1   -1    0    0    0  501 -0.00000000000E+00  0.00000000000E+00  0.12048499637E+03  0.12048499637E+03  0.00000000000E+00 0.  1.
          1   -1    0    0  501    0  0.00000000000E+00 -0.00000000000E+00 -0.28724056884E+03  0.28724056884E+03  0.00000000000E+00 0. -1.
         25    2    1    2    0    0  0.62362303912E+02  0.12470259959E+03 -0.25052495806E+02  0.18898326199E+03  0.12508897023E+03 0.  0.
         23    2    1    2    0    0 -0.62362303912E+02 -0.12470259959E+03 -0.14170307667E+03  0.21874230321E+03  0.91261371813E+02 0.  0.
          5    1    3    3  502    0  0.90437095861E+02  0.43059035910E+02 -0.57451508900E+01  0.10041627378E+03  0.41800000000E+01 0. -1.
         -5    1    3    3    0  502 -0.28074791950E+02  0.81643563679E+02 -0.19307344916E+02  0.88566988212E+02  0.41800000000E+01 0. -1.
        -11    1    4    4    0    0  0.86169191001E+01 -0.80612737581E+02 -0.52879235231E+02  0.96792966034E+02  0.00000000000E+00 0.  1.
         11    1    4    4    0    0 -0.70979223012E+02 -0.44089862008E+02 -0.88823841435E+02  0.12194933718E+03  0.00000000000E+00 0. -1.
</event>
<event>
 8    1  0.6862919E-009  0.1034644E+03  0.7561462E-02  0.1273175E+00
          2   -1    0    0  501    0  0.00000000000E+00  0.00000000000E+00  0.84869821048E+02  0.84869821048E+02  0.00000000000E+00 0. -1.
         -2   -1    0    0    0  501 -0.00000000000E+00 -0.00000000000E+00 -0.20190439682E+03  0.20190439682E+03  0.00000000000E+00 0.  1.
         25    2    1    2    0    0  0.68148190807E+02 -0.90196574297E+01 -0.10876168142E+02  0.14314601989E+03  0.12508781654E+03 0.  0.
         23    2    1    2    0    0 -0.68148190807E+02  0.90196574297E+01 -0.10615840763E+03  0.14362819798E+03  0.68072913945E+02 0.  0.
          5    1    3    3  502    0  0.71777690134E+02 -0.43224131706E+02  0.30421976784E+02  0.89237500156E+02  0.41800000000E+01 0.  1.
         -5    1    3    3    0  502 -0.36294993268E+01  0.34204474277E+02 -0.41298144926E+02  0.53908519737E+02  0.41800000000E+01 0.  1.
        -11    1    4    4    0    0  0.89265162730E+01 -0.47200942710E+01 -0.39607951153E+02  0.40874830608E+02  0.00000000000E+00 0.  1.
         11    1    4    4    0    0 -0.77074707080E+02  0.13739751701E+02 -0.66550456477E+02  0.10275336737E+03  0.00000000000E+00 0. -1.
</event>
<event>
 8    1  0.6862919E-009  0.1345197E+03  0.7561462E-02  0.1220899E+00
          4   -1    0    0  501    0  0.00000000000E+00  0.00000000000E+00  0.20423552378E+03  0.20423552378E+03  0.00000000000E+00 0. -1.
         -4   -1    0    0    0  501 -0.00000000000E+00 -0.00000000000E+00 -0.11905638377E+03  0.11905638377E+03  0.00000000000E+00 0.  1.
         25    2    1    2    0    0  0.95693899372E+02 -0.58842099657E+02  0.46941200623E+02  0.17455798693E+03  0.12508916586E+03 0.  0.
         23    2    1    2    0    0 -0.95693899372E+02  0.58842099657E+02  0.38237939390E+02  0.14873392062E+03  0.89665623658E+02 0.  0.
          5    1    3    3  502    0  0.11223410407E+03 -0.70724332641E+02  0.11183088855E+02  0.13319519218E+03  0.41800000000E+01 0. -1.
         -5    1    3    3    0  502 -0.16540204699E+02  0.11882232984E+02  0.35758111768E+02  0.41362794748E+02  0.41800000000E+01 0. -1.
        -11    1    4    4    0    0 -0.79056013852E+02  0.35015795304E+02  0.65821747471E+02  0.10866674600E+03  0.00000000000E+00 0. -1.
         11    1    4    4    0    0 -0.16637885520E+02  0.23826304353E+02 -0.27583808081E+02  0.40067174619E+02  0.00000000000E+00 0.  1.
</event>
<event>
 8    1  0.6862919E-009  0.1564847E+03  0.7561462E-02  0.1192724E+00
         -1   -1    0    0    0  501 -0.00000000000E+00  0.00000000000E+00  0.52867976167E+02  0.52867976167E+02  0.00000000000E+00 0.  1.
          1   -1    0    0  501    0  0.00000000000E+00 -0.00000000000E+00 -0.61088810454E+03  0.61088810454E+03  0.00000000000E+00 0. -1.
         25    2    1    2    0    0  0.10417805527E+03 -0.59991522462E+02 -0.43315152601E+03  0.46660520407E+03  0.12509245386E+03 0.  0.
         23    2    1    2    0    0 -0.10417805527E+03  0.59991522462E+02 -0.12486860236E+03  0.19715087664E+03  0.93937480997E+02 0.  0.
          5    1    3    3  502    0 -0.22005227328E+02 -0.56046719999E+01 -0.17972803703E+02  0.29259809482E+02  0.41800000000E+01 0. -1.
         -5    1    3    3    0  502  0.12618328260E+03 -0.54386850462E+02 -0.41517872231E+03  0.43734539459E+03  0.41800000000E+01 0. -1.
        -11    1    4    4    0    0 -0.26925921616E+01  0.50402075161E+02 -0.37223181052E+02  0.62715105363E+02  0.00000000000E+00 0.  1.
         11    1    4    4    0    0 -0.10148546311E+03  0.95894473013E+01 -0.87645421309E+02  0.13443577127E+03  0.00000000000E+00 0. -1.
</event>
<event>
 8    1  0.6862919E-009  0.8898039E+02  0.7561462E-02  0.1305340E+00
          1   -1    0    0  501    0  0.00000000000E+00  0.00000000000E+00  0.22555696738E+03  0.22555696738E+03  0.00000000000E+00 0. -1.
         -1   -1    0    0    0  501 -0.00000000000E+00 -0.00000000000E+00 -0.61578469655E+02  0.61578469655E+02  0.00000000000E+00 0.  1.
         25    2    1    2    0    0  0.64150947677E+01  0.11199760814E+02  0.36755124174E+02  0.13101489869E+03  0.12508947374E+03 0.  0.
         23    2    1    2    0    0 -0.64150947677E+01 -0.11199760814E+02  0.12722337356E+03  0.15612053835E+03  0.89561418219E+02 0.  0.
          5    1    3    3  502    0  0.29293328631E+01  0.59314993843E+02 -0.13692787506E+02  0.61088577618E+02  0.41800000000E+01 0. -1.
         -5    1    3    3    0  502  0.34857619045E+01 -0.48115233029E+02  0.50447911679E+02  0.69926321069E+02  0.41800000000E+01 0. -1.
        -11    1    4    4    0    0 -0.51614430242E+01 -0.40424599718E+02  0.20807335338E+02  0.45757337775E+02  0.00000000000E+00 0.  1.
         11    1    4    4    0    0 -0.12536517435E+01  0.29224838903E+02  0.10641603822E+03  0.11036320058E+03  0.00000000000E+00 0. -1.
</event>
<event>
 8    1  0.6862919E-009  0.1150137E+03  0.7561462E-02  0.1251557E+00
          2   -1    0    0  501    0  0.00000000000E+00  0.00000000000E+00  0.73526557625E+02  0.73526557625E+02  0.00000000000E+00 0.  1.
         -2   -1    0    0    0  501 -0.00000000000E+00 -0.00000000000E+00 -0.18438905327E+03  0.18438905327E+03  0.00000000000E+00 0. -1.
         25    2    1    2    0    0 -0.42995714877E+02  0.11193908460E+02 -0.63080801332E+02  0.14697025962E+03  0.12508850719E+03 0.  0.
         23    2    1    2    0    0  0.42995714877E+02 -0.11193908460E+02 -0.47781694313E+02  0.11094535128E+03  0.89732076617E+02 0.  0.
          5    1    3    3  502    0 -0.17165175558E+02 -0.56316156221E+02 -0.38671114143E+02  0.70562597547E+02  0.41800000000E+01 0.  1.
         -5    1    3    3    0  502 -0.25830539319E+02  0.67510064681E+02 -0.24409687189E+02  0.76407662072E+02  0.41800000000E+01 0.  1.
        -11    1    4    4    0    0  0.41297324238E+01  0.36694421117E+02 -0.27428231755E+02  0.45998294840E+02  0.00000000000E+00 0. -1.
         11    1    4    4    0    0  0.38865982454E+02 -0.47888329577E+02 -0.20353462558E+02  0.64947056437E+02  0.00000000000E+00 0.  1.
</event>
<event>
 8    1  0.6862919E-009  0.1217290E+03  0.7561462E-02  0.1240272E+00
         -1   -1    0    0    0  501 -0.00000000000E+00  0.00000000000E+00  0.28397882701E+02  0.28397882701E+02  0.00000000000E+00 0.  1.
          1   -1    0    0  501    0  0.00000000000E+00 -0.00000000000E+00 -0.71229844257E+03  0.71229844257E+03  0.00000000000E+00 0. -1.
         25    2    1    2    0    0  0.70767484832E+02  0.23240037903E+02 -0.47397154205E+03  0.49582665672E+03  0.12508762756E+03 0.  0.
         23    2    1    2    0    0 -0.70767484832E+02 -0.23240037903E+02 -0.20992901782E+03  0.24486966855E+03  0.10169968428E+03 0.  0.
          5    1    3    3  502    0 -0.10973340517E+02  0.36491078518E+02 -0.45913315834E+02  0.59812356452E+02  0.41800000000E+01 0. -1.
         -5    1    3    3    0  502  0.81740825349E+02 -0.13251040614E+02 -0.42805822622E+03  0.43601430027E+03  0.41800000000E+01 0. -1.
        -11    1    4    4    0    0  0.15520279778E+01 -0.46282914633E+02 -0.11025933309E+03  0.11958945401E+03  0.00000000000E+00 0. -1.
         11    1    4    4    0    0 -0.72319512810E+02  0.23042876730E+02 -0.99669684730E+02  0.12528021454E+03  0.00000000000E+00 0.  1.
</event>
<event>
 8    1  0.6862919E-009  0.1167192E+03  0.7561462E-02  0.1248610E+00
         -1   -1    0    0    0  501 -0.00000000000E+00  0.00000000000E+00  0.10067059888E+03  0.10067059888E+03  0.00000000000E+00 0.  1.
          1   -1    0    0  501    0  0.00000000000E+00 -0.00000000000E+00 -0.20725936656E+03  0.20725936656E+03  0.00000000000E+00 0. -1.
         25    2    1    2    0    0  0.23804694134E+02 -0.50021064698E+02 -0.13855453915E+03  0.19471347078E+03  0.12508878851E+03 0.  0.
         23    2    1    2    0    0 -0.23804694134E+02  0.50021064698E+02  0.31965771466E+02  0.11321649466E+03  0.93420520991E+02 0.  0.
          5    1    3    3  502    0 -0.44473560313E+02 -0.30706029760E+02 -0.22646400093E+02  0.58745975758E+02  0.41800000000E+01 0. -1.
         -5    1    3    3    0  502  0.68278254447E+02 -0.19315034938E+02 -0.11590813905E+03  0.13596749503E+03  0.41800000000E+01 0. -1.
        -11    1    4    4    0    0  0.24445519770E+02  0.54463487975E+02  0.12466219856E+02  0.60985749128E+02  0.00000000000E+00 0.  1.
         11    1    4    4    0    0 -0.48250213904E+02 -0.44424232761E+01  0.19499551610E+02  0.52230745536E+02  0.00000000000E+00 0. -1.
</event>
<event>
 8    1  0.6862919E-009  0.1133439E+03  0.7561462E-02  0.1254500E+00
         -1   -1    0    0    0  501 -0.00000000000E+00  0.00000000000E+00  0.14699576785E+03  0.14699576785E+03  0.00000000000E+00 0.  1.
          1   -1    0    0  501    0  0.00000000000E+00 -0.00000000000E+00 -0.12567356210E+03  0.12567356210E+03  0.00000000000E+00 0. -1.
         25    2    1    2    0    0 -0.17536722993E+02 -0.80321197227E+02  0.25337973313E+02  0.15181649758E+03  0.12508878714E+03 0.  0.
         23    2    1    2    0    0  0.17536722993E+02  0.80321197227E+02 -0.40157675629E+01  0.12085283237E+03  0.88488696026E+02 0.  0.
          5    1    3    3  502    0  0.25406614583E+02  0.48111000446E+01 -0.31315949157E+02  0.40826508788E+02  0.41800000000E+01 0. -1.
         -5    1    3    3    0  502 -0.42943337576E+02 -0.85132297271E+02  0.56653922471E+02  0.11098998879E+03  0.41800000000E+01 0. -1.
        -11    1    4    4    0    0  0.37317900482E+02  0.21665819534E+02 -0.31196445782E+02  0.53247081252E+02  0.00000000000E+00 0. -1.
         11    1    4    4    0    0 -0.19781177489E+02  0.58655377692E+02  0.27180678219E+02  0.67605751113E+02  0.00000000000E+00 0.  1.
</event>
<event>
 8    1  0.6862919E-009  0.5670977E+02  0.7561462E-02  0.1412182E+00
         -2   -1    0    0    0  501 -0.00000000000E+00  0.00000000000E+00  0.15350214699E+03  0.15350214699E+03  0.00000000000E+00 0.  1.
          2   -1    0    0  501    0  0.00000000000E+00 -0.00000000000E+00 -0.86547639904E+02  0.86547639904E+02  0.00000000000E+00 0. -1.
         25    2    1    2    0    0  0.39176981103E+02  0.87587157700E+01  0.39464894172E+02  0.13717344497E+03  0.12509006829E+03 0.  0.
         23    2    1    2    0    0 -0.39176981103E+02 -0.87587157700E+01  0.27489612911E+02  0.10287634192E+03  0.90643874355E+02 0.  0.
          5    1    3    3  502    0 -0.44144141606E+01  0.25179500380E+02  0.74410990497E+02  0.78790622529E+02  0.41800000000E+01 0.  1.
         -5    1    3    3    0  502  0.43591395264E+02 -0.16420784610E+02 -0.34946096325E+02  0.58382822445E+02  0.41800000000E+01 0.  1.
        -11    1    4    4    0    0 -0.27487306976E+02 -0.93741616187E+01  0.60902362815E+02  0.67472399893E+02  0.00000000000E+00 0.  1.
         11    1    4    4    0    0 -0.11689674127E+02  0.61544584870E+00 -0.33412749904E+02  0.35403942025E+02  0.00000000000E+00 0. -1.
</event>
<event>
 8    1  0.6862919E-009  0.1777476E+03  0.7561462E-02  0.1170001E+00
         -1   -1    0    0    0  501 -0.00000000000E+00  0.00000000000E+00  0.89490660915E+02  0.89490660915E+02  0.00000000000E+00 0.  1.
          1   -1    0    0  501    0  0.00000000000E+00 -0.00000000000E+00 -0.41552566661E+03  0.41552566661E+03  0.00000000000E+00 0. -1.
         25    2    1    2    0    0  0.10525608655E+03 -0.11385313236E+03 -0.12754753286E+03  0.23655408111E+03  0.12509228851E+03 0.  0.
         23    2    1    2    0    0 -0.10525608655E+03  0.11385313236E+03 -0.19848747284E+03  0.26846224642E+03  0.92915668077E+02 0.  0.
          5    1    3    3  502    0 -0.21064973891E+02 -0.22840488712E+02 -0.58109194070E+02  0.66027054191E+02  0.41800000000E+01 0.  1.
         -5    1    3    3    0  502  0.12632106044E+03 -0.91012643647E+02 -0.69438338789E+02  0.17052702692E+03  0.41800000000E+01 0.  1.
        -11    1    4    4    0    0 -0.66584312725E+02  0.24354227150E+02 -0.37375239052E+02  0.80146787680E+02  0.00000000000E+00 0.  1.
         11    1    4    4    0    0 -0.38671773828E+02  0.89498905209E+02 -0.16111223378E+03  0.18831545874E+03  0.00000000000E+00 0. -1.
</event>
<event>
 8    1  0.6862919E-009  0.1134453E+03  0.7561462E-02  0.1254319E+00
          2   -1    0    0  501    0  0.00000000000E+00  0.00000000000E+00  0.14200589765E+03  0.14200589765E+03  0.00000000000E+00 0. -1.
         -2   -1    0    0    0  501 -0.00000000000E+00 -0.00000000000E+00 -0.10908582217E+03  0.10908582217E+03  0.00000000000E+00 0.  1.
         25    2    1    2    0    0 -0.46869483778E+02  0.25278338367E+02  0.38308404256E+02  0.14124656795E+03  0.12508923304E+03 0.  0.
         23    2    1    2    0    0  0.46869483778E+02 -0.25278338367E+02 -0.53883287718E+01  0.10984515186E+03  0.95922783531E+02 0.  0.
          5    1    3    3  502    0 -0.73766031830E+02 -0.83803437298E+01 -0.11515885736E+02  0.75244572145E+02  0.41800000000E+01 0. -1.
         -5    1    3    3    0  502  0.26896548052E+02  0.33658682097E+02  0.49824289993E+02  0.66001995810E+02  0.41800000000E+01 0. -1.
        -11    1    4    4    0    0  0.75473166072E+02 -0.81666828343E+01  0.93405054169E+00  0.75919470203E+02  0.00000000000E+00 0. -1.
         11    1    4    4    0    0 -0.28603682294E+02 -0.17111655532E+02 -0.63223793135E+01  0.33925681659E+02  0.00000000000E+00 0.  1.
</event>
<event>
 8    1  0.6862919E-009  0.8500451E+02  0.7561462E-02  0.1315421E+00
         -1   -1    0    0    0  501 -0.00000000000E+00  0.00000000000E+00  0.23389025927E+03  0.23389025927E+03  0.00000000000E+00 0.  1.
          1   -1    0    0  501    0  0.00000000000E+00 -0.00000000000E+00 -0.50497616451E+02  0.50497616451E+02  0.00000000000E+00 0. -1.
         25    2    1    2    0    0 -0.32717522414E+02  0.26819092068E+02  0.89913109110E+02  0.15974462155E+03  0.12507708404E+03 0.  0.
         23    2    1    2    0    0  0.32717522414E+02 -0.26819092068E+02  0.93479533710E+02  0.12464325417E+03  0.70765935419E+02 0.  0.
          5    1    3    3  502    0  0.27619521481E+02  0.27867916742E+02  0.91061708371E+02  0.99242963890E+02  0.41800000000E+01 0. -1.
         -5    1    3    3    0  502 -0.60337043895E+02 -0.10488246743E+01 -0.11485992606E+01  0.60501657658E+02  0.41800000000E+01 0. -1.
        -11    1    4    4    0    0  0.45039714704E+02 -0.54168322871E+01  0.88501296765E+02  0.99450477635E+02  0.00000000000E+00 0.  1.
         11    1    4    4    0    0 -0.12322192290E+02 -0.21402259781E+02  0.49782369443E+01  0.25192776537E+02  0.00000000000E+00 0. -1.
</event>
<event>
 8    1  0.6862919E-009  0.3294628E+03  0.7561462E-02  0.1071375E+00
         -1   -1    0    0    0  501 -0.00000000000E+00  0.00000000000E+00  0.16556609166E+03  0.16556609166E+03  0.00000000000E+00 0.  1.
          1   -1    0    0  501    0  0.00000000000E+00 -0.00000000000E+00 -0.68138783256E+03  0.68138783256E+03  0.00000000000E+00 0. -1.
         25    2    1    2    0    0 -0.30858958081E+03  0.70985990064E+02 -0.25219322311E+03  0.42369282445E+03  0.12509055734E+03 0.  0.
         23    2    1    2    0    0  0.30858958081E+03 -0.70985990064E+02 -0.26362851780E+03  0.42326109977E+03  0.96868070133E+02 0.  0.
          5    1    3    3  502    0 -0.21008630420E+03  0.88112598759E+02 -0.11888233777E+03  0.25700305039E+03  0.41800000000E+01 0. -1.
         -5    1    3    3    0  502 -0.98503276612E+02 -0.17126608695E+02 -0.13331088534E+03  0.16668977407E+03  0.41800000000E+01 0. -1.
        -11    1    4    4    0    0  0.29565757902E+03 -0.89059037890E+02 -0.24882568343E+03  0.39655912169E+03  0.00000000000E+00 0. -1.
         11    1    4    4    0    0  0.12932001796E+02  0.18073047826E+02 -0.14802834362E+02  0.26701978079E+02  0.00000000000E+00 0.  1.
</event>
<event>
 7    1  0.6862919E-009  0.1098991E+03  0.7561462E-02  0.1260757E+00
          1   -1    0    0  501    0  0.00000000000E+00  0.00000000000E+00  0.32371499991E+03  0.32371499991E+03  0.00000000000E+00 0. -1.
         -1   -1    0    0    0  501 -0.00000000000E+00 -0.00000000000E+00 -0.40393493924E+02  0.40393493924E+02  0.00000000000E+00 0.  1.
         25    2    1    2    0    0 -0.61713905233E+02  0.24558949533E+02  0.13972876247E+03  0.19895826594E+03  0.12509403032E+03 0.  0.
          5    1    3    3  502    0 -0.95948192243E+02  0.35418460153E+02  0.83462473179E+02  0.13207565916E+03  0.41800000000E+01 0. -1.
         -5    1    3    3    0  502  0.34234287010E+02 -0.10859510621E+02  0.56266289292E+02  0.66882606772E+02  0.41800000000E+01 0. -1.
        -11    1    1    2    0    0  0.57625402558E+01 -0.24662487908E+02  0.51551007990E+02  0.57436500632E+02  0.00000000000E+00 0.  1.
         11    1    1    2    0    0  0.55951364977E+02  0.10353837570E+00  0.92041735520E+02  0.10771372726E+03  0.00000000000E+00 0. -1.
</event>
<event>
 8    1  0.6862919E-009  0.1224350E+03  0.7561462E-02  0.1239133E+00
         -2   -1    0    0    0  501 -0.00000000000E+00  0.00000000000E+00  0.41578894127E+02  0.41578894127E+02  0.00000000000E+00 0.  1.
          2   -1    0    0  501    0  0.00000000000E+00 -0.00000000000E+00 -0.55163348230E+03  0.55163348230E+03  0.00000000000E+00 0. -1.
         25    2    1    2    0    0  0.79536879150E+02  0.42776493039E+02 -0.39225611703E+03  0.42149510267E+03  0.12504925719E+03 0.  0.
         23    2    1    2    0    0 -0.79536879150E+02 -0.42776493039E+02 -0.11779847114E+03  0.17171727376E+03  0.86338860321E+02 0.  0.
          5    1    3    3  502    0  0.87412346795E+01 -0.42137458871E+02 -0.97354017201E+02  0.10652347952E+03  0.41800000000E+01 0.  1.
         -5    1    3    3    0  502  0.70795644471E+02  0.84913951911E+02 -0.29490209983E+03  0.31497162315E+03  0.41800000000E+01 0.  1.
        -11    1    4    4    0    0 -0.26157763336E+02 -0.82540315179E+01  0.98267876301E+01  0.29136289643E+02  0.00000000000E+00 0.  1.
         11    1    4    4    0    0 -0.53379115815E+02 -0.34522461521E+02 -0.12762525877E+03  0.14258098411E+03  0.00000000000E+00 0. -1.
</event>
<event>
 8    1  0.6862919E-009  0.1035129E+03  0.7561462E-02  0.1273078E+00
         -3   -1    0    0    0  501 -0.00000000000E+00  0.00000000000E+00  0.18231690331E+03  0.18231690331E+03  0.00000000000E+00 0.  1.
          3   -1    0    0  501    0  0.00000000000E+00 -0.00000000000E+00 -0.77454922376E+02  0.77454922376E+02  0.00000000000E+00 0. -1.
         25    2    1    2    0    0  0.31388568437E+02 -0.34736618194E+02  0.40467645212E+02  0.13957022062E+03  0.12510132415E+03 0.  0.
         23    2    1    2    0    0 -0.31388568437E+02  0.34736618194E+02  0.64394335719E+02  0.12020160506E+03  0.90055097103E+02 0.  0.
          5    1    3    3  502    0  0.71863063994E+02 -0.41440070548E+02  0.50396154186E+02  0.97153611206E+02  0.41800000000E+01 0. -1.
         -5    1    3    3    0  502 -0.40474495557E+02  0.67034523537E+01 -0.99285089733E+01  0.42416609418E+02  0.41800000000E+01 0. -1.
        -11    1    4    4    0    0  0.10748167910E+02 -0.14418257160E+02  0.51012682531E+02  0.54089768275E+02  0.00000000000E+00 0.  1.
         11    1    4    4    0    0 -0.42136736347E+02  0.49154875354E+02  0.13381653188E+02  0.66111836786E+02  0.00000000000E+00 0. -1.
</event>
<event>
 8    1  0.6862919E-009  0.1058785E+03  0.7561462E-02  0.1268398E+00
         -1   -1    0    0    0  501 -0.00000000000E+00  0.00000000000E+00  0.84105064730E+02  0.84105064730E+02  0.00000000000E+00 0.  1.
          1   -1    0    0  501    0  0.00000000000E+00 -0.00000000000E+00 -0.21478393166E+03  0.21478393166E+03  0.00000000000E+00 0. -1.
         25    2    1    2    0    0  0.28948464012E+02  0.12564137704E+02 -0.15432166322E+03  0.20114289518E+03  0.12508963753E+03 0.  0.
         23    2    1    2    0    0 -0.28948464012E+02 -0.12564137704E+02  0.23642796293E+02  0.97746101204E+02  0.89439629691E+02 0.  0.
          5    1    3    3  502    0  0.37824457615E+02  0.61745000763E+02 -0.12053179712E+03  0.14067167885E+03  0.41800000000E+01 0. -1.
         -5    1    3    3    0  502 -0.88759936028E+01 -0.49180863059E+02 -0.33789866096E+02  0.60471216331E+02  0.41800000000E+01 0. -1.
        -11    1    4    4    0    0 -0.57804384574E+02 -0.51520348773E+00  0.31039177389E+02  0.65612825298E+02  0.00000000000E+00 0. -1.
         11    1    4    4    0    0  0.28855920561E+02 -0.12048934216E+02 -0.73963810958E+01  0.32133275907E+02  0.00000000000E+00 0.  1.
</event>
<event>
 8    1  0.6862919E-009  0.8659306E+02  0.7561462E-02  0.1311318E+00
         -2   -1    0    0    0  501 -0.00000000000E+00  0.00000000000E+00  0.22951947944E+03  0.22951947944E+03  0.00000000000E+00 0.  1.
          2   -1    0    0  501    0  0.00000000000E+00 -0.00000000000E+00 -0.76232852959E+02  0.76232852959E+02  0.00000000000E+00 0. -1.
         25    2    1    2    0    0  0.73905126534E+02 -0.79470267582E+01  0.74438301717E+02  0.16344395653E+03  0.12509093973E+03 0.  0.
         23    2    1    2    0    0 -0.73905126534E+02  0.79470267582E+01  0.78848324762E+02  0.14230837587E+03  0.92246910852E+02 0.  0.
          5    1    3    3  502    0  0.33201750481E+02 -0.36071263843E+02 -0.22825730655E+02  0.54240010050E+02  0.41800000000E+01 0. -1.
         -5    1    3    3    0  502  0.40703376052E+02  0.28124237084E+02  0.97264032372E+02  0.10920394648E+03  0.41800000000E+01 0. -1.
        -11    1    4    4    0    0 -0.41064028612E+02  0.45844097252E+01 -0.14110112065E+02  0.43661957364E+02  0.00000000000E+00 0. -1.
         11    1    4    4    0    0 -0.32841097922E+02  0.33626170330E+01  0.92958436827E+02  0.98646418503E+02  0.00000000000E+00 0.  1.
</event>
<event>
 8    1  0.6862919E-009  0.1658071E+03  0.7561462E-02  0.1182292E+00
         -2   -1    0    0    0  501 -0.00000000000E+00  0.00000000000E+00  0.29751773545E+03  0.29751773545E+03  0.00000000000E+00 0.  1.
          2   -1    0    0  501    0  0.00000000000E+00 -0.00000000000E+00 -0.11633959350E+03  0.11633959350E+03  0.00000000000E+00 0. -1.
         25    2    1    2    0    0  0.11325475792E+03  0.86438056658E+02  0.14961796847E+03  0.24151905696E+03  0.12509092915E+03 0.  0.
         23    2    1    2    0    0 -0.11325475792E+03 -0.86438056658E+02  0.31560173488E+02  0.17233827199E+03  0.91685645624E+02 0.  0.
          5    1    3    3  502    0  0.13725213915E+03  0.73034445034E+02  0.14628739371E+03  0.21351733846E+03  0.41800000000E+01 0.  1.
         -5    1    3    3    0  502 -0.23997381235E+02  0.13403611625E+02  0.33305747592E+01  0.28001718500E+02  0.41800000000E+01 0.  1.
        -11    1    4    4    0    0 -0.11152278025E+03 -0.69825733097E+02  0.55783176969E+02  0.14291510190E+03  0.00000000000E+00 0.  1.
         11    1    4    4    0    0 -0.17319776622E+01 -0.16612323561E+02 -0.24223003481E+02  0.29423170094E+02  0.00000000000E+00 0. -1.
</event>
<event>
 8    1  0.6862919E-009  0.1030803E+03  0.7561462E-02  0.1273949E+00
         -2   -1    0    0    0  501 -0.00000000000E+00  0.00000000000E+00  0.38320434097E+02  0.38320434097E+02  0.00000000000E+00 0.  1.
          2   -1    0    0  501    0  0.00000000000E+00 -0.00000000000E+00 -0.40110493958E+03  0.40110493958E+03  0.00000000000E+00 0. -1.
         25    2    1    2    0    0  0.32048569076E+02  0.52145713533E+02 -0.19061994539E+03  0.23606640726E+03  0.12508036952E+03 0.  0.
         23    2    1    2    0    0 -0.32048569076E+02 -0.52145713533E+02 -0.17216456010E+03  0.20335896642E+03  0.89263358937E+02 0.  0.
          5    1    3    3  502    0  0.76964521784E+01  0.90000997583E+02 -0.10016175164E+03  0.13494170532E+03  0.41800000000E+01 0.  1.
         -5    1    3    3    0  502  0.24352116898E+02 -0.37855284050E+02 -0.90458193747E+02  0.10112470195E+03  0.41800000000E+01 0.  1.
        -11    1    4    4    0    0  0.32241387108E+00 -0.32833488348E+02 -0.65154363056E+01  0.33475256804E+02  0.00000000000E+00 0.  1.
         11    1    4    4    0    0 -0.32370982947E+02 -0.19312225185E+02 -0.16564912380E+03  0.16988370962E+03  0.00000000000E+00 0. -1.
</event>
<event>
 8    1  0.6862919E-009  0.1127342E+03  0.7561462E-02  0.1255589E+00
         -1   -1    0    0    0  501 -0.00000000000E+00  0.00000000000E+00  0.32742807923E+03  0.32742807923E+03  0.00000000000E+00 0.  1.
          1   -1    0    0  501    0  0.00000000000E+00 -0.00000000000E+00 -0.44618211114E+02  0.44618211114E+02  0.00000000000E+00 0. -1.
         25    2    1    2    0    0 -0.36043836232E+02  0.43404007042E+02  0.16833432929E+03  0.21718535533E+03  0.12509982491E+03 0.  0.
         23    2    1    2    0    0  0.36043836232E+02 -0.43404007042E+02  0.11447553882E+03  0.15486093502E+03  0.87716556291E+02 0.  0.
          5    1    3    3  502    0 -0.57201888542E+02  0.77787269283E+02  0.11876379949E+03  0.15311834568E+03  0.41800000000E+01 0.  1.
         -5    1    3    3    0  502  0.21158052310E+02 -0.34383262241E+02  0.49570529805E+02  0.64067009646E+02  0.41800000000E+01 0.  1.
        -11    1    4    4    0    0 -0.48165942360E+01 -0.46972920227E+02  0.10132665284E+03  0.11178884287E+03  0.00000000000E+00 0. -1.
         11    1    4    4    0    0  0.40860430468E+02  0.35689131850E+01  0.13148885987E+02  0.43072092148E+02  0.00000000000E+00 0.  1.
</event>
<event>
 7    1  0.6862919E-009  0.1303331E+03  0.7561462E-02  0.1226962E+00
          2   -1    0    0  501    0  0.00000000000E+00  0.00000000000E+00  0.32467265695E+03  0.32467265695E+03  0.00000000000E+00 0.  1.
         -2   -1    0    0    0  501 -0.00000000000E+00 -0.00000000000E+00 -0.75453753815E+02  0.75453753815E+02  0.00000000000E+00 0. -1.
         25    2    1    2    0    0 -0.68177527302E+02  0.53651929716E+02  0.10307845287E+03  0.18384694932E+03  0.12509128082E+03 0.  0.
          5    1    3    3  502    0 -0.95414762616E+02  0.63941903656E+02  0.54840176759E+02  0.12734779682E+03  0.41800000000E+01 0.  1.
         -5    1    3    3    0  502  0.27237235314E+02 -0.10289973941E+02  0.48238276113E+02  0.56499152503E+02  0.41800000000E+01 0.  1.
        -11    1    1    2    0    0 -0.17429629784E+02 -0.11616189193E+02  0.11359271897E+03  0.11550772117E+03  0.00000000000E+00 0.  1.
         11    1    1    2    0    0  0.85607157086E+02 -0.42035740523E+02  0.32547731292E+02  0.10077174027E+03  0.00000000000E+00 0. -1.
</event>
<event>
 8    1  0.6862919E-009  0.1298581E+03  0.7561462E-02  0.1227666E+00
         -1   -1    0    0    0  501 -0.00000000000E+00  0.00000000000E+00  0.41485549854E+02  0.41485549854E+02  0.00000000000E+00 0.  1.
          1   -1    0    0  501    0  0.00000000000E+00 -0.00000000000E+00 -0.57485399631E+03  0.57485399631E+03  0.00000000000E+00 0. -1.
         25    2    1    2    0    0 -0.51405734942E+02  0.91344608561E+02 -0.24342184418E+03  0.29306706108E+03  0.12509085085E+03 0.  0.
         23    2    1    2    0    0  0.51405734942E+02 -0.91344608561E+02 -0.28994660227E+03  0.32327248508E+03  0.97209466334E+02 0.  0.
          5    1    3    3  502    0 -0.46907119944E+02  0.16871843286E+02 -0.20101739504E+03  0.20714826214E+03  0.41800000000E+01 0. -1.
         -5    1    3    3    0  502 -0.44986149983E+01  0.74472765275E+02 -0.42404449141E+02  0.85918798942E+02  0.41800000000E+01 0. -1.
        -11    1    4    4    0    0  0.55852575728E+02 -0.14114246078E+02 -0.73299495985E+02  0.93228419859E+02  0.00000000000E+00 0.  1.
         11    1    4    4    0    0 -0.44468407861E+01 -0.77230362484E+02 -0.21664710629E+03  0.23004406522E+03  0.00000000000E+00 0. -1.
</event>
<event>
 8    1  0.6862919E-009  0.2770517E+03  0.7561462E-02  0.1097310E+00
          2   -1    0    0  501    0  0.00000000000E+00  0.00000000000E+00  0.10801918147E+04  0.10801918147E+04  0.00000000000E+00 0. -1.
         -2   -1    0    0    0  501 -0.00000000000E+00 -0.00000000000E+00 -0.10581407456E+03  0.10581407456E+03  0.00000000000E+00 0.  1.
         25    2    1    2    0    0 -0.21688525602E+03 -0.13349486757E+03  0.15665620351E+03  0.32411461550E+03  0.12509605885E+03 0.  0.
         23    2    1    2    0    0  0.21688525602E+03  0.13349486757E+03  0.81772153665E+03  0.86189127377E+03  0.96581376855E+02 0.  0.
          5    1    3    3  502    0 -0.18780353855E+03 -0.15669645269E+03  0.14721292792E+03  0.28550493153E+03  0.41800000000E+01 0.  1.
         -5    1    3    3    0  502 -0.29081717464E+02  0.23201585121E+02  0.94432755840E+01  0.38609683973E+02  0.41800000000E+01 0.  1.
        -11    1    4    4    0    0  0.17852433895E+03  0.58603739060E+02  0.54470053483E+03  0.57619789176E+03  0.00000000000E+00 0.  1.
         11    1    4    4    0    0  0.38360917069E+02  0.74891128509E+02  0.27302100182E+03  0.28569338200E+03  0.00000000000E+00 0. -1.
</event>
<event>
 8    1  0.6862919E-009  0.9828477E+02  0.7561462E-02  0.1283945E+00
          2   -1    0    0  501    0  0.00000000000E+00  0.00000000000E+00  0.74970647041E+03  0.74970647041E+03  0.00000000000E+00 0. -1.
         -2   -1    0    0    0  501 -0.00000000000E+00 -0.00000000000E+00 -0.36630585571E+02  0.36630585571E+02  0.00000000000E+00 0.  1.
         25    2    1    2    0    0 -0.49470120597E+02 -0.30798067222E+02  0.64104714988E+03  0.65573234236E+03  0.12509053790E+03 0.  0.
         23    2    1    2    0    0  0.49470120597E+02  0.30798067222E+02  0.72028734966E+02  0.13060471363E+03  0.92052369791E+02 0.  0.
          5    1    3    3  502    0 -0.70204414080E+02 -0.24950394689E+02  0.62262234871E+03  0.62707833917E+03  0.41800000000E+01 0.  1.
         -5    1    3    3    0  502  0.20734293483E+02 -0.58476725324E+01  0.18424801167E+02  0.28654003182E+02  0.41800000000E+01 0.  1.
        -11    1    4    4    0    0  0.18094189517E+02  0.56572805931E+02  0.67242037408E+02  0.89718301700E+02  0.00000000000E+00 0. -1.
         11    1    4    4    0    0  0.31375931079E+02 -0.25774738709E+02  0.47866975577E+01  0.40886411926E+02  0.00000000000E+00 0.  1.
</event>
<event>
 8    1  0.6862919E-009  0.1791851E+03  0.7561462E-02  0.1168594E+00
          1   -1    0    0  501    0  0.00000000000E+00  0.00000000000E+00  0.17667356933E+03  0.17667356933E+03  0.00000000000E+00 0.  1.
         -1   -1    0    0    0  501 -0.00000000000E+00 -0.00000000000E+00 -0.31028307619E+03  0.31028307619E+03  0.00000000000E+00 0. -1.
         25    2    1    2    0    0 -0.16317163744E+02 -0.17011270851E+03 -0.19075685814E+03  0.28502884275E+03  0.12509467951E+03 0.  0.
         23    2    1    2    0    0  0.16317163744E+02  0.17011270851E+03  0.57147351272E+02  0.20192780277E+03  0.91128669169E+02 0.  0.
          5    1    3    3  502    0 -0.21527315479E+02 -0.29926886799E+02  0.11505502758E+02  0.38844470120E+02  0.41800000000E+01 0. -1.
         -5    1    3    3    0  502  0.52101517349E+01 -0.14018582172E+03 -0.20226236090E+03  0.24618437263E+03  0.41800000000E+01 0. -1.
        -11    1    4    4    0    0  0.31758085380E+02  0.46258133126E+02  0.52787397086E+02  0.77038303190E+02  0.00000000000E+00 0.  1.
         11    1    4    4    0    0 -0.15440921636E+02  0.12385457539E+03  0.43599541868E+01  0.12488949958E+03  0.00000000000E+00 0. -1.
</event>
<event>
 8    1  0.6862919E-009  0.9984012E+02  0.7561462E-02  0.1280633E+00
         -1   -1    0    0    0  501 -0.00000000000E+00  0.00000000000E+00  0.15279608342E+03  0.15279608342E+03  0.00000000000E+00 0.  1.
          1   -1    0    0  501    0  0.00000000000E+00 -0.00000000000E+00 -0.10379724649E+03  0.10379724649E+03  0.00000000000E+00 0. -1.
         25    2    1    2    0    0  0.44382190159E+02 -0.43553523639E+02 -0.28606692479E+00  0.13969395296E+03  0.12509048899E+03 0.  0.
         23    2    1    2    0    0 -0.44382190159E+02  0.43553523639E+02  0.49284903854E+02  0.11689937695E+03  0.85847389940E+02 0.  0.
          5    1    3    3  502    0 -0.92550308358E+01 -0.66637890285E+02  0.29998860623E+02  0.73781217502E+02  0.41800000000E+01 0. -1.
         -5    1    3    3    0  502  0.53637220994E+02  0.23084366646E+02 -0.30284927548E+02  0.65912735462E+02  0.41800000000E+01 0. -1.
        -11    1    4    4    0    0 -0.32612144717E+02  0.44756682859E+01  0.65244237313E+02  0.73078000056E+02  0.00000000000E+00 0.  1.
         11    1    4    4    0    0 -0.11770045441E+02  0.39077855353E+02 -0.15959333459E+02  0.43821376897E+02  0.00000000000E+00 0. -1.
</event>
<event>
 8    1  0.6862919E-009  0.1512433E+03  0.7561462E-02  0.1198954E+00
         -2   -1    0    0    0  501 -0.00000000000E+00  0.00000000000E+00  0.19861540021E+02  0.19861540021E+02  0.00000000000E+00 0.  1.
          2   -1    0    0  501    0  0.00000000000E+00 -0.00000000000E+00 -0.16030434389E+04  0.16030434389E+04  0.00000000000E+00 0. -1.
         25    2    1    2    0    0  0.13072198934E+03 -0.52348626903E+02 -0.87056988208E+03  0.89071163260E+03  0.12508667249E+03 0.  0.
         23    2    1    2    0    0 -0.13072198934E+03  0.52348626903E+02 -0.71261201682E+03  0.73219334634E+03  0.91992351149E+02 0.  0.
          5    1    3    3  502    0  0.13270488163E+03 -0.35849578726E+02 -0.46827473451E+03  0.48805171578E+03  0.41800000000E+01 0. -1.
         -5    1    3    3    0  502 -0.19828922857E+01 -0.16499048177E+02 -0.40229514757E+03  0.40265991682E+03  0.41800000000E+01 0. -1.
        -11    1    4    4    0    0 -0.10601043564E+03  0.60182347011E+02 -0.67842020734E+03  0.68928521316E+03  0.00000000000E+00 0. -1.
         11    1    4    4    0    0 -0.24711553704E+02 -0.78337201083E+01 -0.34191809480E+02  0.42908133177E+02  0.00000000000E+00 0.  1.
</event>
<event>
 8    1  0.6862919E-009  0.1152602E+03  0.7561462E-02  0.1251128E+00
          3   -1    0    0  501    0  0.00000000000E+00  0.00000000000E+00  0.15961399778E+03  0.15961399778E+03  0.00000000000E+00 0. -1.
         -3   -1    0    0    0  501 -0.00000000000E+00 -0.00000000000E+00 -0.11554616064E+03  0.11554616064E+03  0.00000000000E+00 0.  1.
         25    2    1    2    0    0 -0.38992135207E+02 -0.28608713709E+02  0.90273336660E+02  0.16166426486E+03  0.12508882489E+03 0.  0.
         23    2    1    2    0    0  0.38992135207E+02  0.28608713709E+02 -0.46205499520E+02  0.11349589357E+03  0.91692554565E+02 0.  0.
          5    1    3    3  502    0  0.31124000398E+02 -0.45292348605E+02  0.14468653114E+02  0.56981703782E+02  0.41800000000E+01 0. -1.
         -5    1    3    3    0  502 -0.70116135604E+02  0.16683634896E+02  0.75804683547E+02  0.10468256107E+03  0.41800000000E+01 0. -1.
        -11    1    4    4    0    0  0.46598800132E+02 -0.22354718696E+02 -0.17836478950E+02  0.54674688871E+02  0.00000000000E+00 0.  1.
         11    1    4    4    0    0 -0.76066649256E+01  0.50963432406E+02 -0.28369020570E+02  0.58821204696E+02  0.00000000000E+00 0. -1.
</event>
<event>
 8    1  0.6862919E-009  0.1097883E+03  0.7561462E-02  0.1260962E+00
          1   -1    0    0  501    0  0.00000000000E+00  0.00000000000E+00  0.54505473406E+03  0.54505473406E+03  0.00000000000E+00 0. -1.
         -1   -1    0    0    0  501 -0.00000000000E+00 -0.00000000000E+00 -0.30160084081E+02  0.30160084081E+02  0.00000000000E+00 0.  1.
         25    2    1    2    0    0 -0.38451047333E+02  0.53875747221E+02  0.27971844797E+03  0.31348044042E+03  0.12508595930E+03 0.  0.
         23    2    1    2    0    0  0.38451047333E+02 -0.53875747221E+02  0.23517620201E+03  0.26173437772E+03  0.93893340062E+02 0.  0.
          5    1    3    3  502    0 -0.83349375167E+00  0.69797885129E+02  0.67033407339E+02  0.96867897571E+02  0.41800000000E+01 0. -1.
         -5    1    3    3    0  502 -0.37617553582E+02 -0.15922137908E+02  0.21268504063E+03  0.21661254285E+03  0.41800000000E+01 0. -1.
        -11    1    4    4    0    0  0.59776165474E+02 -0.11111002850E+02  0.17261812077E+03  0.18301273169E+03  0.00000000000E+00 0. -1.
         11    1    4    4    0    0 -0.21325118141E+02 -0.42764744370E+02  0.62558081245E+02  0.78721646031E+02  0.00000000000E+00 0.  1.
</event>
<event>
 8    1  0.6862919E-009  0.1464951E+03  0.7561462E-02  0.1204847E+00
         -1   -1    0    0    0  501 -0.00000000000E+00  0.00000000000E+00  0.43550247692E+03  0.43550247692E+03  0.00000000000E+00 0.  1.
          1   -1    0    0  501    0  0.00000000000E+00 -0.00000000000E+00 -0.61986932674E+02  0.61986932674E+02  0.00000000000E+00 0. -1.
         25    2    1    2    0    0  0.77682750152E+02  0.87722131163E+02  0.25931779338E+03  0.31084433982E+03  0.12509477875E+03 0.  0.
         23    2    1    2    0    0 -0.77682750152E+02 -0.87722131163E+02  0.11419775087E+03  0.18664506977E+03  0.89807982943E+02 0.  0.
          5    1    3    3  502    0  0.88613517822E+02  0.10946259423E+03  0.18507712295E+03  0.23260573707E+03  0.41800000000E+01 0.  1.
         -5    1    3    3    0  502 -0.10930767670E+02 -0.21740463063E+02  0.74240670426E+02  0.78238602757E+02  0.41800000000E+01 0.  1.
        -11    1    4    4    0    0 -0.61603439669E+02 -0.92040849086E+02  0.12483799255E+03  0.16688626685E+03  0.00000000000E+00 0.  1.
         11    1    4    4    0    0 -0.16079310483E+02  0.43187179224E+01 -0.10640241677E+02  0.19758802926E+02  0.00000000000E+00 0. -1.
</event>
<event>
 8    1  0.6862919E-009  0.1893301E+03  0.7561462E-02  0.1159067E+00
         -2   -1    0    0    0  501 -0.00000000000E+00  0.00000000000E+00  0.48275358907E+02  0.48275358907E+02  0.00000000000E+00 0.  1.
          2   -1    0    0  501    0  0.00000000000E+00 -0.00000000000E+00 -0.10017602750E+04  0.10017602750E+04  0.00000000000E+00 0. -1.
         25    2    1    2    0    0 -0.12970748458E+03  0.87710672492E+02 -0.75047762264E+03  0.77677725078E+03  0.12509612954E+03 0.  0.
         23    2    1    2    0    0  0.12970748458E+03 -0.87710672492E+02 -0.20300729342E+03  0.27325838309E+03  0.94556803674E+02 0.  0.
          5    1    3    3  502    0 -0.94340048966E+02  0.11812514944E+03 -0.61903324769E+03  0.63723875425E+03  0.41800000000E+01 0. -1.
         -5    1    3    3    0  502 -0.35367435617E+02 -0.30414476945E+02 -0.13144437494E+03  0.13953849653E+03  0.41800000000E+01 0. -1.
        -11    1    4    4    0    0 -0.51222507610E+01 -0.35725117082E+02 -0.59579903159E+02  0.69658354157E+02  0.00000000000E+00 0. -1.
         11    1    4    4    0    0  0.13482973534E+03 -0.51985555409E+02 -0.14342739026E+03  0.20360002893E+03  0.00000000000E+00 0.  1.
</event>
<event>
 8    1  0.6862919E-009  0.1285347E+03  0.7561462E-02  0.1229646E+00
          1   -1    0    0  501    0  0.00000000000E+00  0.00000000000E+00  0.44745245053E+02  0.44745245053E+02  0.00000000000E+00 0.  1.
         -1   -1    0    0    0  501 -0.00000000000E+00 -0.00000000000E+00 -0.49773245846E+03  0.49773245846E+03  0.00000000000E+00 0. -1.
         25    2    1    2    0    0 -0.53553928103E+02  0.78077426259E+02 -0.26716177355E+03  0.30981778070E+03  0.12509011265E+03 0.  0.
         23    2    1    2    0    0  0.53553928103E+02 -0.78077426259E+02 -0.18582543986E+03  0.23265992282E+03  0.10312825937E+03 0.  0.
          5    1    3    3  502    0 -0.53788040050E+02 -0.16022813283E+02 -0.14514032702E+03  0.15566974890E+03  0.41800000000E+01 0.  1.
         -5    1    3    3    0  502  0.23411194693E+00  0.94100239543E+02 -0.12202144654E+03  0.15414803179E+03  0.41800000000E+01 0.  1.
        -11    1    4    4    0    0  0.44601674956E+02 -0.21859251124E+02 -0.16455728980E+03  0.17189019138E+03  0.00000000000E+00 0. -1.
         11    1    4    4    0    0  0.89522531475E+01 -0.56218175136E+02 -0.21268150065E+02  0.60769731439E+02  0.00000000000E+00 0.  1.
</event>
<event>
 8    1  0.6862919E-009  0.7108752E+02  0.7561462E-02  0.1356433E+00
         -2   -1    0    0    0  501 -0.00000000000E+00  0.00000000000E+00  0.15955312885E+02  0.15955312885E+02  0.00000000000E+00 0.  1.
          2   -1    0    0  501    0  0.00000000000E+00 -0.00000000000E+00 -0.12412670024E+04  0.12412670024E+04  0.00000000000E+00 0. -1.
         25    2    1    2    0    0 -0.35711692405E+02 -0.21512427505E+02 -0.10283488659E+04  0.10367673980E+04  0.12508852067E+03 0.  0.
         23    2    1    2    0    0  0.35711692405E+02  0.21512427505E+02 -0.19696282358E+03  0.22045491727E+03  0.89821529516E+02 0.  0.
          5    1    3    3  502    0 -0.87339635168E+01 -0.37995071620E+02 -0.96545467157E+03  0.96625053834E+03  0.41800000000E+01 0. -1.
         -5    1    3    3    0  502 -0.26977728888E+02  0.16482644115E+02 -0.62894194328E+02  0.70516859638E+02  0.41800000000E+01 0. -1.
        -11    1    4    4    0    0  0.28435364159E+02  0.41215184103E+02 -0.19260077956E+03  0.19900332063E+03  0.00000000000E+00 0. -1.
         11    1    4    4    0    0  0.72763282455E+01 -0.19702756598E+02 -0.43620440199E+01  0.21451596639E+02  0.00000000000E+00 0.  1.
</event>
<event>
 8    1  0.6862919E-009  0.9395176E+02  0.7561462E-02  0.1293555E+00
          2   -1    0    0  501    0  0.00000000000E+00  0.00000000000E+00  0.57447615488E+02  0.57447615488E+02  0.00000000000E+00 0. -1.
         -2   -1    0    0    0  501 -0.00000000000E+00 -0.00000000000E+00 -0.26839684391E+03  0.26839684391E+03  0.00000000000E+00 0.  1.
         25    2    1    2    0    0  0.46352231227E+01  0.36975566178E+02 -0.18484883137E+03  0.22628617503E+03  0.12509062621E+03 0.  0.
         23    2    1    2    0    0 -0.46352231227E+01 -0.36975566178E+02 -0.26100397054E+02  0.99558284365E+02  0.88554748443E+02 0.  0.
          5    1    3    3  502    0  0.41618351086E+02  0.52367950119E+02 -0.44936839727E+02  0.80692510876E+02  0.41800000000E+01 0.  1.
         -5    1    3    3    0  502 -0.36983127963E+02 -0.15392383941E+02 -0.13991199164E+03  0.14559366415E+03  0.41800000000E+01 0.  1.
        -11    1    4    4    0    0 -0.21042377796E+02 -0.53396162000E+02 -0.42261431893E+02  0.71273840961E+02  0.00000000000E+00 0.  1.
         11    1    4    4    0    0  0.16407154673E+02  0.16420595822E+02  0.16161034839E+02  0.28284443404E+02  0.00000000000E+00 0. -1.
</event>
<event>
 8    1  0.6862919E-009  0.1098624E+03  0.7561462E-02  0.1260825E+00
          2   -1    0    0  501    0  0.00000000000E+00  0.00000000000E+00  0.32098023632E+03  0.32098023632E+03  0.00000000000E+00 0. -1.
         -2   -1    0    0    0  501 -0.00000000000E+00 -0.00000000000E+00 -0.52235797552E+02  0.52235797552E+02  0.00000000000E+00 0.  1.
         25    2    1    2    0    0  0.54260798937E+00  0.51995515601E+01  0.24474200362E+03  0.27490592433E+03  0.12508912479E+03 0.  0.
         23    2    1    2    0    0 -0.54260798937E+00 -0.51995515601E+01  0.24002435151E+02  0.98310109538E+02  0.95191548912E+02 0.  0.
          5    1    3    3  502    0 -0.56050204263E+02 -0.24044039726E+02  0.12799594816E+03  0.14184560758E+03  0.41800000000E+01 0.  1.
         -5    1    3    3    0  502  0.56592812253E+02  0.29243591286E+02  0.11674605545E+03  0.13306031675E+03  0.41800000000E+01 0.  1.
        -11    1    4    4    0    0  0.30413613599E+02 -0.38646829311E+02  0.70334848736E+01  0.49679323842E+02  0.00000000000E+00 0. -1.
         11    1    4    4    0    0 -0.30956221588E+02  0.33447277751E+02  0.16968950277E+02  0.48630785696E+02  0.00000000000E+00 0.  1.
</event>
<event>
 8    1  0.6862919E-009  0.1513008E+03  0.7561462E-02  0.1198884E+00
         -2   -1    0    0    0  501 -0.00000000000E+00  0.00000000000E+00  0.13481795819E+03  0.13481795819E+03  0.00000000000E+00 0.  1.
          2   -1    0    0  501    0  0.00000000000E+00 -0.00000000000E+00 -0.23983486326E+03  0.23983486326E+03  0.00000000000E+00 0. -1.
         25    2    1    2    0    0  0.13680645097E+03 -0.12057726039E+02 -0.15282820239E+02  0.18638967367E+03  0.12508457967E+03 0.  0.
         23    2    1    2    0    0 -0.13680645097E+03  0.12057726039E+02 -0.89734084833E+02  0.18826314778E+03  0.92354821453E+02 0.  0.
          5    1    3    3  502    0  0.38666087256E+02 -0.14070749622E+02  0.52642200914E+02  0.66945694527E+02  0.41800000000E+01 0.  1.
         -5    1    3    3    0  502  0.98140363715E+02  0.20130235830E+01 -0.67925021153E+02  0.11944397914E+03  0.41800000000E+01 0.  1.
        -11    1    4    4    0    0 -0.76941012866E+02 -0.37205293529E+02 -0.63293994446E+02  0.10634981458E+03  0.00000000000E+00 0. -1.
         11    1    4    4    0    0 -0.59865438105E+02  0.49263019568E+02 -0.26440090386E+02  0.81913333201E+02  0.00000000000E+00 0.  1.
</event>
<event>
 8    1  0.6862919E-009  0.9665606E+02  0.7561462E-02  0.1287489E+00
         -4   -1    0    0    0  501 -0.00000000000E+00  0.00000000000E+00  0.48431199737E+03  0.48431199737E+03  0.00000000000E+00 0.  1.
          4   -1    0    0  501    0  0.00000000000E+00 -0.00000000000E+00 -0.27223744446E+02  0.27223744446E+02  0.00000000000E+00 0. -1.
         25    2    1    2    0    0 -0.26967524953E+02  0.18823529203E+02  0.28640356878E+03  0.31425436492E+03  0.12508888444E+03 0.  0.
         23    2    1    2    0    0  0.26967524953E+02 -0.18823529203E+02  0.17068468415E+03  0.19728137689E+03  0.93301166196E+02 0.  0.
          5    1    3    3  502    0 -0.34567512037E+02 -0.29353278738E+02  0.24769749638E+03  0.25184926042E+03  0.41800000000E+01 0. -1.
         -5    1    3    3    0  502  0.75999870835E+01  0.48176807941E+02  0.38706072391E+02  0.62405104494E+02  0.41800000000E+01 0. -1.
        -11    1    4    4    0    0 -0.35015839890E+02 -0.75103245695E+01  0.66339812050E+02  0.75388889640E+02  0.00000000000E+00 0.  1.
         11    1    4    4    0    0  0.61983364843E+02 -0.11313204633E+02  0.10434487210E+03  0.12189248725E+03  0.00000000000E+00 0. -1.
</event>
<event>
 8    1  0.6862919E-009  0.1343340E+03  0.7561462E-02  0.1221163E+00
          2   -1    0    0  501    0  0.00000000000E+00  0.00000000000E+00  0.17694435169E+03  0.17694435169E+03  0.00000000000E+00 0. -1.
         -2   -1    0    0    0  501 -0.00000000000E+00 -0.00000000000E+00 -0.13342063985E+03  0.13342063985E+03  0.00000000000E+00 0.  1.
         25    2    1    2    0    0  0.44382172277E+02 -0.98782969830E+02  0.10125730321E+02  0.16576200181E+03  0.12508660394E+03 0.  0.
         23    2    1    2    0    0 -0.44382172277E+02  0.98782969830E+02  0.33397981514E+02  0.14460298973E+03  0.89815071817E+02 0.  0.
          5    1    3    3  502    0  0.78196016877E+02 -0.89913662889E+02 -0.18149576201E+02  0.12060664719E+03  0.41800000000E+01 0. -1.
         -5    1    3    3    0  502 -0.33813844600E+02 -0.88693069407E+01  0.28275306522E+02  0.45155354623E+02  0.41800000000E+01 0. -1.
        -11    1    4    4    0    0 -0.17695783197E+02  0.76684206915E+01 -0.26179229097E+02  0.32516110699E+02  0.00000000000E+00 0.  1.
         11    1    4    4    0    0 -0.26686389080E+02  0.91114549138E+02  0.59577210611E+02  0.11208687903E+03  0.00000000000E+00 0. -1.
</event>
<event>
 7    1  0.6862919E-009  0.1307208E+03  0.7561462E-02  0.1226390E+00
         -3   -1    0    0    0  501 -0.00000000000E+00  0.00000000000E+00  0.14788038729E+03  0.14788038729E+03  0.00000000000E+00 0.  1.
          3   -1    0    0  501    0  0.00000000000E+00 -0.00000000000E+00 -0.23546968895E+03  0.23546968895E+03  0.00000000000E+00 0. -1.
         25    2    1    2    0    0 -0.12078851313E+03 -0.24006620655E+02 -0.63437171288E+02  0.18665217577E+03  0.12509427356E+03 0.  0.
          5    1    3    3  502    0 -0.11060945583E+03 -0.16123538282E+02  0.96967728650E+01  0.11227608833E+03  0.41800000000E+01 0. -1.
         -5    1    3    3    0  502 -0.10179057294E+02 -0.78830823734E+01 -0.73133944153E+02  0.74376087437E+02  0.41800000000E+01 0. -1.
        -11    1    1    2    0    0  0.11140654701E+03  0.12276213061E+01  0.47359855698E+02  0.12106147902E+03  0.00000000000E+00 0.  1.
         11    1    1    2    0    0  0.93819661148E+01  0.22778999349E+02 -0.71511986062E+02  0.75636421452E+02  0.00000000000E+00 0. -1.
</event>
<event>
 8    1  0.6862919E-009  0.1488032E+03  0.7561462E-02  0.1201951E+00
         -1   -1    0    0    0  501 -0.00000000000E+00  0.00000000000E+00  0.68903750882E+02  0.68903750882E+02  0.00000000000E+00 0.  1.
          1   -1    0    0  501    0  0.00000000000E+00 -0.00000000000E+00 -0.40210123072E+03  0.40210123072E+03  0.00000000000E+00 0. -1.
         25    2    1    2    0    0 -0.10247740779E+03  0.24311909773E+02 -0.27269654260E+03  0.31796833990E+03  0.12509105792E+03 0.  0.
         23    2    1    2    0    0  0.10247740779E+03 -0.24311909773E+02 -0.60500937239E+02  0.15303664170E+03  0.93097595200E+02 0.  0.
          5    1    3    3  502    0 -0.87566258343E+02 -0.36380335561E+02 -0.20401908885E+03  0.22501697588E+03  0.41800000000E+01 0. -1.
         -5    1    3    3    0  502 -0.14911149444E+02  0.60692245334E+02 -0.68677453745E+02  0.92951364027E+02  0.41800000000E+01 0. -1.
        -11    1    4    4    0    0  0.10930984786E+03 -0.45043182540E+02 -0.46156605116E+02  0.12691715143E+03  0.00000000000E+00 0.  1.
         11    1    4    4    0    0 -0.68324400677E+01  0.20731272767E+02 -0.14344332123E+02  0.26119490268E+02  0.00000000000E+00 0. -1.
</event>
<event>
 8    1  0.6862919E-009  0.1419052E+03  0.7561462E-02  0.1210788E+00
         -2   -1    0    0    0  501 -0.00000000000E+00  0.00000000000E+00  0.62324174906E+02  0.62324174906E+02  0.00000000000E+00 0.  1.
          2   -1    0    0  501    0  0.00000000000E+00 -0.00000000000E+00 -0.34626679570E+03  0.34626679570E+03  0.00000000000E+00 0. -1.
         25    2    1    2    0    0  0.79844633405E+02 -0.51253763024E+02 -0.10783855465E+03  0.19046744099E+03  0.12508628423E+03 0.  0.
         23    2    1    2    0    0 -0.79844633405E+02  0.51253763024E+02 -0.17610406614E+03  0.21812352961E+03  0.86966190846E+02 0.  0.
          5    1    3    3  502    0 -0.22640940739E+02 -0.49298164794E+02 -0.37473447935E+02  0.66065520128E+02  0.41800000000E+01 0. -1.
         -5    1    3    3    0  502  0.10248557414E+03 -0.19555982308E+01 -0.70365106714E+02  0.12440192086E+03  0.41800000000E+01 0. -1.
        -11    1    4    4    0    0 -0.57710926161E+02 -0.12737990919E+02 -0.10084934636E+03  0.11689053885E+03  0.00000000000E+00 0. -1.
         11    1    4    4    0    0 -0.22133707243E+02  0.63991753943E+02 -0.75254719776E+02  0.10123299076E+03  0.00000000000E+00 0.  1.
</event>
<event>
 8    1  0.6862919E-009  0.8743523E+02  0.7561462E-02  0.1309184E+00
         -2   -1    0    0    0  501 -0.00000000000E+00  0.00000000000E+00  0.60492956404E+02  0.60492956404E+02  0.00000000000E+00 0.  1.
          2   -1    0    0  501    0  0.00000000000E+00 -0.00000000000E+00 -0.24340561891E+03  0.24340561891E+03  0.00000000000E+00 0. -1.
         25    2    1    2    0    0  0.11566053348E+02  0.50968523997E+02 -0.86928138090E+02  0.16104624711E+03  0.12509128062E+03 0.  0.
         23    2    1    2    0    0 -0.11566053348E+02 -0.50968523997E+02 -0.95984524415E+02  0.14285232820E+03  0.91990188158E+02 0.  0.
          5    1    3    3  502    0  0.48794915856E+02  0.20196742598E+02 -0.97923610097E+02  0.11133444229E+03  0.41800000000E+01 0.  1.
         -5    1    3    3    0  502 -0.37228862508E+02  0.30771781400E+02  0.10995472006E+02  0.49711804824E+02  0.41800000000E+01 0.  1.
        -11    1    4    4    0    0  0.14824062710E+02  0.12809675562E+01 -0.81100046834E+02  0.82453691910E+02  0.00000000000E+00 0. -1.
         11    1    4    4    0    0 -0.26390116058E+02 -0.52249491554E+02 -0.14884477581E+02  0.60398636293E+02  0.00000000000E+00 0.  1.
</event>
<event>
 8    1  0.6862919E-009  0.7771898E+02  0.7561462E-02  0.1335652E+00
          2   -1    0    0  501    0  0.00000000000E+00  0.00000000000E+00  0.11533515766E+03  0.11533515766E+03  0.00000000000E+00 0. -1.
         -2   -1    0    0    0  501 -0.00000000000E+00 -0.00000000000E+00 -0.13635087521E+03  0.13635087521E+03  0.00000000000E+00 0.  1.
         25    2    1    2    0    0  0.18137318777E+02  0.50621371307E+02  0.12791280539E+02  0.13675908708E+03  0.12509174823E+03 0.  0.
         23    2    1    2    0    0 -0.18137318777E+02 -0.50621371307E+02 -0.33806998088E+02  0.11492694579E+03  0.95779977987E+02 0.  0.
          5    1    3    3  502    0  0.53795695614E+01  0.88776844328E+01  0.66493603852E+02  0.67428664548E+02  0.41800000000E+01 0.  1.
         -5    1    3    3    0  502  0.12757749215E+02  0.41743686875E+02 -0.53702323313E+02  0.69330422529E+02  0.41800000000E+01 0.  1.
        -11    1    4    4    0    0  0.29992229398E+02  0.75192103633E+00 -0.32898920505E+02  0.44524579503E+02  0.00000000000E+00 0.  1.
         11    1    4    4    0    0 -0.48129548175E+02 -0.51373292344E+02 -0.90807758291E+00  0.70402366286E+02  0.00000000000E+00 0. -1.
</event>
<event>
 8    1  0.6862919E-009  0.1941441E+03  0.7561462E-02  0.1154776E+00
         -2   -1    0    0    0  501 -0.00000000000E+00  0.00000000000E+00  0.54615863054E+02  0.54615863054E+02  0.00000000000E+00 0.  1.
          2   -1    0    0  501    0  0.00000000000E+00 -0.00000000000E+00 -0.10396401487E+04  0.10396401487E+04  0.00000000000E+00 0. -1.
         25    2    1    2    0    0 -0.92252152518E+02  0.15003077670E+03 -0.23785030018E+03  0.32131325930E+03  0.12509896764E+03 0.  0.
         23    2    1    2    0    0  0.92252152518E+02 -0.15003077670E+03 -0.74717398548E+03  0.77294275247E+03  0.90287542971E+02 0.  0.
          5    1    3    3  502    0  0.61093571839E+01  0.58748490288E+02 -0.14895752816E+03  0.16029512454E+03  0.41800000000E+01 0.  1.
         -5    1    3    3    0  502 -0.98361509702E+02  0.91282286412E+02 -0.88892772021E+02  0.16101813476E+03  0.41800000000E+01 0.  1.
        -11    1    4    4    0    0  0.24864756350E+01 -0.82373593359E+02 -0.25050984982E+03  0.26371722792E+03  0.00000000000E+00 0.  1.
         11    1    4    4    0    0  0.89765676883E+02 -0.67657183342E+02 -0.49666413566E+03  0.50922552455E+03  0.00000000000E+00 0. -1.
</event>
<event>
 8    1  0.6862919E-009  0.1578534E+03  0.7561462E-02  0.1191142E+00
         -1   -1    0    0    0  501 -0.00000000000E+00  0.00000000000E+00  0.14008626859E+03  0.14008626859E+03  0.00000000000E+00 0.  1.
          1   -1    0    0  501    0  0.00000000000E+00 -0.00000000000E+00 -0.32524091216E+03  0.32524091216E+03  0.00000000000E+00 0. -1.
         25    2    1    2    0    0 -0.49363819860E+02 -0.12843017870E+03 -0.22843970428E+03  0.29455643991E+03  0.12509076819E+03 0.  0.
         23    2    1    2    0    0  0.49363819860E+02  0.12843017870E+03  0.43285060713E+02  0.17077074084E+03  0.91421835090E+02 0.  0.
          5    1    3    3  502    0  0.18428480705E+01 -0.10184649776E+03 -0.64326480906E+02  0.12054656254E+03  0.41800000000E+01 0. -1.
         -5    1    3    3    0  502 -0.51206667931E+02 -0.26583680942E+02 -0.16411322338E+03  0.17400987737E+03  0.41800000000E+01 0. -1.
        -11    1    4    4    0    0  0.36521090326E+02  0.11516428373E+02  0.36588045396E+02  0.52963225232E+02  0.00000000000E+00 0. -1.
         11    1    4    4    0    0  0.12842729534E+02  0.11691375033E+03  0.66970153171E+01  0.11780751560E+03  0.00000000000E+00 0.  1.
</event>
<event>
 8    1  0.6862919E-009  0.1069631E+03  0.7561462E-02  0.1266299E+00
          1   -1    0    0  501    0  0.00000000000E+00  0.00000000000E+00  0.74744485435E+03  0.74744485435E+03  0.00000000000E+00 0. -1.
         -1   -1    0    0    0  501 -0.00000000000E+00 -0.00000000000E+00 -0.22376632427E+02  0.22376632427E+02  0.00000000000E+00 0.  1.
         25    2    1    2    0    0  0.69461606134E+02  0.91044279478E+01  0.39517329665E+03  0.42037455703E+03  0.12508008826E+03 0.  0.
         23    2    1    2    0    0 -0.69461606134E+02 -0.91044279478E+01  0.32989492527E+03  0.34944692974E+03  0.91513330470E+02 0.  0.
          5    1    3    3  502    0 -0.48163928241E+01 -0.36449958377E+02  0.39357174418E+02  0.54020891178E+02  0.41800000000E+01 0.  1.
         -5    1    3    3    0  502  0.74277998958E+02  0.45554386325E+02  0.35581612223E+03  0.36635366585E+03  0.41800000000E+01 0.  1.
        -11    1    4    4    0    0 -0.77811583164E+01  0.20018646303E+02  0.12595253510E+02  0.24898454481E+02  0.00000000000E+00 0.  1.
         11    1    4    4    0    0 -0.61680447818E+02 -0.29123074251E+02  0.31729967176E+03  0.32454847526E+03  0.00000000000E+00 0. -1.
</event>
<event>
 8    1  0.6862919E-009  0.1381144E+03  0.7561462E-02  0.1215889E+00
          1   -1    0    0  501    0  0.00000000000E+00  0.00000000000E+00  0.33746061926E+03  0.33746061926E+03  0.00000000000E+00 0. -1.
         -1   -1    0    0    0  501 -0.00000000000E+00 -0.00000000000E+00 -0.10710238867E+03  0.10710238867E+03  0.00000000000E+00 0.  1.
         25    2    1    2    0    0  0.93084112863E+02 -0.94347310019E+02  0.21542171919E+03  0.28217069230E+03  0.12509082909E+03 0.  0.
         23    2    1    2    0    0 -0.93084112863E+02  0.94347310019E+02  0.14936511398E+02  0.16239231562E+03  0.92639612612E+02 0.  0.
          5    1    3    3  502    0  0.59342642460E+02 -0.61268827445E+02  0.21853966020E+03  0.23463263607E+03  0.41800000000E+01 0.  1.
         -5    1    3    3    0  502  0.33741470403E+02 -0.33078482574E+02 -0.31179410096E+01  0.47538056234E+02  0.41800000000E+01 0.  1.
        -11    1    4    4    0    0 -0.15506283946E+02  0.53536966320E+02  0.42951838150E+02  0.70366980929E+02  0.00000000000E+00 0. -1.
         11    1    4    4    0    0 -0.77577828917E+02  0.40810343699E+02 -0.28015326752E+02  0.92025334693E+02  0.00000000000E+00 0.  1.
</event>
<event>
 7    1  0.6862919E-009  0.2911303E+03  0.7561462E-02  0.1089760E+00
          2   -1    0    0  501    0  0.00000000000E+00  0.00000000000E+00  0.72501969383E+03  0.72501969383E+03  0.00000000000E+00 0. -1.
         -2   -1    0    0    0  501 -0.00000000000E+00 -0.00000000000E+00 -0.12727925905E+03  0.12727925905E+03  0.00000000000E+00 0.  1.
         23    2    1    2    0    0  0.26386347567E+03  0.10259482528E+03  0.31697133948E+03  0.43445085152E+03  0.90150320937E+02 0.  0.
          5    1    1    2  502    0 -0.71838032243E+02 -0.44075624467E+02  0.16689860976E+03  0.18701866722E+03  0.41800000000E+01 0. -1.
         -5    1    1    2    0  502 -0.19202544343E+03 -0.58519200817E+02  0.11387048554E+03  0.23082943414E+03  0.41800000000E+01 0. -1.
        -11    1    3    3    0    0  0.65732282291E+01  0.28633016525E+02  0.29644439186E+02  0.41735473393E+02  0.00000000000E+00 0. -1.
         11    1    3    3    0    0  0.25729024744E+03  0.73961808759E+02  0.28732690029E+03  0.39271537812E+03  0.00000000000E+00 0.  1.
</event>
<event>
 8    1  0.6862919E-009  0.1784248E+03  0.7561462E-02  0.1169336E+00
         -2   -1    0    0    0  501 -0.00000000000E+00  0.00000000000E+00  0.14211870103E+03  0.14211870103E+03  0.00000000000E+00 0.  1.
          2   -1    0    0  501    0  0.00000000000E+00 -0.00000000000E+00 -0.12173450629E+04  0.12173450629E+04  0.00000000000E+00 0. -1.
         25    2    1    2    0    0 -0.14730132758E+03  0.57013525629E+02 -0.11459358468E+04  0.11635144579E+04  0.12509478618E+03 0.  0.
         23    2    1    2    0    0  0.14730132758E+03 -0.57013525629E+02  0.70709484940E+02  0.19594930603E+03  0.91913416125E+02 0.  0.
          5    1    3    3  502    0 -0.80501228180E+02  0.92816658804E+02 -0.61354892694E+03  0.62574366800E+03  0.41800000000E+01 0. -1.
         -5    1    3    3    0  502 -0.66800099397E+02 -0.35803133175E+02 -0.53238691983E+03  0.53777078986E+03  0.41800000000E+01 0. -1.
        -11    1    4    4    0    0  0.43278250160E+02 -0.18890279489E+02  0.70869061789E+02  0.85160281323E+02  0.00000000000E+00 0.  1.
         11    1    4    4    0    0  0.10402307742E+03 -0.38123246140E+02 -0.15957684935E+00  0.11078902471E+03  0.00000000000E+00 0. -1.
</event>
<event>
 8    1  0.6862919E-009  0.4455846E+03  0.7561462E-02  0.1029047E+00
         -2   -1    0    0    0  501 -0.00000000000E+00  0.00000000000E+00  0.42491829066E+03  0.42491829066E+03  0.00000000000E+00 0.  1.
          2   -1    0    0  501    0  0.00000000000E+00 -0.00000000000E+00 -0.49453305809E+03  0.49453305809E+03  0.00000000000E+00 0. -1.
         25    2    1    2    0    0  0.10614703659E+03 -0.42964981932E+03 -0.83706317046E+02  0.46746596181E+03  0.12510602432E+03 0.  0.
         23    2    1    2    0    0 -0.10614703659E+03  0.42964981932E+03  0.14091549616E+02  0.45198538694E+03  0.90697616363E+02 0.  0.
          5    1    3    3  502    0  0.69403017287E+02 -0.35885195815E+03 -0.21376901322E+02  0.36615017545E+03  0.41800000000E+01 0. -1.
         -5    1    3    3    0  502  0.36744019298E+02 -0.70797861176E+02 -0.62329415724E+02  0.10131578636E+03  0.41800000000E+01 0. -1.
        -11    1    4    4    0    0 -0.19244719565E+01  0.10037881171E+03 -0.27559209373E+02  0.10411109189E+03  0.00000000000E+00 0.  1.
         11    1    4    4    0    0 -0.10422256463E+03  0.32927100761E+03  0.41650758988E+02  0.34787429505E+03  0.00000000000E+00 0. -1.
</event>
<event>
 8    1  0.6862919E-009  0.2351468E+03  0.7561462E-02  0.1123069E+00
         -2   -1    0    0    0  501 -0.00000000000E+00  0.00000000000E+00  0.32682608798E+02  0.32682608798E+02  0.00000000000E+00 0.  1.
          2   -1    0    0  501    0  0.00000000000E+00 -0.00000000000E+00 -0.19369351315E+04  0.19369351315E+04  0.00000000000E+00 0. -1.
         25    2    1    2    0    0 -0.21024237453E+03 -0.30253396614E+02 -0.13332408412E+04  0.13558373146E+04  0.12508620593E+03 0.  0.
         23    2    1    2    0    0  0.21024237453E+03  0.30253396614E+02 -0.57101168148E+03  0.61378042569E+03  0.74531513645E+02 0.  0.
          5    1    3    3  502    0 -0.78337545748E+02 -0.72609080665E+02 -0.52050369371E+03  0.53136655638E+03  0.41800000000E+01 0.  1.
         -5    1    3    3    0  502 -0.13190482878E+03  0.42355684051E+02 -0.81273714748E+03  0.82447075820E+03  0.41800000000E+01 0.  1.
        -11    1    4    4    0    0  0.15250844426E+03 -0.12408035850E+02 -0.37345936494E+03  0.40358974490E+03  0.00000000000E+00 0.  1.
         11    1    4    4    0    0  0.57733930262E+02  0.42661432464E+02 -0.19755231654E+03  0.21019068080E+03  0.00000000000E+00 0. -1.
</event>
<event>
 8    1  0.6862919E-009  0.1044917E+03  0.7561462E-02  0.1271124E+00
          2   -1    0    0  501    0  0.00000000000E+00  0.00000000000E+00  0.42452523365E+03  0.42452523365E+03  0.00000000000E+00 0.  1.
         -2   -1    0    0    0  501 -0.00000000000E+00 -0.00000000000E+00 -0.40613477190E+02  0.40613477190E+02  0.00000000000E+00 0. -1.
         25    2    1    2    0    0 -0.37523261502E+02 -0.30279146506E+00  0.13890607818E+03  0.19064603518E+03  0.12507168079E+03 0.  0.
         23    2    1    2    0    0  0.37523261502E+02  0.30279146506E+00  0.24500567828E+03  0.27449267566E+03  0.11794218824E+03 0.  0.
          5    1    3    3  502    0 -0.48786076066E+02  0.49743897198E+02  0.11350858096E+03  0.13325241791E+03  0.41800000000E+01 0. -1.
         -5    1    3    3    0  502  0.11262814564E+02 -0.50046688663E+02  0.25397497215E+02  0.57393617265E+02  0.41800000000E+01 0. -1.
        -11    1    4    4    0    0 -0.45342533669E+01 -0.33470204626E+02  0.20389280324E+03  0.20667145247E+03  0.00000000000E+00 0.  1.
         11    1    4    4    0    0  0.42057514869E+02  0.33772996091E+02  0.41112875037E+02  0.67821223195E+02  0.00000000000E+00 0. -1.
</event>
<event>
 8    1  0.6862919E-009  0.2288238E+03  0.7561462E-02  0.1127470E+00
         -2   -1    0    0    0  501 -0.00000000000E+00  0.00000000000E+00  0.40201669408E+03  0.40201669408E+03  0.00000000000E+00 0.  1.
          2   -1    0    0  501    0  0.00000000000E+00 -0.00000000000E+00 -0.14159611028E+03  0.14159611028E+03  0.00000000000E+00 0. -1.
         25    2    1    2    0    0 -0.33756126690E+02  0.20535395163E+03  0.18258034986E+03  0.30379923435E+03  0.12509464056E+03 0.  0.
         23    2    1    2    0    0  0.33756126690E+02 -0.20535395163E+03  0.77840233940E+02  0.23981357002E+03  0.90231506729E+02 0.  0.
          5    1    3    3  502    0  0.40900436763E+02  0.12954690943E+03  0.93472374279E+02  0.16495394698E+03  0.41800000000E+01 0. -1.
         -5    1    3    3    0  502 -0.74656563452E+02  0.75807042202E+02  0.89107975577E+02  0.13884528737E+03  0.41800000000E+01 0. -1.
        -11    1    4    4    0    0  0.45625025358E+01 -0.16695752895E+03  0.90476262550E+02  0.18995153852E+03  0.00000000000E+00 0.  1.
         11    1    4    4    0    0  0.29193624154E+02 -0.38396422678E+02 -0.12636028610E+02  0.49862031494E+02  0.00000000000E+00 0. -1.
</event>
<event>
 8    1  0.6862919E-009  0.1140635E+03  0.7561462E-02  0.1253225E+00
          1   -1    0    0  501    0  0.00000000000E+00  0.00000000000E+00  0.67688477082E+03  0.67688477082E+03  0.00000000000E+00 0. -1.
         -1   -1    0    0    0  501 -0.00000000000E+00 -0.00000000000E+00 -0.37027175133E+02  0.37027175133E+02  0.00000000000E+00 0.  1.
         25    2    1    2    0    0 -0.23794280658E+02 -0.90320526806E+02  0.22546666990E+03  0.27423758798E+03  0.12508824913E+03 0.  0.
         23    2    1    2    0    0  0.23794280658E+02  0.90320526806E+02  0.41439092579E+03  0.43967435798E+03  0.11344486032E+03 0.  0.
          5    1    3    3  502    0 -0.26326874873E+02 -0.60098797656E+02  0.23350618933E+03  0.24258520704E+03  0.41800000000E+01 0.  1.
         -5    1    3    3    0  502  0.25325942154E+01 -0.30221729150E+02 -0.80395194288E+01  0.31652380936E+02  0.41800000000E+01 0.  1.
        -11    1    4    4    0    0 -0.36026662985E+02  0.36800420083E+02  0.26625040578E+03  0.27118530554E+03  0.00000000000E+00 0. -1.
         11    1    4    4    0    0  0.59820943642E+02  0.53520106723E+02  0.14814052001E+03  0.16848905243E+03  0.00000000000E+00 0.  1.
</event>
<event>
 8    1  0.6862919E-009  0.1132119E+03  0.7561462E-02  0.1254735E+00
         -1   -1    0    0    0  501 -0.00000000000E+00  0.00000000000E+00  0.10868474157E+03  0.10868474157E+03  0.00000000000E+00 0.  1.
          1   -1    0    0  501    0  0.00000000000E+00 -0.00000000000E+00 -0.12716673886E+03  0.12716673886E+03  0.00000000000E+00 0. -1.
         25    2    1    2    0    0 -0.28304650783E+02 -0.36886994313E+02 -0.95257348286E+01  0.13379253479E+03  0.12509156301E+03 0.  0.
         23    2    1    2    0    0  0.28304650783E+02  0.36886994313E+02 -0.89562624579E+01  0.10205894564E+03  0.90410232505E+02 0.  0.
          5    1    3    3  502    0  0.13192632775E+02  0.37604856889E+02  0.18228108928E+02  0.44021667123E+02  0.41800000000E+01 0.  1.
         -5    1    3    3    0  502 -0.41497283558E+02 -0.74491851202E+02 -0.27753843756E+02  0.89770867666E+02  0.41800000000E+01 0.  1.
        -11    1    4    4    0    0  0.60011402091E+02  0.34410900904E+02 -0.61458083152E+00  0.69179882853E+02  0.00000000000E+00 0. -1.
         11    1    4    4    0    0 -0.31706751308E+02  0.24760934088E+01 -0.83416816264E+01  0.32879062782E+02  0.00000000000E+00 0.  1.
</event>
<event>
 8    1  0.6862919E-009  0.1227551E+03  0.7561462E-02  0.1238620E+00
          2   -1    0    0  501    0  0.00000000000E+00  0.00000000000E+00  0.57984512386E+03  0.57984512386E+03  0.00000000000E+00 0. -1.
         -2   -1    0    0    0  501 -0.00000000000E+00 -0.00000000000E+00 -0.28010711769E+02  0.28010711769E+02  0.00000000000E+00 0.  1.
         25    2    1    2    0    0 -0.11501074488E+02 -0.63825321466E+02  0.35017377728E+03  0.37745960883E+03  0.12509250829E+03 0.  0.
         23    2    1    2    0    0  0.11501074488E+02  0.63825321466E+02  0.20166063481E+03  0.23039622679E+03  0.90606088732E+02 0.  0.
          5    1    3    3  502    0  0.48354392168E+02 -0.64694045475E+02  0.20422942302E+03  0.21966018389E+03  0.41800000000E+01 0.  1.
         -5    1    3    3    0  502 -0.59855466656E+02  0.86872400907E+00  0.14594435426E+03  0.15779942494E+03  0.41800000000E+01 0.  1.
        -11    1    4    4    0    0  0.47117525853E+02  0.39646899363E+02  0.77506809733E+02  0.98991128019E+02  0.00000000000E+00 0.  1.
         11    1    4    4    0    0 -0.35616451365E+02  0.24178422103E+02  0.12415382508E+03  0.13140509878E+03  0.00000000000E+00 0. -1.
</event>
<event>
 8    1  0.6862919E-009  0.7347506E+02  0.7561462E-02  0.1348659E+00
         -2   -1    0    0    0  501 -0.00000000000E+00  0.00000000000E+00  0.86691244224E+02  0.86691244224E+02  0.00000000000E+00 0.  1.
          2   -1    0    0  501    0  0.00000000000E+00 -0.00000000000E+00 -0.18471902785E+03  0.18471902785E+03  0.00000000000E+00 0. -1.
         25    2    1    2    0    0 -0.47191173389E+02 -0.36538329488E+02 -0.29124288804E+02  0.14162747893E+03  0.12509221487E+03 0.  0.
         23    2    1    2    0    0  0.47191173389E+02  0.36538329488E+02 -0.68903494821E+02  0.12978279314E+03  0.92378706583E+02 0.  0.
          5    1    3    3  502    0  0.11535410304E+02 -0.10632038084E+02  0.42419226229E+02  0.45419919403E+02  0.41800000000E+01 0.  1.
         -5    1    3    3    0  502 -0.58726583694E+02 -0.25906291404E+02 -0.71543515033E+02  0.96207559526E+02  0.41800000000E+01 0.  1.
        -11    1    4    4    0    0  0.40110547735E+02  0.13548856044E+02  0.13105119255E+02  0.44318976639E+02  0.00000000000E+00 0. -1.
         11    1    4    4    0    0  0.70806256550E+01  0.22989473443E+02 -0.82008614075E+02  0.85463816504E+02  0.00000000000E+00 0.  1.
</event>
<event>
 8    1  0.6862919E-009  0.1544726E+03  0.7561462E-02  0.1195082E+00
         -2   -1    0    0    0  501 -0.00000000000E+00  0.00000000000E+00  0.42503949070E+02  0.42503949070E+02  0.00000000000E+00 0.  1.
          2   -1    0    0  501    0  0.00000000000E+00 -0.00000000000E+00 -0.75111241677E+03  0.75111241677E+03  0.00000000000E+00 0. -1.
         25    2    1    2    0    0 -0.99918561483E+01  0.14241463838E+03 -0.39179919985E+03  0.43535749972E+03  0.12509105942E+03 0.  0.
         23    2    1    2    0    0  0.99918561483E+01 -0.14241463838E+03 -0.31680926785E+03  0.35825886612E+03  0.87175320733E+02 0.  0.
          5    1    3    3  502    0  0.20023939096E+02  0.13181497752E+03 -0.37719353423E+03  0.40008571719E+03  0.41800000000E+01 0.  1.
         -5    1    3    3    0  502 -0.30015795245E+02  0.10599660858E+02 -0.14605665615E+02  0.35271782526E+02  0.41800000000E+01 0.  1.
        -11    1    4    4    0    0 -0.29398960636E+00 -0.91658115448E+02 -0.28027195951E+03  0.29487907326E+03  0.00000000000E+00 0. -1.
         11    1    4    4    0    0  0.10285845755E+02 -0.50756522928E+02 -0.36537308341E+02  0.63379792863E+02  0.00000000000E+00 0.  1.
</event>
<event>
 8    1  0.6862919E-009  0.1296387E+03  0.7561462E-02  0.1227993E+00
          2   -1    0    0  501    0  0.00000000000E+00  0.00000000000E+00  0.97450495547E+03  0.97450495547E+03  0.00000000000E+00 0. -1.
         -2   -1    0    0    0  501 -0.00000000000E+00 -0.00000000000E+00 -0.19965719301E+02  0.19965719301E+02  0.00000000000E+00 0.  1.
         25    2    1    2    0    0 -0.48313653309E+02 -0.67794376575E+02  0.44474530555E+03  0.46944233990E+03  0.12508971619E+03 0.  0.
         23    2    1    2    0    0  0.48313653309E+02  0.67794376575E+02  0.50979393062E+03  0.52502833487E+03  0.93992628037E+02 0.  0.
          5    1    3    3  502    0 -0.58361052320E+02 -0.90967403861E+02  0.24179505772E+03  0.26488375438E+03  0.41800000000E+01 0. -1.
         -5    1    3    3    0  502  0.10047399011E+02  0.23173027286E+02  0.20295024783E+03  0.20455858553E+03  0.41800000000E+01 0. -1.
        -11    1    4    4    0    0  0.74363274114E+02  0.65961778526E+02  0.39812629852E+03  0.41034790402E+03  0.00000000000E+00 0.  1.
         11    1    4    4    0    0 -0.26049620805E+02  0.18325980486E+01  0.11166763210E+03  0.11468043084E+03  0.00000000000E+00 0. -1.
</event>
<event>
 8    1  0.6862919E-009  0.1479438E+03  0.7561462E-02  0.1203023E+00
         -3   -1    0    0    0  501 -0.00000000000E+00  0.00000000000E+00  0.38727138590E+02  0.38727138590E+02  0.00000000000E+00 0.  1.
          3   -1    0    0  501    0  0.00000000000E+00 -0.00000000000E+00 -0.75630036094E+03  0.75630036094E+03  0.00000000000E+00 0. -1.
         25    2    1    2    0    0  0.11634281493E+03  0.46457093094E+02 -0.46404202440E+03  0.49666602578E+03  0.12509288017E+03 0.  0.
         23    2    1    2    0    0 -0.11634281493E+03 -0.46457093094E+02 -0.25353119795E+03  0.29836147375E+03  0.95118813067E+02 0.  0.
          5    1    3    3  502    0  0.13571365518E+03  0.56238854874E+02 -0.44053347912E+03  0.46440092983E+03  0.41800000000E+01 0.  1.
         -5    1    3    3    0  502 -0.19370840248E+02 -0.97817617794E+01 -0.23508545273E+02  0.32265095944E+02  0.41800000000E+01 0.  1.
        -11    1    4    4    0    0 -0.91550860803E+02 -0.27428784613E+02 -0.88029846403E+02  0.12993518460E+03  0.00000000000E+00 0.  1.
         11    1    4    4    0    0 -0.24791954131E+02 -0.19028308481E+02 -0.16550135155E+03  0.16842628915E+03  0.00000000000E+00 0. -1.
</event>
<event>
 8    1  0.6862919E-009  0.1517979E+03  0.7561462E-02  0.1198281E+00
          2   -1    0    0  501    0  0.00000000000E+00  0.00000000000E+00  0.25474509960E+04  0.25474509960E+04  0.00000000000E+00 0. -1.
         -2   -1    0    0    0  501 -0.00000000000E+00 -0.00000000000E+00 -0.14202553103E+02  0.14202553103E+02  0.00000000000E+00 0.  1.
         25    2    1    2    0    0 -0.11320403170E+03  0.26244093856E+02  0.20304552810E+04  0.20376211144E+04  0.12508897863E+03 0.  0.
         23    2    1    2    0    0  0.11320403170E+03 -0.26244093856E+02  0.50279316189E+03  0.52403243466E+03  0.91132451328E+02 0.  0.
          5    1    3    3  502    0 -0.95163221204E+02  0.64426790941E+02  0.17699620388E+04  0.17736938691E+04  0.41800000000E+01 0.  1.
         -5    1    3    3    0  502 -0.18040810491E+02 -0.38182697086E+02  0.26049324221E+03  0.26392724535E+03  0.41800000000E+01 0.  1.
        -11    1    4    4    0    0  0.56967686125E+02 -0.58233177566E+02  0.24243284507E+03  0.25575399234E+03  0.00000000000E+00 0. -1.
         11    1    4    4    0    0  0.56236345570E+02  0.31989083710E+02  0.26036031682E+03  0.26827844232E+03  0.00000000000E+00 0.  1.
</event>
<event>
 8    1  0.6862919E-009  0.8458490E+02  0.7561462E-02  0.1316522E+00
         -1   -1    0    0    0  501 -0.00000000000E+00  0.00000000000E+00  0.14995418324E+02  0.14995418324E+02  0.00000000000E+00 0.  1.
          1   -1    0    0  501    0  0.00000000000E+00 -0.00000000000E+00 -0.92252387056E+03  0.92252387056E+03  0.00000000000E+00 0. -1.
         25    2    1    2    0    0 -0.30402277656E+01 -0.11998103360E+02 -0.70002927053E+03  0.71122561170E+03  0.12509074179E+03 0.  0.
         23    2    1    2    0    0  0.30402277656E+01  0.11998103360E+02 -0.20749918171E+03  0.22629367718E+03  0.89441156364E+02 0.  0.
          5    1    3    3  502    0 -0.40815394534E+02 -0.18599127996E+02 -0.62716200509E+03  0.62877776442E+03  0.41800000000E+01 0. -1.
         -5    1    3    3    0  502  0.37775166769E+02  0.66010246369E+01 -0.72867265432E+02  0.82447847286E+02  0.41800000000E+01 0. -1.
        -11    1    4    4    0    0 -0.24514018525E+02 -0.27848975240E+02 -0.12731301008E+03  0.13260884232E+03  0.00000000000E+00 0.  1.
         11    1    4    4    0    0  0.27554246291E+02  0.39847078600E+02 -0.80186171630E+02  0.93684834857E+02  0.00000000000E+00 0. -1.
</event>
<event>
 8    1  0.6862919E-009  0.9664661E+02  0.7561462E-02  0.1287510E+00
         -2   -1    0    0    0  501 -0.00000000000E+00  0.00000000000E+00  0.29080126813E+02  0.29080126813E+02  0.00000000000E+00 0.  1.
          2   -1    0    0  501    0  0.00000000000E+00 -0.00000000000E+00 -0.58896874434E+03  0.58896874434E+03  0.00000000000E+00 0. -1.
         25    2    1    2    0    0  0.69101678917E+01 -0.45135964965E+02 -0.44476623366E+03  0.46426897803E+03  0.12507468009E+03 0.  0.
         23    2    1    2    0    0 -0.69101678917E+01  0.45135964965E+02 -0.11512238387E+03  0.15377989313E+03  0.91159675896E+02 0.  0.
          5    1    3    3  502    0  0.56975325847E+02 -0.37774867020E+02 -0.35117675289E+03  0.35779283462E+03  0.41800000000E+01 0.  1.
         -5    1    3    3    0  502 -0.50065157956E+02 -0.73610979455E+01 -0.93589480770E+02  0.10647614341E+03  0.41800000000E+01 0.  1.
        -11    1    4    4    0    0 -0.21018708235E+02  0.53602065916E+02 -0.26039738198E+02  0.63190470261E+02  0.00000000000E+00 0.  1.
         11    1    4    4    0    0  0.14108540343E+02 -0.84661009513E+01 -0.89082645669E+02  0.90589422867E+02  0.00000000000E+00 0. -1.
</event>
<event>
 8    1  0.6862919E-009  0.1183058E+03  0.7561462E-02  0.1245918E+00
         -1   -1    0    0    0  501 -0.00000000000E+00  0.00000000000E+00  0.19745327137E+03  0.19745327137E+03  0.00000000000E+00 0.  1.
          1   -1    0    0  501    0  0.00000000000E+00 -0.00000000000E+00 -0.14604818053E+03  0.14604818053E+03  0.00000000000E+00 0. -1.
         25    2    1    2    0    0 -0.61034657088E+02 -0.86467208434E+02 -0.50380563231E+02  0.17142775954E+03  0.12508984007E+03 0.  0.
         23    2    1    2    0    0  0.61034657088E+02  0.86467208434E+02  0.10178565407E+03  0.17207369237E+03  0.89706347210E+02 0.  0.
          5    1    3    3  502    0 -0.57102707085E+00 -0.60548374758E+02  0.29811187582E+02  0.67621084455E+02  0.41800000000E+01 0.  1.
         -5    1    3    3    0  502 -0.60463630017E+02 -0.25918833676E+02 -0.80191750813E+02  0.10380667509E+03  0.41800000000E+01 0.  1.
        -11    1    4    4    0    0  0.18187460551E+02  0.51747406878E+02 -0.16274510814E+01  0.54874642932E+02  0.00000000000E+00 0. -1.
         11    1    4    4    0    0  0.42847196537E+02  0.34719801556E+02  0.10341310515E+03  0.11719904943E+03  0.00000000000E+00 0.  1.
</event>
<event>
 8    1  0.6862919E-009  0.1499152E+03  0.7561462E-02  0.1200577E+00
          1   -1    0    0  501    0  0.00000000000E+00  0.00000000000E+00  0.49384926281E+02  0.49384926281E+02  0.00000000000E+00 0. -1.
         -1   -1    0    0    0  501 -0.00000000000E+00 -0.00000000000E+00 -0.61959038961E+03  0.61959038961E+03  0.00000000000E+00 0.  1.
         25    2    1    2    0    0 -0.96032707656E+02 -0.77623209679E+02 -0.39557209875E+03  0.43286716567E+03  0.12509617974E+03 0.  0.
         23    2    1    2    0    0  0.96032707656E+02  0.77623209679E+02 -0.17463336459E+03  0.23610815023E+03  0.10001301394E+03 0.  0.
          5    1    3    3  502    0 -0.12286970858E+03 -0.79485491142E+02 -0.30542167482E+03  0.33869570478E+03  0.41800000000E+01 0.  1.
         -5    1    3    3    0  502  0.26837000924E+02  0.18622814631E+01 -0.90150423927E+02  0.94171460885E+02  0.41800000000E+01 0.  1.
        -11    1    4    4    0    0  0.34358327091E+02  0.44441380323E+02 -0.15272374773E+03  0.16272699237E+03  0.00000000000E+00 0.  1.
         11    1    4    4    0    0  0.61674380566E+02  0.33181829356E+02 -0.21909616855E+02  0.73381157856E+02  0.00000000000E+00 0. -1.
</event>
<event>
 8    1  0.6862919E-009  0.1355525E+03  0.7561462E-02  0.1219442E+00
          2   -1    0    0  501    0  0.00000000000E+00  0.00000000000E+00  0.20652173725E+03  0.20652173725E+03  0.00000000000E+00 0. -1.
         -2   -1    0    0    0  501 -0.00000000000E+00 -0.00000000000E+00 -0.12421949067E+03  0.12421949067E+03  0.00000000000E+00 0.  1.
         25    2    1    2    0    0  0.58720766307E+02 -0.94104271961E+02  0.84602635895E+02  0.18737307233E+03  0.12508924750E+03 0.  0.
         23    2    1    2    0    0 -0.58720766307E+02  0.94104271961E+02 -0.23003893143E+01  0.14336815558E+03  0.90804151039E+02 0.  0.
          5    1    3    3  502    0  0.34458367325E+02 -0.15486768026E+01 -0.24260407002E+02  0.42377083742E+02  0.41800000000E+01 0. -1.
         -5    1    3    3    0  502  0.24262398982E+02 -0.92555595158E+02  0.10886304290E+03  0.14499598859E+03  0.41800000000E+01 0. -1.
        -11    1    4    4    0    0  0.20703000511E+02  0.38233427462E+02 -0.13720567146E+02  0.45592358663E+02  0.00000000000E+00 0.  1.
         11    1    4    4    0    0 -0.79423766819E+02  0.55870844499E+02  0.11420177832E+02  0.97775796915E+02  0.00000000000E+00 0. -1.
</event>
<event>
 8    1  0.6862919E-009  0.1132713E+03  0.7561462E-02  0.1254629E+00
         -1   -1    0    0    0  501 -0.00000000000E+00  0.00000000000E+00  0.84867887470E+02  0.84867887470E+02  0.00000000000E+00 0.  1.
          1   -1    0    0  501    0  0.00000000000E+00 -0.00000000000E+00 -0.19596323815E+03  0.19596323815E+03  0.00000000000E+00 0. -1.
         25    2    1    2    0    0 -0.67434150496E+02  0.48266952726E+01 -0.84174091392E+02  0.16523371732E+03  0.12508493930E+03 0.  0.
         23    2    1    2    0    0  0.67434150496E+02 -0.48266952726E+01 -0.26921259283E+02  0.11559740829E+03  0.89818399907E+02 0.  0.
          5    1    3    3  502    0  0.17348999077E+02 -0.40188131962E+02 -0.13635500423E+02  0.46037734429E+02  0.41800000000E+01 0.  1.
         -5    1    3    3    0  502 -0.84783149573E+02  0.45014827234E+02 -0.70538590969E+02  0.11919598290E+03  0.41800000000E+01 0.  1.
        -11    1    4    4    0    0  0.19719978617E+02  0.23750277691E+02  0.24838005121E+02  0.39621708008E+02  0.00000000000E+00 0.  1.
         11    1    4    4    0    0  0.47714171879E+02 -0.28576972964E+02 -0.51759264405E+02  0.75975700284E+02  0.00000000000E+00 0. -1.
</event>
<event>
 8    1  0.6862919E-009  0.1406032E+03  0.7561462E-02  0.1212520E+00
          2   -1    0    0  501    0  0.00000000000E+00  0.00000000000E+00  0.13042572895E+04  0.13042572895E+04  0.00000000000E+00 0. -1.
         -2   -1    0    0    0  501 -0.00000000000E+00 -0.00000000000E+00 -0.22301068561E+02  0.22301068561E+02  0.00000000000E+00 0.  1.
         25    2    1    2    0    0  0.70680142038E+02 -0.10781198733E+03  0.76600611425E+03  0.78678605552E+03  0.12509125868E+03 0.  0.
         23    2    1    2    0    0 -0.70680142038E+02  0.10781198733E+03  0.51595010669E+03  0.53977230254E+03  0.92360808294E+02 0.  0.
          5    1    3    3  502    0  0.81042428192E+02 -0.73573092782E+02  0.29968070821E+03  0.31907189538E+03  0.41800000000E+01 0. -1.
         -5    1    3    3    0  502 -0.10362286153E+02 -0.34238894551E+02  0.46632540604E+03  0.46771416013E+03  0.41800000000E+01 0. -1.
        -11    1    4    4    0    0 -0.61417995081E+02  0.56307600405E+02  0.43820060327E+03  0.44605210983E+03  0.00000000000E+00 0.  1.
         11    1    4    4    0    0 -0.92621469579E+01  0.51504386928E+02  0.77749503420E+02  0.93720192708E+02  0.00000000000E+00 0. -1.
</event>
<event>
 8    1  0.6862919E-009  0.1016711E+03  0.7561462E-02  0.1276821E+00
          1   -1    0    0  501    0  0.00000000000E+00  0.00000000000E+00  0.53495707238E+02  0.53495707238E+02  0.00000000000E+00 0. -1.
         -1   -1    0    0    0  501 -0.00000000000E+00 -0.00000000000E+00 -0.42584543140E+03  0.42584543140E+03  0.00000000000E+00 0.  1.
         25    2    1    2    0    0 -0.31296618538E+02  0.10766966334E+02 -0.36126680183E+03  0.38373784425E+03  0.12508247321E+03 0.  0.
         23    2    1    2    0    0  0.31296618538E+02 -0.10766966334E+02 -0.11082922325E+02  0.95603294388E+02  0.89004229308E+02 0.  0.
          5    1    3    3  502    0  0.45964970755E+02 -0.12901116590E+02 -0.11768816192E+03  0.12707160659E+03  0.41800000000E+01 0. -1.
         -5    1    3    3    0  502 -0.77261589293E+02  0.23668082924E+02 -0.24357863991E+03  0.25666623765E+03  0.41800000000E+01 0. -1.
        -11    1    4    4    0    0 -0.10039822108E+02 -0.27980732861E+02  0.24410036653E+02  0.38465170334E+02  0.00000000000E+00 0. -1.
         11    1    4    4    0    0  0.41336440646E+02  0.17213766528E+02 -0.35492958979E+02  0.57138124054E+02  0.00000000000E+00 0.  1.
</event>
<event>
 8    1  0.6862919E-009  0.8094890E+02  0.7561462E-02  0.1326380E+00
          1   -1    0    0  501    0  0.00000000000E+00  0.00000000000E+00  0.74910920531E+02  0.74910920531E+02  0.00000000000E+00 0. -1.
         -1   -1    0    0    0  501 -0.00000000000E+00 -0.00000000000E+00 -0.21059684448E+03  0.21059684448E+03  0.00000000000E+00 0.  1.
         25    2    1    2    0    0  0.49349828054E+02 -0.82022490761E+01 -0.11416935663E+03  0.17659150557E+03  0.12508891008E+03 0.  0.
         23    2    1    2    0    0 -0.49349828054E+02  0.82022490761E+01 -0.21516567310E+02  0.10891625944E+03  0.94324474461E+02 0.  0.
          5    1    3    3  502    0  0.42889710033E+02  0.18346163134E+01  0.15854850298E+02  0.45953691057E+02  0.41800000000E+01 0.  1.
         -5    1    3    3    0  502  0.64601180210E+01 -0.10036865389E+02 -0.13002420693E+03  0.13063781451E+03  0.41800000000E+01 0.  1.
        -11    1    4    4    0    0 -0.30660248006E+02  0.50950146320E+02 -0.18001580306E+02  0.62129100358E+02  0.00000000000E+00 0.  1.
         11    1    4    4    0    0 -0.18689580049E+02 -0.42747897244E+02 -0.35149870042E+01  0.46787159080E+02  0.00000000000E+00 0. -1.
</event>
<event>
 8    1  0.6862919E-009  0.9562674E+02  0.7561462E-02  0.1289771E+00
         -2   -1    0    0    0  501 -0.00000000000E+00  0.00000000000E+00  0.22818052570E+02  0.22818052570E+02  0.00000000000E+00 0.  1.
          2   -1    0    0  501    0  0.00000000000E+00 -0.00000000000E+00 -0.81195372708E+03  0.81195372708E+03  0.00000000000E+00 0. -1.
         25    2    1    2    0    0  0.35208615867E+02  0.42225320683E+02 -0.62362329056E+03  0.63841718322E+03  0.12509143439E+03 0.  0.
         23    2    1    2    0    0 -0.35208615867E+02 -0.42225320683E+02 -0.16551238395E+03  0.19635459643E+03  0.90211717431E+02 0.  0.
          5    1    3    3  502    0 -0.24947319012E+02 -0.87381370448E+01 -0.40658140591E+03  0.40746120772E+03  0.41800000000E+01 0. -1.
         -5    1    3    3    0  502  0.60155934879E+02  0.50963457728E+02 -0.21704188466E+03  0.23095597550E+03  0.41800000000E+01 0. -1.
        -11    1    4    4    0    0 -0.45690827131E+02 -0.39576670354E+01 -0.29161395960E+02  0.54347969848E+02  0.00000000000E+00 0.  1.
         11    1    4    4    0    0  0.10482211264E+02 -0.38267653648E+02 -0.13635098799E+03  0.14200662658E+03  0.00000000000E+00 0. -1.
</event>
<event>
 8    1  0.6862919E-009  0.1805829E+03  0.7561462E-02  0.1167240E+00
          1   -1    0    0  501    0  0.00000000000E+00  0.00000000000E+00  0.42887001717E+03  0.42887001717E+03  0.00000000000E+00 0. -1.
         -1   -1    0    0    0  501 -0.00000000000E+00 -0.00000000000E+00 -0.11286505886E+03  0.11286505886E+03  0.00000000000E+00 0.  1.
         25    2    1    2    0    0 -0.55319768851E+02  0.14191298889E+03  0.21303953807E+02  0.19824363685E+03  0.12508840020E+03 0.  0.
         23    2    1    2    0    0  0.55319768851E+02 -0.14191298889E+03  0.29470100451E+03  0.34349143918E+03  0.89096091337E+02 0.  0.
          5    1    3    3  502    0 -0.81206482313E+02  0.66755415123E+02  0.46110867077E+02  0.11486715231E+03  0.41800000000E+01 0.  1.
         -5    1    3    3    0  502  0.25886713462E+02  0.75157573763E+02 -0.24806913270E+02  0.83376484538E+02  0.41800000000E+01 0.  1.
        -11    1    4    4    0    0  0.26251758559E+02  0.48925892835E+01  0.40606842723E+02  0.48600493138E+02  0.00000000000E+00 0. -1.
         11    1    4    4    0    0  0.29068010291E+02 -0.14680557817E+03  0.25409416179E+03  0.29489094604E+03  0.00000000000E+00 0.  1.
</event>
<event>
 8    1  0.6862919E-009  0.1127743E+03  0.7561462E-02  0.1255517E+00
         -2   -1    0    0    0  501 -0.00000000000E+00  0.00000000000E+00  0.85294847539E+03  0.85294847539E+03  0.00000000000E+00 0. -1.
          2   -1    0    0  501    0  0.00000000000E+00 -0.00000000000E+00 -0.17642498136E+02  0.17642498136E+02  0.00000000000E+00 0.  1.
         25    2    1    2    0    0 -0.94922252919E+01  0.34968477144E+02  0.61177442159E+03  0.62548280077E+03  0.12509154414E+03 0.  0.
         23    2    1    2    0    0  0.94922252919E+01 -0.34968477144E+02  0.22353155566E+03  0.24510817275E+03  0.93801722999E+02 0.  0.
          5    1    3    3  502    0  0.31048831370E+02 -0.33626710462E+02  0.30773771967E+03  0.31115070640E+03  0.41800000000E+01 0. -1.
         -5    1    3    3    0  502 -0.40541056662E+02  0.68595187606E+02  0.30403670192E+03  0.31433209437E+03  0.41800000000E+01 0. -1.
        -11    1    4    4    0    0  0.34310908089E+01  0.32188030617E+02  0.87158683232E+02  0.92975683713E+02  0.00000000000E+00 0. -1.
         11    1    4    4    0    0  0.60611344830E+01 -0.67156507761E+02  0.13637287243E+03  0.15213248904E+03  0.00000000000E+00 0.  1.
</event>
<event>
 8    1  0.6862919E-009  0.1015841E+03  0.7561462E-02  0.1277000E+00
          1   -1    0    0  501    0  0.00000000000E+00  0.00000000000E+00  0.26644250711E+03  0.26644250711E+03  0.00000000000E+00 0. -1.
         -1   -1    0    0    0  501 -0.00000000000E+00 -0.00000000000E+00 -0.87173015730E+02  0.87173015730E+02  0.00000000000E+00 0.  1.
         25    2    1    2    0    0 -0.58871917429E+02 -0.13645290910E+02  0.19964473660E+03  0.24322265803E+03  0.12508854425E+03 0.  0.
         23    2    1    2    0    0  0.58871917429E+02  0.13645290910E+02 -0.20375245227E+02  0.11039286480E+03  0.90107365713E+02 0.  0.
          5    1    3    3  502    0  0.98393762069E+01 -0.23824399737E+02 -0.54227700477E+01  0.26670099024E+02  0.41800000000E+01 0.  1.
         -5    1    3    3    0  502 -0.68711293636E+02  0.10179108827E+02  0.20506750665E+03  0.21655255901E+03  0.41800000000E+01 0.  1.
        -11    1    4    4    0    0  0.66742100721E+02  0.41453620391E+02 -0.80684376193E+01  0.78981075821E+02  0.00000000000E+00 0. -1.
         11    1    4    4    0    0 -0.78701832920E+01 -0.27808329481E+02 -0.12306807607E+02  0.31411788983E+02  0.00000000000E+00 0.  1.
</event>
<event>
 8    1  0.6862919E-009  0.1818461E+03  0.7561462E-02  0.1166028E+00
          2   -1    0    0  501    0  0.00000000000E+00  0.00000000000E+00  0.31620396401E+03  0.31620396401E+03  0.00000000000E+00 0. -1.
         -2   -1    0    0    0  501 -0.00000000000E+00 -0.00000000000E+00 -0.17038545833E+03  0.17038545833E+03  0.00000000000E+00 0.  1.
         25    2    1    2    0    0  0.56172904140E+02  0.16332985523E+03 -0.39800008822E+02  0.21694158999E+03  0.12509027140E+03 0.  0.
         23    2    1    2    0    0 -0.56172904140E+02 -0.16332985523E+03  0.18561851450E+03  0.26964783234E+03  0.91780628640E+02 0.  0.
          5    1    3    3  502    0  0.51022166732E+02  0.63106625872E+02 -0.74929244230E+02  0.11053312521E+03  0.41800000000E+01 0.  1.
         -5    1    3    3    0  502  0.51507374074E+01  0.10022322935E+03  0.35129235408E+02  0.10640846479E+03  0.41800000000E+01 0.  1.
        -11    1    4    4    0    0 -0.12049433528E+02 -0.11841921816E+03  0.70241025855E+02  0.13821035341E+03  0.00000000000E+00 0.  1.
         11    1    4    4    0    0 -0.44123470612E+02 -0.44910637066E+02  0.11537748865E+03  0.13143747893E+03  0.00000000000E+00 0. -1.
</event>
<event>
 8    1  0.6862919E-009  0.6209261E+02  0.7561462E-02  0.1389254E+00
         -2   -1    0    0    0  501 -0.00000000000E+00  0.00000000000E+00  0.21439384100E+03  0.21439384100E+03  0.00000000000E+00 0. -1.
          2   -1    0    0  501    0  0.00000000000E+00 -0.00000000000E+00 -0.68361791535E+02  0.68361791535E+02  0.00000000000E+00 0.  1.
         25    2    1    2    0    0 -0.32549399162E+02 -0.26178202264E+02  0.86482993825E+02  0.15770985714E+03  0.12509328183E+03 0.  0.
         23    2    1    2    0    0  0.32549399162E+02  0.26178202264E+02  0.59549055644E+02  0.12504577540E+03  0.10171329440E+03 0.  0.
          5    1    3    3  502    0 -0.36470626810E+02 -0.32327556547E+02 -0.18570003578E+02  0.52321075726E+02  0.41800000000E+01 0.  1.
         -5    1    3    3    0  502  0.39212276483E+01  0.61493542826E+01  0.10505299740E+03  0.10538878141E+03  0.41800000000E+01 0.  1.
        -11    1    4    4    0    0 -0.14488634568E+02  0.61101572517E+01 -0.23046569256E+02  0.27899801214E+02  0.00000000000E+00 0.  1.
         11    1    4    4    0    0  0.47038033730E+02  0.20068045012E+02  0.82595624900E+02  0.97145974186E+02  0.00000000000E+00 0. -1.
</event>
<event>
 8    1  0.6862919E-009  0.1144419E+03  0.7561462E-02  0.1252559E+00
         -2   -1    0    0    0  501 -0.00000000000E+00  0.00000000000E+00  0.43746658252E+02  0.43746658252E+02  0.00000000000E+00 0. -1.
          2   -1    0    0  501    0  0.00000000000E+00 -0.00000000000E+00 -0.46779720997E+03  0.46779720997E+03  0.00000000000E+00 0.  1.
         25    2    1    2    0    0  0.79792464680E+02  0.36888812886E+02 -0.17649794827E+03  0.23350788073E+03  0.12508710038E+03 0.  0.
         23    2    1    2    0    0 -0.79792464680E+02 -0.36888812886E+02 -0.24755260344E+03  0.27803598749E+03  0.91071932744E+02 0.  0.
          5    1    3    3  502    0  0.86061451800E+02 -0.13659805795E+02 -0.58833657297E+02  0.10522373977E+03  0.41800000000E+01 0.  1.
         -5    1    3    3    0  502 -0.62689871199E+01  0.50548618680E+02 -0.11766429098E+03  0.12828414096E+03  0.41800000000E+01 0.  1.
        -11    1    4    4    0    0 -0.60995585257E+02 -0.37730336377E+02 -0.24903956251E+03  0.25916161637E+03  0.00000000000E+00 0.  1.
         11    1    4    4    0    0 -0.18796879423E+02  0.84152349163E+00  0.14869590719E+01  0.18874371119E+02  0.00000000000E+00 0. -1.
</event>
<event>
 8    1  0.6862919E-009  0.1230857E+03  0.7561462E-02  0.1238092E+00
          2   -1    0    0  501    0  0.00000000000E+00  0.00000000000E+00  0.71123714028E+02  0.71123714028E+02  0.00000000000E+00 0. -1.
         -2   -1    0    0    0  501 -0.00000000000E+00 -0.00000000000E+00 -0.37320725645E+03  0.37320725645E+03  0.00000000000E+00 0.  1.
         25    2    1    2    0    0  0.90216287991E+02  0.14123711948E+02 -0.52242869118E+02  0.16344449653E+03  0.12508528376E+03 0.  0.
         23    2    1    2    0    0 -0.90216287991E+02 -0.14123711948E+02 -0.24984067330E+03  0.28088647395E+03  0.90213033165E+02 0.  0.
          5    1    3    3  502    0  0.97217469775E+02 -0.22824513536E+02 -0.69622066235E+02  0.12180681161E+03  0.41800000000E+01 0. -1.
         -5    1    3    3    0  502 -0.70011817840E+01  0.36948225485E+02  0.17379197117E+02  0.41637684917E+02  0.41800000000E+01 0. -1.
        -11    1    4    4    0    0 -0.57679345871E+02 -0.37076121962E+02 -0.75213675959E+02  0.10177741798E+03  0.00000000000E+00 0. -1.
         11    1    4    4    0    0 -0.32536942120E+02  0.22952410014E+02 -0.17462699734E+03  0.17910905597E+03  0.00000000000E+00 0.  1.
</event>
<event>
 8    1  0.6862919E-009  0.1264889E+03  0.7561462E-02  0.1232761E+00
         -2   -1    0    0    0  501 -0.00000000000E+00  0.00000000000E+00  0.19682881387E+02  0.19682881387E+02  0.00000000000E+00 0.  1.
          2   -1    0    0  501    0  0.00000000000E+00 -0.00000000000E+00 -0.10549381742E+04  0.10549381742E+04  0.00000000000E+00 0. -1.
         25    2    1    2    0    0 -0.12864440246E+02 -0.82788935303E+02 -0.43069197454E+03  0.45624857104E+03  0.12509068716E+03 0.  0.
         23    2    1    2    0    0  0.12864440246E+02  0.82788935303E+02 -0.60456331827E+03  0.61837248454E+03  0.99338925950E+02 0.  0.
          5    1    3    3  502    0 -0.49464992927E+02 -0.25540098085E+02 -0.71760818320E+02  0.90918477667E+02  0.41800000000E+01 0. -1.
         -5    1    3    3    0  502  0.36600552681E+02 -0.57248837219E+02 -0.35893115622E+03  0.36533009337E+03  0.41800000000E+01 0. -1.
        -11    1    4    4    0    0 -0.27158886372E+02 -0.92653625526E+01 -0.16660180624E+03  0.16905506173E+03  0.00000000000E+00 0. -1.
         11    1    4    4    0    0  0.40023326618E+02  0.92054297856E+02 -0.43796151203E+03  0.44931742281E+03  0.00000000000E+00 0.  1.
</event>
<event>
 8    1  0.6862919E-009  0.1240840E+03  0.7561462E-02  0.1236508E+00
          1   -1    0    0  501    0  0.00000000000E+00  0.00000000000E+00  0.38103320350E+03  0.38103320350E+03  0.00000000000E+00 0. -1.
         -1   -1    0    0    0  501 -0.00000000000E+00 -0.00000000000E+00 -0.51587669603E+02  0.51587669603E+02  0.00000000000E+00 0.  1.
         25    2    1    2    0    0 -0.12247850084E+02  0.81900013872E+02  0.16249009050E+03  0.22115270016E+03  0.12509142725E+03 0.  0.
         23    2    1    2    0    0  0.12247850084E+02 -0.81900013872E+02  0.16695544340E+03  0.21146817295E+03  0.99935208935E+02 0.  0.
          5    1    3    3  502    0  0.15665226649E+02 -0.16779675222E+02  0.96154624837E+02  0.98945141892E+02  0.41800000000E+01 0. -1.
         -5    1    3    3    0  502 -0.27913076733E+02  0.98679689095E+02  0.66335465664E+02  0.12220755827E+03  0.41800000000E+01 0. -1.
        -11    1    4    4    0    0  0.22574635731E+02  0.13458589538E+02  0.71372141341E+02  0.76057414960E+02  0.00000000000E+00 0.  1.
         11    1    4    4    0    0 -0.10326785647E+02 -0.95358603411E+02  0.95583302056E+02  0.13541075799E+03  0.00000000000E+00 0. -1.
</event>
<event>
 8    1  0.6862919E-009  0.1073077E+03  0.7561462E-02  0.1265638E+00
         -1   -1    0    0    0  501 -0.00000000000E+00  0.00000000000E+00  0.29915953606E+03  0.29915953606E+03  0.00000000000E+00 0.  1.
          1   -1    0    0  501    0  0.00000000000E+00 -0.00000000000E+00 -0.50758078413E+02  0.50758078413E+02  0.00000000000E+00 0. -1.
         25    2    1    2    0    0 -0.30706205191E+02 -0.68117595303E+01  0.20977849014E+03  0.24625930767E+03  0.12508941035E+03 0.  0.
         23    2    1    2    0    0  0.30706205191E+02  0.68117595303E+01  0.38622967504E+02  0.10365830681E+03  0.90906764577E+02 0.  0.
          5    1    3    3  502    0 -0.43180837171E+02  0.49094546572E+02  0.74008615940E+02  0.98841321497E+02  0.41800000000E+01 0.  1.
         -5    1    3    3    0  502  0.12474631980E+02 -0.55906306103E+02  0.13576987420E+03  0.14741798617E+03  0.41800000000E+01 0.  1.
        -11    1    4    4    0    0  0.25469491271E+02  0.45758291830E+02  0.37380927997E+02  0.64341666397E+02  0.00000000000E+00 0.  1.
         11    1    4    4    0    0  0.52367139201E+01 -0.38946532300E+02  0.12420395065E+01  0.39316640408E+02  0.00000000000E+00 0. -1.
</event>
<event>
 8    1  0.6862919E-009  0.1061983E+03  0.7561462E-02  0.1267777E+00
          2   -1    0    0  501    0  0.00000000000E+00  0.00000000000E+00  0.78644482335E+03  0.78644482335E+03  0.00000000000E+00 0.  1.
         -2   -1    0    0    0  501 -0.00000000000E+00 -0.00000000000E+00 -0.21468769384E+02  0.21468769384E+02  0.00000000000E+00 0. -1.
         25    2    1    2    0    0  0.20233839006E+02  0.79020945912E+02  0.39918687367E+03  0.42620532585E+03  0.12508837491E+03 0.  0.
         23    2    1    2    0    0 -0.20233839006E+02 -0.79020945912E+02  0.36578918030E+03  0.38170826689E+03  0.72427608363E+02 0.  0.
          5    1    3    3  502    0 -0.16009955731E+02 -0.11110906823E+02  0.54826645050E+01  0.20671307240E+02  0.41800000000E+01 0.  1.
         -5    1    3    3    0  502  0.36243794737E+02  0.90131852734E+02  0.39370420916E+03  0.40553401861E+03  0.41800000000E+01 0.  1.
        -11    1    4    4    0    0 -0.94949299172E+01  0.48582971050E+01  0.62581491205E+01  0.12366130167E+02  0.00000000000E+00 0. -1.
         11    1    4    4    0    0 -0.10738909089E+02 -0.83879243017E+02  0.35953103118E+03  0.36934213672E+03  0.00000000000E+00 0.  1.
</event>
<event>
 8    1  0.6862919E-009  0.1693135E+03  0.7561462E-02  0.1178566E+00
         -2   -1    0    0    0  501 -0.00000000000E+00  0.00000000000E+00  0.11172494945E+03  0.11172494945E+03  0.00000000000E+00 0.  1.
          2   -1    0    0  501    0  0.00000000000E+00 -0.00000000000E+00 -0.29657047271E+03  0.29657047271E+03  0.00000000000E+00 0. -1.
         25    2    1    2    0    0 -0.11091509857E+03 -0.95769603147E+02 -0.10994860502E+03  0.22183477318E+03  0.12509194566E+03 0.  0.
         23    2    1    2    0    0  0.11091509857E+03  0.95769603147E+02 -0.74896918237E+02  0.18646064898E+03  0.87658709091E+02 0.  0.
          5    1    3    3  502    0  0.13467572532E+02 -0.60589597549E+02 -0.47189607941E+02  0.78082048760E+02  0.41800000000E+01 0. -1.
         -5    1    3    3    0  502 -0.12438267110E+03 -0.35180005598E+02 -0.62758997075E+02  0.14375272442E+03  0.41800000000E+01 0. -1.
        -11    1    4    4    0    0  0.94615461726E+02  0.87216416572E+02 -0.22123285856E+02  0.13056886572E+03  0.00000000000E+00 0.  1.
         11    1    4    4    0    0  0.16299636841E+02  0.85531865752E+01 -0.52773632381E+02  0.55891783264E+02  0.00000000000E+00 0. -1.
</event>
<event>
 7    1  0.6862919E-009  0.8906023E+02  0.7561462E-02  0.1305144E+00
          1   -1    0    0  501    0  0.00000000000E+00  0.00000000000E+00  0.10901588583E+03  0.10901588583E+03  0.00000000000E+00 0. -1.
         -1   -1    0    0    0  501 -0.00000000000E+00 -0.00000000000E+00 -0.11738993476E+03  0.11738993476E+03  0.00000000000E+00 0.  1.
         25    2    1    2    0    0  0.60065274081E+02 -0.23167517140E+02  0.22164939275E+02  0.14240195709E+03  0.12506982789E+03 0.  0.
          5    1    3    3  502    0 -0.48941668833E+01  0.21989897876E+02  0.52725071890E+02  0.57488382164E+02  0.41800000000E+01 0. -1.
         -5    1    3    3    0  502  0.64959440964E+02 -0.45157415017E+02 -0.30560132615E+02  0.84913574927E+02  0.41800000000E+01 0. -1.
        -11    1    1    2    0    0 -0.39678761410E+02 -0.62758404034E+01 -0.26126839640E+02  0.47920789114E+02  0.00000000000E+00 0.  1.
         11    1    1    2    0    0 -0.20386512671E+02  0.29443357544E+02 -0.44121485696E+01  0.36083074389E+02  0.00000000000E+00 0. -1.
</event>
<event>
 8    1  0.6862919E-009  0.2252691E+03  0.7561462E-02  0.1130015E+00
         -1   -1    0    0    0  501 -0.00000000000E+00  0.00000000000E+00  0.12179517784E+03  0.12179517784E+03  0.00000000000E+00 0.  1.
          1   -1    0    0  501    0  0.00000000000E+00 -0.00000000000E+00 -0.46844516874E+03  0.46844516874E+03  0.00000000000E+00 0. -1.
         25    2    1    2    0    0 -0.61599181264E+02 -0.20358472859E+03 -0.16120450478E+03  0.29474718883E+03  0.12509121517E+03 0.  0.
         23    2    1    2    0    0  0.61599181264E+02  0.20358472859E+03 -0.18544548612E+03  0.29549315776E+03  0.87664001254E+02 0.  0.
          5    1    3    3  502    0 -0.24017236777E+02 -0.16417576248E+03 -0.54184766837E+02  0.17459659219E+03  0.41800000000E+01 0.  1.
         -5    1    3    3    0  502 -0.37581944488E+02 -0.39408966107E+02 -0.10701973794E+03  0.12015059663E+03  0.41800000000E+01 0.  1.
        -11    1    4    4    0    0  0.54890449221E+02  0.44345103636E+02 -0.61173054871E+02  0.93389465543E+02  0.00000000000E+00 0. -1.
         11    1    4    4    0    0  0.67087320436E+01  0.15923962495E+03 -0.12427243125E+03  0.20210369222E+03  0.00000000000E+00 0.  1.
</event>
<event>
 8    1  0.6862919E-009  0.7854713E+02  0.7561462E-02  0.1333226E+00
         -1   -1    0    0    0  501 -0.00000000000E+00  0.00000000000E+00  0.38546039052E+02  0.38546039052E+02  0.00000000000E+00 0.  1.
          1   -1    0    0  501    0  0.00000000000E+00 -0.00000000000E+00 -0.37266580771E+03  0.37266580771E+03  0.00000000000E+00 0. -1.
         25    2    1    2    0    0  0.40951931594E+02 -0.40943498104E+02 -0.24353599921E+03  0.27984219649E+03  0.12509373000E+03 0.  0.
         23    2    1    2    0    0 -0.40951931594E+02  0.40943498104E+02 -0.90583769444E+02  0.13136965027E+03  0.75492615453E+02 0.  0.
          5    1    3    3  502    0  0.30709641774E+02 -0.49342595050E+02 -0.25516106618E+03  0.26172966182E+03  0.41800000000E+01 0. -1.
         -5    1    3    3    0  502  0.10242289819E+02  0.83990969461E+01  0.11625066963E+02  0.18112534669E+02  0.41800000000E+01 0. -1.
        -11    1    4    4    0    0 -0.15493687626E+02 -0.16176471499E+02 -0.13973527889E+01  0.22442931654E+02  0.00000000000E+00 0.  1.
         11    1    4    4    0    0 -0.25458243967E+02  0.57119969602E+02 -0.89186416655E+02  0.10892671862E+03  0.00000000000E+00 0. -1.
</event>
<event>
 8    1  0.6862919E-009  0.9529924E+02  0.7561462E-02  0.1290504E+00
          1   -1    0    0  501    0  0.00000000000E+00  0.00000000000E+00  0.12250857148E+03  0.12250857148E+03  0.00000000000E+00 0. -1.
         -1   -1    0    0    0  501 -0.00000000000E+00 -0.00000000000E+00 -0.13147988986E+03  0.13147988986E+03  0.00000000000E+00 0.  1.
         25    2    1    2    0    0 -0.32166923801E+02  0.50314323129E+02 -0.35525985387E+02  0.14309586123E+03  0.12509231697E+03 0.  0.
         23    2    1    2    0    0  0.32166923801E+02 -0.50314323129E+02  0.26554667002E+02  0.11089260011E+03  0.89586697237E+02 0.  0.
          5    1    3    3  502    0 -0.35489199240E+02 -0.43544397311E+01  0.37325772164E+02  0.51856822846E+02  0.41800000000E+01 0. -1.
         -5    1    3    3    0  502  0.33222754391E+01  0.54668762861E+02 -0.72851757551E+02  0.91239038383E+02  0.41800000000E+01 0. -1.
        -11    1    4    4    0    0 -0.21736068406E+02 -0.38917498670E+02  0.32944072949E+02  0.55428695772E+02  0.00000000000E+00 0. -1.
         11    1    4    4    0    0  0.53902992207E+02 -0.11396824459E+02 -0.63894059469E+01  0.55463904343E+02  0.00000000000E+00 0.  1.
</event>
<event>
 8    1  0.6862919E-009  0.1786527E+03  0.7561462E-02  0.1169113E+00
          1   -1    0    0  501    0  0.00000000000E+00  0.00000000000E+00  0.16220260062E+03  0.16220260062E+03  0.00000000000E+00 0. -1.
         -1   -1    0    0    0  501 -0.00000000000E+00 -0.00000000000E+00 -0.29026760156E+03  0.29026760156E+03  0.00000000000E+00 0.  1.
         25    2    1    2    0    0 -0.14570908690E+03  0.27918557716E+02 -0.18660541721E+03  0.26922207977E+03  0.12509341563E+03 0.  0.
         23    2    1    2    0    0  0.14570908690E+03 -0.27918557716E+02  0.58540416263E+02  0.18324812241E+03  0.90234750284E+02 0.  0.
          5    1    3    3  502    0 -0.12799435625E+03 -0.27872161450E+02 -0.10113861937E+03  0.16554729036E+03  0.41800000000E+01 0.  1.
         -5    1    3    3    0  502 -0.17714730649E+02  0.55790719166E+02 -0.85466797838E+02  0.10367478941E+03  0.41800000000E+01 0.  1.
        -11    1    4    4    0    0  0.72058385569E+02 -0.53332483704E+02  0.71897993108E+01  0.89935854713E+02  0.00000000000E+00 0.  1.
         11    1    4    4    0    0  0.73650701333E+02  0.25413925988E+02  0.51350616952E+02  0.93312267694E+02  0.00000000000E+00 0. -1.
</event>
<event>
 8    1  0.6862919E-009  0.2814367E+03  0.7561462E-02  0.1094907E+00
         -2   -1    0    0    0  501 -0.00000000000E+00  0.00000000000E+00  0.66376490868E+03  0.66376490868E+03  0.00000000000E+00 0.  1.
          2   -1    0    0  501    0  0.00000000000E+00 -0.00000000000E+00 -0.12654786481E+03  0.12654786481E+03  0.00000000000E+00 0. -1.
         25    2    1    2    0    0  0.24961324725E+03 -0.83033557477E+02  0.20108158769E+03  0.35395281486E+03  0.12508974924E+03 0.  0.
         23    2    1    2    0    0 -0.24961324725E+03  0.83033557477E+02  0.33613545618E+03  0.43635995863E+03  0.90673169781E+02 0.  0.
          5    1    3    3  502    0  0.83306876718E+02 -0.84126287797E+02  0.47822979013E+02  0.12775671305E+03  0.41800000000E+01 0. -1.
         -5    1    3    3    0  502  0.16630637054E+03  0.10927303202E+01  0.15325860867E+03  0.22619610181E+03  0.41800000000E+01 0. -1.
        -11    1    4    4    0    0 -0.81502946757E+02  0.73357298384E+02  0.14084566970E+03  0.17849797262E+03  0.00000000000E+00 0. -1.
         11    1    4    4    0    0 -0.16811030050E+03  0.96762590933E+01  0.19528978648E+03  0.25786198601E+03  0.00000000000E+00 0.  1.
</event>
<event>
 8    1  0.6862919E-009  0.1175829E+03  0.7561462E-02  0.1247139E+00
          1   -1    0    0  501    0  0.00000000000E+00  0.00000000000E+00  0.37156391208E+03  0.37156391208E+03  0.00000000000E+00 0. -1.
         -1   -1    0    0    0  501 -0.00000000000E+00 -0.00000000000E+00 -0.54636585775E+02  0.54636585775E+02  0.00000000000E+00 0.  1.
         25    2    1    2    0    0  0.79855419305E+02 -0.43657908761E+01  0.10164221311E+03  0.17992420699E+03  0.12508250339E+03 0.  0.
         23    2    1    2    0    0 -0.79855419305E+02  0.43657908761E+01  0.21528511320E+03  0.24627629087E+03  0.88929091725E+02 0.  0.
          5    1    3    3  502    0  0.22398979682E+02  0.52942710088E+02  0.11888610430E+02  0.58851136779E+02  0.41800000000E+01 0.  1.
         -5    1    3    3    0  502  0.57456439623E+02 -0.57308500964E+02  0.89753602681E+02  0.12107307021E+03  0.41800000000E+01 0.  1.
        -11    1    4    4    0    0 -0.15932160581E+02 -0.21965517921E+02  0.14563127192E+03  0.14813772335E+03  0.00000000000E+00 0. -1.
         11    1    4    4    0    0 -0.63923258723E+02  0.26331308797E+02  0.69653841274E+02  0.98138567511E+02  0.00000000000E+00 0.  1.
</event>
<event>
 8    1  0.6862919E-009  0.1645524E+03  0.7561462E-02  0.1183651E+00
         -4   -1    0    0    0  501 -0.00000000000E+00  0.00000000000E+00  0.42755057910E+02  0.42755057910E+02  0.00000000000E+00 0. -1.
          4   -1    0    0  501    0  0.00000000000E+00 -0.00000000000E+00 -0.10810637842E+04  0.10810637842E+04  0.00000000000E+00 0.  1.
         25    2    1    2    0    0 -0.13375122533E+03  0.45822142102E+02 -0.22686458639E+03  0.29513252323E+03  0.12508639704E+03 0.  0.
         23    2    1    2    0    0  0.13375122533E+03 -0.45822142102E+02 -0.81144413986E+03  0.82868631884E+03  0.91051435677E+02 0.  0.
          5    1    3    3  502    0 -0.15844612779E+02  0.45177358383E+02 -0.14168887516E+03  0.14961702848E+03  0.41800000000E+01 0. -1.
         -5    1    3    3    0  502 -0.11790661255E+03  0.64478371957E+00 -0.85175711223E+02  0.14551549475E+03  0.41800000000E+01 0. -1.
        -11    1    4    4    0    0  0.78052504743E+02 -0.67603320799E+02 -0.60520726300E+03  0.61395295721E+03  0.00000000000E+00 0.  1.
         11    1    4    4    0    0  0.55698720589E+02  0.21781178697E+02 -0.20623687686E+03  0.21473336163E+03  0.00000000000E+00 0. -1.
</event>
<event>
 8    1  0.6862919E-009  0.1303250E+03  0.7561462E-02  0.1226974E+00
         -2   -1    0    0    0  501 -0.00000000000E+00  0.00000000000E+00  0.42194966889E+02  0.42194966889E+02  0.00000000000E+00 0.  1.
          2   -1    0    0  501    0  0.00000000000E+00 -0.00000000000E+00 -0.82535632566E+03  0.82535632566E+03  0.00000000000E+00 0. -1.
         25    2    1    2    0    0  0.90951671909E+02  0.58248837333E+02 -0.65950596918E+03  0.67990430003E+03  0.12512633671E+03 0.  0.
         23    2    1    2    0    0 -0.90951671909E+02 -0.58248837333E+02 -0.12365538958E+03  0.18764699252E+03  0.90860358536E+02 0.  0.
          5    1    3    3  502    0  0.53057445180E+02  0.66340529505E+02 -0.18290334200E+03  0.20171084071E+03  0.41800000000E+01 0.  1.
         -5    1    3    3    0  502  0.37894226728E+02 -0.80916921721E+01 -0.47660262718E+03  0.47819345932E+03  0.41800000000E+01 0.  1.
        -11    1    4    4    0    0 -0.19208154111E+02 -0.61877901284E+02 -0.35328774526E+02  0.73796681234E+02  0.00000000000E+00 0.  1.
         11    1    4    4    0    0 -0.71743517798E+02  0.36290639511E+01 -0.88326615059E+02  0.11385031128E+03  0.00000000000E+00 0. -1.
</event>
<event>
 8    1  0.6862919E-009  0.8484697E+02  0.7561462E-02  0.1315833E+00
          1   -1    0    0  501    0  0.00000000000E+00  0.00000000000E+00  0.47671890954E+02  0.47671890954E+02  0.00000000000E+00 0. -1.
         -1   -1    0    0    0  501 -0.00000000000E+00 -0.00000000000E+00 -0.31488521462E+03  0.31488521462E+03  0.00000000000E+00 0.  1.
         25    2    1    2    0    0 -0.52693532605E+01 -0.32127946284E+02 -0.80265305072E+02  0.15215241962E+03  0.12509144088E+03 0.  0.
         23    2    1    2    0    0  0.52693532605E+01  0.32127946284E+02 -0.18694801859E+03  0.21040468595E+03  0.90887838564E+02 0.  0.
          5    1    3    3  502    0  0.10482160053E+02  0.22786416462E+02  0.22855797589E+02  0.34190003481E+02  0.41800000000E+01 0.  1.
         -5    1    3    3    0  502 -0.15751513314E+02 -0.54914362746E+02 -0.10312110266E+03  0.11796241614E+03  0.41800000000E+01 0.  1.
        -11    1    4    4    0    0 -0.97121954462E+01 -0.25581104536E+02 -0.10834947309E+03  0.11175118777E+03  0.00000000000E+00 0.  1.
         11    1    4    4    0    0  0.14981548707E+02  0.57709050820E+02 -0.78598545506E+02  0.98653498184E+02  0.00000000000E+00 0. -1.
</event>
<event>
 8    1  0.6862919E-009  0.7916142E+02  0.7561462E-02  0.1331448E+00
         -2   -1    0    0    0  501 -0.00000000000E+00  0.00000000000E+00  0.74498808079E+02  0.74498808079E+02  0.00000000000E+00 0.  1.
          2   -1    0    0  501    0  0.00000000000E+00 -0.00000000000E+00 -0.20466482161E+03  0.20466482161E+03  0.00000000000E+00 0. -1.
         25    2    1    2    0    0  0.45549609359E+02  0.28377907319E+02 -0.63528002194E+02  0.15021154676E+03  0.12509048397E+03 0.  0.
         23    2    1    2    0    0 -0.45549609359E+02 -0.28377907319E+02 -0.66638011340E+02  0.12895208294E+03  0.96477679292E+02 0.  0.
          5    1    3    3  502    0  0.28882318094E+02 -0.31155491774E+02 -0.75847153042E+02  0.87035142274E+02  0.41800000000E+01 0.  1.
         -5    1    3    3    0  502  0.16667291265E+02  0.59533399092E+02  0.12319150848E+02  0.63176404482E+02  0.41800000000E+01 0.  1.
        -11    1    4    4    0    0 -0.29033550007E+02 -0.17708724775E+02  0.20442552909E+02  0.39679263206E+02  0.00000000000E+00 0.  1.
         11    1    4    4    0    0 -0.16516059352E+02 -0.10669182544E+02 -0.87080564249E+02  0.89272819730E+02  0.00000000000E+00 0. -1.
</event>
<event>
 8    1  0.6862919E-009  0.1428787E+03  0.7561462E-02  0.1209507E+00
         -2   -1    0    0    0  501 -0.00000000000E+00  0.00000000000E+00  0.35504188085E+02  0.35504188085E+02  0.00000000000E+00 0.  1.
          2   -1    0    0  501    0  0.00000000000E+00 -0.00000000000E+00 -0.13093240841E+04  0.13093240841E+04  0.00000000000E+00 0. -1.
         25    2    1    2    0    0 -0.11881195497E+03 -0.46618978434E+02 -0.10809187865E+04  0.10955917667E+04  0.12508511693E+03 0.  0.
         23    2    1    2    0    0  0.11881195497E+03  0.46618978434E+02 -0.19290110957E+03  0.24923650553E+03  0.92835272511E+02 0.  0.
          5    1    3    3  502    0 -0.67095676081E+02 -0.27866366069E+02 -0.95916495913E+03  0.96192164718E+03  0.41800000000E+01 0. -1.
         -5    1    3    3    0  502 -0.51716278888E+02 -0.18752612365E+02 -0.12175382733E+03  0.13367011948E+03  0.41800000000E+01 0. -1.
        -11    1    4    4    0    0  0.12625736777E+03  0.17146086851E+02 -0.15670360563E+03  0.20196764896E+03  0.00000000000E+00 0. -1.
         11    1    4    4    0    0 -0.74454127960E+01  0.29472891583E+02 -0.36197503937E+02  0.47268856568E+02  0.00000000000E+00 0.  1.
</event>
<event>
 8    1  0.6862919E-009  0.8920690E+02  0.7561462E-02  0.1304784E+00
         -1   -1    0    0    0  501 -0.00000000000E+00  0.00000000000E+00  0.58433049376E+02  0.58433049376E+02  0.00000000000E+00 0.  1.
          1   -1    0    0  501    0  0.00000000000E+00 -0.00000000000E+00 -0.26394699973E+03  0.26394699973E+03  0.00000000000E+00 0. -1.
         25    2    1    2    0    0  0.59866357009E+02  0.31973956441E+02 -0.10814093668E+03  0.17873933199E+03  0.12508785721E+03 0.  0.
         23    2    1    2    0    0 -0.59866357009E+02 -0.31973956441E+02 -0.97373013680E+02  0.14364071712E+03  0.80900168289E+02 0.  0.
          5    1    3    3  502    0  0.29356536089E+02  0.13624196284E+01  0.24929687344E+02  0.38763695766E+02  0.41800000000E+01 0. -1.
         -5    1    3    3    0  502  0.30509820920E+02  0.30611536813E+02 -0.13307062402E+03  0.13997563622E+03  0.41800000000E+01 0. -1.
        -11    1    4    4    0    0 -0.56043767183E+02  0.15129890219E+02 -0.58941132660E+02  0.82727713237E+02  0.00000000000E+00 0.  1.
         11    1    4    4    0    0 -0.38225898260E+01 -0.47103846660E+02 -0.38431881019E+02  0.60913003882E+02  0.00000000000E+00 0. -1.
</event>
<event>
 8    1  0.6862919E-009  0.1090495E+03  0.7561462E-02  0.1262340E+00
          1   -1    0    0  501    0  0.00000000000E+00  0.00000000000E+00  0.32966180601E+03  0.32966180601E+03  0.00000000000E+00 0. -1.
         -1   -1    0    0    0  501 -0.00000000000E+00 -0.00000000000E+00 -0.79055223318E+02  0.79055223318E+02  0.00000000000E+00 0.  1.
         25    2    1    2    0    0  0.34242211251E+02 -0.37664816397E+02 -0.19609510357E+01  0.13506487350E+03  0.12508999679E+03 0.  0.
         23    2    1    2    0    0 -0.34242211251E+02  0.37664816397E+02  0.25256753373E+03  0.27365215583E+03  0.92217004250E+02 0.  0.
          5    1    3    3  502    0  0.59488000151E+02  0.25337086968E+02 -0.13246742351E+02  0.66134247716E+02  0.41800000000E+01 0. -1.
         -5    1    3    3    0  502 -0.25245788900E+02 -0.63001903366E+02  0.11285791315E+02  0.68930625780E+02  0.41800000000E+01 0. -1.
        -11    1    4    4    0    0  0.23046454949E+01 -0.18310309059E+02  0.80022362580E+01  0.20115034025E+02  0.00000000000E+00 0.  1.
         11    1    4    4    0    0 -0.36546856746E+02  0.55975125457E+02  0.24456529747E+03  0.25353712181E+03  0.00000000000E+00 0. -1.
</event>
<event>
 8    1  0.6862919E-009  0.1538709E+03  0.7561462E-02  0.1195796E+00
         -1   -1    0    0    0  501 -0.00000000000E+00  0.00000000000E+00  0.31150125465E+02  0.31150125465E+02  0.00000000000E+00 0.  1.
          1   -1    0    0  501    0  0.00000000000E+00 -0.00000000000E+00 -0.80327381838E+03  0.80327381838E+03  0.00000000000E+00 0. -1.
         25    2    1    2    0    0 -0.54763016225E+02  0.10043564790E+03 -0.43332749853E+03  0.46530272267E+03  0.12509034906E+03 0.  0.
         23    2    1    2    0    0  0.54763016225E+02 -0.10043564790E+03 -0.33879619439E+03  0.36912122118E+03  0.91549479938E+02 0.  0.
          5    1    3    3  502    0  0.16702638453E+02 -0.18241522304E+02 -0.12149007324E+03  0.12405257580E+03  0.41800000000E+01 0.  1.
         -5    1    3    3    0  502 -0.71465654678E+02  0.11867717020E+03 -0.31183742529E+03  0.34125014687E+03  0.41800000000E+01 0.  1.
        -11    1    4    4    0    0 -0.21798504787E+02 -0.62373911236E+01 -0.32309533183E+02  0.39471328752E+02  0.00000000000E+00 0.  1.
         11    1    4    4    0    0  0.76561521012E+02 -0.94198256777E+02 -0.30648666121E+03  0.32964989243E+03  0.00000000000E+00 0. -1.
</event>
<event>
 8    1  0.6862919E-009  0.6421892E+02  0.7561462E-02  0.1380934E+00
          2   -1    0    0  501    0  0.00000000000E+00  0.00000000000E+00  0.25790081968E+03  0.25790081968E+03  0.00000000000E+00 0. -1.
         -2   -1    0    0    0  501 -0.00000000000E+00 -0.00000000000E+00 -0.58543391788E+02  0.58543391788E+02  0.00000000000E+00 0.  1.
         25    2    1    2    0    0  0.17784223898E+02 -0.43902609842E+02  0.70112949380E+02  0.15101961631E+03  0.12508949224E+03 0.  0.
         23    2    1    2    0    0 -0.17784223898E+02  0.43902609842E+02  0.12924447851E+03  0.16542459516E+03  0.91746627658E+02 0.  0.
          5    1    3    3  502    0  0.22617723705E+02 -0.50455284069E+02  0.10294849186E+03  0.11693229448E+03  0.41800000000E+01 0.  1.
         -5    1    3    3    0  502 -0.48334998071E+01  0.65526742269E+01 -0.32835542478E+02  0.34087321833E+02  0.41800000000E+01 0.  1.
        -11    1    4    4    0    0 -0.30416263233E+02  0.18867184459E+02  0.13244923495E+03  0.13720028993E+03  0.00000000000E+00 0. -1.
         11    1    4    4    0    0  0.12632039335E+02  0.25035425382E+02 -0.32047564354E+01  0.28224305229E+02  0.00000000000E+00 0.  1.
</event>
<event>
 8    1  0.6862919E-009  0.1030213E+03  0.7561462E-02  0.1274068E+00
         -1   -1    0    0    0  501 -0.00000000000E+00  0.00000000000E+00  0.40463872697E+02  0.40463872697E+02  0.00000000000E+00 0.  1.
          1   -1    0    0  501    0  0.00000000000E+00 -0.00000000000E+00 -0.98735702558E+03  0.98735702558E+03  0.00000000000E+00 0. -1.
         25    2    1    2    0    0 -0.55219253507E+02 -0.90819796132E+01 -0.90343894522E+03  0.91377313509E+03  0.12509103236E+03 0.  0.
         23    2    1    2    0    0  0.55219253507E+02  0.90819796132E+01 -0.43454207672E+02  0.11404776319E+03  0.89369882017E+02 0.  0.
          5    1    3    3  502    0 -0.73602107753E+02 -0.35168535780E+02 -0.35021945528E+03  0.35961818007E+03  0.41800000000E+01 0. -1.
         -5    1    3    3    0  502  0.18382854246E+02  0.26086556167E+02 -0.55321948993E+03  0.55415495503E+03  0.41800000000E+01 0. -1.
        -11    1    4    4    0    0  0.53180726951E+02 -0.24486358065E+02  0.69183344666E+00  0.58551260310E+02  0.00000000000E+00 0.  1.
         11    1    4    4    0    0  0.20385265561E+01  0.33568337679E+02 -0.44146041118E+02  0.55496502876E+02  0.00000000000E+00 0. -1.
</event>
<event>
 8    1  0.6862919E-009  0.1077586E+03  0.7561462E-02  0.1264778E+00
          2   -1    0    0  501    0  0.00000000000E+00  0.00000000000E+00  0.38766654370E+03  0.38766654370E+03  0.00000000000E+00 0. -1.
         -2   -1    0    0    0  501 -0.00000000000E+00 -0.00000000000E+00 -0.33824415089E+02  0.33824415089E+02  0.00000000000E+00 0.  1.
         25    2    1    2    0    0  0.10378732642E+02  0.27866957199E+02  0.22324863655E+03  0.25762730976E+03  0.12509033383E+03 0.  0.
         23    2    1    2    0    0 -0.10378732642E+02 -0.27866957199E+02  0.13059349206E+03  0.16386364903E+03  0.94405243024E+02 0.  0.
          5    1    3    3  502    0 -0.38073418765E+02 -0.24345253819E+02  0.38277120076E+02  0.59370758133E+02  0.41800000000E+01 0. -1.
         -5    1    3    3    0  502  0.48452151407E+02  0.52212211017E+02  0.18497151648E+03  0.19825655163E+03  0.41800000000E+01 0. -1.
        -11    1    4    4    0    0 -0.51996110156E+02 -0.23079708602E+02  0.80289371789E+02  0.98400465664E+02  0.00000000000E+00 0. -1.
         11    1    4    4    0    0  0.41617377514E+02 -0.47872485962E+01  0.50304120270E+02  0.65463183366E+02  0.00000000000E+00 0.  1.
</event>
<event>
 8    1  0.6862919E-009  0.1125469E+03  0.7561462E-02  0.1255925E+00
          1   -1    0    0  501    0  0.00000000000E+00  0.00000000000E+00  0.52689193552E+03  0.52689193552E+03  0.00000000000E+00 0. -1.
         -1   -1    0    0    0  501 -0.00000000000E+00 -0.00000000000E+00 -0.69739349447E+02  0.69739349447E+02  0.00000000000E+00 0.  1.
         25    2    1    2    0    0 -0.48127071292E+02  0.81972075616E+02  0.42757542911E+02  0.16282260582E+03  0.12508939731E+03 0.  0.
         23    2    1    2    0    0  0.48127071292E+02 -0.81972075616E+02  0.41439504316E+03  0.43380867914E+03  0.86203724582E+02 0.  0.
          5    1    3    3  502    0 -0.13067332797E+02  0.54483303538E+02  0.84602136042E+02  0.10155874839E+03  0.41800000000E+01 0.  1.
         -5    1    3    3    0  502 -0.35059738495E+02  0.27488772078E+02 -0.41844593131E+02  0.61263857437E+02  0.41800000000E+01 0.  1.
        -11    1    4    4    0    0 -0.26769315057E+00 -0.75311128747E+02  0.30214153253E+03  0.31138616451E+03  0.00000000000E+00 0. -1.
         11    1    4    4    0    0  0.48394764443E+02 -0.66609468691E+01  0.11225351064E+03  0.12242251463E+03  0.00000000000E+00 0.  1.
</event>
<event>
 8    1  0.6862919E-009  0.4779119E+03  0.7561462E-02  0.1019711E+00
         -3   -1    0    0    0  501 -0.00000000000E+00  0.00000000000E+00  0.15336022481E+04  0.15336022481E+04  0.00000000000E+00 0.  1.
          3   -1    0    0  501    0  0.00000000000E+00 -0.00000000000E+00 -0.20084922412E+03  0.20084922412E+03  0.00000000000E+00 0. -1.
         25    2    1    2    0    0 -0.45735783399E+03 -0.96723270950E+02  0.11086590192E+04  0.12096719293E+04  0.12509906598E+03 0.  0.
         23    2    1    2    0    0  0.45735783399E+03  0.96723270950E+02  0.22409400474E+03  0.52477954286E+03  0.81509914635E+02 0.  0.
          5    1    3    3  502    0 -0.29456073656E+03 -0.55095979537E+01  0.61602467499E+03  0.68286181310E+03  0.41800000000E+01 0. -1.
         -5    1    3    3    0  502 -0.16279709743E+03 -0.91213672996E+02  0.49263434419E+03  0.52681011622E+03  0.41800000000E+01 0. -1.
        -11    1    4    4    0    0  0.11702336050E+03 -0.11028246224E+02  0.55315081067E+02  0.12990707183E+03  0.00000000000E+00 0. -1.
         11    1    4    4    0    0  0.34033447349E+03  0.10775151717E+03  0.16877892368E+03  0.39487247103E+03  0.00000000000E+00 0.  1.
</event>
<event>
 8    1  0.6862919E-009  0.1465680E+03  0.7561462E-02  0.1204755E+00
          1   -1    0    0  501    0  0.00000000000E+00  0.00000000000E+00  0.14646347717E+04  0.14646347717E+04  0.00000000000E+00 0. -1.
         -1   -1    0    0    0  501 -0.00000000000E+00 -0.00000000000E+00 -0.39735679538E+02  0.39735679538E+02  0.00000000000E+00 0.  1.
         25    2    1    2    0    0 -0.12362969392E+03 -0.45851693523E+02  0.12988829195E+04  0.13115372088E+04  0.12508530055E+03 0.  0.
         23    2    1    2    0    0  0.12362969392E+03  0.45851693523E+02  0.12601617265E+03  0.19283324245E+03  0.62593167409E+02 0.  0.
          5    1    3    3  502    0 -0.99195479980E+02  0.26837187408E+01  0.11235041733E+04  0.11278856527E+04  0.41800000000E+01 0.  1.
         -5    1    3    3    0  502 -0.24434213944E+02 -0.48535412264E+02  0.17537874622E+03  0.18365155616E+03  0.41800000000E+01 0.  1.
        -11    1    4    4    0    0  0.15185824527E+02  0.24448566991E+02  0.53146925172E+02  0.60439534659E+02  0.00000000000E+00 0.  1.
         11    1    4    4    0    0  0.10844386940E+03  0.21403126532E+02  0.72869247479E+02  0.13239370779E+03  0.00000000000E+00 0. -1.
</event>
<event>
 8    1  0.6862919E-009  0.1341046E+03  0.7561462E-02  0.1221489E+00
         -4   -1    0    0    0  501 -0.00000000000E+00  0.00000000000E+00  0.15193711891E+02  0.15193711891E+02  0.00000000000E+00 0.  1.
          4   -1    0    0  501    0  0.00000000000E+00 -0.00000000000E+00 -0.13756877944E+04  0.13756877944E+04  0.00000000000E+00 0. -1.
         25    2    1    2    0    0 -0.49164821945E+02  0.77947606795E+02 -0.87157692033E+03  0.88531763861E+03  0.12509190242E+03 0.  0.
         23    2    1    2    0    0  0.49164821945E+02 -0.77947606795E+02 -0.48891716213E+03  0.50556386764E+03  0.89787659022E+02 0.  0.
          5    1    3    3  502    0  0.18525347621E+02  0.78168700851E+02 -0.60152496060E+03  0.60687995923E+03  0.41800000000E+01 0. -1.
         -5    1    3    3    0  502 -0.67690169566E+02 -0.22109405586E+00 -0.27005195973E+03  0.27843767937E+03  0.41800000000E+01 0. -1.
        -11    1    4    4    0    0  0.68526168321E+02 -0.72660531885E+02 -0.45755919270E+03  0.46833300489E+03  0.00000000000E+00 0. -1.
         11    1    4    4    0    0 -0.19361346375E+02 -0.52870749106E+01 -0.31357969425E+02  0.37230862749E+02  0.00000000000E+00 0.  1.
</event>
<event>
 8    1  0.6862919E-009  0.1880612E+03  0.7561462E-02  0.1160222E+00
         -2   -1    0    0    0  501 -0.00000000000E+00  0.00000000000E+00  0.67814823924E+02  0.67814823924E+02  0.00000000000E+00 0.  1.
          2   -1    0    0  501    0  0.00000000000E+00 -0.00000000000E+00 -0.58405095772E+03  0.58405095772E+03  0.00000000000E+00 0. -1.
         25    2    1    2    0    0 -0.46435907173E+02 -0.14966320388E+03 -0.36268904822E+03  0.41442230472E+03  0.12508850019E+03 0.  0.
         23    2    1    2    0    0  0.46435907173E+02  0.14966320388E+03 -0.15354708558E+03  0.23744347693E+03  0.90814807034E+02 0.  0.
          5    1    3    3  502    0 -0.43491892750E+02 -0.17042085725E+03 -0.34237298320E+03  0.38493057211E+03  0.41800000000E+01 0. -1.
         -5    1    3    3    0  502 -0.29440144238E+01  0.20757653371E+02 -0.20316065025E+02  0.29491732612E+02  0.41800000000E+01 0. -1.
        -11    1    4    4    0    0  0.20513199222E+02 -0.57083210416E+01 -0.73247633677E+01  0.22517291796E+02  0.00000000000E+00 0.  1.
         11    1    4    4    0    0  0.25922707951E+02  0.15537152492E+03 -0.14622232221E+03  0.21492618513E+03  0.00000000000E+00 0. -1.
</event>
<event>
 8    1  0.6862919E-009  0.1070455E+03  0.7561462E-02  0.1266141E+00
          2   -1    0    0  501    0  0.00000000000E+00  0.00000000000E+00  0.16420161061E+04  0.16420161061E+04  0.00000000000E+00 0. -1.
         -2   -1    0    0    0  501 -0.00000000000E+00 -0.00000000000E+00 -0.16972756719E+02  0.16972756719E+02  0.00000000000E+00 0.  1.
         25    2    1    2    0    0  0.49271748619E+02  0.51205113469E+01  0.14487761474E+04  0.14550100154E+04  0.12509154507E+03 0.  0.
         23    2    1    2    0    0 -0.49271748619E+02 -0.51205113469E+01  0.17626720192E+03  0.20397884740E+03  0.89907279283E+02 0.  0.
          5    1    3    3  502    0  0.74993914416E+02  0.44483256017E+02  0.95735399581E+03  0.96132564355E+03  0.41800000000E+01 0.  1.
         -5    1    3    3    0  502 -0.25722165797E+02 -0.39362744671E+02  0.49142215163E+03  0.49368437183E+03  0.41800000000E+01 0.  1.
        -11    1    4    4    0    0 -0.63024379463E+02 -0.12086928928E+02  0.17727181051E+03  0.18852973521E+03  0.00000000000E+00 0. -1.
         11    1    4    4    0    0  0.13752630844E+02  0.69664175810E+01 -0.10046085945E+01  0.15449112190E+02  0.00000000000E+00 0.  1.
</event>
<event>
 8    1  0.6862919E-009  0.1588926E+03  0.7561462E-02  0.1189953E+00
         -1   -1    0    0    0  501 -0.00000000000E+00  0.00000000000E+00  0.26098524966E+02  0.26098524966E+02  0.00000000000E+00 0.  1.
          1   -1    0    0  501    0  0.00000000000E+00 -0.00000000000E+00 -0.13211098491E+04  0.13211098491E+04  0.00000000000E+00 0. -1.
         25    2    1    2    0    0 -0.16596636240E+02 -0.14312485320E+03 -0.84074261693E+03  0.86212312705E+03  0.12509183161E+03 0.  0.
         23    2    1    2    0    0  0.16596636240E+02  0.14312485320E+03 -0.45426870724E+03  0.48508524705E+03  0.90484620747E+02 0.  0.
          5    1    3    3  502    0 -0.32945488088E+02 -0.13179271053E+03 -0.43200166810E+03  0.45287706652E+03  0.41800000000E+01 0. -1.
         -5    1    3    3    0  502  0.16348851847E+02 -0.11332142674E+02 -0.40874094882E+03  0.40924606053E+03  0.41800000000E+01 0. -1.
        -11    1    4    4    0    0 -0.19936824773E+01  0.14294093444E+03 -0.43671185145E+03  0.45951422905E+03  0.00000000000E+00 0. -1.
         11    1    4    4    0    0  0.18590318718E+02  0.18391876376E+00 -0.17556855790E+02  0.25571017996E+02  0.00000000000E+00 0.  1.
</event>
<event>
 8    1  0.6862919E-009  0.2240599E+03  0.7561462E-02  0.1130892E+00
          2   -1    0    0  501    0  0.00000000000E+00  0.00000000000E+00  0.23161462957E+03  0.23161462957E+03  0.00000000000E+00 0. -1.
         -2   -1    0    0    0  501 -0.00000000000E+00 -0.00000000000E+00 -0.64777395853E+03  0.64777395853E+03  0.00000000000E+00 0.  1.
         25    2    1    2    0    0 -0.14236242254E+03 -0.14360672446E+03 -0.56485469250E+03  0.61286021469E+03  0.12508744325E+03 0.  0.
         23    2    1    2    0    0  0.14236242254E+03  0.14360672446E+03  0.14869536353E+03  0.26652837341E+03  0.89649941624E+02 0.  0.
          5    1    3    3  502    0  0.13685763633E+02 -0.41340044473E+02 -0.17867628398E+03  0.18395376120E+03  0.41800000000E+01 0.  1.
         -5    1    3    3    0  502 -0.15604818617E+03 -0.10226667999E+03 -0.38617840851E+03  0.42890645349E+03  0.41800000000E+01 0.  1.
        -11    1    4    4    0    0  0.87100379257E+02  0.13665913821E+03  0.13007218780E+03  0.20780031319E+03  0.00000000000E+00 0. -1.
         11    1    4    4    0    0  0.55262043285E+02  0.69475862559E+01  0.18623175729E+02  0.58728060219E+02  0.00000000000E+00 0.  1.
</event>
<event>
 8    1  0.6862919E-009  0.1602776E+03  0.7561462E-02  0.1188384E+00
          4   -1    0    0  501    0  0.00000000000E+00  0.00000000000E+00  0.62770482596E+02  0.62770482596E+02  0.00000000000E+00 0. -1.
         -4   -1    0    0    0  501 -0.00000000000E+00 -0.00000000000E+00 -0.72738870200E+03  0.72738870200E+03  0.00000000000E+00 0.  1.
         25    2    1    2    0    0  0.12937208353E+03 -0.14227631097E+02 -0.58628038729E+03  0.61344240942E+03  0.12508931077E+03 0.  0.
         23    2    1    2    0    0 -0.12937208353E+03  0.14227631097E+02 -0.78337832113E+02  0.17671677518E+03  0.90290869991E+02 0.  0.
          5    1    3    3  502    0  0.15153321711E+03  0.54674232709E+00 -0.46066356982E+03  0.48496495932E+03  0.41800000000E+01 0. -1.
         -5    1    3    3    0  502 -0.22161133575E+02 -0.14774373424E+02 -0.12561681747E+03  0.12847745010E+03  0.41800000000E+01 0. -1.
        -11    1    4    4    0    0 -0.60300891152E+02 -0.21774669235E+02 -0.75120523316E+02  0.98759438624E+02  0.00000000000E+00 0.  1.
         11    1    4    4    0    0 -0.69071192382E+02  0.36002300332E+02 -0.32173087967E+01  0.77957336551E+02  0.00000000000E+00 0. -1.
</event>
<event>
 8    1  0.6862919E-009  0.3062806E+03  0.7561462E-02  0.1082142E+00
          1   -1    0    0  501    0  0.00000000000E+00  0.00000000000E+00  0.14635734306E+04  0.14635734306E+04  0.00000000000E+00 0. -1.
         -1   -1    0    0    0  501 -0.00000000000E+00 -0.00000000000E+00 -0.66545301684E+02  0.66545301684E+02  0.00000000000E+00 0.  1.
         25    2    1    2    0    0  0.24290380714E+03 -0.15901041526E+03  0.64015013883E+03  0.71395079776E+03  0.12508784788E+03 0.  0.
         23    2    1    2    0    0 -0.24290380714E+03  0.15901041526E+03  0.75687799012E+03  0.81616793456E+03  0.94758819066E+02 0.  0.
          5    1    3    3  502    0 -0.61598161096E+01  0.53359331833E+01  0.68325119931E+02  0.68936274421E+02  0.41800000000E+01 0.  1.
         -5    1    3    3    0  502  0.24906362325E+03 -0.16434634845E+03  0.57182501890E+03  0.64501452333E+03  0.41800000000E+01 0.  1.
        -11    1    4    4    0    0 -0.70258383900E+02  0.10061841139E+03  0.28375228676E+03  0.30915314241E+03  0.00000000000E+00 0. -1.
         11    1    4    4    0    0 -0.17264542324E+03  0.58392003875E+02  0.47312570336E+03  0.50701479215E+03  0.00000000000E+00 0.  1.
</event>
<event>
 8    1  0.6862919E-009  0.6970159E+02  0.7561462E-02  0.1361111E+00
          2   -1    0    0  501    0  0.00000000000E+00  0.00000000000E+00  0.13255066883E+03  0.13255066883E+03  0.00000000000E+00 0.  1.
         -2   -1    0    0    0  501 -0.00000000000E+00 -0.00000000000E+00 -0.10002267773E+03  0.10002267773E+03  0.00000000000E+00 0. -1.
         25    2    1    2    0    0 -0.13044197160E+02 -0.34269323988E+02  0.11338687531E+02  0.13084819276E+03  0.12509255001E+03 0.  0.
         23    2    1    2    0    0  0.13044197160E+02  0.34269323988E+02  0.21189303567E+02  0.10172515380E+03  0.92490446447E+02 0.  0.
          5    1    3    3  502    0 -0.14548814777E+02 -0.20125353621E+02 -0.56262107244E+02  0.61640854807E+02  0.41800000000E+01 0.  1.
         -5    1    3    3    0  502  0.15046176167E+01 -0.14143970367E+02  0.67600794775E+02  0.69207337950E+02  0.41800000000E+01 0.  1.
        -11    1    4    4    0    0 -0.20220045894E+02 -0.24560009962E+02  0.89022603500E+01  0.33034748139E+02  0.00000000000E+00 0.  1.
         11    1    4    4    0    0  0.33264243054E+02  0.58829333950E+02  0.12287043217E+02  0.68690405662E+02  0.00000000000E+00 0. -1.
</event>
<event>
 8    1  0.6862919E-009  0.1034328E+03  0.7561462E-02  0.1273239E+00
         -1   -1    0    0    0  501 -0.00000000000E+00  0.00000000000E+00  0.97358300367E+02  0.97358300367E+02  0.00000000000E+00 0.  1.
          1   -1    0    0  501    0  0.00000000000E+00 -0.00000000000E+00 -0.17715912309E+03  0.17715912309E+03  0.00000000000E+00 0. -1.
         25    2    1    2    0    0  0.71073949823E+02  0.51079306749E+01 -0.59244559589E+02  0.15567792605E+03  0.12509237195E+03 0.  0.
         23    2    1    2    0    0 -0.71073949823E+02 -0.51079306749E+01 -0.20556263133E+02  0.11883949740E+03  0.92858326981E+02 0.  0.
          5    1    3    3  502    0  0.58786415395E+02 -0.43062563151E+02  0.63506697771E+01  0.73266843707E+02  0.41800000000E+01 0. -1.
         -5    1    3    3    0  502  0.12287534427E+02  0.48170493826E+02 -0.65595229366E+02  0.82411082345E+02  0.41800000000E+01 0. -1.
        -11    1    4    4    0    0 -0.15204889735E+02 -0.20976114620E+02  0.31542099055E+02  0.40817766587E+02  0.00000000000E+00 0.  1.
         11    1    4    4    0    0 -0.55869060088E+02  0.15868183945E+02 -0.52098362187E+02  0.78021730815E+02  0.00000000000E+00 0. -1.
</event>
<event>
 8    1  0.6862919E-009  0.1195778E+03  0.7561462E-02  0.1243795E+00
          2   -1    0    0  501    0  0.00000000000E+00  0.00000000000E+00  0.62074151134E+02  0.62074151134E+02  0.00000000000E+00 0. -1.
         -2   -1    0    0    0  501 -0.00000000000E+00 -0.00000000000E+00 -0.43403998054E+03  0.43403998054E+03  0.00000000000E+00 0.  1.
         25    2    1    2    0    0  0.61453584531E+02  0.93750629157E+02 -0.27144074309E+03  0.31920769092E+03  0.12509096456E+03 0.  0.
         23    2    1    2    0    0 -0.61453584531E+02 -0.93750629157E+02 -0.10052508632E+03  0.17690644076E+03  0.92870190496E+02 0.  0.
          5    1    3    3  502    0  0.70804982057E+01 -0.73962047235E+01  0.10188616463E+02  0.15037207340E+02  0.41800000000E+01 0. -1.
         -5    1    3    3    0  502  0.54373086325E+02  0.10114683388E+03 -0.28162935955E+03  0.30417048358E+03  0.41800000000E+01 0. -1.
        -11    1    4    4    0    0 -0.23005572034E+02 -0.49364648540E+02  0.64809369158E+01  0.54846398363E+02  0.00000000000E+00 0. -1.
         11    1    4    4    0    0 -0.38448012496E+02 -0.44385980617E+02 -0.10700602324E+03  0.12206004240E+03  0.00000000000E+00 0.  1.
</event>
<event>
 8    1  0.6862919E-009  0.1067317E+03  0.7561462E-02  0.1266745E+00
          2   -1    0    0  501    0  0.00000000000E+00  0.00000000000E+00  0.23369669430E+03  0.23369669430E+03  0.00000000000E+00 0.  1.
         -2   -1    0    0    0  501 -0.00000000000E+00 -0.00000000000E+00 -0.69639176095E+02  0.69639176095E+02  0.00000000000E+00 0. -1.
         25    2    1    2    0    0 -0.35010194094E+02 -0.52007663865E+02  0.88293674239E+02  0.16544937470E+03  0.12508881599E+03 0.  0.
         23    2    1    2    0    0  0.35010194094E+02  0.52007663865E+02  0.75763843961E+02  0.13788649569E+03  0.96654098986E+02 0.  0.
          5    1    3    3  502    0  0.22888566086E+02 -0.31708637267E+02  0.95740559837E+02  0.10350387110E+03  0.41800000000E+01 0.  1.
         -5    1    3    3    0  502 -0.57898760180E+02 -0.20299026598E+02 -0.74468855974E+01  0.61945503601E+02  0.41800000000E+01 0.  1.
        -11    1    4    4    0    0 -0.10419529341E+02  0.64648111314E+02  0.58066415418E+02  0.87519446340E+02  0.00000000000E+00 0.  1.
         11    1    4    4    0    0  0.45429723436E+02 -0.12640447449E+02  0.17697428543E+02  0.50367049350E+02  0.00000000000E+00 0. -1.
</event>
<event>
 8    1  0.6862919E-009  0.1051424E+03  0.7561462E-02  0.1269839E+00
         -1   -1    0    0    0  501 -0.00000000000E+00  0.00000000000E+00  0.20435179970E+02  0.20435179970E+02  0.00000000000E+00 0.  1.
          1   -1    0    0  501    0  0.00000000000E+00 -0.00000000000E+00 -0.83569324088E+03  0.83569324088E+03  0.00000000000E+00 0. -1.
         25    2    1    2    0    0 -0.11569333250E+02  0.97780096409E+01 -0.68755915098E+03  0.69900834785E+03  0.12508247411E+03 0.  0.
         23    2    1    2    0    0  0.11569333250E+02 -0.97780096409E+01 -0.12769890993E+03  0.15712007300E+03  0.90278717298E+02 0.  0.
          5    1    3    3  502    0  0.41304835819E+02  0.43821273431E+02 -0.40739046052E+03  0.41183838236E+03  0.41800000000E+01 0. -1.
         -5    1    3    3    0  502 -0.52874169069E+02 -0.34043263790E+02 -0.28016869046E+03  0.28716996549E+03  0.41800000000E+01 0. -1.
        -11    1    4    4    0    0  0.46032159887E+02  0.10077415768E+02 -0.44087874212E+02  0.64531036757E+02  0.00000000000E+00 0.  1.
         11    1    4    4    0    0 -0.34462826637E+02 -0.19855425409E+02 -0.83611035720E+02  0.92589036242E+02  0.00000000000E+00 0. -1.
</event>
<event>
 8    1  0.6862919E-009  0.1189218E+03  0.7561462E-02  0.1244886E+00
          1   -1    0    0  501    0  0.00000000000E+00  0.00000000000E+00  0.90281374874E+03  0.90281374874E+03  0.00000000000E+00 0. -1.
         -1   -1    0    0    0  501 -0.00000000000E+00 -0.00000000000E+00 -0.27205311751E+02  0.27205311751E+02  0.00000000000E+00 0.  1.
         25    2    1    2    0    0 -0.55316841660E+02  0.73233699346E+02  0.27707170212E+03  0.31755095356E+03  0.12508697894E+03 0.  0.
         23    2    1    2    0    0  0.55316841660E+02 -0.73233699346E+02  0.59853673486E+03  0.61246810693E+03  0.91912084783E+02 0.  0.
          5    1    3    3  502    0 -0.60739773515E+02  0.36834455313E+02  0.27079106059E+03  0.27998458544E+03  0.41800000000E+01 0. -1.
         -5    1    3    3    0  502  0.54229318549E+01  0.36399244033E+02  0.62806415282E+01  0.37566368125E+02  0.41800000000E+01 0. -1.
        -11    1    4    4    0    0 -0.89450891830E+01 -0.64121484548E+02  0.31754447488E+03  0.32407726382E+03  0.00000000000E+00 0. -1.
         11    1    4    4    0    0  0.64261930843E+02 -0.91122147983E+01  0.28099225999E+03  0.28839084311E+03  0.00000000000E+00 0.  1.
</event>
<event>
 8    1  0.6862919E-009  0.1541024E+03  0.7561462E-02  0.1195521E+00
          3   -1    0    0  501    0  0.00000000000E+00  0.00000000000E+00  0.20198288594E+03  0.20198288594E+03  0.00000000000E+00 0. -1.
         -3   -1    0    0    0  501 -0.00000000000E+00 -0.00000000000E+00 -0.17834605226E+03  0.17834605226E+03  0.00000000000E+00 0.  1.
         25    2    1    2    0    0  0.10481079940E+02 -0.15157846553E+03  0.47867465453E+02  0.20254576770E+03  0.12509040537E+03 0.  0.
         23    2    1    2    0    0 -0.10481079940E+02  0.15157846553E+03 -0.24230631771E+02  0.17778317050E+03  0.89072150225E+02 0.  0.
          5    1    3    3  502    0 -0.86145495609E+01 -0.68921495842E+02 -0.40062273122E+02  0.80292223664E+02  0.41800000000E+01 0. -1.
         -5    1    3    3    0  502  0.19095629501E+02 -0.82656969691E+02  0.87929738575E+02  0.12225354404E+03  0.41800000000E+01 0. -1.
        -11    1    4    4    0    0 -0.12650458259E+02  0.37330383402E+02  0.31680517909E+02  0.50569228135E+02  0.00000000000E+00 0. -1.
         11    1    4    4    0    0  0.21693783190E+01  0.11424808213E+03 -0.55911149680E+02  0.12721394236E+03  0.00000000000E+00 0.  1.
</event>
<event>
 8    1  0.6862919E-009  0.9646926E+02  0.7561462E-02  0.1287901E+00
         -1   -1    0    0    0  501 -0.00000000000E+00  0.00000000000E+00  0.40637779303E+02  0.40637779303E+02  0.00000000000E+00 0.  1.
          1   -1    0    0  501    0  0.00000000000E+00 -0.00000000000E+00 -0.34558436783E+03  0.34558436783E+03  0.00000000000E+00 0. -1.
         25    2    1    2    0    0 -0.34595042852E+02  0.23786286343E+02 -0.21417915068E+03  0.25156152253E+03  0.12509151300E+03 0.  0.
         23    2    1    2    0    0  0.34595042852E+02 -0.23786286343E+02 -0.90767437854E+02  0.13466062461E+03  0.90178443310E+02 0.  0.
          5    1    3    3  502    0 -0.74497758754E+02  0.47837820538E+01 -0.76786671236E+02  0.10717493135E+03  0.41800000000E+01 0. -1.
         -5    1    3    3    0  502  0.39902715902E+02  0.19002504289E+02 -0.13739247944E+03  0.14438659118E+03  0.41800000000E+01 0. -1.
        -11    1    4    4    0    0  0.28997895114E+02 -0.44059115248E+02 -0.13310215473E+02  0.54398946621E+02  0.00000000000E+00 0.  1.
         11    1    4    4    0    0  0.55971477383E+01  0.20272828906E+02 -0.77457222381E+02  0.80261677989E+02  0.00000000000E+00 0. -1.
</event>
<event>
 8    1  0.6862919E-009  0.1383818E+03  0.7561462E-02  0.1215523E+00
         -2   -1    0    0    0  501 -0.00000000000E+00  0.00000000000E+00  0.74714591605E+02  0.74714591605E+02  0.00000000000E+00 0.  1.
          2   -1    0    0  501    0  0.00000000000E+00 -0.00000000000E+00 -0.33638410742E+03  0.33638410742E+03  0.00000000000E+00 0. -1.
         25    2    1    2    0    0  0.22442663609E+02 -0.10653709297E+03 -0.18781704042E+03  0.25055241423E+03  0.12508975288E+03 0.  0.
         23    2    1    2    0    0 -0.22442663609E+02  0.10653709297E+03 -0.73852475395E+02  0.16054628480E+03  0.92016825153E+02 0.  0.
          5    1    3    3  502    0  0.57634790531E+02 -0.74857952498E+01 -0.87934359099E+02  0.10548805677E+03  0.41800000000E+01 0.  1.
         -5    1    3    3    0  502 -0.35192126923E+02 -0.99051297723E+02 -0.99882681321E+02  0.14506435746E+03  0.41800000000E+01 0.  1.
        -11    1    4    4    0    0 -0.34799047518E+01  0.82981056564E+02 -0.93051774439E+02  0.12472609275E+03  0.00000000000E+00 0. -1.
         11    1    4    4    0    0 -0.18962758857E+02  0.23556036409E+02  0.19199299044E+02  0.35820192051E+02  0.00000000000E+00 0.  1.
</event>
<event>
 8    1  0.6862919E-009  0.1167682E+03  0.7561462E-02  0.1248526E+00
         -1   -1    0    0    0  501 -0.00000000000E+00  0.00000000000E+00  0.10119428832E+03  0.10119428832E+03  0.00000000000E+00 0.  1.
          1   -1    0    0  501    0  0.00000000000E+00 -0.00000000000E+00 -0.19052860548E+03  0.19052860548E+03  0.00000000000E+00 0. -1.
         25    2    1    2    0    0  0.60687834757E+02  0.28062688969E+02  0.11353052276E+02  0.14229174195E+03  0.12509004849E+03 0.  0.
         23    2    1    2    0    0 -0.60687834757E+02 -0.28062688969E+02 -0.10068736943E+03  0.14943115185E+03  0.87870330489E+02 0.  0.
          5    1    3    3  502    0 -0.21242793761E+02 -0.20203566015E+02  0.33350700974E+02  0.44600246882E+02  0.41800000000E+01 0.  1.
         -5    1    3    3    0  502  0.81930628518E+02  0.48266254984E+02 -0.21997648698E+02  0.97691495064E+02  0.41800000000E+01 0.  1.
        -11    1    4    4    0    0  0.16829980026E+02 -0.26274604379E+02 -0.41305839259E+02  0.51766547305E+02  0.00000000000E+00 0.  1.
         11    1    4    4    0    0 -0.77517814783E+02 -0.17880845896E+01 -0.59381530174E+02  0.97664604546E+02  0.00000000000E+00 0. -1.
</event>
<event>
 8    1  0.6862919E-009  0.1322263E+03  0.7561462E-02  0.1224189E+00
         -3   -1    0    0    0  501 -0.00000000000E+00  0.00000000000E+00  0.69071436810E+03  0.69071436810E+03  0.00000000000E+00 0.  1.
          3   -1    0    0  501    0  0.00000000000E+00 -0.00000000000E+00 -0.33398750190E+02  0.33398750190E+02  0.00000000000E+00 0. -1.
         25    2    1    2    0    0 -0.71081904344E+02 -0.77085289200E+02  0.32085982225E+03  0.35999072913E+03  0.12509004991E+03 0.  0.
         23    2    1    2    0    0  0.71081904344E+02  0.77085289200E+02  0.33645579566E+03  0.36412238916E+03  0.91585112995E+02 0.  0.
          5    1    3    3  502    0  0.22556024194E+02 -0.96456050807E+01  0.74361345101E+01  0.25972686062E+02  0.41800000000E+01 0. -1.
         -5    1    3    3    0  502 -0.93637928538E+02 -0.67439684119E+02  0.31342368774E+03  0.33401804307E+03  0.41800000000E+01 0. -1.
        -11    1    4    4    0    0  0.61107889702E+02  0.17335398788E+02  0.88886577507E+02  0.10924977756E+03  0.00000000000E+00 0. -1.
         11    1    4    4    0    0  0.99740146418E+01  0.59749890412E+02  0.24756921815E+03  0.25487261161E+03  0.00000000000E+00 0.  1.
</event>
<event>
 8    1  0.6862919E-009  0.1279993E+03  0.7561462E-02  0.1230455E+00
          1   -1    0    0  501    0  0.00000000000E+00  0.00000000000E+00  0.64890470946E+03  0.64890470946E+03  0.00000000000E+00 0. -1.
         -1   -1    0    0    0  501 -0.00000000000E+00 -0.00000000000E+00 -0.38295635378E+02  0.38295635378E+02  0.00000000000E+00 0.  1.
         25    2    1    2    0    0  0.90682702197E+02 -0.52718290268E+02  0.43434938453E+03  0.46401318089E+03  0.12508506541E+03 0.  0.
         23    2    1    2    0    0 -0.90682702197E+02  0.52718290268E+02  0.17625968955E+03  0.22318716394E+03  0.87991257432E+02 0.  0.
          5    1    3    3  502    0  0.14749423824E+02 -0.43398263847E+02  0.33700595083E+03  0.34013444122E+03  0.41800000000E+01 0.  1.
         -5    1    3    3    0  502  0.75933278374E+02 -0.93200264217E+01  0.97343433699E+02  0.12387873967E+03  0.41800000000E+01 0.  1.
        -11    1    4    4    0    0 -0.54382768592E+02 -0.15093762868E+02  0.50301887015E+02  0.75601501536E+02  0.00000000000E+00 0.  1.
         11    1    4    4    0    0 -0.36299933605E+02  0.67812053136E+02  0.12595780253E+03  0.14758566241E+03  0.00000000000E+00 0. -1.
</event>
<event>
 8    1  0.6862919E-009  0.8389895E+02  0.7561462E-02  0.1318337E+00
          1   -1    0    0  501    0  0.00000000000E+00  0.00000000000E+00  0.19533369951E+03  0.19533369951E+03  0.00000000000E+00 0. -1.
         -1   -1    0    0    0  501 -0.00000000000E+00 -0.00000000000E+00 -0.87968259167E+02  0.87968259167E+02  0.00000000000E+00 0.  1.
         25    2    1    2    0    0  0.57597153164E+02  0.39611008120E+02  0.82605863122E+02  0.16542293321E+03  0.12511816092E+03 0.  0.
         23    2    1    2    0    0 -0.57597153164E+02 -0.39611008120E+02  0.24759577226E+02  0.11787902547E+03  0.91629492877E+02 0.  0.
          5    1    3    3  502    0  0.51951787737E+02  0.41135644991E+02 -0.14573701076E+02  0.67977898621E+02  0.41800000000E+01 0.  1.
         -5    1    3    3    0  502  0.56453654269E+01 -0.15246368708E+01  0.97179564198E+02  0.97445034589E+02  0.41800000000E+01 0.  1.
        -11    1    4    4    0    0 -0.23547873108E+02  0.16377711662E+02 -0.23021674478E+02  0.36779467954E+02  0.00000000000E+00 0.  1.
         11    1    4    4    0    0 -0.34049280055E+02 -0.55988719782E+02  0.47781251704E+02  0.81099557517E+02  0.00000000000E+00 0. -1.
</event>
<event>
 8    1  0.6862919E-009  0.1970593E+03  0.7561462E-02  0.1152244E+00
         -2   -1    0    0    0  501 -0.00000000000E+00  0.00000000000E+00  0.33202978174E+02  0.33202978174E+02  0.00000000000E+00 0.  1.
          2   -1    0    0  501    0  0.00000000000E+00 -0.00000000000E+00 -0.12124962511E+04  0.12124962511E+04  0.00000000000E+00 0. -1.
         25    2    1    2    0    0  0.12215583163E+03 -0.11599649572E+03 -0.65222585422E+03  0.68514460829E+03  0.12508930865E+03 0.  0.
         23    2    1    2    0    0 -0.12215583163E+03  0.11599649572E+03 -0.52706741875E+03  0.56055462102E+03  0.89689380796E+02 0.  0.
          5    1    3    3  502    0  0.44106233024E+02  0.19411667989E+02 -0.22675508576E+03  0.23185666685E+03  0.41800000000E+01 0.  1.
         -5    1    3    3    0  502  0.78049598605E+02 -0.13540816370E+03 -0.42547076847E+03  0.45328794144E+03  0.41800000000E+01 0.  1.
        -11    1    4    4    0    0 -0.97971841709E+02  0.33670073171E+02 -0.32216458072E+03  0.33841124784E+03  0.00000000000E+00 0. -1.
         11    1    4    4    0    0 -0.24183989920E+02  0.82326422544E+02 -0.20490283803E+03  0.22214337318E+03  0.00000000000E+00 0.  1.
</event>
<event>
 8    1  0.6862919E-009  0.2056029E+03  0.7561462E-02  0.1145096E+00
          1   -1    0    0  501    0  0.00000000000E+00  0.00000000000E+00  0.25229563202E+03  0.25229563202E+03  0.00000000000E+00 0. -1.
         -1   -1    0    0    0  501 -0.00000000000E+00 -0.00000000000E+00 -0.25179752665E+03  0.25179752665E+03  0.00000000000E+00 0.  1.
         25    2    1    2    0    0  0.52503781141E+02 -0.19076456728E+03 -0.11100202992E+03  0.25907111317E+03  0.12509445978E+03 0.  0.
         23    2    1    2    0    0 -0.52503781141E+02  0.19076456728E+03  0.11150013530E+03  0.24502204549E+03  0.91955181700E+02 0.  0.
          5    1    3    3  502    0 -0.57158936549E+01 -0.78152162939E+02 -0.10632100847E+03  0.13214409277E+03  0.41800000000E+01 0.  1.
         -5    1    3    3    0  502  0.58219674796E+02 -0.11261240434E+03 -0.46810214522E+01  0.12692702040E+03  0.41800000000E+01 0.  1.
        -11    1    4    4    0    0 -0.34131902010E+01  0.11839622828E+03  0.23099568469E+02  0.12067686937E+03  0.00000000000E+00 0.  1.
         11    1    4    4    0    0 -0.49090590940E+02  0.72368339004E+02  0.88400566828E+02  0.12434517612E+03  0.00000000000E+00 0. -1.
</event>
<event>
 8    1  0.6862919E-009  0.1028224E+03  0.7561462E-02  0.1274470E+00
          1   -1    0    0  501    0  0.00000000000E+00  0.00000000000E+00  0.18982774610E+03  0.18982774610E+03  0.00000000000E+00 0. -1.
         -1   -1    0    0    0  501 -0.00000000000E+00 -0.00000000000E+00 -0.67147147625E+02  0.67147147625E+02  0.00000000000E+00 0.  1.
         25    2    1    2    0    0 -0.20582621262E+02  0.19266585181E+01  0.54956257299E+02  0.13818509627E+03  0.12509026463E+03 0.  0.
         23    2    1    2    0    0  0.20582621262E+02 -0.19266585181E+01  0.67724341175E+02  0.11878979745E+03  0.95378578727E+02 0.  0.
          5    1    3    3  502    0 -0.48588575601E+02 -0.36408395294E+02  0.65461738156E+02  0.89381947222E+02  0.41800000000E+01 0.  1.
         -5    1    3    3    0  502  0.28005954339E+02  0.38335053812E+02 -0.10505480856E+02  0.48803149050E+02  0.41800000000E+01 0.  1.
        -11    1    4    4    0    0 -0.17234284126E+02 -0.39943843610E+02  0.36139731283E+02  0.56556267282E+02  0.00000000000E+00 0. -1.
         11    1    4    4    0    0  0.37816905388E+02  0.38017185092E+02  0.31584609892E+02  0.62233530170E+02  0.00000000000E+00 0.  1.
</event>
<event>
 8    1  0.6862919E-009  0.1126817E+03  0.7561462E-02  0.1255683E+00
          3   -1    0    0  501    0  0.00000000000E+00  0.00000000000E+00  0.32286666635E+03  0.32286666635E+03  0.00000000000E+00 0. -1.
         -3   -1    0    0    0  501 -0.00000000000E+00 -0.00000000000E+00 -0.57570905626E+02  0.57570905626E+02  0.00000000000E+00 0.  1.
         25    2    1    2    0    0  0.19595931587E+00  0.74894380491E+02  0.19096265327E+03  0.24025846096E+03  0.12509271158E+03 0.  0.
         23    2    1    2    0    0 -0.19595931587E+00 -0.74894380491E+02  0.74333107458E+02  0.14017911102E+03  0.92279822671E+02 0.  0.
          5    1    3    3  502    0 -0.28752269404E+02 -0.15039661970E+02  0.11316710794E+03  0.11780132066E+03  0.41800000000E+01 0. -1.
         -5    1    3    3    0  502  0.28948228719E+02  0.89934042461E+02  0.77795545325E+02  0.12245714031E+03  0.41800000000E+01 0. -1.
        -11    1    4    4    0    0 -0.30405294983E+02 -0.23369433427E+02 -0.72915418059E+01  0.39035611479E+02  0.00000000000E+00 0.  1.
         11    1    4    4    0    0  0.30209335667E+02 -0.51524947064E+02  0.81624649264E+02  0.10114349954E+03  0.00000000000E+00 0. -1.
</event>
<event>
 8    1  0.6862919E-009  0.1569488E+03  0.7561462E-02  0.1192185E+00
         -1   -1    0    0    0  501 -0.00000000000E+00  0.00000000000E+00  0.46446659111E+02  0.46446659111E+02  0.00000000000E+00 0.  1.
          1   -1    0    0  501    0  0.00000000000E+00 -0.00000000000E+00 -0.68110695260E+03  0.68110695260E+03  0.00000000000E+00 0. -1.
         25    2    1    2    0    0  0.38202735481E+02 -0.13071189545E+03 -0.26658420135E+03  0.32443854643E+03  0.12509270717E+03 0.  0.
         23    2    1    2    0    0 -0.38202735481E+02  0.13071189545E+03 -0.36807609214E+03  0.40311506529E+03  0.92068983069E+02 0.  0.
          5    1    3    3  502    0 -0.62932343735E+01 -0.10041707105E+03 -0.75466317592E+02  0.12584049606E+03  0.41800000000E+01 0.  1.
         -5    1    3    3    0  502  0.44495969855E+02 -0.30294824402E+02 -0.19111788376E+03  0.19859805037E+03  0.41800000000E+01 0.  1.
        -11    1    4    4    0    0 -0.47966806218E+02  0.27018796245E+02 -0.17869997868E+03  0.18698800023E+03  0.00000000000E+00 0. -1.
         11    1    4    4    0    0  0.97640707366E+01  0.10369309921E+03 -0.18937611346E+03  0.21612706506E+03  0.00000000000E+00 0.  1.
</event>
<event>
 8    1  0.6862919E-009  0.1674497E+03  0.7561462E-02  0.1180534E+00
          2   -1    0    0  501    0  0.00000000000E+00  0.00000000000E+00  0.90774884839E+03  0.90774884839E+03  0.00000000000E+00 0. -1.
         -2   -1    0    0    0  501 -0.00000000000E+00 -0.00000000000E+00 -0.37036733919E+02  0.37036733919E+02  0.00000000000E+00 0.  1.
         25    2    1    2    0    0  0.11800390085E+03 -0.65793512809E+02  0.62373178714E+03  0.65033945844E+03  0.12508541872E+03 0.  0.
         23    2    1    2    0    0 -0.11800390085E+03  0.65793512809E+02  0.24698032734E+03  0.29444612387E+03  0.86287489415E+02 0.  0.
          5    1    3    3  502    0 -0.76655923313E+01 -0.51834240266E+02  0.12081939833E+03  0.13175867783E+03  0.41800000000E+01 0.  1.
         -5    1    3    3    0  502  0.12566949318E+03 -0.13959272543E+02  0.50291238880E+03  0.51858078061E+03  0.41800000000E+01 0.  1.
        -11    1    4    4    0    0 -0.64978389703E+02  0.77890735315E+02  0.19178063604E+03  0.21695384333E+03  0.00000000000E+00 0. -1.
         11    1    4    4    0    0 -0.53025511142E+02 -0.12097222506E+02  0.55199691301E+02  0.77492280544E+02  0.00000000000E+00 0.  1.
</event>
<event>
 8    1  0.6862919E-009  0.8732804E+02  0.7561462E-02  0.1309454E+00
          3   -1    0    0  501    0  0.00000000000E+00  0.00000000000E+00  0.28207426040E+02  0.28207426040E+02  0.00000000000E+00 0. -1.
         -3   -1    0    0    0  501 -0.00000000000E+00 -0.00000000000E+00 -0.74523398943E+03  0.74523398943E+03  0.00000000000E+00 0.  1.
         25    2    1    2    0    0 -0.27846699782E+02 -0.57837845374E+02 -0.57777250950E+03  0.59462903004E+03  0.12506780393E+03 0.  0.
         23    2    1    2    0    0  0.27846699782E+02  0.57837845374E+02 -0.13925405388E+03  0.17881238543E+03  0.91986534959E+02 0.  0.
          5    1    3    3  502    0  0.24778634085E+02 -0.18028409514E+02 -0.30705755856E+02  0.43581189743E+02  0.41800000000E+01 0.  1.
         -5    1    3    3    0  502 -0.52625333867E+02 -0.39809435860E+02 -0.54706675365E+03  0.55104784029E+03  0.41800000000E+01 0.  1.
        -11    1    4    4    0    0  0.28579175310E+02  0.10776692768E+02 -0.12637729740E+03  0.13001587467E+03  0.00000000000E+00 0.  1.
         11    1    4    4    0    0 -0.73247552772E+00  0.47061152606E+02 -0.12876756489E+02  0.48796510763E+02  0.00000000000E+00 0. -1.
</event>
<event>
 8    1  0.6862919E-009  0.8850763E+02  0.7561462E-02  0.1306506E+00
         -1   -1    0    0    0  501 -0.00000000000E+00  0.00000000000E+00  0.80001088035E+02  0.80001088035E+02  0.00000000000E+00 0.  1.
          1   -1    0    0  501    0  0.00000000000E+00 -0.00000000000E+00 -0.17758601565E+03  0.17758601565E+03  0.00000000000E+00 0. -1.
         25    2    1    2    0    0 -0.11982367393E+02 -0.37622004555E+02 -0.39156353259E+02  0.13689097717E+03  0.12508767835E+03 0.  0.
         23    2    1    2    0    0  0.11982367393E+02  0.37622004555E+02 -0.58428574354E+02  0.12069612651E+03  0.97952357294E+02 0.  0.
          5    1    3    3  502    0 -0.42404427152E+02 -0.21197042538E+02  0.32220038386E+02  0.57472196131E+02  0.41800000000E+01 0. -1.
         -5    1    3    3    0  502  0.30422059759E+02 -0.16424962017E+02 -0.71376391646E+02  0.79418781038E+02  0.41800000000E+01 0. -1.
        -11    1    4    4    0    0  0.37630404512E+02 -0.11360903488E+02  0.12669905595E+01  0.39328396063E+02  0.00000000000E+00 0.  1.
         11    1    4    4    0    0 -0.25648037119E+02  0.48982908044E+02 -0.59695564913E+02  0.81367730451E+02  0.00000000000E+00 0. -1.
</event>
<event>
 8    1  0.6862919E-009  0.1062598E+03  0.7561462E-02  0.1267657E+00
         -3   -1    0    0    0  501 -0.00000000000E+00  0.00000000000E+00  0.61228553742E+03  0.61228553742E+03  0.00000000000E+00 0.  1.
          3   -1    0    0  501    0  0.00000000000E+00 -0.00000000000E+00 -0.33435475578E+02  0.33435475578E+02  0.00000000000E+00 0. -1.
         25    2    1    2    0    0  0.87588670721E+02 -0.13169631929E+02  0.25375459989E+03  0.29645396260E+03  0.12509332729E+03 0.  0.
         23    2    1    2    0    0 -0.87588670721E+02  0.13169631929E+02  0.32509546195E+03  0.34926705040E+03  0.91952154235E+02 0.  0.
          5    1    3    3  502    0  0.39868900376E+02  0.82969308720E+01  0.23821889392E+03  0.24171074055E+03  0.41800000000E+01 0. -1.
         -5    1    3    3    0  502  0.47719770344E+02 -0.21466562801E+02  0.15535705975E+02  0.54743222050E+02  0.41800000000E+01 0. -1.
        -11    1    4    4    0    0 -0.90908196526E+02  0.34699716147E+02  0.20147876726E+03  0.22374553437E+03  0.00000000000E+00 0. -1.
         11    1    4    4    0    0  0.33195258058E+01 -0.21530084218E+02  0.12361669470E+03  0.12552151603E+03  0.00000000000E+00 0.  1.
</event>
<event>
 8    1  0.6862919E-009  0.8223153E+02  0.7561462E-02  0.1322835E+00
         -1   -1    0    0    0  501 -0.00000000000E+00  0.00000000000E+00  0.73310122474E+02  0.73310122474E+02  0.00000000000E+00 0.  1.
          1   -1    0    0  501    0  0.00000000000E+00 -0.00000000000E+00 -0.22206164721E+03  0.22206164721E+03  0.00000000000E+00 0. -1.
         25    2    1    2    0    0  0.58351737207E+02 -0.12492633775E+02 -0.41511888641E+02  0.14468498077E+03  0.12509802408E+03 0.  0.
         23    2    1    2    0    0 -0.58351737207E+02  0.12492633775E+02 -0.10723963610E+03  0.15068678892E+03  0.87436706651E+02 0.  0.
          5    1    3    3  502    0  0.21672651818E+02  0.17012343182E+01  0.44673485293E+02  0.49857704753E+02  0.41800000000E+01 0. -1.
         -5    1    3    3    0  502  0.36679085389E+02 -0.14193868093E+02 -0.86185373933E+02  0.94827276015E+02  0.41800000000E+01 0. -1.
        -11    1    4    4    0    0 -0.67768750814E+02 -0.18609865904E+02 -0.55331867751E+02  0.89445772872E+02  0.00000000000E+00 0.  1.
         11    1    4    4    0    0  0.94170136065E+01  0.31102499679E+02 -0.51907768344E+02  0.61241016044E+02  0.00000000000E+00 0. -1.
</event>
<event>
 8    1  0.6862919E-009  0.1090366E+03  0.7561462E-02  0.1262364E+00
         -3   -1    0    0    0  501 -0.00000000000E+00  0.00000000000E+00  0.39880904963E+03  0.39880904963E+03  0.00000000000E+00 0.  1.
          3   -1    0    0  501    0  0.00000000000E+00 -0.00000000000E+00 -0.39245047208E+02  0.39245047208E+02  0.00000000000E+00 0. -1.
         25    2    1    2    0    0 -0.44894169026E+02 -0.28287991218E+02  0.14321871407E+03  0.19742097378E+03  0.12509094278E+03 0.  0.
         23    2    1    2    0    0  0.44894169026E+02  0.28287991218E+02  0.21634528835E+03  0.24063312306E+03  0.91012742315E+02 0.  0.
          5    1    3    3  502    0 -0.66846571423E+02  0.21774642365E+02  0.11720788029E+03  0.13673974829E+03  0.41800000000E+01 0.  1.
         -5    1    3    3    0  502  0.21952402397E+02 -0.50062633583E+02  0.26010833784E+02  0.60681225485E+02  0.41800000000E+01 0.  1.
        -11    1    4    4    0    0  0.32515890230E+02 -0.23150160941E+02  0.15289506190E+03  0.15801934383E+03  0.00000000000E+00 0.  1.
         11    1    4    4    0    0  0.12378278796E+02  0.51438152159E+02  0.63450226449E+02  0.82613779237E+02  0.00000000000E+00 0. -1.
</event>
<event>
 8    1  0.6862919E-009  0.1501944E+03  0.7561462E-02  0.1200234E+00
          3   -1    0    0  501    0  0.00000000000E+00  0.00000000000E+00  0.14651070212E+03  0.14651070212E+03  0.00000000000E+00 0. -1.
         -3   -1    0    0    0  501 -0.00000000000E+00 -0.00000000000E+00 -0.30856561431E+03  0.30856561431E+03  0.00000000000E+00 0.  1.
         25    2    1    2    0    0 -0.51730390422E+02 -0.12255724204E+03 -0.21711907247E+03  0.28370094514E+03  0.12509685757E+03 0.  0.
         23    2    1    2    0    0  0.51730390422E+02  0.12255724204E+03  0.55064160279E+02  0.17137537128E+03  0.92957760660E+02 0.  0.
          5    1    3    3  502    0 -0.81581485337E+02 -0.89926598281E+02 -0.96467737140E+02  0.15513164905E+03  0.41800000000E+01 0.  1.
         -5    1    3    3    0  502  0.29851094916E+02 -0.32630643756E+02 -0.12065133533E+03  0.12856929609E+03  0.41800000000E+01 0.  1.
        -11    1    4    4    0    0  0.84852802329E+01  0.66993722731E+01 -0.22803524288E+02  0.25236526889E+02  0.00000000000E+00 0.  1.
         11    1    4    4    0    0  0.43245110189E+02  0.11585786976E+03  0.77867684567E+02  0.14613884440E+03  0.00000000000E+00 0. -1.
</event>
<event>
 8    1  0.6862919E-009  0.1065323E+03  0.7561462E-02  0.1267130E+00
         -2   -1    0    0    0  501 -0.00000000000E+00  0.00000000000E+00  0.71788895526E+02  0.71788895526E+02  0.00000000000E+00 0.  1.
          2   -1    0    0  501    0  0.00000000000E+00 -0.00000000000E+00 -0.18949733488E+03  0.18949733488E+03  0.00000000000E+00 0. -1.
         25    2    1    2    0    0  0.42538755659E+02  0.29305069821E+01 -0.82542949336E+02  0.15580974823E+03  0.12508079611E+03 0.  0.
         23    2    1    2    0    0 -0.42538755659E+02 -0.29305069821E+01 -0.35165490022E+02  0.10547648218E+03  0.89836200944E+02 0.  0.
          5    1    3    3  502    0  0.29953035413E+01  0.60923342119E+02 -0.46369682855E+02  0.76734903051E+02  0.41800000000E+01 0.  1.
         -5    1    3    3    0  502  0.39543452118E+02 -0.57992835137E+02 -0.36173266481E+02  0.79074845182E+02  0.41800000000E+01 0.  1.
        -11    1    4    4    0    0 -0.67367579252E+01 -0.33721117996E+02 -0.45603404936E+02  0.57115394142E+02  0.00000000000E+00 0. -1.
         11    1    4    4    0    0 -0.35801997734E+02  0.30790611014E+02  0.10437914913E+02  0.48361088037E+02  0.00000000000E+00 0.  1.
</event>
<event>
 8    1  0.6862919E-009  0.1074053E+03  0.7561462E-02  0.1265452E+00
         -1   -1    0    0    0  501 -0.00000000000E+00  0.00000000000E+00  0.10469239354E+03  0.10469239354E+03  0.00000000000E+00 0.  1.
          1   -1    0    0  501    0  0.00000000000E+00 -0.00000000000E+00 -0.21457807356E+03  0.21457807356E+03  0.00000000000E+00 0. -1.
         25    2    1    2    0    0  0.47952967294E+02 -0.68318666263E+02 -0.77671813726E+01  0.15057782703E+03  0.12508567325E+03 0.  0.
         23    2    1    2    0    0 -0.47952967294E+02  0.68318666263E+02 -0.10211849864E+03  0.16869264008E+03  0.10517647940E+03 0.  0.
          5    1    3    3  502    0  0.25831429061E+02 -0.25494488356E+02 -0.65654437097E+02  0.75134607035E+02  0.41800000000E+01 0.  1.
         -5    1    3    3    0  502  0.22121538233E+02 -0.42824177906E+02  0.57887255724E+02  0.75443219990E+02  0.41800000000E+01 0.  1.
        -11    1    4    4    0    0 -0.81879890696E+01 -0.26148417286E+02 -0.41140247830E+02  0.49429777291E+02  0.00000000000E+00 0. -1.
         11    1    4    4    0    0 -0.39764978225E+02  0.94467083549E+02 -0.60978250812E+02  0.11926286278E+03  0.00000000000E+00 0.  1.
</event>
<event>
 8    1  0.6862919E-009  0.1698618E+03  0.7561462E-02  0.1177992E+00
         -2   -1    0    0    0  501 -0.00000000000E+00  0.00000000000E+00  0.65234530572E+03  0.65234530572E+03  0.00000000000E+00 0.  1.
          2   -1    0    0  501    0  0.00000000000E+00 -0.00000000000E+00 -0.46897823687E+02  0.46897823687E+02  0.00000000000E+00 0. -1.
         25    2    1    2    0    0  0.12255342499E+03  0.58160663254E+02  0.35925796400E+03  0.40387596135E+03  0.12508997853E+03 0.  0.
         23    2    1    2    0    0 -0.12255342499E+03 -0.58160663254E+02  0.24618951803E+03  0.29536716806E+03  0.90721995421E+02 0.  0.
          5    1    3    3  502    0  0.57094881207E+01  0.65705143991E+02  0.15305200082E+03  0.16670978243E+03  0.41800000000E+01 0.  1.
         -5    1    3    3    0  502  0.11684393687E+03 -0.75444807371E+01  0.20620596318E+03  0.23716617892E+03  0.41800000000E+01 0.  1.
        -11    1    4    4    0    0  0.78583224332E+01  0.71505838383E+01  0.48770707008E+02  0.49914586472E+02  0.00000000000E+00 0.  1.
         11    1    4    4    0    0 -0.13041174742E+03 -0.65311247093E+02  0.19741881103E+03  0.24545258159E+03  0.00000000000E+00 0. -1.
</event>
<event>
 8    1  0.6862919E-009  0.2476744E+03  0.7561462E-02  0.1114783E+00
         -1   -1    0    0    0  501 -0.00000000000E+00  0.00000000000E+00  0.31138390447E+03  0.31138390447E+03  0.00000000000E+00 0.  1.
          1   -1    0    0  501    0  0.00000000000E+00 -0.00000000000E+00 -0.21535117948E+03  0.21535117948E+03  0.00000000000E+00 0. -1.
         25    2    1    2    0    0  0.12836795671E+03  0.19654424966E+03  0.45305571873E+02  0.26982927249E+03  0.12508903656E+03 0.  0.
         23    2    1    2    0    0 -0.12836795671E+03 -0.19654424966E+03  0.50727153114E+02  0.25690581146E+03  0.91210621711E+02 0.  0.
          5    1    3    3  502    0  0.68317971263E+00  0.10086150315E+03 -0.87085022007E+01  0.10132531748E+03  0.41800000000E+01 0. -1.
         -5    1    3    3    0  502  0.12768477700E+03  0.95682746514E+02  0.54014074074E+02  0.16850395501E+03  0.41800000000E+01 0. -1.
        -11    1    4    4    0    0 -0.35815972472E+02 -0.58217126700E+02  0.58960601233E+02  0.90268323475E+02  0.00000000000E+00 0.  1.
         11    1    4    4    0    0 -0.92551984237E+02 -0.13832712296E+03 -0.82334481186E+01  0.16663748798E+03  0.00000000000E+00 0. -1.
</event>
<event>
 8    1  0.6862919E-009  0.1316089E+03  0.7561462E-02  0.1225088E+00
          1   -1    0    0  501    0  0.00000000000E+00  0.00000000000E+00  0.48750414818E+02  0.48750414818E+02  0.00000000000E+00 0. -1.
         -1   -1    0    0    0  501 -0.00000000000E+00 -0.00000000000E+00 -0.37196474059E+03  0.37196474059E+03  0.00000000000E+00 0.  1.
         25    2    1    2    0    0 -0.39589026681E+02  0.68837024149E+02 -0.16953391897E+03  0.22516183307E+03  0.12510105700E+03 0.  0.
         23    2    1    2    0    0  0.39589026681E+02 -0.68837024149E+02 -0.15368040680E+03  0.19555332234E+03  0.91200918398E+02 0.  0.
          5    1    3    3  502    0 -0.79456923392E+02  0.70986627577E+02 -0.10863514553E+03  0.15222211145E+03  0.41800000000E+01 0. -1.
         -5    1    3    3    0  502  0.39867896711E+02 -0.21496034280E+01 -0.60898773442E+02  0.72939721619E+02  0.41800000000E+01 0. -1.
        -11    1    4    4    0    0  0.20281637385E+01 -0.77801416687E+02 -0.75879702671E+02  0.10869638064E+03  0.00000000000E+00 0.  1.
         11    1    4    4    0    0  0.37560862943E+02  0.89643925384E+01 -0.77800704127E+02  0.86856941699E+02  0.00000000000E+00 0. -1.
</event>
<event>
 8    1  0.6862919E-009  0.1370035E+03  0.7561462E-02  0.1217419E+00
         -1   -1    0    0    0  501 -0.00000000000E+00  0.00000000000E+00  0.13222064558E+02  0.13222064558E+02  0.00000000000E+00 0.  1.
          1   -1    0    0  501    0  0.00000000000E+00 -0.00000000000E+00 -0.15942307605E+04  0.15942307605E+04  0.00000000000E+00 0. -1.
         25    2    1    2    0    0  0.38166477385E+02 -0.73335121324E+02 -0.11143992828E+04  0.11244423737E+04  0.12510064128E+03 0.  0.
         23    2    1    2    0    0 -0.38166477385E+02  0.73335121324E+02 -0.46660941314E+03  0.48301045127E+03  0.93488136079E+02 0.  0.
          5    1    3    3  502    0  0.73306251443E+02 -0.57431860414E+01 -0.55191682760E+03  0.55680916630E+03  0.41800000000E+01 0.  1.
         -5    1    3    3    0  502 -0.35139774058E+02 -0.67591935282E+02 -0.56248245516E+03  0.56763320745E+03  0.41800000000E+01 0.  1.
        -11    1    4    4    0    0 -0.66223081841E+02  0.30626072372E+02 -0.29972815377E+03  0.30848082443E+03  0.00000000000E+00 0.  1.
         11    1    4    4    0    0  0.28056604456E+02  0.42709048952E+02 -0.16688125937E+03  0.17452962684E+03  0.00000000000E+00 0. -1.
</event>
<event>
 8    1  0.6862919E-009  0.1807743E+03  0.7561462E-02  0.1167056E+00
          1   -1    0    0  501    0  0.00000000000E+00  0.00000000000E+00  0.33410563736E+03  0.33410563736E+03  0.00000000000E+00 0. -1.
         -1   -1    0    0    0  501 -0.00000000000E+00 -0.00000000000E+00 -0.10746250871E+03  0.10746250871E+03  0.00000000000E+00 0.  1.
         25    2    1    2    0    0  0.14178997461E+03  0.62504162733E+02  0.12967427257E+03  0.23764411898E+03  0.12509253799E+03 0.  0.
         23    2    1    2    0    0 -0.14178997461E+03 -0.62504162733E+02  0.96968856084E+02  0.20392402709E+03  0.90392933996E+02 0.  0.
          5    1    3    3  502    0  0.94477568202E+02  0.10070770295E+03  0.92204185785E+02  0.16609375847E+03  0.41800000000E+01 0. -1.
         -5    1    3    3    0  502  0.47312406407E+02 -0.38203540219E+02  0.37470086784E+02  0.71550360508E+02  0.41800000000E+01 0. -1.
        -11    1    4    4    0    0 -0.17484094542E+02 -0.28728997665E+02  0.61862335368E+02  0.70413048549E+02  0.00000000000E+00 0. -1.
         11    1    4    4    0    0 -0.12430588007E+03 -0.33775165068E+02  0.35106520716E+02  0.13351097854E+03  0.00000000000E+00 0.  1.
</event>
<event>
 8    1  0.6862919E-009  0.7010360E+02  0.7561462E-02  0.1359741E+00
         -1   -1    0    0    0  501 -0.00000000000E+00  0.00000000000E+00  0.97736001242E+02  0.97736001242E+02  0.00000000000E+00 0.  1.
          1   -1    0    0  501    0  0.00000000000E+00 -0.00000000000E+00 -0.13668821576E+03  0.13668821576E+03  0.00000000000E+00 0. -1.
         25    2    1    2    0    0 -0.72850570688E+01  0.41768831380E+01 -0.55544193894E+02  0.13712303211E+03  0.12508816911E+03 0.  0.
         23    2    1    2    0    0  0.72850570688E+01 -0.41768831380E+01  0.16591979379E+02  0.97301184887E+02  0.95507635252E+02 0.  0.
          5    1    3    3  502    0 -0.23286844220E+02 -0.67371380045E+01 -0.92215669457E+02  0.95440391007E+02  0.41800000000E+01 0.  1.
         -5    1    3    3    0  502  0.16001787151E+02  0.10914021143E+02  0.36671475563E+02  0.41682641105E+02  0.41800000000E+01 0.  1.
        -11    1    4    4    0    0 -0.23091210374E+02  0.37609028269E+02  0.56183239436E+01  0.44488296976E+02  0.00000000000E+00 0.  1.
         11    1    4    4    0    0  0.30376267443E+02 -0.41785911407E+02  0.10973655435E+02  0.52812887911E+02  0.00000000000E+00 0. -1.
</event>
<event>
 8    1  0.6862919E-009  0.1152466E+03  0.7561462E-02  0.1251151E+00
          4   -1    0    0  501    0  0.00000000000E+00  0.00000000000E+00  0.16862301321E+03  0.16862301321E+03  0.00000000000E+00 0. -1.
         -4   -1    0    0    0  501 -0.00000000000E+00 -0.00000000000E+00 -0.10059269278E+03  0.10059269278E+03  0.00000000000E+00 0.  1.
         25    2    1    2    0    0 -0.11427260794E+02 -0.57581756951E+02  0.11043036692E+01  0.13818484192E+03  0.12509032747E+03 0.  0.
         23    2    1    2    0    0  0.11427260794E+02  0.57581756951E+02  0.66926016756E+02  0.13103086408E+03  0.96144446530E+02 0.  0.
          5    1    3    3  502    0  0.42738884901E+02 -0.64985159260E+02  0.19599778142E+02  0.80320028074E+02  0.41800000000E+01 0.  1.
         -5    1    3    3    0  502 -0.54166145695E+02  0.74034023089E+01 -0.18495474473E+02  0.57864813844E+02  0.41800000000E+01 0.  1.
        -11    1    4    4    0    0  0.38745254501E+02  0.57334369214E+01 -0.36012228713E+01  0.39332376631E+02  0.00000000000E+00 0.  1.
         11    1    4    4    0    0 -0.27317993707E+02  0.51848320029E+02  0.70527239628E+02  0.91698487444E+02  0.00000000000E+00 0. -1.
</event>
<event>
 8    1  0.6862919E-009  0.4339200E+03  0.7561462E-02  0.1032629E+00
          2   -1    0    0  501    0  0.00000000000E+00  0.00000000000E+00  0.17879655702E+04  0.17879655702E+04  0.00000000000E+00 0. -1.
         -2   -1    0    0    0  501 -0.00000000000E+00 -0.00000000000E+00 -0.11445037753E+03  0.11445037753E+03  0.00000000000E+00 0.  1.
         25    2    1    2    0    0  0.43118268380E+03  0.47103399946E+02  0.71343173137E+03  0.84425713036E+03  0.12509208508E+03 0.  0.
         23    2    1    2    0    0 -0.43118268380E+03 -0.47103399946E+02  0.96008346128E+03  0.10581588174E+04  0.99008045221E+02 0.  0.
          5    1    3    3  502    0  0.33562288380E+03  0.31100821657E+02  0.63732577958E+03  0.72097961341E+03  0.41800000000E+01 0.  1.
         -5    1    3    3    0  502  0.95559799998E+02  0.16002578290E+02  0.76105951788E+02  0.12327751695E+03  0.41800000000E+01 0.  1.
        -11    1    4    4    0    0 -0.14705067241E+03 -0.18279016403E+02  0.44735197244E+03  0.47125556755E+03  0.00000000000E+00 0. -1.
         11    1    4    4    0    0 -0.28413201139E+03 -0.28824383543E+02  0.51273148884E+03  0.58690324981E+03  0.00000000000E+00 0.  1.
</event>
<event>
 8    1  0.6862919E-009  0.1136499E+03  0.7561462E-02  0.1253956E+00
         -2   -1    0    0    0  501 -0.00000000000E+00  0.00000000000E+00  0.18567023579E+02  0.18567023579E+02  0.00000000000E+00 0.  1.
          2   -1    0    0  501    0  0.00000000000E+00 -0.00000000000E+00 -0.17603916687E+04  0.17603916687E+04  0.00000000000E+00 0. -1.
         25    2    1    2    0    0  0.68498111431E+02 -0.92126825534E+01 -0.15455097207E+04  0.15521036387E+04  0.12509413863E+03 0.  0.
         23    2    1    2    0    0 -0.68498111431E+02  0.92126825534E+01 -0.19631492438E+03  0.22685505360E+03  0.90259631164E+02 0.  0.
          5    1    3    3  502    0 -0.13320795809E+02  0.37282059353E+02 -0.74639895686E+03  0.74745987903E+03  0.41800000000E+01 0. -1.
         -5    1    3    3    0  502  0.81818907240E+02 -0.46494741906E+02 -0.79911076387E+03  0.80464375964E+03  0.41800000000E+01 0. -1.
        -11    1    4    4    0    0 -0.67624979574E+02 -0.14829461711E+02 -0.18964914460E+03  0.20189068539E+03  0.00000000000E+00 0. -1.
         11    1    4    4    0    0 -0.87313185713E+00  0.24042144265E+02 -0.66657797790E+01  0.24964368210E+02  0.00000000000E+00 0.  1.
</event>
<event>
 8    1  0.6862919E-009  0.9588650E+02  0.7561462E-02  0.1289192E+00
         -1   -1    0    0    0  501 -0.00000000000E+00  0.00000000000E+00  0.12423342016E+03  0.12423342016E+03  0.00000000000E+00 0.  1.
          1   -1    0    0  501    0  0.00000000000E+00 -0.00000000000E+00 -0.11110145760E+03  0.11110145760E+03  0.00000000000E+00 0. -1.
         25    2    1    2    0    0 -0.21707023626E+02  0.23992412502E+02 -0.26142063673E+02  0.13182230780E+03  0.12508749981E+03 0.  0.
         23    2    1    2    0    0  0.21707023626E+02 -0.23992412502E+02  0.39274026228E+02  0.10351256995E+03  0.90141956212E+02 0.  0.
          5    1    3    3  502    0 -0.69812073544E+02  0.16350725692E+02  0.78913551002E+01  0.72255226306E+02  0.41800000000E+01 0.  1.
         -5    1    3    3    0  502  0.48105049918E+02  0.76416868105E+01 -0.34033418773E+02  0.59567081499E+02  0.41800000000E+01 0.  1.
        -11    1    4    4    0    0 -0.43736638870E+00 -0.42317240293E+02 -0.12644907426E+02  0.44168244239E+02  0.00000000000E+00 0. -1.
         11    1    4    4    0    0  0.22144390015E+02  0.18324827791E+02  0.51918933654E+02  0.59344325714E+02  0.00000000000E+00 0.  1.
</event>
<event>
 8    1  0.6862919E-009  0.2367260E+03  0.7561462E-02  0.1121993E+00
         -1   -1    0    0    0  501 -0.00000000000E+00  0.00000000000E+00  0.18332294737E+03  0.18332294737E+03  0.00000000000E+00 0.  1.
          1   -1    0    0  501    0  0.00000000000E+00 -0.00000000000E+00 -0.33652680026E+03  0.33652680026E+03  0.00000000000E+00 0. -1.
         25    2    1    2    0    0 -0.21991114627E+03 -0.36530016063E+02 -0.89159898526E+02  0.27072390564E+03  0.12508633520E+03 0.  0.
         23    2    1    2    0    0  0.21991114627E+03  0.36530016063E+02 -0.64043954366E+02  0.24912584198E+03  0.90921409608E+02 0.  0.
          5    1    3    3  502    0 -0.10273387804E+03  0.35162111044E+02 -0.33793780542E+01  0.10871759907E+03  0.41800000000E+01 0.  1.
         -5    1    3    3    0  502 -0.11717726823E+03 -0.71692127107E+02 -0.85780520472E+02  0.16200630658E+03  0.41800000000E+01 0.  1.
        -11    1    4    4    0    0  0.30119470160E+02  0.21425214745E+02 -0.44327149924E+02  0.57715842972E+02  0.00000000000E+00 0. -1.
         11    1    4    4    0    0  0.18979167611E+03  0.15104801318E+02 -0.19716804441E+02  0.19140999901E+03  0.00000000000E+00 0.  1.
</event>
<event>
 8    1  0.6862919E-009  0.1059454E+03  0.7561462E-02  0.1268268E+00
         -2   -1    0    0    0  501 -0.00000000000E+00  0.00000000000E+00  0.73882806672E+02  0.73882806672E+02  0.00000000000E+00 0.  1.
          2   -1    0    0  501    0  0.00000000000E+00 -0.00000000000E+00 -0.24857405828E+03  0.24857405828E+03  0.00000000000E+00 0. -1.
         25    2    1    2    0    0  0.70537415364E+00  0.32141442482E+02 -0.17789281635E+03  0.21983462401E+03  0.12509131836E+03 0.  0.
         23    2    1    2    0    0 -0.70537415364E+00 -0.32141442482E+02  0.32015647409E+01  0.10262224094E+03  0.97403821493E+02 0.  0.
          5    1    3    3  502    0  0.22707283692E+02 -0.43572062577E+02 -0.81200771152E+02  0.95000963182E+02  0.41800000000E+01 0. -1.
         -5    1    3    3    0  502 -0.22001909539E+02  0.75713505059E+02 -0.96692045196E+02  0.12483366083E+03  0.41800000000E+01 0. -1.
        -11    1    4    4    0    0  0.11693871055E+02  0.23696668433E+02  0.29554405552E+02  0.39645196463E+02  0.00000000000E+00 0.  1.
         11    1    4    4    0    0 -0.12399245209E+02 -0.55838110915E+02 -0.26352840811E+02  0.62977044478E+02  0.00000000000E+00 0. -1.
</event>
<event>
 8    1  0.6862919E-009  0.1863497E+03  0.7561462E-02  0.1161795E+00
          1   -1    0    0  501    0  0.00000000000E+00  0.00000000000E+00  0.14862330728E+04  0.14862330728E+04  0.00000000000E+00 0. -1.
         -1   -1    0    0    0  501 -0.00000000000E+00 -0.00000000000E+00 -0.27140597454E+02  0.27140597454E+02  0.00000000000E+00 0.  1.
         25    2    1    2    0    0  0.40752321537E+02  0.15087005619E+03  0.10060399362E+04  0.10257619989E+04  0.12509516203E+03 0.  0.
         23    2    1    2    0    0 -0.40752321537E+02 -0.15087005619E+03  0.45305253910E+03  0.48761167133E+03  0.89922262324E+02 0.  0.
          5    1    3    3  502    0  0.76506004614E+02  0.13935643277E+03  0.72817806535E+03  0.74534163399E+03  0.41800000000E+01 0. -1.
         -5    1    3    3    0  502 -0.35753683076E+02  0.11513623416E+02  0.27786187086E+03  0.28042036491E+03  0.41800000000E+01 0. -1.
        -11    1    4    4    0    0  0.36271735239E+01 -0.12387872689E+03  0.36397715716E+03  0.38449768048E+03  0.00000000000E+00 0. -1.
         11    1    4    4    0    0 -0.44379495061E+02 -0.26991329299E+02  0.89075381946E+02  0.10311399084E+03  0.00000000000E+00 0.  1.
</event>
<event>
 8    1  0.6862919E-009  0.1932636E+03  0.7561462E-02  0.1155550E+00
         -2   -1    0    0    0  501 -0.00000000000E+00  0.00000000000E+00  0.23825341687E+03  0.23825341687E+03  0.00000000000E+00 0.  1.
          2   -1    0    0  501    0  0.00000000000E+00 -0.00000000000E+00 -0.18947036979E+03  0.18947036979E+03  0.00000000000E+00 0. -1.
         25    2    1    2    0    0 -0.78720414498E+02  0.16145272891E+03  0.95571433006E+01  0.21909750321E+03  0.12509392309E+03 0.  0.
         23    2    1    2    0    0  0.78720414498E+02 -0.16145272891E+03  0.39225903779E+02  0.20862628344E+03  0.98602065313E+02 0.  0.
          5    1    3    3  502    0 -0.77830417839E+02  0.17330743363E+03  0.32628931164E+02  0.19280860987E+03  0.41800000000E+01 0. -1.
         -5    1    3    3    0  502 -0.88999665847E+00 -0.11854704715E+02 -0.23071787864E+02  0.26288893342E+02  0.41800000000E+01 0. -1.
        -11    1    4    4    0    0  0.32977342923E+01 -0.45212213154E+02  0.52573845412E+02  0.69419222778E+02  0.00000000000E+00 0.  1.
         11    1    4    4    0    0  0.75422680205E+02 -0.11624051576E+03 -0.13347941632E+02  0.13920706067E+03  0.00000000000E+00 0. -1.
</event>
<event>
 8    1  0.6862919E-009  0.1716274E+03  0.7561462E-02  0.1176161E+00
         -2   -1    0    0    0  501 -0.00000000000E+00  0.00000000000E+00  0.23908483755E+02  0.23908483755E+02  0.00000000000E+00 0.  1.
          2   -1    0    0  501    0  0.00000000000E+00 -0.00000000000E+00 -0.29112039815E+04  0.29112039815E+04  0.00000000000E+00 0. -1.
         25    2    1    2    0    0 -0.13083414939E+03 -0.73965689991E+02 -0.25236490649E+04  0.25312133828E+04  0.12509232010E+03 0.  0.
         23    2    1    2    0    0  0.13083414939E+03  0.73965689991E+02 -0.36364643279E+03  0.40389908240E+03  0.91144076837E+02 0.  0.
          5    1    3    3  502    0 -0.72698275041E+01  0.29414069218E+02 -0.25089041442E+03  0.25274791850E+03  0.41800000000E+01 0.  1.
         -5    1    3    3    0  502 -0.12356432188E+03 -0.10337975921E+03 -0.22727586505E+04  0.22784654643E+04  0.41800000000E+01 0.  1.
        -11    1    4    4    0    0  0.47245134125E+02  0.16386539149E+02 -0.23380194520E+03  0.23908988047E+03  0.00000000000E+00 0. -1.
         11    1    4    4    0    0  0.83589015263E+02  0.57579150842E+02 -0.12984448759E+03  0.16480920194E+03  0.00000000000E+00 0.  1.
</event>
<event>
 8    1  0.6862919E-009  0.9592427E+02  0.7561462E-02  0.1289108E+00
          3   -1    0    0  501    0  0.00000000000E+00  0.00000000000E+00  0.18437451388E+03  0.18437451388E+03  0.00000000000E+00 0. -1.
         -3   -1    0    0    0  501 -0.00000000000E+00 -0.00000000000E+00 -0.89515451815E+02  0.89515451815E+02  0.00000000000E+00 0.  1.
         25    2    1    2    0    0 -0.25592413245E+02 -0.33878494089E+02  0.11146998826E+03  0.17284559506E+03  0.12508923804E+03 0.  0.
         23    2    1    2    0    0  0.25592413245E+02  0.33878494089E+02 -0.16610926193E+02  0.10104437063E+03  0.90173820981E+02 0.  0.
          5    1    3    3  502    0 -0.36197937456E+02  0.38349677154E+02  0.73198930591E+02  0.90313588422E+02  0.41800000000E+01 0.  1.
         -5    1    3    3    0  502  0.10605524211E+02 -0.72228171243E+02  0.38271057665E+02  0.82532006638E+02  0.41800000000E+01 0.  1.
        -11    1    4    4    0    0  0.88994806932E+01  0.44932089808E+02  0.26920182704E+02  0.53129932128E+02  0.00000000000E+00 0. -1.
         11    1    4    4    0    0  0.16692932552E+02 -0.11053595719E+02 -0.43531108896E+02  0.47914438505E+02  0.00000000000E+00 0.  1.
</event>
<event>
 8    1  0.6862919E-009  0.1127302E+03  0.7561462E-02  0.1255596E+00
          1   -1    0    0  501    0  0.00000000000E+00  0.00000000000E+00  0.66660645893E+02  0.66660645893E+02  0.00000000000E+00 0. -1.
         -1   -1    0    0    0  501 -0.00000000000E+00 -0.00000000000E+00 -0.38644842179E+03  0.38644842179E+03  0.00000000000E+00 0.  1.
         25    2    1    2    0    0 -0.81576028338E+02 -0.16470809454E+02 -0.28826825644E+03  0.32507201281E+03  0.12508912773E+03 0.  0.
         23    2    1    2    0    0  0.81576028338E+02  0.16470809454E+02 -0.31519519455E+02  0.12803705488E+03  0.92054719333E+02 0.  0.
          5    1    3    3  502    0 -0.34601674588E+02 -0.61998970380E+02 -0.81543267434E+02  0.10820316574E+03  0.41800000000E+01 0.  1.
         -5    1    3    3    0  502 -0.46974353749E+02  0.45528160927E+02 -0.20672498901E+03  0.21686884707E+03  0.41800000000E+01 0.  1.
        -11    1    4    4    0    0  0.34624872601E+02  0.22730554330E+02 -0.59894960181E+02  0.72821467700E+02  0.00000000000E+00 0.  1.
         11    1    4    4    0    0  0.46951155737E+02 -0.62597448760E+01  0.28375440726E+02  0.55215587177E+02  0.00000000000E+00 0. -1.
</event>
<event>
 8    1  0.6862919E-009  0.1177763E+03  0.7561462E-02  0.1246811E+00
         -3   -1    0    0    0  501 -0.00000000000E+00  0.00000000000E+00  0.24883196524E+02  0.24883196524E+02  0.00000000000E+00 0.  1.
          3   -1    0    0  501    0  0.00000000000E+00 -0.00000000000E+00 -0.70046130823E+03  0.70046130823E+03  0.00000000000E+00 0. -1.
         25    2    1    2    0    0  0.61949249795E+02 -0.26601802684E+01 -0.49189560759E+03  0.51132565574E+03  0.12509137198E+03 0.  0.
         23    2    1    2    0    0 -0.61949249795E+02  0.26601802684E+01 -0.18368250412E+03  0.21401884901E+03  0.90664322119E+02 0.  0.
          5    1    3    3  502    0 -0.33698269684E+02  0.42411414362E+01 -0.61728039754E+02  0.70578920028E+02  0.41800000000E+01 0. -1.
         -5    1    3    3    0  502  0.95647519479E+02 -0.69013217046E+01 -0.43016756784E+03  0.44074673572E+03  0.41800000000E+01 0. -1.
        -11    1    4    4    0    0  0.94361580774E+01  0.28037671233E+02 -0.82300227821E+02  0.87455586367E+02  0.00000000000E+00 0. -1.
         11    1    4    4    0    0 -0.71385407872E+02 -0.25377490965E+02 -0.10138227630E+03  0.12656326265E+03  0.00000000000E+00 0.  1.
</event>
<event>
 8    1  0.6862919E-009  0.1002184E+03  0.7561462E-02  0.1279837E+00
          1   -1    0    0  501    0  0.00000000000E+00  0.00000000000E+00  0.27071641118E+03  0.27071641118E+03  0.00000000000E+00 0. -1.
         -1   -1    0    0    0  501 -0.00000000000E+00 -0.00000000000E+00 -0.48400254967E+02  0.48400254967E+02  0.00000000000E+00 0.  1.
         25    2    1    2    0    0 -0.39458778720E+02  0.86168778465E+00  0.13075979509E+03  0.18521102635E+03  0.12508901849E+03 0.  0.
         23    2    1    2    0    0  0.39458778720E+02 -0.86168778465E+00  0.91556361120E+02  0.13390563979E+03  0.89389123406E+02 0.  0.
          5    1    3    3  502    0  0.32656209807E+02 -0.12952875012E+02  0.22042063085E+00  0.35379739899E+02  0.41800000000E+01 0.  1.
         -5    1    3    3    0  502 -0.72114988527E+02  0.13814562797E+02  0.13053937446E+03  0.14983128646E+03  0.41800000000E+01 0.  1.
        -11    1    4    4    0    0  0.25628918432E+02  0.40484413739E+02  0.71122424730E+02  0.85756798653E+02  0.00000000000E+00 0. -1.
         11    1    4    4    0    0  0.13829860287E+02 -0.41346101524E+02  0.20433936390E+02  0.48148841141E+02  0.00000000000E+00 0.  1.
</event>
<event>
 8    1  0.6862919E-009  0.8628189E+02  0.7561462E-02  0.1312114E+00
         -2   -1    0    0    0  501 -0.00000000000E+00  0.00000000000E+00  0.63659564608E+02  0.63659564608E+02  0.00000000000E+00 0.  1.
          2   -1    0    0  501    0  0.00000000000E+00 -0.00000000000E+00 -0.35390906871E+03  0.35390906871E+03  0.00000000000E+00 0. -1.
         25    2    1    2    0    0  0.45733869238E+02 -0.10985041377E+02 -0.29358663952E+03  0.32257113882E+03  0.12508703678E+03 0.  0.
         23    2    1    2    0    0 -0.45733869238E+02  0.10985041377E+02  0.33371354137E+01  0.94997494495E+02  0.82468961179E+02 0.  0.
          5    1    3    3  502    0  0.63442178260E+02 -0.35982275533E+02 -0.27896095320E+03  0.28836837543E+03  0.41800000000E+01 0. -1.
         -5    1    3    3    0  502 -0.17708309022E+02  0.24997234155E+02 -0.14625686315E+02  0.34202763397E+02  0.41800000000E+01 0. -1.
        -11    1    4    4    0    0 -0.49778458609E+02  0.23783233269E+02 -0.27296895312E+02  0.61552072426E+02  0.00000000000E+00 0. -1.
         11    1    4    4    0    0  0.40445893706E+01 -0.12798191891E+02  0.30634030726E+02  0.33445422069E+02  0.00000000000E+00 0.  1.
</event>
<event>
 8    1  0.6862919E-009  0.1120800E+03  0.7561462E-02  0.1256766E+00
         -3   -1    0    0    0  501 -0.00000000000E+00  0.00000000000E+00  0.21602688619E+03  0.21602688619E+03  0.00000000000E+00 0.  1.
          3   -1    0    0  501    0  0.00000000000E+00 -0.00000000000E+00 -0.67400882115E+02  0.67400882115E+02  0.00000000000E+00 0. -1.
         25    2    1    2    0    0  0.27683110124E+02  0.23724043572E+02  0.12672435195E+03  0.18175591436E+03  0.12508783393E+03 0.  0.
         23    2    1    2    0    0 -0.27683110124E+02 -0.23724043572E+02  0.21901652120E+02  0.10167185394E+03  0.92348788238E+02 0.  0.
          5    1    3    3  502    0  0.62231199836E+02  0.53608777946E+02  0.64867636271E+02  0.10474686602E+03  0.41800000000E+01 0. -1.
         -5    1    3    3    0  502 -0.34548089712E+02 -0.29884734374E+02  0.61856715679E+02  0.77009048338E+02  0.41800000000E+01 0. -1.
        -11    1    4    4    0    0 -0.59818653531E+02 -0.82734313047E+01  0.26064185220E+02  0.65772811458E+02  0.00000000000E+00 0.  1.
         11    1    4    4    0    0  0.32135543407E+02 -0.15450612267E+02 -0.41625330999E+01  0.35899042485E+02  0.00000000000E+00 0. -1.
</event>
<event>
 8    1  0.6862919E-009  0.9047079E+02  0.7561462E-02  0.1301716E+00
         -1   -1    0    0    0  501 -0.00000000000E+00  0.00000000000E+00  0.50041763592E+02  0.50041763592E+02  0.00000000000E+00 0.  1.
          1   -1    0    0  501    0  0.00000000000E+00 -0.00000000000E+00 -0.41942001510E+03  0.41942001510E+03  0.00000000000E+00 0. -1.
         25    2    1    2    0    0 -0.54627979344E+01  0.38682701233E+01 -0.35240055379E+03  0.37401531017E+03  0.12512592161E+03 0.  0.
         23    2    1    2    0    0  0.54627979344E+01 -0.38682701233E+01 -0.16977697725E+02  0.95446468523E+02  0.93685540284E+02 0.  0.
          5    1    3    3  502    0 -0.47239693917E+02 -0.12273277461E+02 -0.56775344687E+02  0.74987560204E+02  0.41800000000E+01 0.  1.
         -5    1    3    3    0  502  0.41776895983E+02  0.16141547584E+02 -0.29562520910E+03  0.29902774997E+03  0.41800000000E+01 0.  1.
        -11    1    4    4    0    0  0.35038910424E+02 -0.31040258748E+02  0.89268958197E+01  0.47654090861E+02  0.00000000000E+00 0.  1.
         11    1    4    4    0    0 -0.29576112490E+02  0.27171988624E+02 -0.25904593544E+02  0.47792377661E+02  0.00000000000E+00 0. -1.
</event>
<event>
 8    1  0.6862919E-009  0.8977850E+02  0.7561462E-02  0.1303389E+00
         -1   -1    0    0    0  501 -0.00000000000E+00  0.00000000000E+00  0.59183936050E+02  0.59183936050E+02  0.00000000000E+00 0.  1.
          1   -1    0    0  501    0  0.00000000000E+00 -0.00000000000E+00 -0.40260934020E+03  0.40260934020E+03  0.00000000000E+00 0. -1.
         25    2    1    2    0    0  0.51276951707E+02 -0.10745192460E+02 -0.33758480583E+03  0.36381040494E+03  0.12509885963E+03 0.  0.
         23    2    1    2    0    0 -0.51276951707E+02  0.10745192460E+02 -0.58405983244E+01  0.97982871309E+02  0.82593858996E+02 0.  0.
          5    1    3    3  502    0 -0.10009055861E+02 -0.18156715429E+02 -0.27496947298E+03  0.27578167268E+03  0.41800000000E+01 0.  1.
         -5    1    3    3    0  502  0.61286007568E+02  0.74115229690E+01 -0.62615332848E+02  0.88028732264E+02  0.41800000000E+01 0.  1.
        -11    1    4    4    0    0  0.21221535666E+02 -0.61447948344E+01 -0.80393219516E+01  0.23510482279E+02  0.00000000000E+00 0.  1.
         11    1    4    4    0    0 -0.72498487373E+02  0.16889987295E+02  0.21987236272E+01  0.74472389030E+02  0.00000000000E+00 0. -1.
</event>
<event>
 8    1  0.6862919E-009  0.1046658E+03  0.7561462E-02  0.1270780E+00
         -1   -1    0    0    0  501 -0.00000000000E+00  0.00000000000E+00  0.73780565789E+02  0.73780565789E+02  0.00000000000E+00 0.  1.
          1   -1    0    0  501    0  0.00000000000E+00 -0.00000000000E+00 -0.25816434518E+03  0.25816434518E+03  0.00000000000E+00 0. -1.
         25    2    1    2    0    0  0.12150407357E+02  0.72243586589E+02 -0.15305384570E+03  0.21081039344E+03  0.12509506024E+03 0.  0.
         23    2    1    2    0    0 -0.12150407357E+02 -0.72243586589E+02 -0.31329933686E+02  0.12113451752E+03  0.91242744308E+02 0.  0.
          5    1    3    3  502    0 -0.21616393220E+02 -0.18406499130E+02  0.11587442861E+01  0.28720772176E+02  0.41800000000E+01 0.  1.
         -5    1    3    3    0  502  0.33766800577E+02  0.90650085718E+02 -0.15421258999E+03  0.18208962127E+03  0.41800000000E+01 0.  1.
        -11    1    4    4    0    0  0.13515924673E+02 -0.11074984533E+02  0.27425980030E+02  0.32519530790E+02  0.00000000000E+00 0.  1.
         11    1    4    4    0    0 -0.25666332030E+02 -0.61168602056E+02 -0.58755913716E+02  0.88614986735E+02  0.00000000000E+00 0. -1.
</event>
<event>
 8    1  0.6862919E-009  0.1001345E+03  0.7561462E-02  0.1280013E+00
          1   -1    0    0  501    0  0.00000000000E+00  0.00000000000E+00  0.75463135379E+03  0.75463135379E+03  0.00000000000E+00 0. -1.
         -1   -1    0    0    0  501 -0.00000000000E+00 -0.00000000000E+00 -0.22468475424E+02  0.22468475424E+02  0.00000000000E+00 0.  1.
         25    2    1    2    0    0 -0.57501534808E+02 -0.42519541392E+02  0.43354736161E+03  0.45686330497E+03  0.12508567770E+03 0.  0.
         23    2    1    2    0    0  0.57501534808E+02  0.42519541392E+02  0.29861551676E+03  0.32023652424E+03  0.90916812006E+02 0.  0.
          5    1    3    3  502    0 -0.50569745150E+02  0.82297207620E+01  0.37685612946E+03  0.38034595060E+03  0.41800000000E+01 0. -1.
         -5    1    3    3    0  502 -0.69317896581E+01 -0.50749262154E+02  0.56691232145E+02  0.76517354366E+02  0.41800000000E+01 0. -1.
        -11    1    4    4    0    0  0.41003798084E+02 -0.10182330683E+02  0.49524578121E+02  0.65097428164E+02  0.00000000000E+00 0.  1.
         11    1    4    4    0    0  0.16497736724E+02  0.52701872075E+02  0.24909093864E+03  0.25513909608E+03  0.00000000000E+00 0. -1.
</event>
<event>
 8    1  0.6862919E-009  0.1952358E+03  0.7561462E-02  0.1153822E+00
         -2   -1    0    0    0  501 -0.00000000000E+00  0.00000000000E+00  0.74089913894E+02  0.74089913894E+02  0.00000000000E+00 0.  1.
          2   -1    0    0  501    0  0.00000000000E+00 -0.00000000000E+00 -0.57278514092E+03  0.57278514092E+03  0.00000000000E+00 0. -1.
         25    2    1    2    0    0  0.98542817894E+02 -0.14447871312E+03 -0.26703923642E+03  0.34284418512E+03  0.12508955185E+03 0.  0.
         23    2    1    2    0    0 -0.98542817894E+02  0.14447871312E+03 -0.23165599061E+03  0.30403086969E+03  0.90473677054E+02 0.  0.
          5    1    3    3  502    0 -0.24709877516E+02 -0.61226810770E+02 -0.86134307001E+02  0.10860889304E+03  0.41800000000E+01 0. -1.
         -5    1    3    3    0  502  0.12325269541E+03 -0.83251902349E+02 -0.18090492942E+03  0.23423529209E+03  0.41800000000E+01 0. -1.
        -11    1    4    4    0    0 -0.68407400136E+02  0.11179997907E+03 -0.99378191994E+02  0.16448353339E+03  0.00000000000E+00 0.  1.
         11    1    4    4    0    0 -0.30135417758E+02  0.32678734047E+02 -0.13227779861E+03  0.13954733630E+03  0.00000000000E+00 0. -1.
</event>
<event>
 8    1  0.6862919E-009  0.1191923E+03  0.7561462E-02  0.1244436E+00
         -1   -1    0    0    0  501 -0.00000000000E+00  0.00000000000E+00  0.17177013385E+03  0.17177013385E+03  0.00000000000E+00 0.  1.
          1   -1    0    0  501    0  0.00000000000E+00 -0.00000000000E+00 -0.10258772518E+03  0.10258772518E+03  0.00000000000E+00 0. -1.
         25    2    1    2    0    0 -0.68789948214E+02  0.17705664684E+02  0.27685106029E+01  0.14389210030E+03  0.12510685169E+03 0.  0.
         23    2    1    2    0    0  0.68789948214E+02 -0.17705664684E+02  0.66413898060E+02  0.13046575873E+03  0.86976783157E+02 0.  0.
          5    1    3    3  502    0 -0.10447915138E+03  0.20518282886E+01  0.42513293996E+01  0.10466923748E+03  0.41800000000E+01 0.  1.
         -5    1    3    3    0  502  0.35689203166E+02  0.15653836396E+02 -0.14828187968E+01  0.39222862824E+02  0.41800000000E+01 0.  1.
        -11    1    4    4    0    0 -0.27679471189E+01 -0.22706333976E+02  0.52678005202E+02  0.57430056294E+02  0.00000000000E+00 0.  1.
         11    1    4    4    0    0  0.71557895333E+02  0.50006692914E+01  0.13735892859E+02  0.73035702437E+02  0.00000000000E+00 0. -1.
</event>
<event>
 7    1  0.6862919E-009  0.9004382E+02  0.7561462E-02  0.1302746E+00
         -2   -1    0    0    0  501 -0.00000000000E+00  0.00000000000E+00  0.85016425844E+02  0.85016425844E+02  0.00000000000E+00 0.  1.
          2   -1    0    0  501    0  0.00000000000E+00 -0.00000000000E+00 -0.15845358550E+03  0.15845358550E+03  0.00000000000E+00 0. -1.
         23    2    1    2    0    0 -0.19214194696E+02 -0.16403026769E+02 -0.65019669827E+02  0.11568006110E+03  0.92282579645E+02 0.  0.
          5    1    1    2  502    0  0.49858866126E+02  0.56678470890E+02  0.32992947319E+01  0.75675050971E+02  0.41800000000E+01 0. -1.
         -5    1    1    2    0  502 -0.30644671429E+02 -0.40275444120E+02 -0.11716784560E+02  0.52114899276E+02  0.41800000000E+01 0. -1.
        -11    1    3    3    0    0 -0.34432700228E+02 -0.52376840907E+01 -0.82751623849E+02  0.89782378166E+02  0.00000000000E+00 0. -1.
         11    1    3    3    0    0  0.15218505532E+02 -0.11165342679E+02  0.17731954022E+02  0.25897682931E+02  0.00000000000E+00 0.  1.
</event>
<event>
 8    1  0.6862919E-009  0.1115913E+03  0.7561462E-02  0.1257651E+00
          2   -1    0    0  501    0  0.00000000000E+00  0.00000000000E+00  0.65130691757E+02  0.65130691757E+02  0.00000000000E+00 0. -1.
         -2   -1    0    0    0  501 -0.00000000000E+00 -0.00000000000E+00 -0.22755943678E+03  0.22755943678E+03  0.00000000000E+00 0.  1.
         25    2    1    2    0    0 -0.39039949938E+02  0.31586172463E+02 -0.85592972848E+02  0.15967282844E+03  0.12508977240E+03 0.  0.
         23    2    1    2    0    0  0.39039949938E+02 -0.31586172463E+02 -0.76835772172E+02  0.13301730009E+03  0.96270775717E+02 0.  0.
          5    1    3    3  502    0 -0.58768079864E+02 -0.17561130881E+02 -0.87001064963E+02  0.10653045683E+03  0.41800000000E+01 0. -1.
         -5    1    3    3    0  502  0.19728129926E+02  0.49147303343E+02  0.14080921151E+01  0.53142371604E+02  0.41800000000E+01 0. -1.
        -11    1    4    4    0    0 -0.73647536367E+01  0.30326413448E+02 -0.22245132694E+02  0.38324624947E+02  0.00000000000E+00 0.  1.
         11    1    4    4    0    0  0.46404703575E+02 -0.61912585911E+02 -0.54590639478E+02  0.94692675147E+02  0.00000000000E+00 0. -1.
</event>
<event>
 7    1  0.6862919E-009  0.5765344E+02  0.7561462E-02  0.1407952E+00
          1   -1    0    0  501    0  0.00000000000E+00  0.00000000000E+00  0.23167401475E+03  0.23167401475E+03  0.00000000000E+00 0. -1.
         -1   -1    0    0    0  501 -0.00000000000E+00 -0.00000000000E+00 -0.41348607952E+02  0.41348607952E+02  0.00000000000E+00 0.  1.
         25    2    1    2    0    0 -0.38435007062E+02  0.21235588785E+02  0.11020707386E+03  0.17236853891E+03  0.12504844693E+03 0.  0.
          5    1    3    3  502    0 -0.77342336974E+01 -0.16977203954E+02 -0.23268479152E+02  0.30115417099E+02  0.41800000000E+01 0.  1.
         -5    1    3    3    0  502 -0.30700773364E+02  0.38212792739E+02  0.13347555301E+03  0.14225312182E+03  0.41800000000E+01 0.  1.
        -11    1    1    2    0    0  0.31490001098E+02 -0.87131560396E+01  0.79911737489E+02  0.86333220986E+02  0.00000000000E+00 0. -1.
         11    1    1    2    0    0  0.69450059640E+01 -0.12522432745E+02  0.20659544787E+00  0.14320862802E+02  0.00000000000E+00 0.  1.
</event>
<event>
 8    1  0.6862919E-009  0.1290873E+03  0.7561462E-02  0.1228816E+00
          1   -1    0    0  501    0  0.00000000000E+00  0.00000000000E+00  0.80612239824E+02  0.80612239824E+02  0.00000000000E+00 0. -1.
         -1   -1    0    0    0  501 -0.00000000000E+00 -0.00000000000E+00 -0.30234326038E+03  0.30234326038E+03  0.00000000000E+00 0.  1.
         25    2    1    2    0    0 -0.69013508224E+02 -0.35105898863E+02 -0.20702979595E+03  0.25397280752E+03  0.12508222135E+03 0.  0.
         23    2    1    2    0    0  0.69013508224E+02  0.35105898863E+02 -0.14701224612E+02  0.12898269268E+03  0.10210347964E+03 0.  0.
          5    1    3    3  502    0 -0.40474168755E+02 -0.79967483311E+02 -0.15708843566E+03  0.18090662161E+03  0.41800000000E+01 0.  1.
         -5    1    3    3    0  502 -0.28539339470E+02  0.44861584449E+02 -0.49941360285E+02  0.73066185912E+02  0.41800000000E+01 0.  1.
        -11    1    4    4    0    0  0.41377212995E+02 -0.25432292142E+02  0.21625688492E+02  0.53165267248E+02  0.00000000000E+00 0. -1.
         11    1    4    4    0    0  0.27636295230E+02  0.60538191005E+02 -0.36326913104E+02  0.75817425436E+02  0.00000000000E+00 0.  1.
</event>
<event>
 8    1  0.6862919E-009  0.1341027E+03  0.7561462E-02  0.1221492E+00
         -1   -1    0    0    0  501 -0.00000000000E+00  0.00000000000E+00  0.18744934751E+03  0.18744934751E+03  0.00000000000E+00 0.  1.
          1   -1    0    0  501    0  0.00000000000E+00 -0.00000000000E+00 -0.29154447456E+03  0.29154447456E+03  0.00000000000E+00 0. -1.
         25    2    1    2    0    0 -0.74855246765E+02 -0.64450937211E+02 -0.23959657840E+03  0.28776854468E+03  0.12508790370E+03 0.  0.
         23    2    1    2    0    0  0.74855246765E+02  0.64450937211E+02  0.13550145135E+03  0.19122527740E+03  0.91919704756E+02 0.  0.
          5    1    3    3  502    0  0.22635999940E+02  0.34344424929E+00 -0.11289458341E+03  0.11521790577E+03  0.41800000000E+01 0. -1.
         -5    1    3    3    0  502 -0.97491246704E+02 -0.64794381460E+02 -0.12670199498E+03  0.17255063890E+03  0.41800000000E+01 0. -1.
        -11    1    4    4    0    0  0.25391227201E+02 -0.18538091950E+02  0.63088887304E+02  0.70488176123E+02  0.00000000000E+00 0.  1.
         11    1    4    4    0    0  0.49464019564E+02  0.82989029161E+02  0.72412564043E+02  0.12073710127E+03  0.00000000000E+00 0. -1.
</event>
<event>
 8    1  0.6862919E-009  0.1378679E+03  0.7561462E-02  0.1216227E+00
          3   -1    0    0  501    0  0.00000000000E+00  0.00000000000E+00  0.89613761224E+02  0.89613761224E+02  0.00000000000E+00 0. -1.
         -3   -1    0    0    0  501 -0.00000000000E+00 -0.00000000000E+00 -0.28965730619E+03  0.28965730619E+03  0.00000000000E+00 0.  1.
         25    2    1    2    0    0  0.38896076301E+02  0.11326177832E+03 -0.11387093707E+03  0.20725638037E+03  0.12508989454E+03 0.  0.
         23    2    1    2    0    0 -0.38896076301E+02 -0.11326177832E+03 -0.86172607902E+02  0.17201468705E+03  0.88443196615E+02 0.  0.
          5    1    3    3  502    0 -0.91344756950E+01  0.37914860262E+01 -0.83038644102E+02  0.83729939847E+02  0.41800000000E+01 0.  1.
         -5    1    3    3    0  502  0.48030551996E+02  0.10947029229E+03 -0.30832292968E+02  0.12352644053E+03  0.41800000000E+01 0.  1.
        -11    1    4    4    0    0  0.20853652716E+02 -0.65951091463E+02 -0.22598504989E+02  0.72767532076E+02  0.00000000000E+00 0. -1.
         11    1    4    4    0    0 -0.59749729017E+02 -0.47310686855E+02 -0.63574102913E+02  0.99247154969E+02  0.00000000000E+00 0.  1.
</event>
<event>
 7    1  0.6862919E-009  0.2828962E+03  0.7561462E-02  0.1094118E+00
          2   -1    0    0  501    0  0.00000000000E+00  0.00000000000E+00  0.20628659913E+04  0.20628659913E+04  0.00000000000E+00 0. -1.
         -2   -1    0    0    0  501 -0.00000000000E+00 -0.00000000000E+00 -0.45594779078E+02  0.45594779078E+02  0.00000000000E+00 0.  1.
         23    2    1    2    0    0 -0.22660339503E+03  0.14381121659E+03  0.64853754018E+03  0.70805754651E+03  0.93347648525E+02 0.  0.
          5    1    1    2  502    0 -0.16579314614E+01  0.92454775665E+01  0.10719162850E+02  0.14852624157E+02  0.41800000000E+01 0. -1.
         -5    1    1    2    0  502  0.22826132649E+03 -0.15305669415E+03  0.13580145092E+04  0.13855505998E+04  0.41800000000E+01 0. -1.
        -11    1    3    3    0    0 -0.12073136817E+03  0.28379833049E+02  0.34256501998E+03  0.36432440365E+03  0.00000000000E+00 0.  1.
         11    1    3    3    0    0 -0.10587202687E+03  0.11543138354E+03  0.30597252020E+03  0.34373314285E+03  0.00000000000E+00 0. -1.
</event>
<event>
 8    1  0.6862919E-009  0.1719336E+03  0.7561462E-02  0.1175846E+00
          1   -1    0    0  501    0  0.00000000000E+00  0.00000000000E+00  0.67279590325E+02  0.67279590325E+02  0.00000000000E+00 0. -1.
         -1   -1    0    0    0  501 -0.00000000000E+00 -0.00000000000E+00 -0.52051978582E+03  0.52051978582E+03  0.00000000000E+00 0.  1.
         25    2    1    2    0    0  0.12633738339E+03 -0.75556408907E+02 -0.29147195890E+03  0.34967615076E+03  0.12509037619E+03 0.  0.
         23    2    1    2    0    0 -0.12633738339E+03  0.75556408907E+02 -0.16176823659E+03  0.23812322538E+03  0.94147770699E+02 0.  0.
          5    1    3    3  502    0  0.72227815838E+02 -0.88073677961E+02 -0.26404149154E+03  0.28759209270E+03  0.41800000000E+01 0. -1.
         -5    1    3    3    0  502  0.54109567554E+02  0.12517269054E+02 -0.27430467365E+02  0.62084058061E+02  0.41800000000E+01 0. -1.
        -11    1    4    4    0    0 -0.41619639988E+01  0.48983899716E+02 -0.54352913025E+02  0.73286994276E+02  0.00000000000E+00 0.  1.
         11    1    4    4    0    0 -0.12217541939E+03  0.26572509191E+02 -0.10741532357E+03  0.16483623111E+03  0.00000000000E+00 0. -1.
</event>
<event>
 8    1  0.6862919E-009  0.1871766E+03  0.7561462E-02  0.1161033E+00
         -2   -1    0    0    0  501 -0.00000000000E+00  0.00000000000E+00  0.35012520073E+02  0.35012520073E+02  0.00000000000E+00 0.  1.
          2   -1    0    0  501    0  0.00000000000E+00 -0.00000000000E+00 -0.11319108607E+04  0.11319108607E+04  0.00000000000E+00 0. -1.
         25    2    1    2    0    0 -0.67875553648E+02 -0.15107474422E+03 -0.63356274301E+03  0.66669386984E+03  0.12509315582E+03 0.  0.
         23    2    1    2    0    0  0.67875553648E+02  0.15107474422E+03 -0.46333559765E+03  0.50022951096E+03  0.90105596170E+02 0.  0.
          5    1    3    3  502    0 -0.10122449420E+03 -0.13846606274E+03 -0.53104196801E+03  0.55807015056E+03  0.41800000000E+01 0.  1.
         -5    1    3    3    0  502  0.33348940556E+02 -0.12608681483E+02 -0.10252077500E+03  0.10862371928E+03  0.41800000000E+01 0.  1.
        -11    1    4    4    0    0  0.59259878481E+02  0.11031352498E+03 -0.42688611469E+03  0.44487364713E+03  0.00000000000E+00 0. -1.
         11    1    4    4    0    0  0.86156751669E+01  0.40761219241E+02 -0.36449482951E+02  0.55355863827E+02  0.00000000000E+00 0.  1.
</event>
<event>
 8    1  0.6862919E-009  0.5041039E+02  0.7561462E-02  0.1443140E+00
         -2   -1    0    0    0  501 -0.00000000000E+00  0.00000000000E+00  0.39206999680E+02  0.39206999680E+02  0.00000000000E+00 0.  1.
          2   -1    0    0  501    0  0.00000000000E+00 -0.00000000000E+00 -0.32776006012E+03  0.32776006012E+03  0.00000000000E+00 0. -1.
         25    2    1    2    0    0 -0.35158953828E+01  0.33304493848E+01 -0.20532940705E+03  0.24048409865E+03  0.12509589478E+03 0.  0.
         23    2    1    2    0    0  0.35158953828E+01 -0.33304493848E+01 -0.83223653394E+02  0.12648296116E+03  0.95122602808E+02 0.  0.
          5    1    3    3  502    0 -0.71027348407E+01  0.30354368667E+02 -0.21014627387E+03  0.21248709458E+03  0.41800000000E+01 0.  1.
         -5    1    3    3    0  502  0.35868394578E+01 -0.27023919282E+02  0.48168668285E+01  0.27997004066E+02  0.41800000000E+01 0.  1.
        -11    1    4    4    0    0 -0.16322738249E+02  0.87907954234E+01  0.16051055323E+02  0.24522362143E+02  0.00000000000E+00 0.  1.
         11    1    4    4    0    0  0.19838633632E+02 -0.12121244808E+02 -0.99274708717E+02  0.10196059901E+03  0.00000000000E+00 0. -1.
</event>
<event>
 8    1  0.6862919E-009  0.1410608E+03  0.7561462E-02  0.1211909E+00
          2   -1    0    0  501    0  0.00000000000E+00  0.00000000000E+00  0.11815922511E+04  0.11815922511E+04  0.00000000000E+00 0. -1.
         -2   -1    0    0    0  501 -0.00000000000E+00 -0.00000000000E+00 -0.18961010236E+02  0.18961010236E+02  0.00000000000E+00 0.  1.
         25    2    1    2    0    0  0.32613831722E+02  0.92070165863E+02  0.77049601902E+03  0.78667014095E+03  0.12508084533E+03 0.  0.
         23    2    1    2    0    0 -0.32613831722E+02 -0.92070165863E+02  0.39213522187E+03  0.41388312041E+03  0.89379123244E+02 0.  0.
          5    1    3    3  502    0 -0.42576402331E+02  0.33664635395E+02  0.16574560338E+03  0.17445668560E+03  0.41800000000E+01 0. -1.
         -5    1    3    3    0  502  0.75190234053E+02  0.58405530468E+02  0.60475041564E+03  0.61221345535E+03  0.41800000000E+01 0. -1.
        -11    1    4    4    0    0 -0.22524264940E+01 -0.10077308975E+03  0.30125726019E+03  0.31767314312E+03  0.00000000000E+00 0.  1.
         11    1    4    4    0    0 -0.30361405228E+02  0.87029238909E+01  0.90877961677E+02  0.96209977290E+02  0.00000000000E+00 0. -1.
</event>
<event>
 8    1  0.6862919E-009  0.1209228E+03  0.7561462E-02  0.1241582E+00
          1   -1    0    0  501    0  0.00000000000E+00  0.00000000000E+00  0.53883051269E+03  0.53883051269E+03  0.00000000000E+00 0. -1.
         -1   -1    0    0    0  501 -0.00000000000E+00 -0.00000000000E+00 -0.41151109095E+02  0.41151109095E+02  0.00000000000E+00 0.  1.
         25    2    1    2    0    0 -0.85092756854E+02 -0.47171110322E+02  0.20955634555E+03  0.26272857049E+03  0.12508616579E+03 0.  0.
         23    2    1    2    0    0  0.85092756854E+02  0.47171110322E+02  0.28812305805E+03  0.31725305130E+03  0.90380922009E+02 0.  0.
          5    1    3    3  502    0 -0.15815621621E+02  0.13340485293E+02 -0.10942488774E+02  0.23776309547E+02  0.41800000000E+01 0.  1.
         -5    1    3    3    0  502 -0.69277135233E+02 -0.60511595615E+02  0.22049883432E+03  0.23895226094E+03  0.41800000000E+01 0.  1.
        -11    1    4    4    0    0  0.16330764386E+02 -0.24430455772E+02  0.10401301381E+03  0.10808444882E+03  0.00000000000E+00 0. -1.
         11    1    4    4    0    0  0.68761992468E+02  0.71601566094E+02  0.18411004424E+03  0.20916860248E+03  0.00000000000E+00 0.  1.
</event>
<event>
 8    1  0.6862919E-009  0.1601181E+03  0.7561462E-02  0.1188563E+00
          1   -1    0    0  501    0  0.00000000000E+00  0.00000000000E+00  0.94992702938E+02  0.94992702938E+02  0.00000000000E+00 0. -1.
         -1   -1    0    0    0  501 -0.00000000000E+00 -0.00000000000E+00 -0.32454896561E+03  0.32454896561E+03  0.00000000000E+00 0.  1.
         25    2    1    2    0    0 -0.17805763690E+02 -0.12312810994E+03 -0.52169954392E+02  0.18397675988E+03  0.12509263510E+03 0.  0.
         23    2    1    2    0    0  0.17805763690E+02  0.12312810994E+03 -0.17738630828E+03  0.23556490867E+03  0.92451863972E+02 0.  0.
          5    1    3    3  502    0  0.34373406764E+02 -0.11874137990E+03 -0.40678615910E+02  0.13020471798E+03  0.41800000000E+01 0. -1.
         -5    1    3    3    0  502 -0.52179170454E+02 -0.43867300477E+01 -0.11491338481E+02  0.53772041898E+02  0.41800000000E+01 0. -1.
        -11    1    4    4    0    0 -0.27097583222E+02  0.28772805724E+02 -0.14617136975E+02  0.42140408862E+02  0.00000000000E+00 0. -1.
         11    1    4    4    0    0  0.44903346913E+02  0.94355304219E+02 -0.16276917130E+03  0.19342449980E+03  0.00000000000E+00 0.  1.
</event>
<event>
 8    1  0.6862919E-009  0.1022626E+03  0.7561462E-02  0.1275609E+00
         -1   -1    0    0    0  501 -0.00000000000E+00  0.00000000000E+00  0.32994226058E+02  0.32994226058E+02  0.00000000000E+00 0.  1.
          1   -1    0    0  501    0  0.00000000000E+00 -0.00000000000E+00 -0.54583891764E+03  0.54583891764E+03  0.00000000000E+00 0. -1.
         25    2    1    2    0    0 -0.36254551095E+02  0.24360345790E+02 -0.42327357272E+03  0.44352607865E+03  0.12508815353E+03 0.  0.
         23    2    1    2    0    0  0.36254551095E+02 -0.24360345790E+02 -0.89571118861E+02  0.13530706505E+03  0.91527032057E+02 0.  0.
          5    1    3    3  502    0 -0.18612138218E+02 -0.39459754424E+02 -0.60338410873E+02  0.74576672860E+02  0.41800000000E+01 0.  1.
         -5    1    3    3    0  502 -0.17642412877E+02  0.63820100214E+02 -0.36293516185E+03  0.36894940579E+03  0.41800000000E+01 0.  1.
        -11    1    4    4    0    0  0.15900938088E+02 -0.55175286609E+02 -0.77500191865E+02  0.96454299145E+02  0.00000000000E+00 0.  1.
         11    1    4    4    0    0  0.20353613007E+02  0.30814940819E+02 -0.12070926996E+02  0.38852765908E+02  0.00000000000E+00 0. -1.
</event>
<event>
 8    1  0.6862919E-009  0.1472820E+03  0.7561462E-02  0.1203853E+00
          2   -1    0    0  501    0  0.00000000000E+00  0.00000000000E+00  0.74890870016E+03  0.74890870016E+03  0.00000000000E+00 0.  1.
         -2   -1    0    0    0  501 -0.00000000000E+00 -0.00000000000E+00 -0.32241179413E+02  0.32241179413E+02  0.00000000000E+00 0. -1.
         25    2    1    2    0    0  0.10610573253E+03 -0.39694970425E+02  0.44917216534E+03  0.47983270170E+03  0.12509864250E+03 0.  0.
         23    2    1    2    0    0 -0.10610573253E+03  0.39694970425E+02  0.26749535541E+03  0.30131717787E+03  0.80025991798E+02 0.  0.
          5    1    3    3  502    0  0.12784572014E+03 -0.28373918455E+02  0.42653994239E+03  0.44621004276E+03  0.41800000000E+01 0.  1.
         -5    1    3    3    0  502 -0.21739987607E+02 -0.11321051970E+02  0.22632222952E+02  0.33622658946E+02  0.41800000000E+01 0.  1.
        -11    1    4    4    0    0 -0.21483712747E+02 -0.24407348107E+02  0.60264720881E+02  0.68477040955E+02  0.00000000000E+00 0.  1.
         11    1    4    4    0    0 -0.84622019781E+02  0.64102318532E+02  0.20723063453E+03  0.23284013692E+03  0.00000000000E+00 0. -1.
</event>
<event>
 8    1  0.6862919E-009  0.1237514E+03  0.7561462E-02  0.1237034E+00
          1   -1    0    0  501    0  0.00000000000E+00  0.00000000000E+00  0.39756194431E+03  0.39756194431E+03  0.00000000000E+00 0. -1.
         -1   -1    0    0    0  501 -0.00000000000E+00 -0.00000000000E+00 -0.57964491243E+02  0.57964491243E+02  0.00000000000E+00 0.  1.
         25    2    1    2    0    0 -0.66620295743E+02  0.84102917095E+02  0.18325573712E+03  0.24645951330E+03  0.12509221415E+03 0.  0.
         23    2    1    2    0    0  0.66620295743E+02 -0.84102917095E+02  0.15634171595E+03  0.20906692225E+03  0.88060668664E+02 0.  0.
          5    1    3    3  502    0 -0.41780987017E+02  0.21927175060E+01  0.14789353614E+03  0.15375444487E+03  0.41800000000E+01 0.  1.
         -5    1    3    3    0  502 -0.24839308726E+02  0.81910199589E+02  0.35362200981E+02  0.92705068431E+02  0.41800000000E+01 0.  1.
        -11    1    4    4    0    0  0.29714927549E+02 -0.20448658928E+01  0.13057606270E+01  0.29813812345E+02  0.00000000000E+00 0.  1.
         11    1    4    4    0    0  0.36905368194E+02 -0.82058051202E+02  0.15503595532E+03  0.17925310991E+03  0.00000000000E+00 0. -1.
</event>
<event>
 8    1  0.6862919E-009  0.1028254E+03  0.7561462E-02  0.1274464E+00
         -2   -1    0    0    0  501 -0.00000000000E+00  0.00000000000E+00  0.27620242528E+03  0.27620242528E+03  0.00000000000E+00 0.  1.
          2   -1    0    0  501    0  0.00000000000E+00 -0.00000000000E+00 -0.57302820573E+02  0.57302820573E+02  0.00000000000E+00 0. -1.
         25    2    1    2    0    0 -0.53414725229E+02  0.95819381853E+01  0.81511950974E+02  0.15886102613E+03  0.12509069134E+03 0.  0.
         23    2    1    2    0    0  0.53414725229E+02 -0.95819381853E+01  0.13738765373E+03  0.17464421972E+03  0.93168072186E+02 0.  0.
          5    1    3    3  502    0  0.21738097974E+02  0.79255087341E+00 -0.21572360331E+02  0.30919446481E+02  0.41800000000E+01 0. -1.
         -5    1    3    3    0  502 -0.75152823203E+02  0.87893873118E+01  0.10308431130E+03  0.12794157964E+03  0.41800000000E+01 0. -1.
        -11    1    4    4    0    0 -0.26335851077E+02 -0.94180364647E+01  0.32428631694E+02  0.42823972449E+02  0.00000000000E+00 0. -1.
         11    1    4    4    0    0  0.79750576306E+02 -0.16390172054E+00  0.10495902204E+03  0.13182024727E+03  0.00000000000E+00 0.  1.
</event>
<event>
 8    1  0.6862919E-009  0.8133399E+02  0.7561462E-02  0.1325308E+00
         -2   -1    0    0    0  501 -0.00000000000E+00  0.00000000000E+00  0.58479511295E+02  0.58479511295E+02  0.00000000000E+00 0.  1.
          2   -1    0    0  501    0  0.00000000000E+00 -0.00000000000E+00 -0.22916307484E+03  0.22916307484E+03  0.00000000000E+00 0. -1.
         25    2    1    2    0    0  0.14240425097E+02  0.17775830578E+02 -0.64367146151E+02  0.14250963052E+03  0.12508835049E+03 0.  0.
         23    2    1    2    0    0 -0.14240425097E+02 -0.17775830578E+02 -0.10631641739E+03  0.14513295561E+03  0.96133367448E+02 0.  0.
          5    1    3    3  502    0  0.56704943292E+02  0.26844413856E+02  0.22076530414E+01  0.62915969999E+02  0.41800000000E+01 0. -1.
         -5    1    3    3    0  502 -0.42464518195E+02 -0.90685832778E+01 -0.66574799192E+02  0.79593660524E+02  0.41800000000E+01 0. -1.
        -11    1    4    4    0    0  0.27246450939E+01  0.17136603229E+02  0.11679537043E+02  0.20916463531E+02  0.00000000000E+00 0.  1.
         11    1    4    4    0    0 -0.16965070191E+02 -0.34912433807E+02 -0.11799595444E+03  0.12421649208E+03  0.00000000000E+00 0. -1.
</event>
<event>
 8    1  0.6862919E-009  0.7162938E+02  0.7561462E-02  0.1354638E+00
         -2   -1    0    0    0  501 -0.00000000000E+00  0.00000000000E+00  0.12542987107E+03  0.12542987107E+03  0.00000000000E+00 0.  1.
          2   -1    0    0  501    0  0.00000000000E+00 -0.00000000000E+00 -0.10393187563E+03  0.10393187563E+03  0.00000000000E+00 0. -1.
         25    2    1    2    0    0 -0.12496844697E+02  0.40882523614E+02 -0.29480081292E+01  0.13222320046E+03  0.12508689829E+03 0.  0.
         23    2    1    2    0    0  0.12496844697E+02 -0.40882523614E+02  0.24446003566E+02  0.97138546236E+02  0.83730151141E+02 0.  0.
          5    1    3    3  502    0 -0.18432683593E+02  0.19612370870E+02  0.59724749850E+02  0.65642418147E+02  0.41800000000E+01 0. -1.
         -5    1    3    3    0  502  0.59358388958E+01  0.21270152744E+02 -0.62672757979E+02  0.66580782316E+02  0.41800000000E+01 0. -1.
        -11    1    4    4    0    0  0.46857921419E+02 -0.35453441122E+02  0.10654357632E+02  0.59717054713E+02  0.00000000000E+00 0.  1.
         11    1    4    4    0    0 -0.34361076722E+02 -0.54290824921E+01  0.13791645934E+02  0.37421491523E+02  0.00000000000E+00 0. -1.
</event>
<event>
 8    1  0.6862919E-009  0.1448654E+03  0.7561462E-02  0.1206928E+00
         -2   -1    0    0    0  501 -0.00000000000E+00  0.00000000000E+00  0.43987868824E+02  0.43987868824E+02  0.00000000000E+00 0.  1.
          2   -1    0    0  501    0  0.00000000000E+00 -0.00000000000E+00 -0.72582013525E+03  0.72582013525E+03  0.00000000000E+00 0. -1.
         25    2    1    2    0    0  0.13475297955E+03 -0.26965073942E+02 -0.42848808891E+03  0.46704790545E+03  0.12508486292E+03 0.  0.
         23    2    1    2    0    0 -0.13475297955E+03  0.26965073942E+02 -0.25334417751E+03  0.30276009862E+03  0.92708814748E+02 0.  0.
          5    1    3    3  502    0  0.44414736552E+02 -0.21722686656E+02 -0.29114721340E+02  0.57529847360E+02  0.41800000000E+01 0. -1.
         -5    1    3    3    0  502  0.90338242996E+02 -0.52423872857E+01 -0.39937336757E+03  0.40951805809E+03  0.41800000000E+01 0. -1.
        -11    1    4    4    0    0 -0.11916384567E+03  0.91528254400E+00 -0.24307107172E+03  0.27071092657E+03  0.00000000000E+00 0. -1.
         11    1    4    4    0    0 -0.15589133880E+02  0.26049791398E+02 -0.10273105790E+02  0.32049172057E+02  0.00000000000E+00 0.  1.
</event>
<event>
 8    1  0.6862919E-009  0.1820459E+03  0.7561462E-02  0.1165838E+00
          2   -1    0    0  501    0  0.00000000000E+00  0.00000000000E+00  0.74299699585E+03  0.74299699585E+03  0.00000000000E+00 0. -1.
         -2   -1    0    0    0  501 -0.00000000000E+00 -0.00000000000E+00 -0.44999538102E+02  0.44999538102E+02  0.00000000000E+00 0.  1.
         25    2    1    2    0    0 -0.10397226181E+03  0.10264124703E+03  0.38403489084E+03  0.42950653724E+03  0.12509041265E+03 0.  0.
         23    2    1    2    0    0  0.10397226181E+03 -0.10264124703E+03  0.31396256691E+03  0.35848999671E+03  0.92720696195E+02 0.  0.
          5    1    3    3  502    0 -0.22571870984E+02 -0.29190335201E+02  0.82346110596E+02  0.90332271969E+02  0.41800000000E+01 0. -1.
         -5    1    3    3    0  502 -0.81400390825E+02  0.13183158223E+03  0.30168878024E+03  0.33917426527E+03  0.41800000000E+01 0. -1.
        -11    1    4    4    0    0  0.70081696976E+02 -0.69241650867E+01  0.10929001963E+03  0.13001421731E+03  0.00000000000E+00 0.  1.
         11    1    4    4    0    0  0.33890564833E+02 -0.95717081941E+02  0.20467254728E+03  0.22847577940E+03  0.00000000000E+00 0. -1.
</event>
<event>
 8    1  0.6862919E-009  0.1324689E+03  0.7561462E-02  0.1223838E+00
          3   -1    0    0  501    0  0.00000000000E+00  0.00000000000E+00  0.33652694910E+03  0.33652694910E+03  0.00000000000E+00 0. -1.
         -3   -1    0    0    0  501 -0.00000000000E+00 -0.00000000000E+00 -0.61541105857E+02  0.61541105857E+02  0.00000000000E+00 0.  1.
         25    2    1    2    0    0  0.39097505666E+02 -0.82261632904E+02  0.11737052167E+03  0.19421100450E+03  0.12508590533E+03 0.  0.
         23    2    1    2    0    0 -0.39097505666E+02  0.82261632904E+02  0.15761532157E+03  0.20385705046E+03  0.91757921895E+02 0.  0.
          5    1    3    3  502    0 -0.44262806316E+02 -0.14161342928E+02  0.41572405345E+02  0.62493815235E+02  0.41800000000E+01 0.  1.
         -5    1    3    3    0  502  0.83360311982E+02 -0.68100289976E+02  0.75798116328E+02  0.13171718926E+03  0.41800000000E+01 0.  1.
        -11    1    4    4    0    0 -0.52360168900E+02  0.38950858788E+02  0.37003268657E+02  0.75019987862E+02  0.00000000000E+00 0.  1.
         11    1    4    4    0    0  0.13262663234E+02  0.43310774117E+02  0.12061205291E+03  0.12883706259E+03  0.00000000000E+00 0. -1.
</event>
<event>
 8    1  0.6862919E-009  0.1368935E+03  0.7561462E-02  0.1217571E+00
          1   -1    0    0  501    0  0.00000000000E+00  0.00000000000E+00  0.30328824694E+02  0.30328824694E+02  0.00000000000E+00 0. -1.
         -1   -1    0    0    0  501 -0.00000000000E+00 -0.00000000000E+00 -0.73361166424E+03  0.73361166424E+03  0.00000000000E+00 0.  1.
         25    2    1    2    0    0  0.57330691473E+02  0.80480811432E+02 -0.45122495031E+03  0.47855521175E+03  0.12508863145E+03 0.  0.
         23    2    1    2    0    0 -0.57330691473E+02 -0.80480811432E+02 -0.25205788923E+03  0.28538527718E+03  0.90264099806E+02 0.  0.
          5    1    3    3  502    0  0.80003574441E+02  0.28577960963E+02 -0.15376880752E+03  0.17572589548E+03  0.41800000000E+01 0.  1.
         -5    1    3    3    0  502 -0.22672882968E+02  0.51902850469E+02 -0.29745614279E+03  0.30282931627E+03  0.41800000000E+01 0.  1.
        -11    1    4    4    0    0 -0.35173492464E+01 -0.77986458847E+02 -0.12494236186E+03  0.14732567087E+03  0.00000000000E+00 0. -1.
         11    1    4    4    0    0 -0.53813342227E+02 -0.24943525842E+01 -0.12711552737E+03  0.13805960631E+03  0.00000000000E+00 0.  1.
</event>
<event>
 8    1  0.6862919E-009  0.1248212E+03  0.7561462E-02  0.1235349E+00
          1   -1    0    0  501    0  0.00000000000E+00  0.00000000000E+00  0.40542251465E+03  0.40542251465E+03  0.00000000000E+00 0. -1.
         -1   -1    0    0    0  501 -0.00000000000E+00 -0.00000000000E+00 -0.49531475661E+02  0.49531475661E+02  0.00000000000E+00 0.  1.
         25    2    1    2    0    0 -0.63559008101E+02  0.65635012866E+02  0.17972568785E+03  0.23727235942E+03  0.12509655170E+03 0.  0.
         23    2    1    2    0    0  0.63559008101E+02 -0.65635012866E+02  0.17616535115E+03  0.21768163090E+03  0.89461494853E+02 0.  0.
          5    1    3    3  502    0  0.19444287405E+02 -0.17690475246E+02  0.75548130149E+02  0.80100097354E+02  0.41800000000E+01 0.  1.
         -5    1    3    3    0  502 -0.83003295506E+02  0.83325488111E+02  0.10417755770E+03  0.15717226206E+03  0.41800000000E+01 0.  1.
        -11    1    4    4    0    0  0.87459370059E+00 -0.35983680588E+02  0.12872585886E+03  0.13366352129E+03  0.00000000000E+00 0. -1.
         11    1    4    4    0    0  0.62684414401E+02 -0.29651332278E+02  0.47439492284E+02  0.84018109612E+02  0.00000000000E+00 0.  1.
</event>
<event>
 8    1  0.6862919E-009  0.1137278E+03  0.7561462E-02  0.1253818E+00
          4   -1    0    0  501    0  0.00000000000E+00  0.00000000000E+00  0.88541414841E+02  0.88541414841E+02  0.00000000000E+00 0. -1.
         -4   -1    0    0    0  501 -0.00000000000E+00 -0.00000000000E+00 -0.15740127319E+03  0.15740127319E+03  0.00000000000E+00 0.  1.
         25    2    1    2    0    0 -0.18360284818E+02 -0.40643603247E+02 -0.17440242848E+02  0.13394225995E+03  0.12508942555E+03 0.  0.
         23    2    1    2    0    0  0.18360284818E+02  0.40643603247E+02 -0.51419615505E+02  0.11200042809E+03  0.88944457333E+02 0.  0.
          5    1    3    3  502    0  0.20629701165E+02 -0.75586253116E+02 -0.21226406775E+02  0.81282833211E+02  0.41800000000E+01 0. -1.
         -5    1    3    3    0  502 -0.38989985983E+02  0.34942649869E+02  0.37861639270E+01  0.52659426735E+02  0.41800000000E+01 0. -1.
        -11    1    4    4    0    0  0.15734874531E+02 -0.25667740481E+02 -0.29396794725E+02  0.42078387778E+02  0.00000000000E+00 0.  1.
         11    1    4    4    0    0  0.26254102871E+01  0.66311343729E+02 -0.22022820780E+02  0.69922040312E+02  0.00000000000E+00 0. -1.
</event>
<event>
 8    1  0.6862919E-009  0.9906324E+02  0.7561462E-02  0.1282278E+00
          2   -1    0    0  501    0  0.00000000000E+00  0.00000000000E+00  0.14078561825E+03  0.14078561825E+03  0.00000000000E+00 0. -1.
         -2   -1    0    0    0  501 -0.00000000000E+00 -0.00000000000E+00 -0.93951769880E+02  0.93951769880E+02  0.00000000000E+00 0.  1.
         25    2    1    2    0    0  0.16730504327E+02 -0.12012437266E+02  0.56887045755E+02  0.13894634421E+03  0.12508294117E+03 0.  0.
         23    2    1    2    0    0 -0.16730504327E+02  0.12012437266E+02 -0.10053197382E+02  0.95791043920E+02  0.93008864597E+02 0.  0.
          5    1    3    3  502    0 -0.13276786439E+02  0.40224933884E+02 -0.14936652205E+02  0.45109803183E+02  0.41800000000E+01 0. -1.
         -5    1    3    3    0  502  0.30007290766E+02 -0.52237371150E+02  0.71823697960E+02  0.93836541030E+02  0.41800000000E+01 0. -1.
        -11    1    4    4    0    0 -0.31723033302E+02  0.47231694070E+02 -0.39870095659E+01  0.57035778349E+02  0.00000000000E+00 0. -1.
         11    1    4    4    0    0  0.14992528975E+02 -0.35219256804E+02 -0.60661878165E+01  0.38755265571E+02  0.00000000000E+00 0.  1.
</event>
<event>
 8    1  0.6862919E-009  0.1597934E+03  0.7561462E-02  0.1188930E+00
         -1   -1    0    0    0  501 -0.00000000000E+00  0.00000000000E+00  0.35893774671E+03  0.35893774671E+03  0.00000000000E+00 0.  1.
          1   -1    0    0  501    0  0.00000000000E+00 -0.00000000000E+00 -0.10627768351E+03  0.10627768351E+03  0.00000000000E+00 0. -1.
         25    2    1    2    0    0 -0.10042300356E+03 -0.69045060381E+02  0.64829374734E+01  0.17476369419E+03  0.12509324651E+03 0.  0.
         23    2    1    2    0    0  0.10042300356E+03  0.69045060381E+02  0.24617712573E+03  0.29045173604E+03  0.94377082666E+02 0.  0.
          5    1    3    3  502    0 -0.36596972429E+02  0.31031813343E+02 -0.21492944830E+02  0.52742117020E+02  0.41800000000E+01 0. -1.
         -5    1    3    3    0  502 -0.63826031127E+02 -0.10007687372E+03  0.27975882304E+02  0.12202157717E+03  0.41800000000E+01 0. -1.
        -11    1    4    4    0    0  0.12766191809E+02 -0.22523472363E+02  0.58537164187E+02  0.64006890658E+02  0.00000000000E+00 0.  1.
         11    1    4    4    0    0  0.87656811746E+02  0.91568532744E+02  0.18763996154E+03  0.22644484538E+03  0.00000000000E+00 0. -1.
</event>
<event>
 8    1  0.6862919E-009  0.1341201E+03  0.7561462E-02  0.1221467E+00
          1   -1    0    0  501    0  0.00000000000E+00  0.00000000000E+00  0.34307441977E+03  0.34307441977E+03  0.00000000000E+00 0. -1.
         -1   -1    0    0    0  501 -0.00000000000E+00 -0.00000000000E+00 -0.86365738655E+02  0.86365738655E+02  0.00000000000E+00 0.  1.
         25    2    1    2    0    0  0.67116860846E+02 -0.55224481764E+02  0.10359532317E+02  0.15267383392E+03  0.12509022048E+03 0.  0.
         23    2    1    2    0    0 -0.67116860846E+02  0.55224481764E+02  0.24634914880E+03  0.27676632450E+03  0.91418153935E+02 0.  0.
          5    1    3    3  502    0  0.30701758336E+02  0.36208501004E+02 -0.16734692001E+02  0.50509165764E+02  0.41800000000E+01 0.  1.
         -5    1    3    3    0  502  0.36415102510E+02 -0.91432982768E+02  0.27094224318E+02  0.10216466816E+03  0.41800000000E+01 0.  1.
        -11    1    4    4    0    0 -0.25254388452E+02  0.72513512746E+02  0.11919611049E+03  0.14178753973E+03  0.00000000000E+00 0.  1.
         11    1    4    4    0    0 -0.41862472394E+02 -0.17289030982E+02  0.12715303831E+03  0.13497878478E+03  0.00000000000E+00 0. -1.
</event>
<event>
 8    1  0.6862919E-009  0.1244091E+03  0.7561462E-02  0.1235996E+00
          2   -1    0    0  501    0  0.00000000000E+00  0.00000000000E+00  0.73488953641E+03  0.73488953641E+03  0.00000000000E+00 0. -1.
         -2   -1    0    0    0  501 -0.00000000000E+00 -0.00000000000E+00 -0.28907605185E+02  0.28907605185E+02  0.00000000000E+00 0.  1.
         25    2    1    2    0    0  0.43787970207E+02 -0.77732117628E+02  0.47427325442E+03  0.49853869742E+03  0.12508414979E+03 0.  0.
         23    2    1    2    0    0 -0.43787970207E+02  0.77732117628E+02  0.23170867681E+03  0.26525844417E+03  0.93345931084E+02 0.  0.
          5    1    3    3  502    0  0.34996125345E+02  0.26526270324E+02  0.20344936307E+03  0.20817657779E+03  0.41800000000E+01 0. -1.
         -5    1    3    3    0  502  0.87918448625E+01 -0.10425838795E+03  0.27082389135E+03  0.29036211964E+03  0.41800000000E+01 0. -1.
        -11    1    4    4    0    0 -0.23502849205E+02  0.44032642824E+01  0.28458749898E+01  0.24080524528E+02  0.00000000000E+00 0.  1.
         11    1    4    4    0    0 -0.20285121003E+02  0.73328853346E+02  0.22886280182E+03  0.24117791965E+03  0.00000000000E+00 0. -1.
</event>
<event>
 8    1  0.6862919E-009  0.1633116E+03  0.7561462E-02  0.1185008E+00
         -2   -1    0    0    0  501 -0.00000000000E+00  0.00000000000E+00  0.36816862567E+02  0.36816862567E+02  0.00000000000E+00 0.  1.
          2   -1    0    0  501    0  0.00000000000E+00 -0.00000000000E+00 -0.78880239932E+03  0.78880239932E+03  0.00000000000E+00 0. -1.
         25    2    1    2    0    0 -0.40833357236E+02 -0.12427108970E+03 -0.38630191292E+03  0.42660187426E+03  0.12509725973E+03 0.  0.
         23    2    1    2    0    0  0.40833357236E+02  0.12427108970E+03 -0.36568362383E+03  0.39901738763E+03  0.91540680007E+02 0.  0.
          5    1    3    3  502    0 -0.78280887540E+02 -0.81494853183E+02 -0.31873904089E+03  0.33820312984E+03  0.41800000000E+01 0.  1.
         -5    1    3    3    0  502  0.37447530304E+02 -0.42776236514E+02 -0.67562872033E+02  0.88398744411E+02  0.41800000000E+01 0.  1.
        -11    1    4    4    0    0  0.40837131137E+01  0.11939825715E+03 -0.24175570379E+03  0.26966356973E+03  0.00000000000E+00 0.  1.
         11    1    4    4    0    0  0.36749644123E+02  0.48728325429E+01 -0.12392792004E+03  0.12935381790E+03  0.00000000000E+00 0. -1.
</event>
<event>
 8    1  0.6862919E-009  0.1136341E+03  0.7561462E-02  0.1253984E+00
          1   -1    0    0  501    0  0.00000000000E+00  0.00000000000E+00  0.42233826346E+03  0.42233826346E+03  0.00000000000E+00 0. -1.
         -1   -1    0    0    0  501 -0.00000000000E+00 -0.00000000000E+00 -0.31576524958E+02  0.31576524958E+02  0.00000000000E+00 0.  1.
         25    2    1    2    0    0 -0.41319618137E+00  0.34645552202E+02  0.22848470180E+03  0.26278011059E+03  0.12509053741E+03 0.  0.
         23    2    1    2    0    0  0.41319618137E+00 -0.34645552202E+02  0.16227703671E+03  0.19113467783E+03  0.94858544199E+02 0.  0.
          5    1    3    3  502    0 -0.39372856139E+02 -0.33026191883E+02  0.87484566980E+02  0.10154788531E+03  0.41800000000E+01 0.  1.
         -5    1    3    3    0  502  0.38959659958E+02  0.67671744085E+02  0.14100013482E+03  0.16123222528E+03  0.41800000000E+01 0.  1.
        -11    1    4    4    0    0 -0.44396993725E+02 -0.72363371656E+01  0.50492819288E+02  0.67623830319E+02  0.00000000000E+00 0.  1.
         11    1    4    4    0    0  0.44810189906E+02 -0.27409215036E+02  0.11178421742E+03  0.12351084751E+03  0.00000000000E+00 0. -1.
</event>
<event>
 8    1  0.6862919E-009  0.1952473E+03  0.7561462E-02  0.1153812E+00
          1   -1    0    0  501    0  0.00000000000E+00  0.00000000000E+00  0.37071762501E+03  0.37071762501E+03  0.00000000000E+00 0. -1.
         -1   -1    0    0    0  501 -0.00000000000E+00 -0.00000000000E+00 -0.17562794077E+03  0.17562794077E+03  0.00000000000E+00 0.  1.
         25    2    1    2    0    0 -0.16604337987E+03  0.68591868029E+02  0.25409282082E+03  0.33538941628E+03  0.12509056961E+03 0.  0.
         23    2    1    2    0    0  0.16604337987E+03 -0.68591868029E+02 -0.59003136578E+02  0.21095614950E+03  0.93519401881E+02 0.  0.
          5    1    3    3  502    0 -0.61133495450E+02 -0.21351430648E+02  0.14642449534E+03  0.16015864976E+03  0.41800000000E+01 0. -1.
         -5    1    3    3    0  502 -0.10490988442E+03  0.89943298678E+02  0.10766832547E+03  0.17523076652E+03  0.41800000000E+01 0. -1.
        -11    1    4    4    0    0  0.87749485590E+02 -0.64589795355E+02  0.59904121665E+01  0.10912240340E+03  0.00000000000E+00 0. -1.
         11    1    4    4    0    0  0.78293894275E+02 -0.40020726747E+01 -0.64993548745E+02  0.10183374610E+03  0.00000000000E+00 0.  1.
</event>
<event>
 8    1  0.6862919E-009  0.9333445E+02  0.7561462E-02  0.1294972E+00
         -2   -1    0    0    0  501 -0.00000000000E+00  0.00000000000E+00  0.35767062262E+02  0.35767062262E+02  0.00000000000E+00 0.  1.
          2   -1    0    0  501    0  0.00000000000E+00 -0.00000000000E+00 -0.52679161113E+03  0.52679161113E+03  0.00000000000E+00 0. -1.
         25    2    1    2    0    0 -0.19391583644E+02  0.51377570220E+02 -0.40049681631E+03  0.42315559030E+03  0.12508903025E+03 0.  0.
         23    2    1    2    0    0  0.19391583644E+02 -0.51377570220E+02 -0.90527732557E+02  0.13940308309E+03  0.90676683750E+02 0.  0.
          5    1    3    3  502    0 -0.55159027922E+02 -0.85491765021E+01 -0.26316270399E+03  0.26904960129E+03  0.41800000000E+01 0. -1.
         -5    1    3    3    0  502  0.35767444278E+02  0.59926746722E+02 -0.13733411232E+03  0.15410598901E+03  0.41800000000E+01 0. -1.
        -11    1    4    4    0    0  0.71892280183E+00 -0.37522243966E+02 -0.10534587541E+03  0.11183107399E+03  0.00000000000E+00 0. -1.
         11    1    4    4    0    0  0.18672660842E+02 -0.13855326254E+02  0.14818142856E+02  0.27572009108E+02  0.00000000000E+00 0.  1.
</event>
<event>
 8    1  0.6862919E-009  0.1512068E+03  0.7561462E-02  0.1198998E+00
          1   -1    0    0  501    0  0.00000000000E+00  0.00000000000E+00  0.36012272577E+03  0.36012272577E+03  0.00000000000E+00 0. -1.
         -1   -1    0    0    0  501 -0.00000000000E+00 -0.00000000000E+00 -0.85047954836E+02  0.85047954836E+02  0.00000000000E+00 0.  1.
         25    2    1    2    0    0 -0.67650477271E+01 -0.10859280594E+03  0.25022660941E+03  0.30016211480E+03  0.12508307532E+03 0.  0.
         23    2    1    2    0    0  0.67650477271E+01  0.10859280594E+03  0.24848161528E+02  0.14500856581E+03  0.92584500066E+02 0.  0.
          5    1    3    3  502    0  0.58202656901E+02 -0.52972200159E+02  0.10094297655E+03  0.12806467185E+03  0.41800000000E+01 0. -1.
         -5    1    3    3    0  502 -0.64967704628E+02 -0.55620605786E+02  0.14928363286E+03  0.17209744295E+03  0.41800000000E+01 0. -1.
        -11    1    4    4    0    0 -0.28482967421E+02  0.54795777823E+01  0.21288197537E+02  0.35979057244E+02  0.00000000000E+00 0.  1.
         11    1    4    4    0    0  0.35248015148E+02  0.10311322816E+03  0.35599639910E+01  0.10902950856E+03  0.00000000000E+00 0. -1.
</event>
<event>
 8    1  0.6862919E-009  0.6627512E+02  0.7561462E-02  0.1373238E+00
          1   -1    0    0  501    0  0.00000000000E+00  0.00000000000E+00  0.16254135016E+03  0.16254135016E+03  0.00000000000E+00 0. -1.
         -1   -1    0    0    0  501 -0.00000000000E+00 -0.00000000000E+00 -0.76437798019E+02  0.76437798019E+02  0.00000000000E+00 0.  1.
         25    2    1    2    0    0 -0.34913259060E+01  0.23697332306E+02  0.36551524939E+02  0.13250499879E+03  0.12509119799E+03 0.  0.
         23    2    1    2    0    0  0.34913259060E+01 -0.23697332306E+02  0.49552027199E+02  0.10647414939E+03  0.91145971787E+02 0.  0.
          5    1    3    3  502    0 -0.23258623781E+02 -0.35301531270E+01  0.76478772168E+02  0.80124281922E+02  0.41800000000E+01 0.  1.
         -5    1    3    3    0  502  0.19767297875E+02  0.27227485433E+02 -0.39927247229E+02  0.52380716867E+02  0.41800000000E+01 0.  1.
        -11    1    4    4    0    0  0.30459166830E+02  0.95695410224E+01  0.54705470325E+02  0.63340551331E+02  0.00000000000E+00 0. -1.
         11    1    4    4    0    0 -0.26967840924E+02 -0.33266873328E+02 -0.51534431264E+01  0.43133598056E+02  0.00000000000E+00 0.  1.
</event>
<event>
 8    1  0.6862919E-009  0.6950450E+02  0.7561462E-02  0.1361786E+00
          2   -1    0    0  501    0  0.00000000000E+00  0.00000000000E+00  0.24256545576E+03  0.24256545576E+03  0.00000000000E+00 0. -1.
         -2   -1    0    0    0  501 -0.00000000000E+00 -0.00000000000E+00 -0.53863125637E+02  0.53863125637E+02  0.00000000000E+00 0.  1.
         25    2    1    2    0    0  0.99901440977E+01 -0.33838146190E+02  0.89027001927E+02  0.15753751602E+03  0.12508972286E+03 0.  0.
         23    2    1    2    0    0 -0.99901440977E+01  0.33838146190E+02  0.99675328193E+02  0.13889106537E+03  0.90059612882E+02 0.  0.
          5    1    3    3  502    0  0.31789123189E+02 -0.31177720302E+02  0.11492833272E+03  0.12332312297E+03  0.41800000000E+01 0. -1.
         -5    1    3    3    0  502 -0.21798979091E+02 -0.26604258876E+01 -0.25901330794E+02  0.34214393056E+02  0.41800000000E+01 0. -1.
        -11    1    4    4    0    0  0.23130141473E+02 -0.18980018149E+01 -0.47219210006E+01  0.23683377998E+02  0.00000000000E+00 0.  1.
         11    1    4    4    0    0 -0.33120285570E+02  0.35736148005E+02  0.10439724919E+03  0.11520768737E+03  0.00000000000E+00 0. -1.
</event>
<event>
 8    1  0.6862919E-009  0.1864425E+03  0.7561462E-02  0.1161710E+00
          2   -1    0    0  501    0  0.00000000000E+00  0.00000000000E+00  0.41794961191E+03  0.41794961191E+03  0.00000000000E+00 0. -1.
         -2   -1    0    0    0  501 -0.00000000000E+00 -0.00000000000E+00 -0.99404747715E+02  0.99404747715E+02  0.00000000000E+00 0.  1.
         25    2    1    2    0    0 -0.26727486935E+02 -0.17032434004E+03  0.21623805862E+03  0.30352900606E+03  0.12508485182E+03 0.  0.
         23    2    1    2    0    0  0.26727486935E+02  0.17032434004E+03  0.10230680558E+03  0.21382535357E+03  0.74363028404E+02 0.  0.
          5    1    3    3  502    0  0.24264578157E+02 -0.30564586647E+02 -0.20841087251E+01  0.39303684551E+02  0.41800000000E+01 0. -1.
         -5    1    3    3    0  502 -0.50992065093E+02 -0.13975975339E+03  0.21832216734E+03  0.26422532151E+03  0.41800000000E+01 0. -1.
        -11    1    4    4    0    0  0.33120806567E+02  0.31094323769E+02  0.42321862596E+02  0.62088524317E+02  0.00000000000E+00 0. -1.
         11    1    4    4    0    0 -0.63933196316E+01  0.13923001627E+03  0.59984942979E+02  0.15173682925E+03  0.00000000000E+00 0.  1.
</event>
<event>
 8    1  0.6862919E-009  0.7181418E+02  0.7561462E-02  0.1354030E+00
         -2   -1    0    0    0  501 -0.00000000000E+00  0.00000000000E+00  0.18121114834E+03  0.18121114834E+03  0.00000000000E+00 0.  1.
          2   -1    0    0  501    0  0.00000000000E+00 -0.00000000000E+00 -0.90119611923E+02  0.90119611923E+02  0.00000000000E+00 0. -1.
         25    2    1    2    0    0  0.47851552102E+02  0.15656967137E+01  0.53426970185E+01  0.13404193718E+03  0.12508586677E+03 0.  0.
         23    2    1    2    0    0 -0.47851552102E+02 -0.15656967137E+01  0.85748839399E+02  0.13728882309E+03  0.95932971608E+02 0.  0.
          5    1    3    3  502    0  0.44907868718E+02  0.18704271040E+02  0.59522345489E+02  0.76986677032E+02  0.41800000000E+01 0.  1.
         -5    1    3    3    0  502  0.29436833840E+01 -0.17138574326E+02 -0.54179648471E+02  0.57055260145E+02  0.41800000000E+01 0.  1.
        -11    1    4    4    0    0 -0.25938200854E+02  0.29256397317E+02  0.91060529008E+02  0.99099682092E+02  0.00000000000E+00 0.  1.
         11    1    4    4    0    0 -0.21913351248E+02 -0.30822094031E+02 -0.53116896094E+01  0.38189140994E+02  0.00000000000E+00 0. -1.
</event>
<event>
 8    1  0.6862919E-009  0.1128461E+03  0.7561462E-02  0.1255388E+00
          2   -1    0    0  501    0  0.00000000000E+00  0.00000000000E+00  0.15963626515E+04  0.15963626515E+04  0.00000000000E+00 0. -1.
         -2   -1    0    0    0  501 -0.00000000000E+00 -0.00000000000E+00 -0.15147821454E+02  0.15147821454E+02  0.00000000000E+00 0.  1.
         25    2    1    2    0    0  0.17704980317E+02  0.48916741527E+02  0.13489379179E+04  0.13557239602E+04  0.12509051135E+03 0.  0.
         23    2    1    2    0    0 -0.17704980317E+02 -0.48916741527E+02  0.23227691215E+03  0.25578651274E+03  0.93636863747E+02 0.  0.
          5    1    3    3  502    0  0.17359378580E+02  0.83005670503E+02  0.59758568087E+03  0.60358711695E+03  0.41800000000E+01 0.  1.
         -5    1    3    3    0  502  0.34560173670E+00 -0.34088928976E+02  0.75135223704E+03  0.75213684328E+03  0.41800000000E+01 0.  1.
        -11    1    4    4    0    0 -0.94075258258E+01 -0.76787800802E+02  0.18095914194E+03  0.19680213146E+03  0.00000000000E+00 0. -1.
         11    1    4    4    0    0 -0.82974544910E+01  0.27871059274E+02  0.51317770202E+02  0.58984381277E+02  0.00000000000E+00 0.  1.
</event>
<event>
 8    1  0.6862919E-009  0.1085754E+03  0.7561462E-02  0.1263231E+00
          1   -1    0    0  501    0  0.00000000000E+00  0.00000000000E+00  0.79287700899E+02  0.79287700899E+02  0.00000000000E+00 0. -1.
         -1   -1    0    0    0  501 -0.00000000000E+00 -0.00000000000E+00 -0.20769048584E+03  0.20769048584E+03  0.00000000000E+00 0.  1.
         25    2    1    2    0    0  0.54833570499E+02  0.46809251547E+00 -0.27909329339E+02  0.13940122375E+03  0.12508729334E+03 0.  0.
         23    2    1    2    0    0 -0.54833570499E+02 -0.46809251547E+00 -0.10049345560E+03  0.14757696299E+03  0.93129403639E+02 0.  0.
          5    1    3    3  502    0  0.44108367900E+02  0.53694302008E+02 -0.44320777926E+02  0.82525329099E+02  0.41800000000E+01 0.  1.
         -5    1    3    3    0  502  0.10725202599E+02 -0.53226209493E+02  0.16411448586E+02  0.56875894652E+02  0.41800000000E+01 0.  1.
        -11    1    4    4    0    0 -0.68097375243E+02 -0.18621334068E+02 -0.35937629019E+02  0.79218178324E+02  0.00000000000E+00 0. -1.
         11    1    4    4    0    0  0.13263804744E+02  0.18153241553E+02 -0.64555826584E+02  0.68358784666E+02  0.00000000000E+00 0.  1.
</event>
<event>
 8    1  0.6862919E-009  0.1501976E+03  0.7561462E-02  0.1200230E+00
          2   -1    0    0  501    0  0.00000000000E+00  0.00000000000E+00  0.71679872599E+03  0.71679872599E+03  0.00000000000E+00 0. -1.
         -2   -1    0    0    0  501 -0.00000000000E+00 -0.00000000000E+00 -0.32515887338E+02  0.32515887338E+02  0.00000000000E+00 0.  1.
         25    2    1    2    0    0  0.32209794430E+02 -0.10277743657E+03  0.37004708848E+03  0.40519454734E+03  0.12508837347E+03 0.  0.
         23    2    1    2    0    0 -0.32209794430E+02  0.10277743657E+03  0.31423575018E+03  0.34412006599E+03  0.89854553604E+02 0.  0.
          5    1    3    3  502    0  0.59331248963E+02 -0.11816827376E+03  0.27695110850E+03  0.30692560487E+03  0.41800000000E+01 0.  1.
         -5    1    3    3    0  502 -0.27121454532E+02  0.15390837194E+02  0.93095979975E+02  0.98268942464E+02  0.41800000000E+01 0.  1.
        -11    1    4    4    0    0  0.54892833924E+01  0.98551244341E+02  0.18839242587E+03  0.21268330005E+03  0.00000000000E+00 0.  1.
         11    1    4    4    0    0 -0.37699077823E+02  0.42261922288E+01  0.12584332431E+03  0.13143676595E+03  0.00000000000E+00 0. -1.
</event>
<event>
 8    1  0.6862919E-009  0.9145966E+02  0.7561462E-02  0.1299355E+00
         -2   -1    0    0    0  501 -0.00000000000E+00  0.00000000000E+00  0.26191328331E+02  0.26191328331E+02  0.00000000000E+00 0. -1.
          2   -1    0    0  501    0  0.00000000000E+00 -0.00000000000E+00 -0.65474166390E+03  0.65474166390E+03  0.00000000000E+00 0.  1.
         25    2    1    2    0    0  0.51103366009E+02 -0.49823848467E+02 -0.30449279635E+03  0.33683382762E+03  0.12508874651E+03 0.  0.
         23    2    1    2    0    0 -0.51103366009E+02  0.49823848467E+02 -0.32405753921E+03  0.34409916461E+03  0.91087740512E+02 0.  0.
          5    1    3    3  502    0  0.25464091140E+02 -0.25639017619E+02 -0.67678889742E+01  0.37000755171E+02  0.41800000000E+01 0. -1.
         -5    1    3    3    0  502  0.25639274869E+02 -0.24184830847E+02 -0.29772490738E+03  0.29983307245E+03  0.41800000000E+01 0. -1.
        -11    1    4    4    0    0 -0.67162800539E+02  0.97359284151E+01 -0.14792311313E+03  0.16274789546E+03  0.00000000000E+00 0.  1.
         11    1    4    4    0    0  0.16059434529E+02  0.40087920052E+02 -0.17613442608E+03  0.18135126915E+03  0.00000000000E+00 0. -1.
</event>
<event>
 8    1  0.6862919E-009  0.1564285E+03  0.7561462E-02  0.1192789E+00
         -1   -1    0    0    0  501 -0.00000000000E+00  0.00000000000E+00  0.12894989051E+03  0.12894989051E+03  0.00000000000E+00 0.  1.
          1   -1    0    0  501    0  0.00000000000E+00 -0.00000000000E+00 -0.25565607893E+03  0.25565607893E+03  0.00000000000E+00 0. -1.
         25    2    1    2    0    0 -0.56402967630E+02 -0.11464303378E+03 -0.13792823870E+03  0.22582518394E+03  0.12509394357E+03 0.  0.
         23    2    1    2    0    0  0.56402967630E+02  0.11464303378E+03  0.11222050284E+02  0.15878078550E+03  0.93600659612E+02 0.  0.
          5    1    3    3  502    0 -0.59107264448E+01 -0.11899572417E+03 -0.61817985896E+02  0.13429018891E+03  0.41800000000E+01 0. -1.
         -5    1    3    3    0  502 -0.50492241185E+02  0.43526903859E+01 -0.76110252800E+02  0.91534995028E+02  0.41800000000E+01 0. -1.
        -11    1    4    4    0    0  0.25209635844E+02  0.13116621664E+01 -0.25252213944E+02  0.35706028988E+02  0.00000000000E+00 0. -1.
         11    1    4    4    0    0  0.31193331786E+02  0.11333137161E+03  0.36474264227E+02  0.12307475651E+03  0.00000000000E+00 0.  1.
</event>
<event>
 8    1  0.6862919E-009  0.1207742E+03  0.7561462E-02  0.1241825E+00
          2   -1    0    0  501    0  0.00000000000E+00  0.00000000000E+00  0.14211501661E+03  0.14211501661E+03  0.00000000000E+00 0.  1.
         -2   -1    0    0    0  501 -0.00000000000E+00 -0.00000000000E+00 -0.16563282785E+03  0.16563282785E+03  0.00000000000E+00 0. -1.
         25    2    1    2    0    0 -0.24106969885E+02  0.10581464985E+03 -0.73116291779E+01  0.16578289371E+03  0.12511043844E+03 0.  0.
         23    2    1    2    0    0  0.24106969885E+02 -0.10581464985E+03 -0.16206182060E+02  0.14196495076E+03  0.90075084160E+02 0.  0.
          5    1    3    3  502    0 -0.32217672828E+02  0.96985021732E+02  0.45152103149E+02  0.11180455135E+03  0.41800000000E+01 0. -1.
         -5    1    3    3    0  502  0.81107029431E+01  0.88296281165E+01 -0.52463732327E+02  0.53978342366E+02  0.41800000000E+01 0. -1.
        -11    1    4    4    0    0  0.43010369226E+02 -0.42393956323E+02  0.23484556813E+02  0.64797097175E+02  0.00000000000E+00 0. -1.
         11    1    4    4    0    0 -0.18903399341E+02 -0.63420693525E+02 -0.39690738873E+02  0.77167853580E+02  0.00000000000E+00 0.  1.
</event>
<event>
 8    1  0.6862919E-009  0.2164864E+03  0.7561462E-02  0.1136530E+00
          1   -1    0    0  501    0  0.00000000000E+00  0.00000000000E+00  0.64997645596E+03  0.64997645596E+03  0.00000000000E+00 0. -1.
         -1   -1    0    0    0  501 -0.00000000000E+00 -0.00000000000E+00 -0.81804708443E+02  0.81804708443E+02  0.00000000000E+00 0.  1.
         25    2    1    2    0    0 -0.19463912372E+03  0.56119480590E+02  0.22930842039E+03  0.33055030893E+03  0.12508944996E+03 0.  0.
         23    2    1    2    0    0  0.19463912372E+03 -0.56119480590E+02  0.33886332713E+03  0.40123085547E+03  0.71582542044E+02 0.  0.
          5    1    3    3  502    0 -0.21451366141E+02 -0.24145900273E+02  0.85585990308E+02  0.91573029579E+02  0.41800000000E+01 0. -1.
         -5    1    3    3    0  502 -0.17318775758E+03  0.80265380863E+02  0.14372243008E+03  0.23897727935E+03  0.41800000000E+01 0. -1.
        -11    1    4    4    0    0  0.80592604378E+02 -0.50878415454E+02  0.19932439424E+03  0.22093889467E+03  0.00000000000E+00 0. -1.
         11    1    4    4    0    0  0.11404651934E+03 -0.52410651357E+01  0.13953893290E+03  0.18029196081E+03  0.00000000000E+00 0.  1.
</event>
<event>
 8    1  0.6862919E-009  0.1368254E+03  0.7561462E-02  0.1217666E+00
         -2   -1    0    0    0  501 -0.00000000000E+00  0.00000000000E+00  0.16079266086E+03  0.16079266086E+03  0.00000000000E+00 0.  1.
          2   -1    0    0  501    0  0.00000000000E+00 -0.00000000000E+00 -0.11991436619E+03  0.11991436619E+03  0.00000000000E+00 0. -1.
         25    2    1    2    0    0 -0.70983424340E+02  0.43894215321E+02  0.41406281041E+02  0.15597211483E+03  0.12508985500E+03 0.  0.
         23    2    1    2    0    0  0.70983424340E+02 -0.43894215321E+02 -0.52798637709E+00  0.12473491222E+03  0.92699357541E+02 0.  0.
          5    1    3    3  502    0 -0.56627413628E+02  0.87481396376E+02  0.28381588383E+02  0.10808628796E+03  0.41800000000E+01 0.  1.
         -5    1    3    3    0  502 -0.14356010712E+02 -0.43587181055E+02  0.13024692659E+02  0.47885826867E+02  0.41800000000E+01 0.  1.
        -11    1    4    4    0    0  0.42112827058E+02 -0.71726188793E+02 -0.92739804419E+01  0.83690758598E+02  0.00000000000E+00 0.  1.
         11    1    4    4    0    0  0.28870597282E+02  0.27831973472E+02  0.87459940648E+01  0.41044153626E+02  0.00000000000E+00 0. -1.
</event>
<event>
 8    1  0.6862919E-009  0.9611715E+02  0.7561462E-02  0.1288680E+00
         -2   -1    0    0    0  501 -0.00000000000E+00  0.00000000000E+00  0.17692926554E+02  0.17692926554E+02  0.00000000000E+00 0.  1.
          2   -1    0    0  501    0  0.00000000000E+00 -0.00000000000E+00 -0.10009635414E+04  0.10009635414E+04  0.00000000000E+00 0. -1.
         25    2    1    2    0    0 -0.73984628421E+02  0.64181157278E+00 -0.46298687724E+03  0.48526112854E+03  0.12508947681E+03 0.  0.
         23    2    1    2    0    0  0.73984628421E+02 -0.64181157278E+00 -0.52028373759E+03  0.53339533940E+03  0.91330626459E+02 0.  0.
          5    1    3    3  502    0 -0.40436111040E+02  0.75046593178E+01 -0.30430115729E+02  0.51330919832E+02  0.41800000000E+01 0. -1.
         -5    1    3    3    0  502 -0.33548517381E+02 -0.68628477450E+01 -0.43255676151E+03  0.43393020871E+03  0.41800000000E+01 0. -1.
        -11    1    4    4    0    0  0.32396535182E+02 -0.45094114724E+02 -0.28544594496E+03  0.29079615225E+03  0.00000000000E+00 0. -1.
         11    1    4    4    0    0  0.41588093239E+02  0.44452303151E+02 -0.23483779264E+03  0.24259918715E+03  0.00000000000E+00 0.  1.
</event>
<event>
 8    1  0.6862919E-009  0.1815808E+03  0.7561462E-02  0.1166282E+00
          2   -1    0    0  501    0  0.00000000000E+00  0.00000000000E+00  0.94852015664E+03  0.94852015664E+03  0.00000000000E+00 0. -1.
         -2   -1    0    0    0  501 -0.00000000000E+00 -0.00000000000E+00 -0.42108853221E+02  0.42108853221E+02  0.00000000000E+00 0.  1.
         25    2    1    2    0    0  0.14806097505E+03 -0.34759729299E+02  0.64793189971E+03  0.67719496966E+03  0.12508792572E+03 0.  0.
         23    2    1    2    0    0 -0.14806097505E+03  0.34759729299E+02  0.25847940372E+03  0.31343404021E+03  0.91098871017E+02 0.  0.
          5    1    3    3  502    0  0.16240389669E+03 -0.52825538712E+02  0.52649650010E+03  0.55351747959E+03  0.41800000000E+01 0. -1.
         -5    1    3    3    0  502 -0.14342921637E+02  0.18065809413E+02  0.12143539961E+03  0.12367749007E+03  0.41800000000E+01 0. -1.
        -11    1    4    4    0    0 -0.30194138421E+02  0.40927713443E+02  0.38491617929E+02  0.63783762616E+02  0.00000000000E+00 0.  1.
         11    1    4    4    0    0 -0.11786683663E+03 -0.61679841439E+01  0.21998778579E+03  0.24965027759E+03  0.00000000000E+00 0. -1.
</event>
<event>
 8    1  0.6862919E-009  0.1856791E+03  0.7561462E-02  0.1162417E+00
          1   -1    0    0  501    0  0.00000000000E+00  0.00000000000E+00  0.18546365222E+03  0.18546365222E+03  0.00000000000E+00 0. -1.
         -1   -1    0    0    0  501 -0.00000000000E+00 -0.00000000000E+00 -0.23888291841E+03  0.23888291841E+03  0.00000000000E+00 0.  1.
         25    2    1    2    0    0  0.16991612351E+03 -0.58784682797E+02 -0.29058516421E+02  0.22095082964E+03  0.12509094204E+03 0.  0.
         23    2    1    2    0    0 -0.16991612351E+03  0.58784682797E+02 -0.24360749772E+02  0.20339574100E+03  0.91919820317E+02 0.  0.
          5    1    3    3  502    0  0.16721022126E+03 -0.47690917417E+02 -0.62929730779E+02  0.18496298309E+03  0.41800000000E+01 0. -1.
         -5    1    3    3    0  502  0.27059022528E+01 -0.11093765380E+02  0.33871214358E+02  0.35987846551E+02  0.41800000000E+01 0. -1.
        -11    1    4    4    0    0 -0.11398531385E+03  0.61026552242E+02  0.21453501608E+02  0.13106160606E+03  0.00000000000E+00 0. -1.
         11    1    4    4    0    0 -0.55930809661E+02 -0.22418694450E+01 -0.45814251380E+02  0.72334134940E+02  0.00000000000E+00 0.  1.
</event>
<event>
 8    1  0.6862919E-009  0.2084754E+03  0.7561462E-02  0.1142779E+00
         -1   -1    0    0    0  501 -0.00000000000E+00  0.00000000000E+00  0.40624192953E+03  0.40624192953E+03  0.00000000000E+00 0.  1.
          1   -1    0    0  501    0  0.00000000000E+00 -0.00000000000E+00 -0.14254184595E+03  0.14254184595E+03  0.00000000000E+00 0. -1.
         25    2    1    2    0    0  0.16234124023E+03 -0.84523465696E+02  0.26377037327E+03  0.34456048004E+03  0.12509284575E+03 0.  0.
         23    2    1    2    0    0 -0.16234124023E+03  0.84523465696E+02 -0.70289690008E-01  0.20422329544E+03  0.90599420131E+02 0.  0.
          5    1    3    3  502    0  0.16905253708E+03 -0.99203279468E+02  0.26277927394E+03  0.32785739303E+03  0.41800000000E+01 0.  1.
         -5    1    3    3    0  502 -0.67112968500E+01  0.14679813772E+02  0.99109932732E+00  0.16703087010E+02  0.41800000000E+01 0.  1.
        -11    1    4    4    0    0 -0.13297091214E+03  0.21508870727E+02 -0.34167724026E+00  0.13469970950E+03  0.00000000000E+00 0.  1.
         11    1    4    4    0    0 -0.29370328086E+02  0.63014594969E+02  0.27138755025E+00  0.69523585942E+02  0.00000000000E+00 0. -1.
</event>
<event>
 8    1  0.6862919E-009  0.9044077E+02  0.7561462E-02  0.1301788E+00
          1   -1    0    0  501    0  0.00000000000E+00  0.00000000000E+00  0.35362708036E+03  0.35362708036E+03  0.00000000000E+00 0. -1.
         -1   -1    0    0    0  501 -0.00000000000E+00 -0.00000000000E+00 -0.45066696438E+02  0.45066696438E+02  0.00000000000E+00 0.  1.
         25    2    1    2    0    0 -0.17823074340E+02 -0.57492047161E+02  0.19611080514E+03  0.24026983611E+03  0.12508856378E+03 0.  0.
         23    2    1    2    0    0  0.17823074340E+02  0.57492047161E+02  0.11244957878E+03  0.15842394068E+03  0.93969355364E+02 0.  0.
          5    1    3    3  502    0  0.20784062115E+02 -0.27665965318E+02 -0.32292681262E+01  0.35004049017E+02  0.41800000000E+01 0.  1.
         -5    1    3    3    0  502 -0.38607136454E+02 -0.29826081843E+02  0.19934007326E+03  0.20526578709E+03  0.41800000000E+01 0.  1.
        -11    1    4    4    0    0 -0.67350338570E+01  0.69429881847E+02  0.11097590012E+03  0.13107829562E+03  0.00000000000E+00 0. -1.
         11    1    4    4    0    0  0.24558108197E+02 -0.11937834686E+02  0.14736786602E+01  0.27345645064E+02  0.00000000000E+00 0.  1.
</event>
<event>
 8    1  0.6862919E-009  0.1629779E+03  0.7561462E-02  0.1185375E+00
         -2   -1    0    0    0  501 -0.00000000000E+00  0.00000000000E+00  0.24398397608E+03  0.24398397608E+03  0.00000000000E+00 0.  1.
          2   -1    0    0  501    0  0.00000000000E+00 -0.00000000000E+00 -0.15804732375E+03  0.15804732375E+03  0.00000000000E+00 0. -1.
         25    2    1    2    0    0  0.12450618815E+03  0.92651205479E+02  0.98745590376E+02  0.22245048453E+03  0.12508992640E+03 0.  0.
         23    2    1    2    0    0 -0.12450618815E+03 -0.92651205479E+02 -0.12808938044E+02  0.17958081530E+03  0.89438043177E+02 0.  0.
          5    1    3    3  502    0  0.11728010404E+03  0.10301504581E+03  0.38605718039E+02  0.16085582467E+03  0.41800000000E+01 0.  1.
         -5    1    3    3    0  502  0.72260841066E+01 -0.10363840330E+02  0.60139872337E+02  0.61594659855E+02  0.41800000000E+01 0.  1.
        -11    1    4    4    0    0 -0.30182928800E+02 -0.12327079434E+02  0.34033986590E+02  0.47130439437E+02  0.00000000000E+00 0.  1.
         11    1    4    4    0    0 -0.94323259346E+02 -0.80324126045E+02 -0.46842924633E+02  0.13245037587E+03  0.00000000000E+00 0. -1.
</event>
<event>
 8    1  0.6862919E-009  0.9205882E+02  0.7561462E-02  0.1297941E+00
          1   -1    0    0  501    0  0.00000000000E+00  0.00000000000E+00  0.33979749810E+03  0.33979749810E+03  0.00000000000E+00 0. -1.
         -1   -1    0    0    0  501 -0.00000000000E+00 -0.00000000000E+00 -0.39456523662E+02  0.39456523662E+02  0.00000000000E+00 0.  1.
         25    2    1    2    0    0  0.96884820016E+01 -0.43417639844E+02  0.15463501993E+03  0.20380835055E+03  0.12508755427E+03 0.  0.
         23    2    1    2    0    0 -0.96884820016E+01  0.43417639844E+02  0.14570595451E+03  0.17544567121E+03  0.87017241020E+02 0.  0.
          5    1    3    3  502    0 -0.24263302860E+02 -0.46439589126E+02  0.79539880306E+01  0.53160903204E+02  0.41800000000E+01 0.  1.
         -5    1    3    3    0  502  0.33951784862E+02  0.30219492822E+01  0.14668103190E+03  0.15064744735E+03  0.41800000000E+01 0.  1.
        -11    1    4    4    0    0  0.36671346430E+02  0.50120247984E+01  0.64396161123E+02  0.74274986428E+02  0.00000000000E+00 0. -1.
         11    1    4    4    0    0 -0.46359828432E+02  0.38405615045E+02  0.81309793385E+02  0.10117068478E+03  0.00000000000E+00 0.  1.
</event>
<event>
 8    1  0.6862919E-009  0.1227590E+03  0.7561462E-02  0.1238614E+00
          1   -1    0    0  501    0  0.00000000000E+00  0.00000000000E+00  0.76924998224E+02  0.76924998224E+02  0.00000000000E+00 0. -1.
         -1   -1    0    0    0  501 -0.00000000000E+00 -0.00000000000E+00 -0.26719111134E+03  0.26719111134E+03  0.00000000000E+00 0.  1.
         25    2    1    2    0    0  0.78007745350E+02 -0.24711138372E+02 -0.44690173578E+02  0.15601196074E+03  0.12508665631E+03 0.  0.
         23    2    1    2    0    0 -0.78007745350E+02  0.24711138372E+02 -0.14557593954E+03  0.18810414882E+03  0.86573482872E+02 0.  0.
          5    1    3    3  502    0  0.10700688954E+01 -0.48070039170E+02  0.20479091230E+02  0.52428420640E+02  0.41800000000E+01 0.  1.
         -5    1    3    3    0  502  0.76937676455E+02  0.23358900798E+02 -0.65169264808E+02  0.10358354010E+03  0.41800000000E+01 0.  1.
        -11    1    4    4    0    0 -0.91330018057E+02  0.37071887532E+02 -0.13474440006E+03  0.16694774749E+03  0.00000000000E+00 0.  1.
         11    1    4    4    0    0  0.13322272707E+02 -0.12360749159E+02 -0.10831539475E+02  0.21156401331E+02  0.00000000000E+00 0. -1.
</event>
<event>
 8    1  0.6862919E-009  0.8904431E+02  0.7561462E-02  0.1305183E+00
         -2   -1    0    0    0  501 -0.00000000000E+00  0.00000000000E+00  0.39718500622E+02  0.39718500622E+02  0.00000000000E+00 0.  1.
          2   -1    0    0  501    0  0.00000000000E+00 -0.00000000000E+00 -0.40514811596E+03  0.40514811596E+03  0.00000000000E+00 0. -1.
         25    2    1    2    0    0 -0.43689792638E+02 -0.44756120018E+02 -0.21965801835E+03  0.26040105983E+03  0.12508860332E+03 0.  0.
         23    2    1    2    0    0  0.43689792638E+02  0.44756120018E+02 -0.14577159700E+03  0.18446555675E+03  0.94160898873E+02 0.  0.
          5    1    3    3  502    0 -0.10783415637E+02 -0.28575690118E+02  0.62867812847E+01  0.31461852098E+02  0.41800000000E+01 0. -1.
         -5    1    3    3    0  502 -0.32906377001E+02 -0.16180429899E+02 -0.22594479963E+03  0.22893920774E+03  0.41800000000E+01 0. -1.
        -11    1    4    4    0    0  0.18281743702E+02 -0.27915585920E+02 -0.63870694725E+02  0.72062249026E+02  0.00000000000E+00 0.  1.
         11    1    4    4    0    0  0.25408048936E+02  0.72671705937E+02 -0.81900902271E+02  0.11240330772E+03  0.00000000000E+00 0. -1.
</event>
<event>
 8    1  0.6862919E-009  0.1142597E+03  0.7561462E-02  0.1252879E+00
          1   -1    0    0  501    0  0.00000000000E+00  0.00000000000E+00  0.61470376457E+03  0.61470376457E+03  0.00000000000E+00 0. -1.
         -1   -1    0    0    0  501 -0.00000000000E+00 -0.00000000000E+00 -0.30582959409E+02  0.30582959409E+02  0.00000000000E+00 0.  1.
         25    2    1    2    0    0  0.66358595954E+02 -0.49012199712E+02  0.34762578799E+03  0.37854542392E+03  0.12508913031E+03 0.  0.
         23    2    1    2    0    0 -0.66358595954E+02  0.49012199712E+02  0.23649501718E+03  0.26674130006E+03  0.91735320512E+02 0.  0.
          5    1    3    3  502    0 -0.29050337189E+02  0.48710817707E-01  0.15739153730E+03  0.16010463103E+03  0.41800000000E+01 0.  1.
         -5    1    3    3    0  502  0.95408933143E+02 -0.49060910530E+02  0.19023425069E+03  0.21844079290E+03  0.41800000000E+01 0.  1.
        -11    1    4    4    0    0 -0.49474829381E+02  0.11684172232E+02  0.36472219865E+02  0.62565976735E+02  0.00000000000E+00 0.  1.
         11    1    4    4    0    0 -0.16883766573E+02  0.37328027480E+02  0.20002279731E+03  0.20417532332E+03  0.00000000000E+00 0. -1.
</event>
<event>
 8    1  0.6862919E-009  0.1880204E+03  0.7561462E-02  0.1160259E+00
          1   -1    0    0  501    0  0.00000000000E+00  0.00000000000E+00  0.68436722449E+03  0.68436722449E+03  0.00000000000E+00 0. -1.
         -1   -1    0    0    0  501 -0.00000000000E+00 -0.00000000000E+00 -0.61870800886E+02  0.61870800886E+02  0.00000000000E+00 0.  1.
         25    2    1    2    0    0 -0.17206544189E+03  0.11847108582E+02  0.28301200823E+03  0.35424599949E+03  0.12509021175E+03 0.  0.
         23    2    1    2    0    0  0.17206544189E+03 -0.11847108582E+02  0.33948441538E+03  0.39199202589E+03  0.93065620940E+02 0.  0.
          5    1    3    3  502    0 -0.44274469885E+01  0.22654584620E+02  0.11223277801E+03  0.11465819356E+03  0.41800000000E+01 0. -1.
         -5    1    3    3    0  502 -0.16763799491E+03 -0.10807476037E+02  0.17077923022E+03  0.23958780593E+03  0.41800000000E+01 0. -1.
        -11    1    4    4    0    0  0.11831131884E+03 -0.38668554770E+02  0.28457073682E+03  0.31060156077E+03  0.00000000000E+00 0. -1.
         11    1    4    4    0    0  0.53754123052E+02  0.26821446188E+02  0.54913678556E+02  0.81390465125E+02  0.00000000000E+00 0.  1.
</event>
<event>
 8    1  0.6862919E-009  0.7737151E+02  0.7561462E-02  0.1336681E+00
         -1   -1    0    0    0  501 -0.00000000000E+00  0.00000000000E+00  0.56044509890E+02  0.56044509890E+02  0.00000000000E+00 0.  1.
          1   -1    0    0  501    0  0.00000000000E+00 -0.00000000000E+00 -0.25165026676E+03  0.25165026676E+03  0.00000000000E+00 0. -1.
         25    2    1    2    0    0 -0.39350005535E+02  0.28909406760E+02 -0.12441459015E+03  0.18305414427E+03  0.12508258375E+03 0.  0.
         23    2    1    2    0    0  0.39350005535E+02 -0.28909406760E+02 -0.71191166724E+02  0.12464063238E+03  0.89905107122E+02 0.  0.
          5    1    3    3  502    0 -0.17271338253E+02  0.23251047818E+02 -0.14748218205E+03  0.15035749656E+03  0.41800000000E+01 0. -1.
         -5    1    3    3    0  502 -0.22078667282E+02  0.56583589415E+01  0.23067591905E+02  0.32696647705E+02  0.41800000000E+01 0. -1.
        -11    1    4    4    0    0 -0.28152166396E+02 -0.19279577698E+02 -0.23358009156E+02  0.41350250069E+02  0.00000000000E+00 0. -1.
         11    1    4    4    0    0  0.67502171931E+02 -0.96298290619E+01 -0.47833157568E+02  0.83290382315E+02  0.00000000000E+00 0.  1.
</event>
<event>
 8    1  0.6862919E-009  0.1775640E+03  0.7561462E-02  0.1170182E+00
          2   -1    0    0  501    0  0.00000000000E+00  0.00000000000E+00  0.10904937987E+04  0.10904937987E+04  0.00000000000E+00 0.  1.
         -2   -1    0    0    0  501 -0.00000000000E+00 -0.00000000000E+00 -0.36909854076E+02  0.36909854076E+02  0.00000000000E+00 0. -1.
         25    2    1    2    0    0 -0.99729664266E+02  0.11768463646E+03  0.74132162702E+03  0.76746444953E+03  0.12509295346E+03 0.  0.
         23    2    1    2    0    0  0.99729664266E+02 -0.11768463646E+03  0.31226231764E+03  0.35993920328E+03  0.90844897759E+02 0.  0.
          5    1    3    3  502    0 -0.11947349797E+03  0.12824760714E+03  0.63719446855E+03  0.66087489633E+03  0.41800000000E+01 0.  1.
         -5    1    3    3    0  502  0.19743833700E+02 -0.10562970680E+02  0.10412715847E+03  0.10658955319E+03  0.41800000000E+01 0.  1.
        -11    1    4    4    0    0  0.54949280649E+02 -0.86418685671E+02  0.27598638542E+03  0.29437407769E+03  0.00000000000E+00 0. -1.
         11    1    4    4    0    0  0.44780383617E+02 -0.31265950793E+02  0.36275932214E+02  0.65565125592E+02  0.00000000000E+00 0.  1.
</event>
<event>
 8    1  0.6862919E-009  0.1243926E+03  0.7561462E-02  0.1236022E+00
         -2   -1    0    0    0  501 -0.00000000000E+00  0.00000000000E+00  0.83708772427E+02  0.83708772427E+02  0.00000000000E+00 0.  1.
          2   -1    0    0  501    0  0.00000000000E+00 -0.00000000000E+00 -0.46261557761E+03  0.46261557761E+03  0.00000000000E+00 0. -1.
         25    2    1    2    0    0 -0.10043799651E+03  0.28506948560E+02 -0.37098073551E+03  0.40518458642E+03  0.12508959068E+03 0.  0.
         23    2    1    2    0    0  0.10043799651E+03 -0.28506948560E+02 -0.79260696786E+01  0.14113976362E+03  0.94642342719E+02 0.  0.
          5    1    3    3  502    0 -0.72085792946E+02 -0.23448341579E+01 -0.35139321031E+03  0.35874297268E+03  0.41800000000E+01 0.  1.
         -5    1    3    3    0  502 -0.28352203562E+02  0.30851782718E+02 -0.19587525195E+02  0.46441613742E+02  0.41800000000E+01 0.  1.
        -11    1    4    4    0    0  0.38969513255E+02  0.30299925130E+02 -0.23477364298E+02  0.54661641583E+02  0.00000000000E+00 0.  1.
         11    1    4    4    0    0  0.61468483253E+02 -0.58806873690E+02  0.15551294620E+02  0.86478122036E+02  0.00000000000E+00 0. -1.
</event>
<event>
 8    1  0.6862919E-009  0.1283760E+03  0.7561462E-02  0.1229886E+00
          1   -1    0    0  501    0  0.00000000000E+00  0.00000000000E+00  0.19185924934E+03  0.19185924934E+03  0.00000000000E+00 0. -1.
         -1   -1    0    0    0  501 -0.00000000000E+00 -0.00000000000E+00 -0.11400903336E+03  0.11400903336E+03  0.00000000000E+00 0.  1.
         25    2    1    2    0    0 -0.46701776236E+02 -0.50704336171E+02  0.11700394370E+03  0.18463360448E+03  0.12509060497E+03 0.  0.
         23    2    1    2    0    0  0.46701776236E+02  0.50704336171E+02 -0.39153727715E+02  0.12123467822E+03  0.91721574333E+02 0.  0.
          5    1    3    3  502    0 -0.74257956143E+02  0.10934293135E+02  0.60797224352E+02  0.96682871833E+02  0.41800000000E+01 0. -1.
         -5    1    3    3    0  502  0.27556179907E+02 -0.61638629306E+02  0.56206719349E+02  0.87950732650E+02  0.41800000000E+01 0. -1.
        -11    1    4    4    0    0  0.16505937797E+02 -0.26393510704E+02 -0.17235308065E+02  0.35582569243E+02  0.00000000000E+00 0.  1.
         11    1    4    4    0    0  0.30195838439E+02  0.77097846874E+02 -0.21918419650E+02  0.85652108974E+02  0.00000000000E+00 0. -1.
</event>
<event>
 8    1  0.6862919E-009  0.1047788E+03  0.7561462E-02  0.1270556E+00
          1   -1    0    0  501    0  0.00000000000E+00  0.00000000000E+00  0.87620608038E+02  0.87620608038E+02  0.00000000000E+00 0. -1.
         -1   -1    0    0    0  501 -0.00000000000E+00 -0.00000000000E+00 -0.26731909570E+03  0.26731909570E+03  0.00000000000E+00 0.  1.
         25    2    1    2    0    0  0.17768131079E+02  0.64157007835E+02 -0.20758006008E+03  0.25133608774E+03  0.12509404270E+03 0.  0.
         23    2    1    2    0    0 -0.17768131079E+02 -0.64157007835E+02  0.27881572424E+02  0.10360361600E+03  0.74326973772E+02 0.  0.
          5    1    3    3  502    0 -0.53165428933E+02  0.16860345517E+02 -0.72890737438E+02  0.91876907267E+02  0.41800000000E+01 0.  1.
         -5    1    3    3    0  502  0.70933560012E+02  0.47296662318E+02 -0.13468932264E+03  0.15945918047E+03  0.41800000000E+01 0.  1.
        -11    1    4    4    0    0 -0.16228357875E+02 -0.30266954514E+02 -0.23798819595E+02  0.41783153890E+02  0.00000000000E+00 0.  1.
         11    1    4    4    0    0 -0.15397732038E+01 -0.33890053321E+02  0.51680392019E+02  0.61820462105E+02  0.00000000000E+00 0. -1.
</event>
<event>
 8    1  0.6862919E-009  0.1035223E+03  0.7561462E-02  0.1273059E+00
          1   -1    0    0  501    0  0.00000000000E+00  0.00000000000E+00  0.90912453647E+03  0.90912453647E+03  0.00000000000E+00 0. -1.
         -1   -1    0    0    0  501 -0.00000000000E+00 -0.00000000000E+00 -0.14006164287E+02  0.14006164287E+02  0.00000000000E+00 0.  1.
         25    2    1    2    0    0 -0.17676055769E+02 -0.27308999860E+02  0.45335999689E+03  0.47142336413E+03  0.12508587871E+03 0.  0.
         23    2    1    2    0    0  0.17676055769E+02  0.27308999860E+02  0.44175837529E+03  0.45170733662E+03  0.88491984918E+02 0.  0.
          5    1    3    3  502    0  0.17949389118E+02  0.37008827323E+02  0.28048903614E+03  0.28351967421E+03  0.41800000000E+01 0.  1.
         -5    1    3    3    0  502 -0.35625444887E+02 -0.64317827183E+02  0.17287096075E+03  0.18790368993E+03  0.41800000000E+01 0.  1.
        -11    1    4    4    0    0 -0.83249457617E+00 -0.30933278347E+02  0.10565948070E+03  0.11009762313E+03  0.00000000000E+00 0. -1.
         11    1    4    4    0    0  0.18508550346E+02  0.58242278207E+02  0.33609889459E+03  0.34160971349E+03  0.00000000000E+00 0.  1.
</event>
<event>
 8    1  0.6862919E-009  0.2693464E+03  0.7561462E-02  0.1101654E+00
          2   -1    0    0  501    0  0.00000000000E+00  0.00000000000E+00  0.38975878628E+03  0.38975878628E+03  0.00000000000E+00 0. -1.
         -2   -1    0    0    0  501 -0.00000000000E+00 -0.00000000000E+00 -0.20631550132E+03  0.20631550132E+03  0.00000000000E+00 0.  1.
         25    2    1    2    0    0 -0.10024882997E+03 -0.24025252929E+03  0.12369684384E+03  0.31419178021E+03  0.12507781511E+03 0.  0.
         23    2    1    2    0    0  0.10024882997E+03  0.24025252929E+03  0.59746441120E+02  0.28188250739E+03  0.90094422731E+02 0.  0.
          5    1    3    3  502    0 -0.64871449824E+02 -0.19564453395E+03  0.35595264891E+02  0.20921181599E+03  0.41800000000E+01 0. -1.
         -5    1    3    3    0  502 -0.35377380147E+02 -0.44607995339E+02  0.88101578948E+02  0.10497996422E+03  0.41800000000E+01 0. -1.
        -11    1    4    4    0    0  0.21129168813E+02  0.16468624103E+03  0.38163923394E+02  0.17036573837E+03  0.00000000000E+00 0. -1.
         11    1    4    4    0    0  0.79119661158E+02  0.75566288252E+02  0.21582517726E+02  0.11151676902E+03  0.00000000000E+00 0.  1.
</event>
<event>
 8    1  0.6862919E-009  0.1245518E+03  0.7561462E-02  0.1235771E+00
          1   -1    0    0  501    0  0.00000000000E+00  0.00000000000E+00  0.13405249791E+02  0.13405249791E+02  0.00000000000E+00 0. -1.
         -1   -1    0    0    0  501 -0.00000000000E+00 -0.00000000000E+00 -0.12948763588E+04  0.12948763588E+04  0.00000000000E+00 0.  1.
         25    2    1    2    0    0 -0.25542698487E+02  0.66462443479E+02 -0.78260680563E+03  0.79573498485E+03  0.12510422874E+03 0.  0.
         23    2    1    2    0    0  0.25542698487E+02 -0.66462443479E+02 -0.49886430335E+03  0.51254662371E+03  0.93641670674E+02 0.  0.
          5    1    3    3  502    0 -0.42073683225E+01  0.95229552737E+02 -0.39107515003E+03  0.40254641352E+03  0.41800000000E+01 0.  1.
         -5    1    3    3    0  502 -0.21335330164E+02 -0.28767109258E+02 -0.39153165560E+03  0.39318857133E+03  0.41800000000E+01 0.  1.
        -11    1    4    4    0    0 -0.22546625766E+02  0.12047713521E+02 -0.10632538682E+03  0.10935531819E+03  0.00000000000E+00 0. -1.
         11    1    4    4    0    0  0.48089324253E+02 -0.78510157000E+02 -0.39253891653E+03  0.40319130552E+03  0.00000000000E+00 0.  1.
</event>
<event>
 8    1  0.6862919E-009  0.1343885E+03  0.7561462E-02  0.1221086E+00
          2   -1    0    0  501    0  0.00000000000E+00  0.00000000000E+00  0.10494889753E+04  0.10494889753E+04  0.00000000000E+00 0. -1.
         -2   -1    0    0    0  501 -0.00000000000E+00 -0.00000000000E+00 -0.19426691895E+02  0.19426691895E+02  0.00000000000E+00 0.  1.
         25    2    1    2    0    0  0.49497819196E+02  0.63159488110E+02  0.72616951244E+03  0.74122445260E+03  0.12510944524E+03 0.  0.
         23    2    1    2    0    0 -0.49497819196E+02 -0.63159488110E+02  0.30389277095E+03  0.32769121458E+03  0.92690672860E+02 0.  0.
          5    1    3    3  502    0  0.69344998490E+02 -0.10467602672E+02  0.28769524283E+03  0.29614915949E+03  0.41800000000E+01 0. -1.
         -5    1    3    3    0  502 -0.19847179294E+02  0.73627090782E+02  0.43847426961E+03  0.44507529311E+03  0.41800000000E+01 0. -1.
        -11    1    4    4    0    0 -0.54966757257E+02 -0.84121946911E+02  0.23856721745E+03  0.25886707708E+03  0.00000000000E+00 0. -1.
         11    1    4    4    0    0  0.54689380608E+01  0.20962458801E+02  0.65325553498E+02  0.68824137498E+02  0.00000000000E+00 0.  1.
</event>
<event>
 8    1  0.6862919E-009  0.8161276E+02  0.7561462E-02  0.1324536E+00
          1   -1    0    0  501    0  0.00000000000E+00  0.00000000000E+00  0.71021934881E+02  0.71021934881E+02  0.00000000000E+00 0. -1.
         -1   -1    0    0    0  501 -0.00000000000E+00 -0.00000000000E+00 -0.21197116767E+03  0.21197116767E+03  0.00000000000E+00 0.  1.
         25    2    1    2    0    0  0.38889284858E+02 -0.19509232337E+02 -0.35383324422E+02  0.13708607818E+03  0.12509047350E+03 0.  0.
         23    2    1    2    0    0 -0.38889284858E+02  0.19509232337E+02 -0.10556590836E+03  0.14590702436E+03  0.90838935084E+02 0.  0.
          5    1    3    3  502    0  0.41938343726E+02 -0.29531891617E+02  0.37283481956E+02  0.63549096954E+02  0.41800000000E+01 0.  1.
         -5    1    3    3    0  502 -0.30490588677E+01  0.10022659279E+02 -0.72666806378E+02  0.73536981228E+02  0.41800000000E+01 0.  1.
        -11    1    4    4    0    0  0.29593637533E+02  0.13061872878E+01 -0.26653967096E+02  0.39848757441E+02  0.00000000000E+00 0. -1.
         11    1    4    4    0    0 -0.68482922391E+02  0.18203045049E+02 -0.78911941266E+02  0.10605826692E+03  0.00000000000E+00 0.  1.
</event>
<event>
 8    1  0.6862919E-009  0.1096880E+03  0.7561462E-02  0.1261149E+00
         -2   -1    0    0    0  501 -0.00000000000E+00  0.00000000000E+00  0.19217204513E+02  0.19217204513E+02  0.00000000000E+00 0. -1.
          2   -1    0    0  501    0  0.00000000000E+00 -0.00000000000E+00 -0.13799403312E+04  0.13799403312E+04  0.00000000000E+00 0.  1.
         25    2    1    2    0    0  0.61892445108E+02  0.10795702143E+01 -0.11802574687E+04  0.11884798419E+04  0.12507918321E+03 0.  0.
         23    2    1    2    0    0 -0.61892445108E+02 -0.10795702143E+01 -0.18046565801E+03  0.21067769379E+03  0.89361046903E+02 0.  0.
          5    1    3    3  502    0  0.86248189615E+02  0.53846981391E+00 -0.11203580880E+04  0.11236808968E+04  0.41800000000E+01 0. -1.
         -5    1    3    3    0  502 -0.24355744507E+02  0.54110040044E+00 -0.59899380676E+02  0.64798945096E+02  0.41800000000E+01 0. -1.
        -11    1    4    4    0    0  0.22674457798E+02  0.59689091607E+01 -0.31994206562E+02  0.39665957275E+02  0.00000000000E+00 0.  1.
         11    1    4    4    0    0 -0.84566902906E+02 -0.70484793750E+01 -0.14847145145E+03  0.17101173651E+03  0.00000000000E+00 0. -1.
</event>
<event>
 8    1  0.6862919E-009  0.1737268E+03  0.7561462E-02  0.1174016E+00
         -1   -1    0    0    0  501 -0.00000000000E+00  0.00000000000E+00  0.29440564387E+02  0.29440564387E+02  0.00000000000E+00 0.  1.
          1   -1    0    0  501    0  0.00000000000E+00 -0.00000000000E+00 -0.28774387829E+04  0.28774387829E+04  0.00000000000E+00 0. -1.
         25    2    1    2    0    0  0.12382438402E+03  0.85568075049E+02 -0.25696559470E+04  0.25770980297E+04  0.12509274530E+03 0.  0.
         23    2    1    2    0    0 -0.12382438402E+03 -0.85568075049E+02 -0.27834227146E+03  0.32978131759E+03  0.92881234928E+02 0.  0.
          5    1    3    3  502    0  0.40064255848E+01 -0.26128607427E+02 -0.19986970419E+03  0.20165348156E+03  0.41800000000E+01 0.  1.
         -5    1    3    3    0  502  0.11981795843E+03  0.11169668248E+03 -0.23697862428E+04  0.23754445481E+04  0.41800000000E+01 0.  1.
        -11    1    4    4    0    0 -0.93187337781E+02 -0.38844541197E+02 -0.96921844742E+02  0.13995221432E+03  0.00000000000E+00 0.  1.
         11    1    4    4    0    0 -0.30637046238E+02 -0.46723533852E+02 -0.18142042672E+03  0.18982910327E+03  0.00000000000E+00 0. -1.
</event>
<event>
 8    1  0.6862919E-009  0.6506710E+02  0.7561462E-02  0.1377719E+00
          4   -1    0    0  501    0  0.00000000000E+00  0.00000000000E+00  0.53097608733E+03  0.53097608733E+03  0.00000000000E+00 0. -1.
         -4   -1    0    0    0  501 -0.00000000000E+00 -0.00000000000E+00 -0.28187113117E+02  0.28187113117E+02  0.00000000000E+00 0.  1.
         25    2    1    2    0    0  0.59768804632E+01 -0.47493326308E+02  0.35589064203E+03  0.38025798991E+03  0.12508657269E+03 0.  0.
         23    2    1    2    0    0 -0.59768804632E+01  0.47493326308E+02  0.14689833219E+03  0.17890521054E+03  0.90203188487E+02 0.  0.
          5    1    3    3  502    0  0.97210288059E+01 -0.63952610076E+02  0.76261174796E+02  0.10008833058E+03  0.41800000000E+01 0. -1.
         -5    1    3    3    0  502 -0.37441483428E+01  0.16459283767E+02  0.27962946723E+03  0.28016965934E+03  0.41800000000E+01 0. -1.
        -11    1    4    4    0    0 -0.35602569871E+01  0.19291875650E+02 -0.81874554955E+01  0.21257618008E+02  0.00000000000E+00 0.  1.
         11    1    4    4    0    0 -0.24166234761E+01  0.28201450659E+02  0.15508578768E+03  0.15764759253E+03  0.00000000000E+00 0. -1.
</event>
<event>
 8    1  0.6862919E-009  0.1038998E+03  0.7561462E-02  0.1272303E+00
         -2   -1    0    0    0  501 -0.00000000000E+00  0.00000000000E+00  0.93402818565E+01  0.93402818565E+01  0.00000000000E+00 0.  1.
          2   -1    0    0  501    0  0.00000000000E+00 -0.00000000000E+00 -0.21585467823E+04  0.21585467823E+04  0.00000000000E+00 0. -1.
         25    2    1    2    0    0 -0.18657677855E+02  0.17209062248E+02 -0.18724327302E+04  0.18767779757E+04  0.12508788942E+03 0.  0.
         23    2    1    2    0    0  0.18657677855E+02 -0.17209062248E+02 -0.27677377027E+03  0.29110908851E+03  0.86582450516E+02 0.  0.
          5    1    3    3  502    0  0.41830247403E+02  0.36824512801E+02 -0.55546503127E+03  0.55826936841E+03  0.41800000000E+01 0. -1.
         -5    1    3    3    0  502 -0.60487925258E+02 -0.19615450553E+02 -0.13169676989E+04  0.13185086073E+04  0.41800000000E+01 0. -1.
        -11    1    4    4    0    0 -0.12830157824E+02 -0.44627219484E+02 -0.11467743144E+03  0.12372192591E+03  0.00000000000E+00 0.  1.
         11    1    4    4    0    0  0.31487835679E+02  0.27418157236E+02 -0.16209633883E+03  0.16738716261E+03  0.00000000000E+00 0. -1.
</event>
<event>
 8    1  0.6862919E-009  0.3208704E+03  0.7561462E-02  0.1075249E+00
         -2   -1    0    0    0  501 -0.00000000000E+00  0.00000000000E+00  0.27579774864E+03  0.27579774864E+03  0.00000000000E+00 0.  1.
          2   -1    0    0  501    0  0.00000000000E+00 -0.00000000000E+00 -0.38071432617E+03  0.38071432617E+03  0.00000000000E+00 0. -1.
         25    2    1    2    0    0  0.18604999242E+03  0.23968969793E+03 -0.82824089844E+02  0.33849241948E+03  0.12510610382E+03 0.  0.
         23    2    1    2    0    0 -0.18604999242E+03 -0.23968969793E+03 -0.22092487683E+02  0.31801965533E+03  0.92642712561E+02 0.  0.
          5    1    3    3  502    0  0.98060860964E+02  0.33203929065E+02 -0.30019838296E+02  0.10787537462E+03  0.41800000000E+01 0. -1.
         -5    1    3    3    0  502  0.87989131458E+02  0.20648576886E+03 -0.52804251548E+02  0.23061704486E+03  0.41800000000E+01 0. -1.
        -11    1    4    4    0    0 -0.17095492962E+03 -0.16555055947E+03  0.39327591839E+01  0.23800849207E+03  0.00000000000E+00 0.  1.
         11    1    4    4    0    0 -0.15095062807E+02 -0.74139138454E+02 -0.26025246867E+02  0.80011163260E+02  0.00000000000E+00 0. -1.
</event>
<event>
 8    1  0.6862919E-009  0.1067943E+03  0.7561462E-02  0.1266624E+00
         -2   -1    0    0    0  501 -0.00000000000E+00  0.00000000000E+00  0.84525952503E+02  0.84525952503E+02  0.00000000000E+00 0.  1.
          2   -1    0    0  501    0  0.00000000000E+00 -0.00000000000E+00 -0.25731896147E+03  0.25731896147E+03  0.00000000000E+00 0. -1.
         25    2    1    2    0    0  0.52611159681E+01  0.50573931562E+02  0.38938437749E+01  0.13508436494E+03  0.12508885537E+03 0.  0.
         23    2    1    2    0    0 -0.52611159681E+01 -0.50573931562E+02 -0.17668685275E+03  0.20676054904E+03  0.94584770493E+02 0.  0.
          5    1    3    3  502    0  0.44514828475E+01 -0.35871631158E+02  0.27224226518E+02  0.45444697502E+02  0.41800000000E+01 0. -1.
         -5    1    3    3    0  502  0.80963312068E+00  0.86445562721E+02 -0.23330382743E+02  0.89639667441E+02  0.41800000000E+01 0. -1.
        -11    1    4    4    0    0  0.21428006016E+02  0.10601170939E+02 -0.77737319438E+01  0.25139116441E+02  0.00000000000E+00 0.  1.
         11    1    4    4    0    0 -0.26689121985E+02 -0.61175102501E+02 -0.16891312080E+03  0.18162143259E+03  0.00000000000E+00 0. -1.
</event>
<event>
 8    1  0.6862919E-009  0.1269525E+03  0.7561462E-02  0.1232049E+00
         -2   -1    0    0    0  501 -0.00000000000E+00  0.00000000000E+00  0.42486643253E+02  0.42486643253E+02  0.00000000000E+00 0.  1.
          2   -1    0    0  501    0  0.00000000000E+00 -0.00000000000E+00 -0.47361434139E+03  0.47361434139E+03  0.00000000000E+00 0. -1.
         25    2    1    2    0    0 -0.71079219803E+02 -0.58722862304E+02 -0.25142974989E+03  0.29557674698E+03  0.12509222269E+03 0.  0.
         23    2    1    2    0    0  0.71079219803E+02  0.58722862304E+02 -0.17969794824E+03  0.22052423766E+03  0.88537883137E+02 0.  0.
          5    1    3    3  502    0 -0.94277025263E+02 -0.31114061943E+02 -0.23612331332E+03  0.25617949534E+03  0.41800000000E+01 0. -1.
         -5    1    3    3    0  502  0.23197805460E+02 -0.27608800361E+02 -0.15306436577E+02  0.39397251633E+02  0.41800000000E+01 0. -1.
        -11    1    4    4    0    0  0.60657727550E+02  0.76499701777E+02 -0.10648517834E+03  0.14446680411E+03  0.00000000000E+00 0.  1.
         11    1    4    4    0    0  0.10421492253E+02 -0.17776839473E+02 -0.73212769899E+02  0.76057433554E+02  0.00000000000E+00 0. -1.
</event>
<event>
 8    1  0.6862919E-009  0.9416467E+02  0.7561462E-02  0.1293069E+00
         -2   -1    0    0    0  501 -0.00000000000E+00  0.00000000000E+00  0.31175367076E+02  0.31175367076E+02  0.00000000000E+00 0. -1.
          2   -1    0    0  501    0  0.00000000000E+00 -0.00000000000E+00 -0.52441948981E+03  0.52441948981E+03  0.00000000000E+00 0.  1.
         25    2    1    2    0    0 -0.39729515151E+02 -0.19297784452E+02 -0.39974911329E+03  0.42118573666E+03  0.12508889770E+03 0.  0.
         23    2    1    2    0    0  0.39729515151E+02  0.19297784452E+02 -0.93495009443E+02  0.13440912023E+03  0.85869994472E+02 0.  0.
          5    1    3    3  502    0  0.22194292504E+02 -0.33091989700E+02 -0.42828398871E+02  0.58646487976E+02  0.41800000000E+01 0. -1.
         -5    1    3    3    0  502 -0.61923807656E+02  0.13794205248E+02 -0.35692071442E+03  0.36253924868E+03  0.41800000000E+01 0. -1.
        -11    1    4    4    0    0  0.11936207947E+02 -0.27656603632E+02 -0.67610467908E+02  0.74017134201E+02  0.00000000000E+00 0.  1.
         11    1    4    4    0    0  0.27793307204E+02  0.46954388084E+02 -0.25884541535E+02  0.60391986027E+02  0.00000000000E+00 0. -1.
</event>
<event>
 8    1  0.6862919E-009  0.1907188E+03  0.7561462E-02  0.1157815E+00
          2   -1    0    0  501    0  0.00000000000E+00  0.00000000000E+00  0.26584531158E+03  0.26584531158E+03  0.00000000000E+00 0. -1.
         -2   -1    0    0    0  501 -0.00000000000E+00 -0.00000000000E+00 -0.17325509206E+03  0.17325509206E+03  0.00000000000E+00 0.  1.
         25    2    1    2    0    0  0.10835067829E+03  0.14302538573E+03  0.93484381424E+02  0.23787062192E+03  0.12508786012E+03 0.  0.
         23    2    1    2    0    0 -0.10835067829E+03 -0.14302538573E+03 -0.89416190493E+00  0.20122978172E+03  0.91085097985E+02 0.  0.
          5    1    3    3  502    0 -0.22939113738E+01  0.19544400330E+02 -0.26424781502E+02  0.33211249466E+02  0.41800000000E+01 0. -1.
         -5    1    3    3    0  502  0.11064458966E+03  0.12348098540E+03  0.11990916293E+03  0.20465937245E+03  0.41800000000E+01 0. -1.
        -11    1    4    4    0    0 -0.26834908403E+02  0.42189542684E+01 -0.17179830502E+02  0.32141226800E+02  0.00000000000E+00 0.  1.
         11    1    4    4    0    0 -0.81515769886E+02 -0.14724434000E+03  0.16285668597E+02  0.16908855492E+03  0.00000000000E+00 0. -1.
</event>
<event>
 8    1  0.6862919E-009  0.9617204E+02  0.7561462E-02  0.1288558E+00
          4   -1    0    0  501    0  0.00000000000E+00  0.00000000000E+00  0.10757005522E+03  0.10757005522E+03  0.00000000000E+00 0. -1.
         -4   -1    0    0    0  501 -0.00000000000E+00 -0.00000000000E+00 -0.13812916369E+03  0.13812916369E+03  0.00000000000E+00 0.  1.
         25    2    1    2    0    0  0.23564126182E+02 -0.74084276850E+01  0.33533868886E+02  0.13184169477E+03  0.12509020455E+03 0.  0.
         23    2    1    2    0    0 -0.23564126182E+02  0.74084276850E+01 -0.64092977351E+02  0.11385752414E+03  0.90804588065E+02 0.  0.
          5    1    3    3  502    0 -0.47430366865E+02  0.72192320316E+01 -0.70361531450E+01  0.48669670875E+02  0.41800000000E+01 0.  1.
         -5    1    3    3    0  502  0.70994493047E+02 -0.14627659717E+02  0.40570022031E+02  0.83172023898E+02  0.41800000000E+01 0.  1.
        -11    1    4    4    0    0 -0.47309626925E+02  0.28112172854E+01 -0.22423947592E+01  0.47446096538E+02  0.00000000000E+00 0. -1.
         11    1    4    4    0    0  0.23745500743E+02  0.45972103996E+01 -0.61850582592E+02  0.66411427600E+02  0.00000000000E+00 0.  1.
</event>
<event>
 8    1  0.6862919E-009  0.9803990E+02  0.7561462E-02  0.1284473E+00
          4   -1    0    0  501    0  0.00000000000E+00  0.00000000000E+00  0.34035267449E+03  0.34035267449E+03  0.00000000000E+00 0. -1.
         -4   -1    0    0    0  501 -0.00000000000E+00 -0.00000000000E+00 -0.58594485624E+02  0.58594485624E+02  0.00000000000E+00 0.  1.
         25    2    1    2    0    0  0.65758129776E+02 -0.64451945387E+02  0.15446129204E+03  0.21905209687E+03  0.12508935010E+03 0.  0.
         23    2    1    2    0    0 -0.65758129776E+02  0.64451945387E+02  0.12729689682E+03  0.17989506324E+03  0.87633035681E+02 0.  0.
          5    1    3    3  502    0  0.62756941568E+02 -0.61475559399E+02  0.17597664835E+03  0.19673060586E+03  0.41800000000E+01 0. -1.
         -5    1    3    3    0  502  0.30011882076E+01 -0.29763859881E+01 -0.21515356302E+02  0.22321491012E+02  0.41800000000E+01 0. -1.
        -11    1    4    4    0    0 -0.63567594007E+02  0.34833096667E+02  0.30494463969E+02  0.78639023162E+02  0.00000000000E+00 0.  1.
         11    1    4    4    0    0 -0.21905357693E+01  0.29618848720E+02  0.96802432851E+02  0.10125604008E+03  0.00000000000E+00 0. -1.
</event>
<event>
 8    1  0.6862919E-009  0.1027223E+03  0.7561462E-02  0.1274673E+00
          1   -1    0    0  501    0  0.00000000000E+00  0.00000000000E+00  0.15793488626E+03  0.15793488626E+03  0.00000000000E+00 0. -1.
         -1   -1    0    0    0  501 -0.00000000000E+00 -0.00000000000E+00 -0.94140349586E+02  0.94140349586E+02  0.00000000000E+00 0.  1.
         25    2    1    2    0    0  0.60166235276E+01  0.53859678501E+02  0.47533645831E+02  0.14438811210E+03  0.12510561419E+03 0.  0.
         23    2    1    2    0    0 -0.60166235276E+01 -0.53859678501E+02  0.16260890844E+02  0.10768712375E+03  0.91624425364E+02 0.  0.
          5    1    3    3  502    0 -0.37087247129E+02  0.45920388439E+02 -0.21119329945E+02  0.62830283075E+02  0.41800000000E+01 0. -1.
         -5    1    3    3    0  502  0.43103870657E+02  0.79392900622E+01  0.68652975775E+02  0.81557829024E+02  0.41800000000E+01 0. -1.
        -11    1    4    4    0    0  0.14330035995E+02 -0.72948750374E+02 -0.19530244294E+01  0.74368571434E+02  0.00000000000E+00 0.  1.
         11    1    4    4    0    0 -0.20346659523E+02  0.19089071873E+02  0.18213915273E+02  0.33318552314E+02  0.00000000000E+00 0. -1.
</event>
<event>
 8    1  0.6862919E-009  0.1076895E+03  0.7561462E-02  0.1264909E+00
         -1   -1    0    0    0  501 -0.00000000000E+00  0.00000000000E+00  0.55992572352E+03  0.55992572352E+03  0.00000000000E+00 0.  1.
          1   -1    0    0  501    0  0.00000000000E+00 -0.00000000000E+00 -0.28317010949E+02  0.28317010949E+02  0.00000000000E+00 0. -1.
         25    2    1    2    0    0 -0.15473902007E+02 -0.62967890947E+02  0.29298730593E+03  0.32510456102E+03  0.12508803789E+03 0.  0.
         23    2    1    2    0    0  0.15473902007E+02  0.62967890947E+02  0.23862140664E+03  0.26313817345E+03  0.89984030179E+02 0.  0.
          5    1    3    3  502    0  0.38366477788E+02  0.18425517637E+02  0.77627598983E+02  0.88628453907E+02  0.41800000000E+01 0.  1.
         -5    1    3    3    0  502 -0.53840379795E+02 -0.81393408584E+02  0.21535970695E+03  0.23647610711E+03  0.41800000000E+01 0.  1.
        -11    1    4    4    0    0 -0.47461315294E+01  0.51440275997E+02  0.23370899080E+03  0.23935020397E+03  0.00000000000E+00 0.  1.
         11    1    4    4    0    0  0.20220033536E+02  0.11527614950E+02  0.49124158370E+01  0.23787969480E+02  0.00000000000E+00 0. -1.
</event>
<event>
 8    1  0.6862919E-009  0.1101065E+03  0.7561462E-02  0.1260373E+00
          1   -1    0    0  501    0  0.00000000000E+00  0.00000000000E+00  0.45586665728E+02  0.45586665728E+02  0.00000000000E+00 0. -1.
         -1   -1    0    0    0  501 -0.00000000000E+00 -0.00000000000E+00 -0.27824741787E+03  0.27824741787E+03  0.00000000000E+00 0.  1.
         25    2    1    2    0    0  0.18140955708E+02 -0.18084839351E+02 -0.15558891435E+03  0.20127535681E+03  0.12509078025E+03 0.  0.
         23    2    1    2    0    0 -0.18140955708E+02  0.18084839351E+02 -0.77071837791E+02  0.12255872679E+03  0.91784626395E+02 0.  0.
          5    1    3    3  502    0 -0.53064946650E+02 -0.16411705898E+02 -0.58348787685E+02  0.80667751164E+02  0.41800000000E+01 0.  1.
         -5    1    3    3    0  502  0.71205902358E+02 -0.16731334528E+01 -0.97240126667E+02  0.12060760565E+03  0.41800000000E+01 0.  1.
        -11    1    4    4    0    0 -0.54760675294E+02  0.10148973924E+02 -0.33097271410E+02  0.64785512309E+02  0.00000000000E+00 0. -1.
         11    1    4    4    0    0  0.36619719586E+02  0.79358654275E+01 -0.43974566381E+02  0.57773214477E+02  0.00000000000E+00 0.  1.
</event>
<event>
 8    1  0.6862919E-009  0.2247996E+03  0.7561462E-02  0.1130355E+00
         -1   -1    0    0    0  501 -0.00000000000E+00  0.00000000000E+00  0.67578028076E+02  0.67578028076E+02  0.00000000000E+00 0.  1.
          1   -1    0    0  501    0  0.00000000000E+00 -0.00000000000E+00 -0.87438199291E+03  0.87438199291E+03  0.00000000000E+00 0. -1.
         25    2    1    2    0    0 -0.18389287789E+03 -0.11242343245E+03 -0.46264834907E+03  0.52549753078E+03  0.12509412959E+03 0.  0.
         23    2    1    2    0    0  0.18389287789E+03  0.11242343245E+03 -0.34415561576E+03  0.41646249020E+03  0.92424559414E+02 0.  0.
          5    1    3    3  502    0 -0.13241873190E+03 -0.11617570105E+03 -0.24506246596E+03  0.30183538344E+03  0.41800000000E+01 0. -1.
         -5    1    3    3    0  502 -0.51474145994E+02  0.37522686032E+01 -0.21758588311E+03  0.22366214735E+03  0.41800000000E+01 0. -1.
        -11    1    4    4    0    0  0.13092210063E+03  0.10560334480E+03 -0.31107695443E+03  0.35364040273E+03  0.00000000000E+00 0. -1.
         11    1    4    4    0    0  0.52970777259E+02  0.68200876516E+01 -0.33078661337E+02  0.62822087476E+02  0.00000000000E+00 0.  1.
</event>
<event>
 8    1  0.6862919E-009  0.1585627E+03  0.7561462E-02  0.1190329E+00
          2   -1    0    0  501    0  0.00000000000E+00  0.00000000000E+00  0.84397197673E+03  0.84397197673E+03  0.00000000000E+00 0. -1.
         -2   -1    0    0    0  501 -0.00000000000E+00 -0.00000000000E+00 -0.32357449109E+02  0.32357449109E+02  0.00000000000E+00 0.  1.
         25    2    1    2    0    0  0.11945656309E+03 -0.33439424014E+02  0.41194723761E+03  0.44803542337E+03  0.12508856252E+03 0.  0.
         23    2    1    2    0    0 -0.11945656309E+03  0.33439424014E+02  0.39966729000E+03  0.42829400247E+03  0.91179736264E+02 0.  0.
          5    1    3    3  502    0  0.25174741178E+02 -0.65831603789E+02  0.22913245662E+03  0.23976388954E+03  0.41800000000E+01 0. -1.
         -5    1    3    3    0  502  0.94281821914E+02  0.32392179775E+02  0.18281478099E+03  0.20827153383E+03  0.41800000000E+01 0. -1.
        -11    1    4    4    0    0 -0.27261585244E+02 -0.25490362922E+02  0.53400496993E+02  0.65150331626E+02  0.00000000000E+00 0.  1.
         11    1    4    4    0    0 -0.92194977848E+02  0.58929786937E+02  0.34626679301E+03  0.36314367084E+03  0.00000000000E+00 0. -1.
</event>
<event>
 8    1  0.6862919E-009  0.1409992E+03  0.7561462E-02  0.1211991E+00
          2   -1    0    0  501    0  0.00000000000E+00  0.00000000000E+00  0.14763160390E+04  0.14763160390E+04  0.00000000000E+00 0. -1.
         -2   -1    0    0    0  501 -0.00000000000E+00 -0.00000000000E+00 -0.15226983633E+02  0.15226983633E+02  0.00000000000E+00 0.  1.
         25    2    1    2    0    0 -0.87253219231E+02  0.11206881066E+02  0.10379151656E+04  0.10491208587E+04  0.12509183330E+03 0.  0.
         23    2    1    2    0    0  0.87253219231E+02 -0.11206881066E+02  0.42317388981E+03  0.44242216396E+03  0.94459047730E+02 0.  0.
          5    1    3    3  502    0 -0.11513818712E+03 -0.12756999762E+02  0.79026953177E+03  0.79872582806E+03  0.41800000000E+01 0.  1.
         -5    1    3    3    0  502  0.27884967886E+02  0.23963880829E+02  0.24764563383E+03  0.25039503064E+03  0.41800000000E+01 0.  1.
        -11    1    4    4    0    0  0.77663341388E+02  0.32602789067E+02  0.27740481307E+03  0.28991027364E+03  0.00000000000E+00 0. -1.
         11    1    4    4    0    0  0.95898778433E+01 -0.43809670134E+02  0.14576907674E+03  0.15251189032E+03  0.00000000000E+00 0.  1.
</event>
<event>
 8    1  0.6862919E-009  0.9606890E+02  0.7561462E-02  0.1288787E+00
          2   -1    0    0  501    0  0.00000000000E+00  0.00000000000E+00  0.25100433672E+03  0.25100433672E+03  0.00000000000E+00 0. -1.
         -2   -1    0    0    0  501 -0.00000000000E+00 -0.00000000000E+00 -0.49199527654E+02  0.49199527654E+02  0.00000000000E+00 0.  1.
         25    2    1    2    0    0  0.16039464751E+02 -0.95395795683E+01  0.13721044690E+03  0.18660717279E+03  0.12508901706E+03 0.  0.
         23    2    1    2    0    0 -0.16039464751E+02  0.95395795683E+01  0.64594362163E+02  0.11359669158E+03  0.91561502322E+02 0.  0.
          5    1    3    3  502    0  0.52417406795E+02 -0.26736094108E+02  0.19485427709E+02  0.62125337474E+02  0.41800000000E+01 0.  1.
         -5    1    3    3    0  502 -0.36377942044E+02  0.17196514539E+02  0.11772501919E+03  0.12448183532E+03  0.41800000000E+01 0.  1.
        -11    1    4    4    0    0 -0.10920876287E+02  0.50371402721E+02  0.43001071414E+02  0.67124033651E+02  0.00000000000E+00 0. -1.
         11    1    4    4    0    0 -0.51185884644E+01 -0.40831823152E+02  0.21593290750E+02  0.46472657931E+02  0.00000000000E+00 0.  1.
</event>
<event>
 8    1  0.6862919E-009  0.1697998E+03  0.7561462E-02  0.1178057E+00
         -2   -1    0    0    0  501 -0.00000000000E+00  0.00000000000E+00  0.46650288538E+02  0.46650288538E+02  0.00000000000E+00 0.  1.
          2   -1    0    0  501    0  0.00000000000E+00 -0.00000000000E+00 -0.79225131916E+03  0.79225131916E+03  0.00000000000E+00 0. -1.
         25    2    1    2    0    0 -0.12653988240E+03 -0.27898044559E+02 -0.19496522164E+03  0.26542399874E+03  0.12509124162E+03 0.  0.
         23    2    1    2    0    0  0.12653988240E+03  0.27898044559E+02 -0.55063580898E+03  0.57347760896E+03  0.94266277738E+02 0.  0.
          5    1    3    3  502    0 -0.63770994714E+02 -0.76637184263E+02 -0.12031784388E+03  0.15631331912E+03  0.41800000000E+01 0.  1.
         -5    1    3    3    0  502 -0.62768887683E+02  0.48739139704E+02 -0.74647377757E+02  0.10911067962E+03  0.41800000000E+01 0.  1.
        -11    1    4    4    0    0  0.57799243778E+02  0.60916465783E+02 -0.29120074260E+03  0.30306672677E+03  0.00000000000E+00 0.  1.
         11    1    4    4    0    0  0.68740638619E+02 -0.33018421224E+02 -0.25943506639E+03  0.27041088219E+03  0.00000000000E+00 0. -1.
</event>
<event>
 8    1  0.6862919E-009  0.9852052E+02  0.7561462E-02  0.1283438E+00
         -2   -1    0    0    0  501 -0.00000000000E+00  0.00000000000E+00  0.57292598974E+02  0.57292598974E+02  0.00000000000E+00 0.  1.
          2   -1    0    0  501    0  0.00000000000E+00 -0.00000000000E+00 -0.36937542652E+03  0.36937542652E+03  0.00000000000E+00 0. -1.
         25    2    1    2    0    0 -0.79821875319E+02 -0.47551229367E+01 -0.24742825938E+03  0.28855204198E+03  0.12508954560E+03 0.  0.
         23    2    1    2    0    0  0.79821875319E+02  0.47551229367E+01 -0.64654568168E+02  0.13811598352E+03  0.92204494163E+02 0.  0.
          5    1    3    3  502    0  0.79791545016E+01  0.52930608248E+01  0.11136280875E+02  0.15269988579E+02  0.41800000000E+01 0. -1.
         -5    1    3    3    0  502 -0.87801029820E+02 -0.10048183761E+02 -0.25856454025E+03  0.27328205340E+03  0.41800000000E+01 0. -1.
        -11    1    4    4    0    0  0.16772267577E+02  0.26555122249E+02 -0.64122855394E+02  0.71401849144E+02  0.00000000000E+00 0. -1.
         11    1    4    4    0    0  0.63049607742E+02 -0.21799999313E+02 -0.53171277364E+00  0.66714134371E+02  0.00000000000E+00 0.  1.
</event>
<event>
 8    1  0.6862919E-009  0.1151546E+03  0.7561462E-02  0.1251312E+00
          1   -1    0    0  501    0  0.00000000000E+00  0.00000000000E+00  0.87703334797E+02  0.87703334797E+02  0.00000000000E+00 0. -1.
         -1   -1    0    0    0  501 -0.00000000000E+00 -0.00000000000E+00 -0.21629589226E+03  0.21629589226E+03  0.00000000000E+00 0.  1.
         25    2    1    2    0    0 -0.66735570735E+02 -0.15608158104E+02 -0.15394581398E+02  0.14346823786E+03  0.12509552805E+03 0.  0.
         23    2    1    2    0    0  0.66735570735E+02  0.15608158104E+02 -0.11319797606E+03  0.16053098919E+03  0.90879952169E+02 0.  0.
          5    1    3    3  502    0  0.31285395799E+02 -0.14473456588E+02 -0.27918883088E+02  0.44555508849E+02  0.41800000000E+01 0.  1.
         -5    1    3    3    0  502 -0.98020966533E+02 -0.11347015160E+01  0.12524301690E+02  0.98912729011E+02  0.41800000000E+01 0.  1.
        -11    1    4    4    0    0  0.81382205330E+02  0.11047469458E+02 -0.11860600771E+03  0.14426536310E+03  0.00000000000E+00 0.  1.
         11    1    4    4    0    0 -0.14646634595E+02  0.45606886455E+01  0.54080316474E+01  0.16265626093E+02  0.00000000000E+00 0. -1.
</event>
<event>
 8    1  0.6862919E-009  0.1624510E+03  0.7561462E-02  0.1185957E+00
         -2   -1    0    0    0  501 -0.00000000000E+00  0.00000000000E+00  0.35095693981E+02  0.35095693981E+02  0.00000000000E+00 0.  1.
          2   -1    0    0  501    0  0.00000000000E+00 -0.00000000000E+00 -0.96529694533E+03  0.96529694533E+03  0.00000000000E+00 0. -1.
         25    2    1    2    0    0  0.85291853521E+02  0.89703983520E+02 -0.26709554557E+03  0.31985659515E+03  0.12508679411E+03 0.  0.
         23    2    1    2    0    0 -0.85291853521E+02 -0.89703983520E+02 -0.66310570577E+03  0.68053604416E+03  0.89992363199E+02 0.  0.
          5    1    3    3  502    0 -0.14259466427E+02  0.70039394047E+02 -0.13926610236E+03  0.15659300357E+03  0.41800000000E+01 0.  1.
         -5    1    3    3    0  502  0.99551319949E+02  0.19664589473E+02 -0.12782944321E+03  0.16326359158E+03  0.41800000000E+01 0.  1.
        -11    1    4    4    0    0 -0.90789142295E+02 -0.35853371090E+02 -0.38262785643E+03  0.39488252568E+03  0.00000000000E+00 0.  1.
         11    1    4    4    0    0  0.54972887736E+01 -0.53850612430E+02 -0.28047784935E+03  0.28565351848E+03  0.00000000000E+00 0. -1.
</event>
<event>
 8    1  0.6862919E-009  0.1076275E+03  0.7561462E-02  0.1265028E+00
         -2   -1    0    0    0  501 -0.00000000000E+00  0.00000000000E+00  0.15562871515E+02  0.15562871515E+02  0.00000000000E+00 0.  1.
          2   -1    0    0  501    0  0.00000000000E+00 -0.00000000000E+00 -0.91068138491E+03  0.91068138491E+03  0.00000000000E+00 0. -1.
         25    2    1    2    0    0  0.61774463027E+01  0.43053327461E+02 -0.57257832226E+03  0.58769419174E+03  0.12508708178E+03 0.  0.
         23    2    1    2    0    0 -0.61774463027E+01 -0.43053327461E+02 -0.32254019113E+03  0.33855006469E+03  0.93232084371E+02 0.  0.
          5    1    3    3  502    0 -0.49924068462E+02  0.32912495127E+02 -0.15441067283E+03  0.16563747533E+03  0.41800000000E+01 0. -1.
         -5    1    3    3    0  502  0.56101514764E+02  0.10140832334E+02 -0.41816764943E+03  0.42205671641E+03  0.41800000000E+01 0. -1.
        -11    1    4    4    0    0 -0.35104225371E+02 -0.56288484971E+02 -0.26069919171E+03  0.26900700500E+03  0.00000000000E+00 0. -1.
         11    1    4    4    0    0  0.28926779069E+02  0.13235157510E+02 -0.61840999424E+02  0.69543059692E+02  0.00000000000E+00 0.  1.
</event>
<event>
 8    1  0.6862919E-009  0.1308131E+03  0.7561462E-02  0.1226254E+00
         -2   -1    0    0    0  501 -0.00000000000E+00  0.00000000000E+00  0.26017487304E+02  0.26017487304E+02  0.00000000000E+00 0.  1.
          2   -1    0    0  501    0  0.00000000000E+00 -0.00000000000E+00 -0.73927839624E+03  0.73927839624E+03  0.00000000000E+00 0. -1.
         25    2    1    2    0    0  0.77147664732E+02  0.38711070444E+02 -0.40496734119E+03  0.43254641738E+03  0.12509015395E+03 0.  0.
         23    2    1    2    0    0 -0.77147664732E+02 -0.38711070444E+02 -0.30829356775E+03  0.33274946616E+03  0.90702669007E+02 0.  0.
          5    1    3    3  502    0  0.96465919734E+02  0.59957360323E+02 -0.37023017253E+03  0.38728337400E+03  0.41800000000E+01 0.  1.
         -5    1    3    3    0  502 -0.19318255002E+02 -0.21246289879E+02 -0.34737168656E+02  0.45263043382E+02  0.41800000000E+01 0.  1.
        -11    1    4    4    0    0 -0.90080636639E+02 -0.48889413789E+02 -0.21703210774E+03  0.24001589878E+03  0.00000000000E+00 0.  1.
         11    1    4    4    0    0  0.12932971907E+02  0.10178343345E+02 -0.91261460004E+02  0.92733567372E+02  0.00000000000E+00 0. -1.
</event>
<event>
 8    1  0.6862919E-009  0.1160194E+03  0.7561462E-02  0.1249812E+00
         -2   -1    0    0    0  501 -0.00000000000E+00  0.00000000000E+00  0.91722177864E+03  0.91722177864E+03  0.00000000000E+00 0.  1.
          2   -1    0    0  501    0  0.00000000000E+00 -0.00000000000E+00 -0.23811815658E+02  0.23811815658E+02  0.00000000000E+00 0. -1.
         25    2    1    2    0    0  0.83772506815E+02 -0.44143923993E+02  0.57126964518E+03  0.59242169124E+03  0.12509170165E+03 0.  0.
         23    2    1    2    0    0 -0.83772506815E+02  0.44143923993E+02  0.32214031780E+03  0.34861190306E+03  0.93751563603E+02 0.  0.
          5    1    3    3  502    0  0.22853918968E+01 -0.11449156327E+02 -0.19048629878E+01  0.12546198616E+02  0.41800000000E+01 0.  1.
         -5    1    3    3    0  502  0.81487114918E+02 -0.32694767666E+02  0.57317450817E+03  0.57987549262E+03  0.41800000000E+01 0.  1.
        -11    1    4    4    0    0 -0.70990692953E+02 -0.13869024331E+02  0.20259795010E+03  0.21512312220E+03  0.00000000000E+00 0.  1.
         11    1    4    4    0    0 -0.12781813862E+02  0.58012948324E+02  0.11954236771E+03  0.13348878086E+03  0.00000000000E+00 0. -1.
</event>
<event>
 8    1  0.6862919E-009  0.1441412E+03  0.7561462E-02  0.1207863E+00
         -2   -1    0    0    0  501 -0.00000000000E+00  0.00000000000E+00  0.58832799239E+02  0.58832799239E+02  0.00000000000E+00 0.  1.
          2   -1    0    0  501    0  0.00000000000E+00 -0.00000000000E+00 -0.38922044349E+03  0.38922044349E+03  0.00000000000E+00 0. -1.
         25    2    1    2    0    0  0.28405624692E+02  0.92083544731E+02 -0.23445485909E+03  0.28269244421E+03  0.12513863647E+03 0.  0.
         23    2    1    2    0    0 -0.28405624692E+02 -0.92083544731E+02 -0.95932785168E+02  0.16536079852E+03  0.94100136525E+02 0.  0.
          5    1    3    3  502    0  0.72967135541E+02  0.84804503085E+02 -0.17803037672E+03  0.21030524018E+03  0.41800000000E+01 0. -1.
         -5    1    3    3    0  502 -0.44561510850E+02  0.72790416460E+01 -0.56424482363E+02  0.72387204024E+02  0.41800000000E+01 0. -1.
        -11    1    4    4    0    0  0.29852016311E+02 -0.12517329824E+02 -0.82559294710E+01  0.33406388538E+02  0.00000000000E+00 0.  1.
         11    1    4    4    0    0 -0.58257641002E+02 -0.79566214907E+02 -0.87676855697E+02  0.13195440999E+03  0.00000000000E+00 0. -1.
</event>
<event>
 8    1  0.6862919E-009  0.1150481E+03  0.7561462E-02  0.1251497E+00
          1   -1    0    0  501    0  0.00000000000E+00  0.00000000000E+00  0.25983234676E+02  0.25983234676E+02  0.00000000000E+00 0. -1.
         -1   -1    0    0    0  501 -0.00000000000E+00 -0.00000000000E+00 -0.66919518396E+03  0.66919518396E+03  0.00000000000E+00 0.  1.
         25    2    1    2    0    0  0.32330438276E+02  0.68689022392E+02 -0.37253820181E+03  0.40024346302E+03  0.12508668532E+03 0.  0.
         23    2    1    2    0    0 -0.32330438276E+02 -0.68689022392E+02 -0.27067374747E+03  0.29493495561E+03  0.89212731365E+02 0.  0.
          5    1    3    3  502    0  0.62875013403E+02  0.40096915435E+02 -0.10180525513E+03  0.12626484986E+03  0.41800000000E+01 0.  1.
         -5    1    3    3    0  502 -0.30544575127E+02  0.28592106958E+02 -0.27073294668E+03  0.27397861316E+03  0.41800000000E+01 0.  1.
        -11    1    4    4    0    0 -0.29931313508E+02  0.12281947632E+02 -0.47127227692E+02  0.57163846581E+02  0.00000000000E+00 0. -1.
         11    1    4    4    0    0 -0.23991247678E+01 -0.80970970024E+02 -0.22354651978E+03  0.23777110903E+03  0.00000000000E+00 0.  1.
</event>
<event>
 8    1  0.6862919E-009  0.1783039E+03  0.7561462E-02  0.1169455E+00
          1   -1    0    0  501    0  0.00000000000E+00  0.00000000000E+00  0.13363468201E+04  0.13363468201E+04  0.00000000000E+00 0. -1.
         -1   -1    0    0    0  501 -0.00000000000E+00 -0.00000000000E+00 -0.28523650743E+02  0.28523650743E+02  0.00000000000E+00 0.  1.
         25    2    1    2    0    0  0.14943624581E+03  0.47173407870E+02  0.82889327167E+03  0.85279986505E+03  0.12508809713E+03 0.  0.
         23    2    1    2    0    0 -0.14943624581E+03 -0.47173407870E+02  0.47892989773E+03  0.51207060583E+03  0.91027119279E+02 0.  0.
          5    1    3    3  502    0 -0.14064340142E+02  0.32303779056E+02  0.12021714542E+03  0.12534342527E+03  0.41800000000E+01 0. -1.
         -5    1    3    3    0  502  0.16350058596E+03  0.14869628814E+02  0.70867612625E+03  0.72745643978E+03  0.41800000000E+01 0. -1.
        -11    1    4    4    0    0 -0.61205515320E+02 -0.15306976628E+02  0.33059836769E+03  0.33656455452E+03  0.00000000000E+00 0. -1.
         11    1    4    4    0    0 -0.88230730495E+02 -0.31866431242E+02  0.14833153004E+03  0.17550605132E+03  0.00000000000E+00 0.  1.
</event>
<event>
 8    1  0.6862919E-009  0.3875232E+03  0.7561462E-02  0.1048188E+00
         -1   -1    0    0    0  501 -0.00000000000E+00  0.00000000000E+00  0.71219406064E+02  0.71219406064E+02  0.00000000000E+00 0.  1.
          1   -1    0    0  501    0  0.00000000000E+00 -0.00000000000E+00 -0.22773336970E+04  0.22773336970E+04  0.00000000000E+00 0. -1.
         25    2    1    2    0    0  0.81581538205E+02 -0.36864507013E+03 -0.86357997044E+03  0.95077419323E+03  0.12508583480E+03 0.  0.
         23    2    1    2    0    0 -0.81581538205E+02  0.36864507013E+03 -0.13425343205E+04  0.13977789098E+04  0.93982678941E+02 0.  0.
          5    1    3    3  502    0 -0.11506895155E+02 -0.22300416187E+03 -0.44534770043E+03  0.49821211499E+03  0.41800000000E+01 0.  1.
         -5    1    3    3    0  502  0.93088433360E+02 -0.14564090827E+03 -0.41823227001E+03  0.45256207824E+03  0.41800000000E+01 0.  1.
        -11    1    4    4    0    0 -0.17189732262E+02  0.14688444331E+03 -0.37589512439E+03  0.40394018260E+03  0.00000000000E+00 0.  1.
         11    1    4    4    0    0 -0.64391805943E+02  0.22176062682E+03 -0.96663919609E+03  0.99383872721E+03  0.00000000000E+00 0. -1.
</event>
<event>
 8    1  0.6862919E-009  0.1683884E+03  0.7561462E-02  0.1179539E+00
         -1   -1    0    0    0  501 -0.00000000000E+00  0.00000000000E+00  0.12608146820E+03  0.12608146820E+03  0.00000000000E+00 0.  1.
          1   -1    0    0  501    0  0.00000000000E+00 -0.00000000000E+00 -0.25626848596E+03  0.25626848596E+03  0.00000000000E+00 0. -1.
         25    2    1    2    0    0  0.14210255898E+03 -0.13278314035E+02 -0.72947121922E+02  0.20331830933E+03  0.12509037302E+03 0.  0.
         23    2    1    2    0    0 -0.14210255898E+03  0.13278314035E+02 -0.57239895844E+02  0.17903164482E+03  0.91686821734E+02 0.  0.
          5    1    3    3  502    0  0.42313353431E+02 -0.60201403798E+02 -0.53204373001E+01  0.73894575923E+02  0.41800000000E+01 0.  1.
         -5    1    3    3    0  502  0.99789205549E+02  0.46923089763E+02 -0.67626684622E+02  0.12942373341E+03  0.41800000000E+01 0.  1.
        -11    1    4    4    0    0 -0.12357251002E+03  0.30658137525E+02 -0.75246531478E+02  0.14789228218E+03  0.00000000000E+00 0. -1.
         11    1    4    4    0    0 -0.18530048965E+02 -0.17379823490E+02  0.18006635634E+02  0.31139362647E+02  0.00000000000E+00 0.  1.
</event>
<event>
 8    1  0.6862919E-009  0.9574139E+02  0.7561462E-02  0.1289515E+00
          2   -1    0    0  501    0  0.00000000000E+00  0.00000000000E+00  0.35330591285E+02  0.35330591285E+02  0.00000000000E+00 0. -1.
         -2   -1    0    0    0  501 -0.00000000000E+00 -0.00000000000E+00 -0.48718305448E+03  0.48718305448E+03  0.00000000000E+00 0.  1.
         25    2    1    2    0    0  0.33325013643E+02 -0.53315887586E+02 -0.17577004715E+03  0.22471183374E+03  0.12508860197E+03 0.  0.
         23    2    1    2    0    0 -0.33325013643E+02  0.53315887586E+02 -0.27608241604E+03  0.29780181203E+03  0.92256589980E+02 0.  0.
          5    1    3    3  502    0 -0.12524309101E+02  0.11089244237E+01  0.15616626216E+02  0.20480220853E+02  0.41800000000E+01 0. -1.
         -5    1    3    3    0  502  0.45849322744E+02 -0.54424812010E+02 -0.19138667337E+03  0.20423161288E+03  0.41800000000E+01 0. -1.
        -11    1    4    4    0    0 -0.18523494638E+02 -0.22816496047E+02 -0.42434732901E+02  0.51618009472E+02  0.00000000000E+00 0. -1.
         11    1    4    4    0    0 -0.14801519005E+02  0.76132383634E+02 -0.23364768314E+03  0.24618380255E+03  0.00000000000E+00 0.  1.
</event>
<event>
 8    1  0.6862919E-009  0.9166314E+02  0.7561462E-02  0.1298873E+00
          1   -1    0    0  501    0  0.00000000000E+00  0.00000000000E+00  0.94627866263E+03  0.94627866263E+03  0.00000000000E+00 0. -1.
         -1   -1    0    0    0  501 -0.00000000000E+00 -0.00000000000E+00 -0.23855612981E+02  0.23855612981E+02  0.00000000000E+00 0.  1.
         25    2    1    2    0    0 -0.26905820982E+00  0.69173892910E+02  0.71621557447E+03  0.73034041779E+03  0.12508907581E+03 0.  0.
         23    2    1    2    0    0  0.26905820982E+00 -0.69173892910E+02  0.20620747518E+03  0.23979385782E+03  0.10096767591E+03 0.  0.
          5    1    3    3  502    0 -0.26789816327E+02  0.72781270791E+02  0.21859199137E+03  0.23198003950E+03  0.41800000000E+01 0.  1.
         -5    1    3    3    0  502  0.26520758117E+02 -0.36073778814E+01  0.49762358310E+03  0.49836037829E+03  0.41800000000E+01 0.  1.
        -11    1    4    4    0    0 -0.17060648599E+02 -0.49467088351E+02  0.20702797228E+03  0.21353838031E+03  0.00000000000E+00 0. -1.
         11    1    4    4    0    0  0.17329706809E+02 -0.19706804559E+02 -0.82049709771E+00  0.26255477514E+02  0.00000000000E+00 0.  1.
</event>
<event>
 8    1  0.6862919E-009  0.1362803E+03  0.7561462E-02  0.1218424E+00
         -2   -1    0    0    0  501 -0.00000000000E+00  0.00000000000E+00  0.10724774586E+03  0.10724774586E+03  0.00000000000E+00 0.  1.
          2   -1    0    0  501    0  0.00000000000E+00 -0.00000000000E+00 -0.26146854285E+03  0.26146854285E+03  0.00000000000E+00 0. -1.
         25    2    1    2    0    0 -0.93106613142E+02 -0.22027903196E+02 -0.17516264320E+03  0.23554957308E+03  0.12509028690E+03 0.  0.
         23    2    1    2    0    0  0.93106613142E+02  0.22027903196E+02  0.20941846211E+02  0.13316671563E+03  0.90226067740E+02 0.  0.
          5    1    3    3  502    0 -0.87794341387E+01 -0.51027463626E+02 -0.18322176096E+02  0.55082257078E+02  0.41800000000E+01 0. -1.
         -5    1    3    3    0  502 -0.84327179003E+02  0.28999560431E+02 -0.15684046710E+03  0.18046731600E+03  0.41800000000E+01 0.  1.
        -11    1    4    4    0    0  0.28932269570E+02  0.52773117889E+02  0.12940541495E+02  0.61559205716E+02  0.00000000000E+00 0. -1.
         11    1    4    4    0    0  0.64174343572E+02 -0.30745214693E+02  0.80013047155E+01  0.71607509917E+02  0.00000000000E+00 0.  1.
</event>
<event>
 7    1  0.6862919E-009  0.1060869E+03  0.7561462E-02  0.1267993E+00
          3   -1    0    0  501    0  0.00000000000E+00  0.00000000000E+00  0.32862463257E+02  0.32862463257E+02  0.00000000000E+00 0. -1.
         -3   -1    0    0    0  501 -0.00000000000E+00 -0.00000000000E+00 -0.38410234986E+03  0.38410234986E+03  0.00000000000E+00 0.  1.
         23    2    1    2    0    0 -0.14881963867E+02 -0.22371430305E+02 -0.15890377074E+03  0.18592457117E+03  0.92712372788E+02 0.  0.
          5    1    1    2  502    0 -0.44588286086E+02 -0.22490412345E+02 -0.10375767476E+03  0.11522613148E+03  0.41800000000E+01 0. -1.
         -5    1    1    2    0  502  0.59470249953E+02  0.44861842650E+02 -0.88578441104E+02  0.11581411047E+03  0.41800000000E+01 0. -1.
        -11    1    3    3    0    0 -0.48459793868E+02 -0.27036913069E+01 -0.47463667831E+02  0.67885648942E+02  0.00000000000E+00 0.  1.
         11    1    3    3    0    0  0.33577830001E+02 -0.19667738998E+02 -0.11144010291E+03  0.11803892223E+03  0.00000000000E+00 0. -1.
</event>
<event>
 8    1  0.6862919E-009  0.1232015E+03  0.7561462E-02  0.1237907E+00
         -2   -1    0    0    0  501 -0.00000000000E+00  0.00000000000E+00  0.14041741999E+02  0.14041741999E+02  0.00000000000E+00 0.  1.
          2   -1    0    0  501    0  0.00000000000E+00 -0.00000000000E+00 -0.16750689701E+04  0.16750689701E+04  0.00000000000E+00 0. -1.
         25    2    1    2    0    0  0.81970065338E+02  0.23585207179E+02 -0.12499915911E+04  0.12591274869E+04  0.12509075474E+03 0.  0.
         23    2    1    2    0    0 -0.81970065338E+02 -0.23585207179E+02 -0.41103563699E+03  0.42998322516E+03  0.93058720330E+02 0.  0.
          5    1    3    3  502    0  0.94211840584E+02 -0.91757712354E+01 -0.53904466521E+03  0.54730858679E+03  0.41800000000E+01 0.  1.
         -5    1    3    3    0  502 -0.12241775245E+02  0.32760978415E+02 -0.71094692590E+03  0.71181890015E+03  0.41800000000E+01 0.  1.
        -11    1    4    4    0    0 -0.13070530789E+02 -0.42923022814E+02 -0.24662858968E+03  0.25067685555E+03  0.00000000000E+00 0. -1.
         11    1    4    4    0    0 -0.68899534549E+02  0.19337815634E+02 -0.16440704732E+03  0.17930636961E+03  0.00000000000E+00 0.  1.
</event>
<event>
 8    1  0.6862919E-009  0.5889001E+02  0.7561462E-02  0.1402550E+00
         -1   -1    0    0    0  501 -0.00000000000E+00  0.00000000000E+00  0.16854531396E+03  0.16854531396E+03  0.00000000000E+00 0.  1.
          1   -1    0    0  501    0  0.00000000000E+00 -0.00000000000E+00 -0.88328003226E+02  0.88328003226E+02  0.00000000000E+00 0. -1.
         25    2    1    2    0    0 -0.75018912951E+01  0.18363013997E+02 -0.10616137070E+02  0.12709605218E+03  0.12508887024E+03 0.  0.
         23    2    1    2    0    0  0.75018912951E+01 -0.18363013997E+02  0.90833447805E+02  0.12977726500E+03  0.90542501710E+02 0.  0.
          5    1    3    3  502    0  0.76650394581E+01  0.18565113156E+01 -0.66313535910E+02  0.66911560354E+02  0.41800000000E+01 0.  1.
         -5    1    3    3    0  502 -0.15166930753E+02  0.16506502681E+02  0.55697398840E+02  0.60184491829E+02  0.41800000000E+01 0.  1.
        -11    1    4    4    0    0  0.41928684099E+02  0.80059257849E+01  0.69222483714E+02  0.81325651854E+02  0.00000000000E+00 0.  1.
         11    1    4    4    0    0 -0.34426792803E+02 -0.26368939782E+02  0.21610964091E+02  0.48451613150E+02  0.00000000000E+00 0. -1.
</event>
<event>
 8    1  0.6862919E-009  0.7035109E+02  0.7561462E-02  0.1358903E+00
         -2   -1    0    0    0  501 -0.00000000000E+00  0.00000000000E+00  0.15691219858E+03  0.15691219858E+03  0.00000000000E+00 0.  1.
          2   -1    0    0  501    0  0.00000000000E+00 -0.00000000000E+00 -0.10698969958E+03  0.10698969958E+03  0.00000000000E+00 0. -1.
         25    2    1    2    0    0 -0.92151037870E+01 -0.34787108268E+02  0.90334101005E+02  0.15843837783E+03  0.12508960278E+03 0.  0.
         23    2    1    2    0    0  0.92151037870E+01  0.34787108268E+02 -0.40411602009E+02  0.10546352034E+03  0.90522900449E+02 0.  0.
          5    1    3    3  502    0  0.43557012059E+02 -0.17694250220E+02  0.91325110569E+02  0.10280101172E+03  0.41800000000E+01 0.  1.
         -5    1    3    3    0  502 -0.52772115846E+02 -0.17092858047E+02 -0.99100956441E+00  0.55637366105E+02  0.41800000000E+01 0.  1.
        -11    1    4    4    0    0  0.11771409159E+02  0.23281683333E+02 -0.69415708544E+02  0.74156209754E+02  0.00000000000E+00 0. -1.
         11    1    4    4    0    0 -0.25563053721E+01  0.11505424935E+02  0.29004106535E+02  0.31307310584E+02  0.00000000000E+00 0.  1.
</event>
<event>
 8    1  0.6862919E-009  0.1280683E+03  0.7561462E-02  0.1230350E+00
         -2   -1    0    0    0  501 -0.00000000000E+00  0.00000000000E+00  0.10268019249E+03  0.10268019249E+03  0.00000000000E+00 0.  1.
          2   -1    0    0  501    0  0.00000000000E+00 -0.00000000000E+00 -0.16282855347E+03  0.16282855347E+03  0.00000000000E+00 0. -1.
         25    2    1    2    0    0  0.14020820242E+02 -0.68468305861E+02 -0.41285391849E+02  0.14911906969E+03  0.12509005179E+03 0.  0.
         23    2    1    2    0    0 -0.14020820242E+02  0.68468305861E+02 -0.18862969130E+02  0.11638967628E+03  0.91138646202E+02 0.  0.
          5    1    3    3  502    0  0.63097645736E+02 -0.67062025119E+02 -0.38110767238E+02  0.99742323463E+02  0.41800000000E+01 0. -1.
         -5    1    3    3    0  502 -0.49076825494E+02 -0.14062807428E+01 -0.31746246107E+01  0.49376746222E+02  0.41800000000E+01 0. -1.
        -11    1    4    4    0    0  0.36460569445E+02  0.47850092787E+02 -0.67958020628E+01  0.60540791452E+02  0.00000000000E+00 0.  1.
         11    1    4    4    0    0 -0.50481389687E+02  0.20618213074E+02 -0.12067167067E+02  0.55848884824E+02  0.00000000000E+00 0. -1.
</event>
<event>
 8    1  0.6862919E-009  0.2316251E+03  0.7561462E-02  0.1125501E+00
         -3   -1    0    0    0  501 -0.00000000000E+00  0.00000000000E+00  0.86240278109E+02  0.86240278109E+02  0.00000000000E+00 0.  1.
          3   -1    0    0  501    0  0.00000000000E+00 -0.00000000000E+00 -0.72370795144E+03  0.72370795144E+03  0.00000000000E+00 0. -1.
         25    2    1    2    0    0 -0.86296895797E+02 -0.20024087708E+03 -0.41850582059E+03  0.48819906251E+03  0.12509052600E+03 0.  0.
         23    2    1    2    0    0  0.86296895797E+02  0.20024087708E+03 -0.21896185275E+03  0.32174916704E+03  0.89636323309E+02 0.  0.
          5    1    3    3  502    0 -0.67078191867E+01 -0.15023612305E+03 -0.19974160222E+03  0.25006012790E+03  0.41800000000E+01 0.  1.
         -5    1    3    3    0  502 -0.79589076610E+02 -0.50004754025E+02 -0.21876421837E+03  0.23813893461E+03  0.41800000000E+01 0.  1.
        -11    1    4    4    0    0  0.68897303955E+02  0.14029628806E+03 -0.20499918636E+03  0.25778780682E+03  0.00000000000E+00 0.  1.
         11    1    4    4    0    0  0.17399591842E+02  0.59944589019E+02 -0.13962666385E+02  0.63961360222E+02  0.00000000000E+00 0. -1.
</event>
<event>
 8    1  0.6862919E-009  0.9011472E+02  0.7561462E-02  0.1302574E+00
         -1   -1    0    0    0  501 -0.00000000000E+00  0.00000000000E+00  0.36757665384E+02  0.36757665384E+02  0.00000000000E+00 0.  1.
          1   -1    0    0  501    0  0.00000000000E+00 -0.00000000000E+00 -0.38718203512E+03  0.38718203512E+03  0.00000000000E+00 0. -1.
         25    2    1    2    0    0  0.20648581401E+02 -0.38518110037E+02 -0.23133242129E+03  0.26660508044E+03  0.12511423205E+03 0.  0.
         23    2    1    2    0    0 -0.20648581401E+02  0.38518110037E+02 -0.11909194845E+03  0.15733462006E+03  0.93066007602E+02 0.  0.
          5    1    3    3  502    0  0.44034892246E+02 -0.26657485885E+02 -0.23426541841E+03  0.23989049992E+03  0.41800000000E+01 0. -1.
         -5    1    3    3    0  502 -0.23386310846E+02 -0.11860624152E+02  0.29329971204E+01  0.26714580520E+02  0.41800000000E+01 0. -1.
        -11    1    4    4    0    0 -0.39762736167E+02 -0.17053029008E+02 -0.41045260821E+02  0.59637189921E+02  0.00000000000E+00 0. -1.
         11    1    4    4    0    0  0.19114154766E+02  0.55571139045E+02 -0.78046687625E+02  0.97697430142E+02  0.00000000000E+00 0.  1.
</event>
<event>
 8    1  0.6862919E-009  0.3369405E+03  0.7561462E-02  0.1068107E+00
          1   -1    0    0  501    0  0.00000000000E+00  0.00000000000E+00  0.83487742158E+02  0.83487742158E+02  0.00000000000E+00 0. -1.
         -1   -1    0    0    0  501 -0.00000000000E+00 -0.00000000000E+00 -0.14341295250E+04  0.14341295250E+04  0.00000000000E+00 0.  1.
         25    2    1    2    0    0  0.17889966107E+03 -0.27229366361E+03 -0.77774178404E+03  0.85245447430E+03  0.12508964834E+03 0.  0.
         23    2    1    2    0    0 -0.17889966107E+03  0.27229366361E+03 -0.57289999881E+03  0.66516279288E+03  0.89878831834E+02 0.  0.
          5    1    3    3  502    0 -0.12678787839E+02 -0.37810912243E+02 -0.49113225246E+02  0.63403454478E+02  0.41800000000E+01 0. -1.
         -5    1    3    3    0  502  0.19157844891E+03 -0.23448275137E+03 -0.72862855880E+03  0.78905101982E+03  0.41800000000E+01 0. -1.
        -11    1    4    4    0    0 -0.15196201537E+03  0.18395136553E+03 -0.34704995127E+03  0.42115819792E+03  0.00000000000E+00 0. -1.
         11    1    4    4    0    0 -0.26937645701E+02  0.88342298087E+02 -0.22585004754E+03  0.24400459496E+03  0.00000000000E+00 0.  1.
</event>
<event>
 8    1  0.6862919E-009  0.7795941E+02  0.7561462E-02  0.1334944E+00
         -2   -1    0    0    0  501 -0.00000000000E+00  0.00000000000E+00  0.58142132590E+02  0.58142132590E+02  0.00000000000E+00 0.  1.
          2   -1    0    0  501    0  0.00000000000E+00 -0.00000000000E+00 -0.23882798456E+03  0.23882798456E+03  0.00000000000E+00 0. -1.
         25    2    1    2    0    0 -0.32630425700E+02  0.12992589147E+02 -0.65280978015E+02  0.14540616140E+03  0.12509114128E+03 0.  0.
         23    2    1    2    0    0  0.32630425700E+02 -0.12992589147E+02 -0.11540487395E+03  0.15156395575E+03  0.91759444727E+02 0.  0.
          5    1    3    3  502    0 -0.55315152981E+02 -0.16505079231E+02  0.12383121029E+02  0.59186129086E+02  0.41800000000E+01 0.  1.
         -5    1    3    3    0  502  0.22684727281E+02  0.29497668378E+02 -0.77664099044E+02  0.86220032312E+02  0.41800000000E+01 0.  1.
        -11    1    4    4    0    0 -0.12092070252E+02  0.40275574344E+01  0.10728001849E+02  0.16659213833E+02  0.00000000000E+00 0.  1.
         11    1    4    4    0    0  0.44722495952E+02 -0.17020146581E+02 -0.12613287580E+03  0.13490474192E+03  0.00000000000E+00 0. -1.
</event>
<event>
 8    1  0.6862919E-009  0.1029030E+03  0.7561462E-02  0.1274307E+00
          2   -1    0    0  501    0  0.00000000000E+00  0.00000000000E+00  0.82859772897E+03  0.82859772897E+03  0.00000000000E+00 0. -1.
         -2   -1    0    0    0  501 -0.00000000000E+00 -0.00000000000E+00 -0.20420788630E+02  0.20420788630E+02  0.00000000000E+00 0.  1.
         25    2    1    2    0    0 -0.54772065910E+02  0.17788022759E+02  0.59093569924E+03  0.60676998194E+03  0.12509363449E+03 0.  0.
         23    2    1    2    0    0  0.54772065910E+02 -0.17788022759E+02  0.21724124110E+03  0.24224853566E+03  0.90411300383E+02 0.  0.
          5    1    3    3  502    0  0.25879424695E+02  0.34383635350E+02  0.33755865334E+03  0.34031646427E+03  0.41800000000E+01 0.  1.
         -5    1    3    3    0  502 -0.80651490605E+02 -0.16595612591E+02  0.25337704590E+03  0.26645351767E+03  0.41800000000E+01 0.  1.
        -11    1    4    4    0    0 -0.11374710215E+02 -0.62416763029E+01 -0.18433441113E+01  0.13104978942E+02  0.00000000000E+00 0.  1.
         11    1    4    4    0    0  0.66146776125E+02 -0.11546346456E+02  0.21908458521E+03  0.22914355672E+03  0.00000000000E+00 0. -1.
</event>
<event>
 8    1  0.6862919E-009  0.2546473E+03  0.7561462E-02  0.1110403E+00
         -2   -1    0    0    0  501 -0.00000000000E+00  0.00000000000E+00  0.39114252617E+03  0.39114252617E+03  0.00000000000E+00 0.  1.
          2   -1    0    0  501    0  0.00000000000E+00 -0.00000000000E+00 -0.18796389041E+03  0.18796389041E+03  0.00000000000E+00 0. -1.
         25    2    1    2    0    0 -0.21006284909E+03  0.11540360368E+03  0.17189600483E+03  0.32037593671E+03  0.12509241400E+03 0.  0.
         23    2    1    2    0    0  0.21006284909E+03 -0.11540360368E+03  0.31282630936E+02  0.25873047986E+03  0.92295535651E+02 0.  0.
          5    1    3    3  502    0 -0.14490262683E+03  0.33144798744E+02  0.15356714475E+03  0.21376550071E+03  0.41800000000E+01 0. -1.
         -5    1    3    3    0  502 -0.65160222252E+02  0.82258804938E+02  0.18328860081E+02  0.10661043601E+03  0.41800000000E+01 0. -1.
        -11    1    4    4    0    0  0.12793335134E+03 -0.11708097201E+03  0.91879651641E+01  0.17366437486E+03  0.00000000000E+00 0.  1.
         11    1    4    4    0    0  0.82129497742E+02  0.16773683255E+01  0.22094665772E+02  0.85066104998E+02  0.00000000000E+00 0. -1.
</event>
<event>
 8    1  0.6862919E-009  0.1255714E+03  0.7561462E-02  0.1234179E+00
         -1   -1    0    0    0  501 -0.00000000000E+00  0.00000000000E+00  0.66417945661E+02  0.66417945661E+02  0.00000000000E+00 0.  1.
          1   -1    0    0  501    0  0.00000000000E+00 -0.00000000000E+00 -0.40995039754E+03  0.40995039754E+03  0.00000000000E+00 0. -1.
         25    2    1    2    0    0  0.33707500042E+02 -0.94353370663E+02 -0.78335087067E+02  0.17838714353E+03  0.12508730149E+03 0.  0.
         23    2    1    2    0    0 -0.33707500042E+02  0.94353370663E+02 -0.26519736482E+03  0.29798119968E+03  0.91784524523E+02 0.  0.
          5    1    3    3  502    0  0.48995823664E+02 -0.52234431403E+02 -0.10418029605E+03  0.12649123703E+03  0.41800000000E+01 0.  1.
         -5    1    3    3    0  502 -0.15288323622E+02 -0.42118939260E+02  0.25845208983E+02  0.51895906495E+02  0.41800000000E+01 0.  1.
        -11    1    4    4    0    0  0.22238575912E+02  0.69885956056E+02 -0.16627310350E+03  0.18172877059E+03  0.00000000000E+00 0.  1.
         11    1    4    4    0    0 -0.55946075954E+02  0.24467414607E+02 -0.98924261315E+02  0.11625242909E+03  0.00000000000E+00 0. -1.
</event>
<event>
 8    1  0.6862919E-009  0.1052570E+03  0.7561462E-02  0.1269614E+00
         -2   -1    0    0    0  501 -0.00000000000E+00  0.00000000000E+00  0.16905813346E+02  0.16905813346E+02  0.00000000000E+00 0.  1.
          2   -1    0    0  501    0  0.00000000000E+00 -0.00000000000E+00 -0.93799790405E+03  0.93799790405E+03  0.00000000000E+00 0. -1.
         25    2    1    2    0    0  0.40350508463E+02 -0.25046859367E+02 -0.66975196469E+03  0.68298584581E+03  0.12508582120E+03 0.  0.
         23    2    1    2    0    0 -0.40350508463E+02  0.25046859367E+02 -0.25134012601E+03  0.27191787159E+03  0.92260290747E+02 0.  0.
          5    1    3    3  502    0  0.74413322608E+02  0.18930779808E+02 -0.34378440143E+03  0.35227958225E+03  0.41800000000E+01 0.  1.
         -5    1    3    3    0  502 -0.34062814145E+02 -0.43977639175E+02 -0.32596756327E+03  0.33070626356E+03  0.41800000000E+01 0.  1.
        -11    1    4    4    0    0 -0.56437470369E+02  0.25048559317E+02 -0.24789089148E+03  0.25546528623E+03  0.00000000000E+00 0. -1.
         11    1    4    4    0    0  0.16086961906E+02 -0.16999497344E-02 -0.34492345246E+01  0.16452585361E+02  0.00000000000E+00 0.  1.
</event>
<event>
 8    1  0.6862919E-009  0.1165948E+03  0.7561462E-02  0.1248823E+00
          2   -1    0    0  501    0  0.00000000000E+00  0.00000000000E+00  0.67731377552E+03  0.67731377552E+03  0.00000000000E+00 0. -1.
         -2   -1    0    0    0  501 -0.00000000000E+00 -0.00000000000E+00 -0.23961784663E+02  0.23961784663E+02  0.00000000000E+00 0.  1.
         25    2    1    2    0    0 -0.26538094516E+02 -0.57650899886E+02  0.31467872948E+03  0.34452642804E+03  0.12509140702E+03 0.  0.
         23    2    1    2    0    0  0.26538094516E+02  0.57650899886E+02  0.33867326137E+03  0.35674913214E+03  0.92425475915E+02 0.  0.
          5    1    3    3  502    0 -0.61583234867E+02  0.53158424608E+01  0.96118149455E+02  0.11435437924E+03  0.41800000000E+01 0.  1.
         -5    1    3    3    0  502  0.35045140350E+02 -0.62966742347E+02  0.21856058003E+03  0.23017204879E+03  0.41800000000E+01 0.  1.
        -11    1    4    4    0    0  0.52997397979E+02  0.30526245981E+02  0.11863750054E+03  0.13347446355E+03  0.00000000000E+00 0.  1.
         11    1    4    4    0    0 -0.26459303463E+02  0.27124653905E+02  0.22003576083E+03  0.22327466859E+03  0.00000000000E+00 0. -1.
</event>
<event>
 8    1  0.6862919E-009  0.1125439E+03  0.7561462E-02  0.1255930E+00
          2   -1    0    0  501    0  0.00000000000E+00  0.00000000000E+00  0.73478216849E+02  0.73478216849E+02  0.00000000000E+00 0. -1.
         -2   -1    0    0    0  501 -0.00000000000E+00 -0.00000000000E+00 -0.22410750755E+03  0.22410750755E+03  0.00000000000E+00 0.  1.
         25    2    1    2    0    0  0.38980808160E+02 -0.87059616653E+01 -0.18781353836E+02  0.13264578762E+03  0.12508744360E+03 0.  0.
         23    2    1    2    0    0 -0.38980808160E+02  0.87059616653E+01 -0.13184793687E+03  0.16493993678E+03  0.90697337982E+02 0.  0.
          5    1    3    3  502    0  0.10280237499E+02 -0.63457469511E+02 -0.27559412475E+02  0.70068019351E+02  0.41800000000E+01 0. -1.
         -5    1    3    3    0  502  0.28700570661E+02  0.54751507846E+02  0.87780586394E+01  0.62577768266E+02  0.41800000000E+01 0. -1.
        -11    1    4    4    0    0 -0.27771753056E+02 -0.40018577168E+02 -0.72420525047E+02  0.87278228869E+02  0.00000000000E+00 0.  1.
         11    1    4    4    0    0 -0.11209055105E+02  0.48724538833E+02 -0.59427411819E+02  0.77661707915E+02  0.00000000000E+00 0. -1.
</event>
<event>
 8    1  0.6862919E-009  0.9592816E+02  0.7561462E-02  0.1289099E+00
         -2   -1    0    0    0  501 -0.00000000000E+00  0.00000000000E+00  0.10597381054E+03  0.10597381054E+03  0.00000000000E+00 0.  1.
          2   -1    0    0  501    0  0.00000000000E+00 -0.00000000000E+00 -0.14619053593E+03  0.14619053593E+03  0.00000000000E+00 0. -1.
         25    2    1    2    0    0 -0.43528418099E+00 -0.31232007606E+02  0.31936895737E+02  0.13283981219E+03  0.12510324784E+03 0.  0.
         23    2    1    2    0    0  0.43528418099E+00  0.31232007606E+02 -0.72153621124E+02  0.11932453428E+03  0.89758407223E+02 0.  0.
          5    1    3    3  502    0  0.62163612403E+02 -0.13559877834E+02  0.16096485824E+02  0.65762863759E+02  0.41800000000E+01 0. -1.
         -5    1    3    3    0  502 -0.62598896584E+02 -0.17672129772E+02  0.15840409913E+02  0.67076948429E+02  0.41800000000E+01 0. -1.
        -11    1    4    4    0    0 -0.26329255584E+02  0.22866258145E+02 -0.82395407797E+02  0.89471217088E+02  0.00000000000E+00 0. -1.
         11    1    4    4    0    0  0.26764539765E+02  0.83657494612E+01  0.10241786673E+02  0.29853317188E+02  0.00000000000E+00 0.  1.
</event>
<event>
 8    1  0.6862919E-009  0.2195263E+03  0.7561462E-02  0.1134237E+00
          2   -1    0    0  501    0  0.00000000000E+00  0.00000000000E+00  0.31528614381E+03  0.31528614381E+03  0.00000000000E+00 0. -1.
         -2   -1    0    0    0  501 -0.00000000000E+00 -0.00000000000E+00 -0.19509402297E+03  0.19509402297E+03  0.00000000000E+00 0.  1.
         25    2    1    2    0    0 -0.18683413402E+03 -0.53028227390E+02  0.17379636428E+03  0.28908619207E+03  0.12508662468E+03 0.  0.
         23    2    1    2    0    0  0.18683413402E+03  0.53028227390E+02 -0.53604243442E+02  0.22129397471E+03  0.91534811923E+02 0.  0.
          5    1    3    3  502    0 -0.13981357068E+03 -0.89226396548E+02  0.97854524056E+02  0.19261922195E+03  0.41800000000E+01 0.  1.
         -5    1    3    3    0  502 -0.47020563336E+02  0.36198169157E+02  0.75941840224E+02  0.96466970116E+02  0.41800000000E+01 0.  1.
        -11    1    4    4    0    0  0.19505219219E+03  0.41371378506E+02 -0.44264924617E+02  0.20424576419E+03  0.00000000000E+00 0. -1.
         11    1    4    4    0    0 -0.82180581687E+01  0.11656848884E+02 -0.93393188254E+01  0.17048210525E+02  0.00000000000E+00 0.  1.
</event>
<event>
 8    1  0.6862919E-009  0.1024231E+03  0.7561462E-02  0.1275282E+00
         -1   -1    0    0    0  501 -0.00000000000E+00  0.00000000000E+00  0.32073820491E+02  0.32073820491E+02  0.00000000000E+00 0.  1.
          1   -1    0    0  501    0  0.00000000000E+00 -0.00000000000E+00 -0.38296059190E+03  0.38296059190E+03  0.00000000000E+00 0. -1.
         25    2    1    2    0    0 -0.69442047396E+01  0.31093958839E+02 -0.20326555819E+03  0.24079159999E+03  0.12509456912E+03 0.  0.
         23    2    1    2    0    0  0.69442047396E+01 -0.31093958839E+02 -0.14762121322E+03  0.17424281240E+03  0.86910752070E+02 0.  0.
          5    1    3    3  502    0 -0.26720993123E+02  0.70581721223E+02 -0.16765402885E+03  0.18390523819E+03  0.41800000000E+01 0.  1.
         -5    1    3    3    0  502  0.19776788383E+02 -0.39487762383E+02 -0.35611529340E+02  0.56886361799E+02  0.41800000000E+01 0.  1.
        -11    1    4    4    0    0  0.25190814726E+02 -0.51618055761E+02 -0.62885364893E+02  0.85167892687E+02  0.00000000000E+00 0.  1.
         11    1    4    4    0    0 -0.18246609987E+02  0.20524096921E+02 -0.84735848328E+02  0.89074919715E+02  0.00000000000E+00 0. -1.
</event>
<event>
 8    1  0.6862919E-009  0.1674373E+03  0.7561462E-02  0.1180547E+00
          2   -1    0    0  501    0  0.00000000000E+00  0.00000000000E+00  0.41372804963E+03  0.41372804963E+03  0.00000000000E+00 0. -1.
         -2   -1    0    0    0  501 -0.00000000000E+00 -0.00000000000E+00 -0.13678020325E+03  0.13678020325E+03  0.00000000000E+00 0.  1.
         25    2    1    2    0    0 -0.61617315768E+02  0.12302562172E+03 -0.42657216979E+02  0.19078592642E+03  0.12509050466E+03 0.  0.
         23    2    1    2    0    0  0.61617315768E+02 -0.12302562172E+03  0.31960506335E+03  0.35972232647E+03  0.91218191365E+02 0.  0.
          5    1    3    3  502    0 -0.89642636654E+01 -0.25654191557E+02 -0.12246507356E+02  0.30098918750E+02  0.41800000000E+01 0. -1.
         -5    1    3    3    0  502 -0.52653052102E+02  0.14867981328E+03 -0.30410709623E+02  0.16068700767E+03  0.41800000000E+01 0. -1.
        -11    1    4    4    0    0  0.25581966224E+02 -0.48354087167E+01  0.13562142475E+03  0.13809775170E+03  0.00000000000E+00 0. -1.
         11    1    4    4    0    0  0.36035349544E+02 -0.11819021301E+03  0.18398363860E+03  0.22162457476E+03  0.00000000000E+00 0.  1.
</event>
<event>
 8    1  0.6862919E-009  0.2191754E+03  0.7561462E-02  0.1134499E+00
         -2   -1    0    0    0  501 -0.00000000000E+00  0.00000000000E+00  0.27543732488E+02  0.27543732488E+02  0.00000000000E+00 0.  1.
          2   -1    0    0  501    0  0.00000000000E+00 -0.00000000000E+00 -0.18225763449E+04  0.18225763449E+04  0.00000000000E+00 0. -1.
         25    2    1    2    0    0  0.66237750771E+02 -0.18503764093E+03 -0.10346339154E+04  0.10605382683E+04  0.12509081252E+03 0.  0.
         23    2    1    2    0    0 -0.66237750771E+02  0.18503764093E+03 -0.76039869696E+03  0.78958180907E+03  0.81282757618E+02 0.  0.
          5    1    3    3  502    0  0.10017441140E+03 -0.15357854030E+03 -0.74766697609E+03  0.76983417713E+03  0.41800000000E+01 0. -1.
         -5    1    3    3    0  502 -0.33936660634E+02 -0.31459100630E+02 -0.28696693936E+03  0.29070409119E+03  0.41800000000E+01 0. -1.
        -11    1    4    4    0    0 -0.55124777419E+02  0.54666299164E+02 -0.36256722481E+03  0.37078583826E+03  0.00000000000E+00 0. -1.
         11    1    4    4    0    0 -0.11112973353E+02  0.13037134177E+03 -0.39783147216E+03  0.41879597081E+03  0.00000000000E+00 0.  1.
</event>
<event>
 8    1  0.6862919E-009  0.2506869E+03  0.7561462E-02  0.1112872E+00
          2   -1    0    0  501    0  0.00000000000E+00  0.00000000000E+00  0.40540936426E+03  0.40540936426E+03  0.00000000000E+00 0. -1.
         -2   -1    0    0    0  501 -0.00000000000E+00 -0.00000000000E+00 -0.16639181374E+03  0.16639181374E+03  0.00000000000E+00 0.  1.
         25    2    1    2    0    0  0.11391017600E+03  0.20627022500E+03  0.12073201115E+03  0.29282594808E+03  0.12509150025E+03 0.  0.
         23    2    1    2    0    0 -0.11391017600E+03 -0.20627022500E+03  0.11828553938E+03  0.27897522992E+03  0.91174427133E+02 0.  0.
          5    1    3    3  502    0  0.13826769337E+03  0.19367253909E+03  0.11570148558E+03  0.26463430162E+03  0.41800000000E+01 0. -1.
         -5    1    3    3    0  502 -0.24357517370E+02  0.12597685910E+02  0.50305255686E+01  0.28191646461E+02  0.41800000000E+01 0. -1.
        -11    1    4    4    0    0 -0.73978531924E+02 -0.13348771561E+03  0.25949463688E+02  0.15480687346E+03  0.00000000000E+00 0.  1.
         11    1    4    4    0    0 -0.39931644074E+02 -0.72782509392E+02  0.92336075688E+02  0.12416835646E+03  0.00000000000E+00 0. -1.
</event>
<event>
 8    1  0.6862919E-009  0.8227832E+02  0.7561462E-02  0.1322707E+00
          2   -1    0    0  501    0  0.00000000000E+00  0.00000000000E+00  0.18246909746E+03  0.18246909746E+03  0.00000000000E+00 0. -1.
         -2   -1    0    0    0  501 -0.00000000000E+00 -0.00000000000E+00 -0.73271184033E+02  0.73271184033E+02  0.00000000000E+00 0.  1.
         25    2    1    2    0    0  0.26172703750E+02  0.10245577013E+02  0.29426221031E+02  0.13154131874E+03  0.12508890351E+03 0.  0.
         23    2    1    2    0    0 -0.26172703750E+02 -0.10245577013E+02  0.79771692396E+02  0.12419896275E+03  0.90949860757E+02 0.  0.
          5    1    3    3  502    0 -0.23185411447E+02 -0.85354339670E+01  0.63695898634E+02  0.68447475043E+02  0.41800000000E+01 0. -1.
         -5    1    3    3    0  502  0.49358115197E+02  0.18781010980E+02 -0.34269677603E+02  0.63093843696E+02  0.41800000000E+01 0. -1.
        -11    1    4    4    0    0 -0.20096872165E+02  0.35275436413E+02  0.63711003942E+02  0.75546890791E+02  0.00000000000E+00 0.  1.
         11    1    4    4    0    0 -0.60758315854E+01 -0.45521013425E+02  0.16060688454E+02  0.48652071964E+02  0.00000000000E+00 0. -1.
</event>
<event>
 8    1  0.6862919E-009  0.1269431E+03  0.7561462E-02  0.1232063E+00
          1   -1    0    0  501    0  0.00000000000E+00  0.00000000000E+00  0.12227871697E+04  0.12227871697E+04  0.00000000000E+00 0. -1.
         -1   -1    0    0    0  501 -0.00000000000E+00 -0.00000000000E+00 -0.19817803281E+02  0.19817803281E+02  0.00000000000E+00 0.  1.
         25    2    1    2    0    0  0.71599253768E+02 -0.39725244286E+00  0.97551532189E+03  0.98610568521E+03  0.12509064000E+03 0.  0.
         23    2    1    2    0    0 -0.71599253768E+02  0.39725244286E+00  0.22745404450E+03  0.25649928774E+03  0.94498313753E+02 0.  0.
          5    1    3    3  502    0  0.31341478196E+01  0.54217791220E+02  0.29758121606E+03  0.30252511353E+03  0.41800000000E+01 0. -1.
         -5    1    3    3    0  502  0.68465105949E+02 -0.54615043663E+02  0.67793410583E+03  0.68358057168E+03  0.41800000000E+01 0. -1.
        -11    1    4    4    0    0 -0.38861416627E+02  0.43032751468E+02  0.74698267885E+02  0.94561401355E+02  0.00000000000E+00 0.  1.
         11    1    4    4    0    0 -0.32737837142E+02 -0.42635499025E+02  0.15275577661E+03  0.16193788638E+03  0.00000000000E+00 0. -1.
</event>
<event>
 8    1  0.6862919E-009  0.1047011E+03  0.7561462E-02  0.1270710E+00
         -4   -1    0    0    0  501 -0.00000000000E+00  0.00000000000E+00  0.45894583697E+02  0.45894583697E+02  0.00000000000E+00 0. -1.
          4   -1    0    0  501    0  0.00000000000E+00 -0.00000000000E+00 -0.30726313332E+03  0.30726313332E+03  0.00000000000E+00 0.  1.
         25    2    1    2    0    0  0.28790577119E+02  0.15739165354E+02 -0.19815023096E+03  0.23661630088E+03  0.12508853328E+03 0.  0.
         23    2    1    2    0    0 -0.28790577119E+02 -0.15739165354E+02 -0.63218318660E+02  0.11654141613E+03  0.92242762331E+02 0.  0.
          5    1    3    3  502    0 -0.32266176346E+02 -0.22582915479E+02 -0.13499994399E+03  0.14068955713E+03  0.41800000000E+01 0. -1.
         -5    1    3    3    0  502  0.61056753465E+02  0.38322080833E+02 -0.63150286963E+02  0.95926743751E+02  0.41800000000E+01 0. -1.
        -11    1    4    4    0    0 -0.38383495402E+02  0.31333582929E+02 -0.36769685422E+02  0.61701668571E+02  0.00000000000E+00 0.  1.
         11    1    4    4    0    0  0.95929182832E+01 -0.47072748283E+02 -0.26448633238E+02  0.54839747559E+02  0.00000000000E+00 0. -1.
</event>
<event>
 8    1  0.6862919E-009  0.1627627E+03  0.7561462E-02  0.1185613E+00
         -2   -1    0    0    0  501 -0.00000000000E+00  0.00000000000E+00  0.57001697499E+02  0.57001697499E+02  0.00000000000E+00 0.  1.
          2   -1    0    0  501    0  0.00000000000E+00 -0.00000000000E+00 -0.56528429020E+03  0.56528429020E+03  0.00000000000E+00 0. -1.
         25    2    1    2    0    0 -0.45826354758E+02  0.13238073765E+03 -0.23803563005E+03  0.30320434015E+03  0.12508875338E+03 0.  0.
         23    2    1    2    0    0  0.45826354758E+02 -0.13238073765E+03 -0.27024696265E+03  0.31908164755E+03  0.95681568183E+02 0.  0.
          5    1    3    3  502    0 -0.70419906327E+02  0.13976169319E+03 -0.22499636952E+03  0.27410423708E+03  0.41800000000E+01 0.  1.
         -5    1    3    3    0  502  0.24593551569E+02 -0.73809555397E+01 -0.13039260531E+02  0.29100103069E+02  0.41800000000E+01 0.  1.
        -11    1    4    4    0    0  0.19073613642E+02 -0.20843464264E+02 -0.31878450907E+01  0.28432641386E+02  0.00000000000E+00 0.  1.
         11    1    4    4    0    0  0.26752741116E+02 -0.11153727338E+03 -0.26705911756E+03  0.29064900616E+03  0.00000000000E+00 0. -1.
</event>
<event>
 8    1  0.6862919E-009  0.1150782E+03  0.7561462E-02  0.1251445E+00
          1   -1    0    0  501    0  0.00000000000E+00  0.00000000000E+00  0.48474506632E+03  0.48474506632E+03  0.00000000000E+00 0. -1.
         -1   -1    0    0    0  501 -0.00000000000E+00 -0.00000000000E+00 -0.29225432980E+02  0.29225432980E+02  0.00000000000E+00 0.  1.
         25    2    1    2    0    0  0.24122219221E+02  0.42589423062E+02  0.26300356827E+03  0.29531793787E+03  0.12508423997E+03 0.  0.
         23    2    1    2    0    0 -0.24122219221E+02 -0.42589423062E+02  0.19251606506E+03  0.21865256142E+03  0.91382530568E+02 0.  0.
          5    1    3    3  502    0  0.16011800569E+02  0.83278615444E+02  0.12467748700E+03  0.15084314274E+03  0.41800000000E+01 0.  1.
         -5    1    3    3    0  502  0.81104186523E+01 -0.40689192382E+02  0.13832608128E+03  0.14447479514E+03  0.41800000000E+01 0.  1.
        -11    1    4    4    0    0 -0.83604158582E+01 -0.70769371865E+02  0.12762684534E+03  0.14617391080E+03  0.00000000000E+00 0.  1.
         11    1    4    4    0    0 -0.15761803363E+02  0.28179948803E+02  0.64889219721E+02  0.72478650620E+02  0.00000000000E+00 0. -1.
</event>
<event>
 8    1  0.6862919E-009  0.1575953E+03  0.7561462E-02  0.1191439E+00
         -2   -1    0    0    0  501 -0.00000000000E+00  0.00000000000E+00  0.90902588991E+02  0.90902588991E+02  0.00000000000E+00 0.  1.
          2   -1    0    0  501    0  0.00000000000E+00 -0.00000000000E+00 -0.34331707094E+03  0.34331707094E+03  0.00000000000E+00 0. -1.
         25    2    1    2    0    0 -0.61121549150E+02 -0.11820131253E+03 -0.82038024752E+02  0.20021340020E+03  0.12509106307E+03 0.  0.
         23    2    1    2    0    0  0.61121549150E+02  0.11820131253E+03 -0.17037645720E+03  0.23400625974E+03  0.89573424475E+02 0.  0.
          5    1    3    3  502    0  0.58707260144E+01  0.23650928056E+02 -0.18622303189E+02  0.30953099973E+02  0.41800000000E+01 0.  1.
         -5    1    3    3    0  502 -0.66992275164E+02 -0.14185224059E+03 -0.63415721563E+02  0.16926030023E+03  0.41800000000E+01 0.  1.
        -11    1    4    4    0    0  0.42051571033E+02  0.91729271436E+02 -0.17403768974E+03  0.20117582189E+03  0.00000000000E+00 0. -1.
         11    1    4    4    0    0  0.19069978116E+02  0.26472041097E+02  0.36612325391E+01  0.32830437842E+02  0.00000000000E+00 0.  1.
</event>
<event>
 8    1  0.6862919E-009  0.6305750E+02  0.7561462E-02  0.1385431E+00
          2   -1    0    0  501    0  0.00000000000E+00  0.00000000000E+00  0.81754533849E+03  0.81754533849E+03  0.00000000000E+00 0. -1.
         -2   -1    0    0    0  501 -0.00000000000E+00 -0.00000000000E+00 -0.24446930978E+02  0.24446930978E+02  0.00000000000E+00 0.  1.
         25    2    1    2    0    0  0.20266915648E+02  0.40966150395E+02  0.66063373139E+03  0.67392398169E+03  0.12509049806E+03 0.  0.
         23    2    1    2    0    0 -0.20266915648E+02 -0.40966150395E+02  0.13246467613E+03  0.16806828778E+03  0.92795935187E+02 0.  0.
          5    1    3    3  502    0 -0.12929748408E+02  0.46303544655E+01  0.57414444225E+03  0.57432389080E+03  0.41800000000E+01 0. -1.
         -5    1    3    3    0  502  0.33196664056E+02  0.36335795929E+02  0.86489289135E+02  0.99600090890E+02  0.41800000000E+01 0. -1.
        -11    1    4    4    0    0  0.18191123231E+01 -0.40225441467E+02  0.72444057251E+01  0.40913038572E+02  0.00000000000E+00 0.  1.
         11    1    4    4    0    0 -0.22086027971E+02 -0.74070892764E+00  0.12522027040E+03  0.12715524921E+03  0.00000000000E+00 0. -1.
</event>
<event>
 8    1  0.6862919E-009  0.1195777E+03  0.7561462E-02  0.1243795E+00
         -1   -1    0    0    0  501 -0.00000000000E+00  0.00000000000E+00  0.84214397648E+02  0.84214397648E+02  0.00000000000E+00 0.  1.
          1   -1    0    0  501    0  0.00000000000E+00 -0.00000000000E+00 -0.19616747872E+03  0.19616747872E+03  0.00000000000E+00 0. -1.
         25    2    1    2    0    0 -0.31850047220E+02 -0.63917916445E+02 -0.61189755110E+02  0.15649833991E+03  0.12509044213E+03 0.  0.
         23    2    1    2    0    0  0.31850047220E+02  0.63917916445E+02 -0.50763325963E+02  0.12388353646E+03  0.87580190645E+02 0.  0.
          5    1    3    3  502    0 -0.44464769054E+02  0.24558162565E+02 -0.58601218601E+01  0.51303337745E+02  0.41800000000E+01 0. -1.
         -5    1    3    3    0  502  0.12614721834E+02 -0.88476079010E+02 -0.55329633250E+02  0.10519500216E+03  0.41800000000E+01 0. -1.
        -11    1    4    4    0    0 -0.20876180511E+02  0.94623239994E+01 -0.41648112044E+02  0.47538570919E+02  0.00000000000E+00 0. -1.
         11    1    4    4    0    0  0.52726227731E+02  0.54455592446E+02 -0.91152139193E+01  0.76344965546E+02  0.00000000000E+00 0.  1.
</event>
<event>
 8    1  0.6862919E-009  0.1252607E+03  0.7561462E-02  0.1234662E+00
         -1   -1    0    0    0  501 -0.00000000000E+00  0.00000000000E+00  0.19528067129E+02  0.19528067129E+02  0.00000000000E+00 0.  1.
          1   -1    0    0  501    0  0.00000000000E+00 -0.00000000000E+00 -0.91177196183E+03  0.91177196183E+03  0.00000000000E+00 0. -1.
         25    2    1    2    0    0 -0.33776844158E+02 -0.58251920668E+02 -0.46070030285E+03  0.48210616421E+03  0.12508966008E+03 0.  0.
         23    2    1    2    0    0  0.33776844158E+02  0.58251920668E+02 -0.43154359185E+03  0.44919386475E+03  0.10493376481E+03 0.  0.
          5    1    3    3  502    0 -0.62197464220E+02 -0.75360249594E+02 -0.24448944877E+03  0.26332537807E+03  0.41800000000E+01 0. -1.
         -5    1    3    3    0  502  0.28420620062E+02  0.17108328926E+02 -0.21621085407E+03  0.21878078613E+03  0.41800000000E+01 0. -1.
        -11    1    4    4    0    0 -0.34613270690E+02  0.27919371333E+02 -0.10213687543E+03  0.11139798529E+03  0.00000000000E+00 0.  1.
         11    1    4    4    0    0  0.68390114848E+02  0.30332549335E+02 -0.32940671642E+03  0.33779587946E+03  0.00000000000E+00 0. -1.
</event>
<event>
 8    1  0.6862919E-009  0.3694080E+03  0.7561462E-02  0.1054920E+00
         -1   -1    0    0    0  501 -0.00000000000E+00  0.00000000000E+00  0.15429800201E+03  0.15429800201E+03  0.00000000000E+00 0.  1.
          1   -1    0    0  501    0  0.00000000000E+00 -0.00000000000E+00 -0.10157647665E+04  0.10157647665E+04  0.00000000000E+00 0. -1.
         25    2    1    2    0    0 -0.93602110619E+02  0.35476065508E+03 -0.58404622912E+03  0.70098177582E+03  0.12509586237E+03 0.  0.
         23    2    1    2    0    0  0.93602110619E+02 -0.35476065508E+03 -0.27742053542E+03  0.46908099273E+03  0.91969270750E+02 0.  0.
          5    1    3    3  502    0 -0.47359822213E+02  0.27637264434E+03 -0.51595623981E+03  0.58724194767E+03  0.41800000000E+01 0.  1.
         -5    1    3    3    0  502 -0.46242288406E+02  0.78388010746E+02 -0.68089989308E+02  0.11373982816E+03  0.41800000000E+01 0.  1.
        -11    1    4    4    0    0  0.58338550089E+02 -0.18865857021E+03 -0.92622852602E+02  0.21811564677E+03  0.00000000000E+00 0.  1.
         11    1    4    4    0    0  0.35263560531E+02 -0.16610208487E+03 -0.18479768281E+03  0.25096534596E+03  0.00000000000E+00 0. -1.
</event>
<event>
 8    1  0.6862919E-009  0.1386910E+03  0.7561462E-02  0.1215101E+00
         -1   -1    0    0    0  501 -0.00000000000E+00  0.00000000000E+00  0.18660236768E+02  0.18660236768E+02  0.00000000000E+00 0.  1.
          1   -1    0    0  501    0  0.00000000000E+00 -0.00000000000E+00 -0.12296625093E+04  0.12296625093E+04  0.00000000000E+00 0. -1.
         25    2    1    2    0    0  0.73471139377E+02 -0.56677790304E+02 -0.86173426559E+03  0.87569703818E+03  0.12509587504E+03 0.  0.
         23    2    1    2    0    0 -0.73471139377E+02  0.56677790304E+02 -0.34926800696E+03  0.37262570790E+03  0.90837202018E+02 0.  0.
          5    1    3    3  502    0  0.76523772635E+02  0.13969384631E+02 -0.57933616267E+03  0.58455016317E+03  0.41800000000E+01 0.  1.
         -5    1    3    3    0  502 -0.30526332579E+01 -0.70647174935E+02 -0.28239810293E+03  0.29114687502E+03  0.41800000000E+01 0.  1.
        -11    1    4    4    0    0  0.38202578687E+00  0.54765592045E+02 -0.12409252699E+03  0.13564059595E+03  0.00000000000E+00 0. -1.
         11    1    4    4    0    0 -0.73853165164E+02  0.19121982596E+01 -0.22517547997E+03  0.23698511195E+03  0.00000000000E+00 0.  1.
</event>
<event>
 8    1  0.6862919E-009  0.2235443E+03  0.7561462E-02  0.1131268E+00
          1   -1    0    0  501    0  0.00000000000E+00  0.00000000000E+00  0.83486245574E+03  0.83486245574E+03  0.00000000000E+00 0. -1.
         -1   -1    0    0    0  501 -0.00000000000E+00 -0.00000000000E+00 -0.65219073266E+02  0.65219073266E+02  0.00000000000E+00 0.  1.
         25    2    1    2    0    0 -0.80353491433E+02 -0.18504195772E+03  0.32221574792E+03  0.40020519207E+03  0.12507596830E+03 0.  0.
         23    2    1    2    0    0  0.80353491433E+02  0.18504195772E+03  0.44742763455E+03  0.49987633694E+03  0.94803240286E+02 0.  0.
          5    1    3    3  502    0 -0.29445800013E+02  0.10162379295E+02  0.73476852801E+02  0.79916515120E+02  0.41800000000E+01 0.  1.
         -5    1    3    3    0  502 -0.50907691419E+02 -0.19520433701E+03  0.24873889512E+03  0.32028867695E+03  0.41800000000E+01 0.  1.
        -11    1    4    4    0    0  0.59976494214E+00  0.89181849994E+02  0.25898680099E+03  0.27391225817E+03  0.00000000000E+00 0. -1.
         11    1    4    4    0    0  0.79753726491E+02  0.95860107724E+02  0.18844083356E+03  0.22596407877E+03  0.00000000000E+00 0.  1.
</event>
<event>
 8    1  0.6862919E-009  0.1149691E+03  0.7561462E-02  0.1251635E+00
          2   -1    0    0  501    0  0.00000000000E+00  0.00000000000E+00  0.21394940083E+04  0.21394940083E+04  0.00000000000E+00 0. -1.
         -2   -1    0    0    0  501 -0.00000000000E+00 -0.00000000000E+00 -0.10685952142E+02  0.10685952142E+02  0.00000000000E+00 0.  1.
         25    2    1    2    0    0 -0.74380004113E+02  0.26088002216E+01  0.16652408888E+04  0.16715885901E+04  0.12506800559E+03 0.  0.
         23    2    1    2    0    0  0.74380004113E+02 -0.26088002216E+01  0.46356716734E+03  0.47859137031E+03  0.92822358561E+02 0.  0.
          5    1    3    3  502    0 -0.81593072102E+02  0.29015365139E+02  0.62561240594E+03  0.63159138349E+03  0.41800000000E+01 0.  1.
         -5    1    3    3    0  502  0.72130679887E+01 -0.26406564917E+02  0.10396284829E+04  0.10399972066E+04  0.41800000000E+01 0.  1.
        -11    1    4    4    0    0  0.76333504752E+02  0.30631288779E+02  0.27242608420E+03  0.28457169773E+03  0.00000000000E+00 0.  1.
         11    1    4    4    0    0 -0.19535006383E+01 -0.33240089001E+02  0.19114108315E+03  0.19401967258E+03  0.00000000000E+00 0. -1.
</event>
<event>
 8    1  0.6862919E-009  0.1082743E+03  0.7561462E-02  0.1263799E+00
         -2   -1    0    0    0  501 -0.00000000000E+00  0.00000000000E+00  0.32668439668E+03  0.32668439668E+03  0.00000000000E+00 0.  1.
          2   -1    0    0  501    0  0.00000000000E+00 -0.00000000000E+00 -0.40733455294E+02  0.40733455294E+02  0.00000000000E+00 0. -1.
         25    2    1    2    0    0 -0.11713092678E+02 -0.41714402479E+02  0.15494073243E+03  0.20379118067E+03  0.12508767660E+03 0.  0.
         23    2    1    2    0    0  0.11713092678E+02  0.41714402479E+02  0.13101020896E+03  0.16362667131E+03  0.87935913015E+02 0.  0.
          5    1    3    3  502    0  0.38764500817E+02 -0.58277389878E+02  0.50075396755E+02  0.86162395828E+02  0.41800000000E+01 0.  1.
         -5    1    3    3    0  502 -0.50477593495E+02  0.16562987400E+02  0.10486533567E+03  0.11762878484E+03  0.41800000000E+01 0.  1.
        -11    1    4    4    0    0 -0.25486078698E+02 -0.11705715872E+02  0.65604200891E+02  0.71347565943E+02  0.00000000000E+00 0.  1.
         11    1    4    4    0    0  0.37199171375E+02  0.53420118350E+02  0.65406008064E+02  0.92279105362E+02  0.00000000000E+00 0. -1.
</event>
<event>
 8    1  0.6862919E-009  0.1039489E+03  0.7561462E-02  0.1272204E+00
         -1   -1    0    0    0  501 -0.00000000000E+00  0.00000000000E+00  0.38812924752E+02  0.38812924752E+02  0.00000000000E+00 0.  1.
          1   -1    0    0  501    0  0.00000000000E+00 -0.00000000000E+00 -0.31595650551E+03  0.31595650551E+03  0.00000000000E+00 0. -1.
         25    2    1    2    0    0 -0.50353617928E+01  0.80260757114E+00 -0.20513563546E+03  0.24032145408E+03  0.12509106006E+03 0.  0.
         23    2    1    2    0    0  0.50353617928E+01 -0.80260757114E+00 -0.72007945298E+02  0.11444797618E+03  0.88809886945E+02 0.  0.
          5    1    3    3  502    0  0.48451562701E+01 -0.59199090021E+02 -0.68851228964E+02  0.91027314189E+02  0.41800000000E+01 0.  1.
         -5    1    3    3    0  502 -0.98805180630E+01  0.60001697592E+02 -0.13628440650E+03  0.14929413989E+03  0.41800000000E+01 0.  1.
        -11    1    4    4    0    0  0.11799144694E+02  0.42226056359E+02 -0.25463366521E+02  0.50701505754E+02  0.00000000000E+00 0.  1.
         11    1    4    4    0    0 -0.67637829008E+01 -0.43028663930E+02 -0.46544578776E+02  0.63746470430E+02  0.00000000000E+00 0. -1.
</event>
<event>
 8    1  0.6862919E-009  0.1414085E+03  0.7561462E-02  0.1211446E+00
          1   -1    0    0  501    0  0.00000000000E+00  0.00000000000E+00  0.53039482773E+03  0.53039482773E+03  0.00000000000E+00 0. -1.
         -1   -1    0    0    0  501 -0.00000000000E+00 -0.00000000000E+00 -0.66618482446E+02  0.66618482446E+02  0.00000000000E+00 0.  1.
         25    2    1    2    0    0  0.11254995626E+03 -0.70618381442E+02  0.36474060266E+03  0.40784104519E+03  0.12507662637E+03 0.  0.
         23    2    1    2    0    0 -0.11254995626E+03  0.70618381442E+02  0.99035742627E+02  0.18917226499E+03  0.91233870192E+02 0.  0.
          5    1    3    3  502    0  0.94320431765E+02 -0.23989670665E+02  0.10476674632E+03  0.14305730209E+03  0.41800000000E+01 0. -1.
         -5    1    3    3    0  502  0.18229524497E+02 -0.46628710777E+02  0.25997385634E+03  0.26478374310E+03  0.41800000000E+01 0. -1.
        -11    1    4    4    0    0 -0.48022930267E+02  0.44762219910E+02  0.10003195946E+03  0.11965053730E+03  0.00000000000E+00 0. -1.
         11    1    4    4    0    0 -0.64527025995E+02  0.25856161532E+02 -0.99621682939E+00  0.69521727689E+02  0.00000000000E+00 0.  1.
</event>
<event>
 8    1  0.6862919E-009  0.8389984E+02  0.7561462E-02  0.1318335E+00
          1   -1    0    0  501    0  0.00000000000E+00  0.00000000000E+00  0.58448982744E+03  0.58448982744E+03  0.00000000000E+00 0. -1.
         -1   -1    0    0    0  501 -0.00000000000E+00 -0.00000000000E+00 -0.32288321557E+02  0.32288321557E+02  0.00000000000E+00 0.  1.
         25    2    1    2    0    0  0.10245461537E+02 -0.50229417303E+02  0.45019533285E+03  0.47005431461E+03  0.12508899679E+03 0.  0.
         23    2    1    2    0    0 -0.10245461537E+02  0.50229417303E+02  0.10200617304E+03  0.14672383439E+03  0.92166481960E+02 0.  0.
          5    1    3    3  502    0  0.25077581450E+01  0.76093801298E+01 -0.55264134349E+01  0.10592693818E+02  0.41800000000E+01 0.  1.
         -5    1    3    3    0  502  0.77377033916E+01 -0.57838797432E+02  0.45572174628E+03  0.45946162079E+03  0.41800000000E+01 0.  1.
        -11    1    4    4    0    0 -0.45727582055E+02  0.10358127321E+02  0.25302254876E+02  0.53277637561E+02  0.00000000000E+00 0.  1.
         11    1    4    4    0    0  0.35482120519E+02  0.39871289981E+02  0.76703918162E+02  0.93446196833E+02  0.00000000000E+00 0. -1.
</event>
<event>
 8    1  0.6862919E-009  0.1188283E+03  0.7561462E-02  0.1245043E+00
         -1   -1    0    0    0  501 -0.00000000000E+00  0.00000000000E+00  0.75653610497E+02  0.75653610497E+02  0.00000000000E+00 0.  1.
          1   -1    0    0  501    0  0.00000000000E+00 -0.00000000000E+00 -0.20722642306E+03  0.20722642306E+03  0.00000000000E+00 0. -1.
         25    2    1    2    0    0  0.57471753355E+02  0.13365328525E+01 -0.93317920652E+02  0.16631337158E+03  0.12508842672E+03 0.  0.
         23    2    1    2    0    0 -0.57471753355E+02 -0.13365328525E+01 -0.38254891906E+02  0.11656666197E+03  0.93912518730E+02 0.  0.
          5    1    3    3  502    0 -0.28020355939E+02  0.32310336940E+02 -0.48674534331E+02  0.64929045214E+02  0.41800000000E+01 0.  1.
         -5    1    3    3    0  502  0.85492109294E+02 -0.30973804088E+02 -0.44643386321E+02  0.10138432637E+03  0.41800000000E+01 0.  1.
        -11    1    4    4    0    0 -0.67072307169E+02 -0.29966318243E+02 -0.81261017751E+01  0.73910135624E+02  0.00000000000E+00 0.  1.
         11    1    4    4    0    0  0.96005538140E+01  0.28629785390E+02 -0.30128790131E+02  0.42656526345E+02  0.00000000000E+00 0. -1.
</event>
<event>
 8    1  0.6862919E-009  0.9433168E+02  0.7561462E-02  0.1292688E+00
         -1   -1    0    0    0  501 -0.00000000000E+00  0.00000000000E+00  0.17760318964E+03  0.17760318964E+03  0.00000000000E+00 0.  1.
          1   -1    0    0  501    0  0.00000000000E+00 -0.00000000000E+00 -0.90610777631E+02  0.90610777631E+02  0.00000000000E+00 0. -1.
         25    2    1    2    0    0  0.25356022798E+02  0.22469382091E+02  0.10586004944E+03  0.16733833949E+03  0.12509184135E+03 0.  0.
         23    2    1    2    0    0 -0.25356022798E+02 -0.22469382091E+02 -0.18867637432E+02  0.10087562778E+03  0.93124129597E+02 0.  0.
          5    1    3    3  502    0 -0.50064708455E+02  0.78714085801E+01  0.28767418059E+02  0.58424916324E+02  0.41800000000E+01 0. -1.
         -5    1    3    3    0  502  0.75420731253E+02  0.14597973511E+02  0.77092631379E+02  0.10891342317E+03  0.41800000000E+01 0. -1.
        -11    1    4    4    0    0 -0.22027975001E+00  0.15412943876E+02 -0.45600588773E+02  0.48135444929E+02  0.00000000000E+00 0. -1.
         11    1    4    4    0    0 -0.25135743048E+02 -0.37882325967E+02  0.26732951341E+02  0.52740182846E+02  0.00000000000E+00 0.  1.
</event>
<event>
 8    1  0.6862919E-009  0.2303478E+03  0.7561462E-02  0.1126395E+00
         -1   -1    0    0    0  501 -0.00000000000E+00  0.00000000000E+00  0.30570566592E+03  0.30570566592E+03  0.00000000000E+00 0.  1.
          1   -1    0    0  501    0  0.00000000000E+00 -0.00000000000E+00 -0.26825201726E+03  0.26825201726E+03  0.00000000000E+00 0. -1.
         25    2    1    2    0    0  0.14659074588E+03 -0.16933984801E+03 -0.12264590218E+03  0.28434834944E+03  0.12508851109E+03 0.  0.
         23    2    1    2    0    0 -0.14659074588E+03  0.16933984801E+03  0.16009955084E+03  0.28960933374E+03  0.89871403161E+02 0.  0.
          5    1    3    3  502    0  0.53266090210E+02 -0.10882274478E+03 -0.12347087583E+03  0.17303813374E+03  0.41800000000E+01 0. -1.
         -5    1    3    3    0  502  0.93324655673E+02 -0.60517103228E+02  0.82497364927E+00  0.11131021571E+03  0.41800000000E+01 0. -1.
        -11    1    4    4    0    0 -0.39329541883E+02  0.77669623838E+02  0.10909896380E+03  0.13957781784E+03  0.00000000000E+00 0.  1.
         11    1    4    4    0    0 -0.10726120400E+03  0.91670224173E+02  0.51000587043E+02  0.15003151590E+03  0.00000000000E+00 0. -1.
</event>
<event>
 8    1  0.6862919E-009  0.8223378E+02  0.7561462E-02  0.1322829E+00
          3   -1    0    0  501    0  0.00000000000E+00  0.00000000000E+00  0.46440584412E+02  0.46440584412E+02  0.00000000000E+00 0. -1.
         -3   -1    0    0    0  501 -0.00000000000E+00 -0.00000000000E+00 -0.34122333963E+03  0.34122333963E+03  0.00000000000E+00 0.  1.
         25    2    1    2    0    0 -0.73841201900E+00  0.15762922370E+01 -0.65046551150E+02  0.14100648815E+03  0.12509494768E+03 0.  0.
         23    2    1    2    0    0  0.73841201900E+00 -0.15762922370E+01 -0.22973620407E+03  0.24665743589E+03  0.89767128007E+02 0.  0.
          5    1    3    3  502    0  0.42579434646E+02  0.13492508795E+02 -0.81457427056E+02  0.92993767914E+02  0.41800000000E+01 0. -1.
         -5    1    3    3    0  502 -0.43317846665E+02 -0.11916216558E+02  0.16410875905E+02  0.48012720239E+02  0.41800000000E+01 0. -1.
        -11    1    4    4    0    0  0.14390691252E+02  0.33708330377E+02 -0.44758978616E+02  0.57850753653E+02  0.00000000000E+00 0. -1.
         11    1    4    4    0    0 -0.13652279233E+02 -0.35284622614E+02 -0.18497722545E+03  0.18880668224E+03  0.00000000000E+00 0.  1.
</event>
<event>
 8    1  0.6862919E-009  0.2187984E+03  0.7561462E-02  0.1134782E+00
         -3   -1    0    0    0  501 -0.00000000000E+00  0.00000000000E+00  0.60633823092E+02  0.60633823092E+02  0.00000000000E+00 0.  1.
          3   -1    0    0  501    0  0.00000000000E+00 -0.00000000000E+00 -0.13677119204E+04  0.13677119204E+04  0.00000000000E+00 0. -1.
         25    2    1    2    0    0  0.12006581945E+03 -0.17082677662E+03 -0.10763614635E+04  0.11035394833E+04  0.12509117652E+03 0.  0.
         23    2    1    2    0    0 -0.12006581945E+03  0.17082677662E+03 -0.23071663379E+03  0.32480626020E+03  0.93120099574E+02 0.  0.
          5    1    3    3  502    0  0.95705678658E+02 -0.14109282835E+03 -0.10258451365E+04  0.10399242663E+04  0.41800000000E+01 0. -1.
         -5    1    3    3    0  502  0.24360140793E+02 -0.29733948268E+02 -0.50516326991E+02  0.63615216982E+02  0.41800000000E+01 0. -1.
        -11    1    4    4    0    0 -0.74228054100E+02  0.29601689503E+02 -0.73797600871E+02  0.10877568631E+03  0.00000000000E+00 0.  1.
         11    1    4    4    0    0 -0.45837765350E+02  0.14122508711E+03 -0.15691903292E+03  0.21603057389E+03  0.00000000000E+00 0. -1.
</event>
<event>
 8    1  0.6862919E-009  0.1455707E+03  0.7561462E-02  0.1206024E+00
         -1   -1    0    0    0  501 -0.00000000000E+00  0.00000000000E+00  0.70668423190E+02  0.70668423190E+02  0.00000000000E+00 0.  1.
          1   -1    0    0  501    0  0.00000000000E+00 -0.00000000000E+00 -0.36262084710E+03  0.36262084710E+03  0.00000000000E+00 0. -1.
         25    2    1    2    0    0  0.76969385288E+02 -0.84896691240E+02 -0.12082675785E+03  0.20826792910E+03  0.12507873690E+03 0.  0.
         23    2    1    2    0    0 -0.76969385288E+02  0.84896691240E+02 -0.17112566605E+03  0.22502134118E+03  0.90658016474E+02 0.  0.
          5    1    3    3  502    0  0.68552883993E+02 -0.10581944382E+03 -0.13214268243E+03  0.18269212768E+03  0.41800000000E+01 0. -1.
         -5    1    3    3    0  502  0.84165012951E+01  0.20922752581E+02  0.11315924578E+02  0.25575801428E+02  0.41800000000E+01 0. -1.
        -11    1    4    4    0    0 -0.70176160116E+02  0.14918324307E+02 -0.11273931765E+03  0.13363159654E+03  0.00000000000E+00 0. -1.
         11    1    4    4    0    0 -0.67932251713E+01  0.69978366933E+02 -0.58386348403E+02  0.91389744647E+02  0.00000000000E+00 0.  1.
</event>
<event>
 7    1  0.6862919E-009  0.1879629E+03  0.7561462E-02  0.1160312E+00
          2   -1    0    0  501    0  0.00000000000E+00  0.00000000000E+00  0.37349535599E+03  0.37349535599E+03  0.00000000000E+00 0.  1.
         -2   -1    0    0    0  501 -0.00000000000E+00 -0.00000000000E+00 -0.12310296891E+03  0.12310296891E+03  0.00000000000E+00 0. -1.
         23    2    1    2    0    0 -0.16187508153E+03  0.82705909168E+02  0.15733563322E+03  0.25716922570E+03  0.91311005532E+02 0.  0.
          5    1    1    2  502    0  0.16231469930E+03 -0.75148907485E+02  0.11713228203E+03  0.21384775846E+03  0.41800000000E+01 0.  1.
         -5    1    1    2    0  502 -0.43961776887E+00 -0.75570016829E+01 -0.24075528161E+02  0.25581340748E+02  0.41800000000E+01 0.  1.
        -11    1    3    3    0    0 -0.95549391973E+02  0.21124934790E+02  0.12982507132E+03  0.16257459309E+03  0.00000000000E+00 0.  1.
         11    1    3    3    0    0 -0.66325689560E+02  0.61580974377E+02  0.27510561899E+02  0.94594632601E+02  0.00000000000E+00 0. -1.
</event>
<event>
 8    1  0.6862919E-009  0.1299368E+03  0.7561462E-02  0.1227550E+00
          1   -1    0    0  501    0  0.00000000000E+00  0.00000000000E+00  0.13702808075E+04  0.13702808075E+04  0.00000000000E+00 0. -1.
         -1   -1    0    0    0  501 -0.00000000000E+00 -0.00000000000E+00 -0.18815038725E+02  0.18815038725E+02  0.00000000000E+00 0.  1.
         25    2    1    2    0    0 -0.30852718675E+02 -0.91377675505E+02  0.10257418227E+04  0.10378320966E+04  0.12508958440E+03 0.  0.
         23    2    1    2    0    0  0.30852718675E+02  0.91377675505E+02  0.32572394609E+03  0.35126374961E+03  0.89377642081E+02 0.  0.
          5    1    3    3  502    0  0.18186086435E+02 -0.73851233434E+02  0.87469281887E+03  0.87800326777E+03  0.41800000000E+01 0.  1.
         -5    1    3    3    0  502 -0.49038805110E+02 -0.17526442071E+02  0.15104900381E+03  0.15982882885E+03  0.41800000000E+01 0.  1.
        -11    1    4    4    0    0  0.18082232311E+02  0.10855619919E+03  0.26964499538E+03  0.29123845736E+03  0.00000000000E+00 0.  1.
         11    1    4    4    0    0  0.12770486364E+02 -0.17178523684E+02  0.56078950704E+02  0.60025292253E+02  0.00000000000E+00 0. -1.
</event>
<event>
 7    1  0.6862919E-009  0.1204852E+03  0.7561462E-02  0.1242299E+00
         -2   -1    0    0    0  501 -0.00000000000E+00  0.00000000000E+00  0.23307607213E+03  0.23307607213E+03  0.00000000000E+00 0.  1.
          2   -1    0    0  501    0  0.00000000000E+00 -0.00000000000E+00 -0.65522315059E+02  0.65522315059E+02  0.00000000000E+00 0. -1.
         25    2    1    2    0    0 -0.70333623726E+02 -0.53306021480E+02  0.11072874312E+03  0.18893523441E+03  0.12508923893E+03 0.  0.
          5    1    3    3  502    0 -0.85279677957E+01  0.39347427069E+02  0.40153108896E+02  0.57014829699E+02  0.41800000000E+01 0. -1.
         -5    1    3    3    0  502 -0.61805655930E+02 -0.92653448549E+02  0.70575634225E+02  0.13192040471E+03  0.41800000000E+01 0. -1.
        -11    1    1    2    0    0  0.23660121139E+02  0.11192203461E+02  0.33721530853E+02  0.42687332941E+02  0.00000000000E+00 0. -1.
         11    1    1    2    0    0  0.46673502587E+02  0.42113818019E+02  0.23103483102E+02  0.66975819841E+02  0.00000000000E+00 0.  1.
</event>
